Membrane in water
40167
    1TCq1    O1    1   0.968   0.229  10.849  0.5893 -0.1973 -0.3636
    1TCq1    C1    2   0.922   0.130  10.765  0.4233  1.0674 -0.4512
    1TCq1    O2    3   0.807   0.125  10.720 -0.3745  0.4390  0.0479
    1TCq1    C2    4   0.970   0.004  10.814  0.7499  0.7521  0.8310
    1TCq1    C3    5   1.095   4.694  10.786 -0.2151  0.3193  0.1268
    1TCq1    C4    6   1.138   4.577  10.837  0.1533  0.6243 -0.1824
    1TCq1    C5    7   1.058   4.498  10.910  0.9622  0.1645  0.1511
    1TCq1    C6    8   0.925   4.526  10.917 -0.6581 -0.5990 -0.2078
    1TCq1    C7    9   0.879   4.645  10.876  0.2034 -0.3509  0.4687
    1TCq1    C8   10   0.843   4.436  11.000  0.1214  0.0443 -0.0694
    1TCq1    O4   11   0.776   4.484  11.094 -0.4610 -0.3594  0.4482
    1TCq1    C9   12   1.276   4.534  10.832 -0.0790 -0.5111 -0.2157
    1TCq1    O5   13   1.316   4.452  10.923  0.5977  0.5795 -0.0678
    1TCq1    O6   14   1.355   4.601  10.757 -1.2229  0.1626 -0.0182
    1TCq1    H1   15   1.043   0.199  10.905  1.2530 -2.2309 -2.3262
    1TCq1    H2   16   1.164   0.030  10.728 -2.5039  2.0393 -0.7855
    1TCq1    H3   17   1.094   4.401  10.943  0.7211  0.1852  0.4765
    1TCq1    H4   18   0.773   4.668  10.885  0.1505 -0.6072  0.5171
    2MPD2     C   19   0.674   3.969  11.103  0.1821  0.8544 -0.8633
    2MPD2    C1   20   0.682   4.081  11.182 -0.8039 -0.1373 -0.7693
    2MPD2    C2   21   0.728   4.196  11.125  0.0746  0.3171 -0.0928
    2MPD2    C3   22   0.769   4.203  10.997 -0.7430 -0.0270 -0.4871
    2MPD2    C4   23   0.760   4.086  10.923  0.2648 -0.2482 -0.4553
    2MPD2    C5   24   0.712   3.971  10.975 -0.7799  0.3571 -0.0616
    2MPD2     H   25   0.744   4.289  11.178 -1.0263 -0.2537  1.2540
    2MPD2    H1   26   0.804   4.074  10.825 -0.9950 -0.7430 -0.9600
    2MPD2    H2   27   0.625   3.881  11.144 -0.5337  1.2858 -0.8004
    2MPD2    H3   28   0.702   3.884  10.911  0.3532  0.9073 -0.9926
    2MPD2     N   29   0.834   4.311  10.942  0.2830 -0.4070  0.1954
    2MPD2    H5   30   0.869   4.300  10.848  2.3004  0.0507  0.8780
    2MPD2    N1   31   0.629   4.092  11.311 -0.2264 -0.2364 -0.2002
    2MPD2    H7   32   0.614   4.183  11.355 -0.7010 -1.2720  1.7882
    3TCq1    O1   33   0.143   2.422  10.575  0.1650  0.2354  0.3401
    3TCq1    C1   34   0.134   2.337  10.471  0.2028  0.4215  0.3432
    3TCq1    O2   35   0.203   2.343  10.372  0.4283  0.7763  0.6622
    3TCq1    C2   36   0.110   2.213  10.537 -0.1919  0.1416 -0.1883
    3TCq1    C3   37   0.004   2.196  10.621  0.0774  0.3122 -0.2329
    3TCq1    C4   38   4.720   2.078  10.696 -0.2636 -0.1719  0.0661
    3TCq1    C5   39   0.087   1.976  10.675  0.2954  0.1665  0.0644
    3TCq1    C6   40   0.192   1.998  10.588 -0.5654  0.4008  0.5639
    3TCq1    C7   41   0.199   2.114  10.513 -0.1724  0.3428  0.0503
    3TCq1    C8   42   0.281   1.890  10.541 -0.1732 -0.4556 -0.0250
    3TCq1    O4   43   0.345   1.900  10.438 -0.3756  0.3668 -0.7262
    3TCq1    C9   44   4.603   2.052  10.775  0.5071 -0.8180 -0.3180
    3TCq1    O5   45   4.526   2.147  10.778 -0.5119  0.1366 -0.0216
    3TCq1    O6   46   4.586   1.933  10.814  0.0715  0.4650  0.7339
    3TCq1    H1   47   0.111   2.370  10.651 -1.9248  0.1262 -0.6176
    3TCq1    H2   48   4.650   2.270  10.617  0.0959  0.4590  1.9989
    3TCq1    H3   49   0.070   1.890  10.739 -0.9722  2.0340  2.2594
    3TCq1    H4   50   0.279   2.127  10.442 -1.1485 -0.1099 -1.1321
    4MPD2     C   51   0.353   1.378  10.529 -0.7531 -0.0933  0.0642
    4MPD2    C1   52   0.278   1.404  10.634 -0.5293  0.3672 -0.2644
    4MPD2    C2   53   0.245   1.537  10.654  0.6654 -0.5849 -0.3955
    4MPD2    C3   54   0.292   1.641  10.576  0.1330  0.1855 -0.7854
    4MPD2    C4   55   0.373   1.615  10.471 -0.2043 -0.2759 -0.5004
    4MPD2    C5   56   0.391   1.477  10.444  0.3508 -0.3127 -0.1620
    4MPD2     H   57   0.189   1.563  10.743  1.3763  1.1172 -0.4416
    4MPD2    H1   58   0.402   1.687  10.395  4.4619  0.6623  2.1469
    4MPD2    H2   59   0.395   1.280  10.509 -0.5381 -0.0917  0.5181
    4MPD2    H3   60   0.463   1.460  10.365 -0.4163 -0.7481 -0.7740
    4MPD2     N   61   0.256   1.776  10.608  0.2002 -0.0752  0.7532
    4MPD2    H5   62   0.184   1.781  10.679  1.9987 -1.2931  2.6942
    4MPD2    N1   63   0.239   1.304  10.724  0.0908  0.3215 -0.4243
    4MPD2    H7   64   0.194   1.339  10.808  0.1209  2.7155 -1.4269
    5TCq1    O1   65   1.511   2.271  12.545 -0.7141 -0.2948  0.5782
    5TCq1    C1   66   1.536   2.242  12.416 -0.1874  0.4264  0.4456
    5TCq1    O2   67   1.619   2.168  12.376  0.5434  0.3231 -0.0570
    5TCq1    C2   68   1.462   2.325  12.328  0.0885 -0.0148 -0.5170
    5TCq1    C3   69   1.383   2.428  12.376 -0.2665  0.1462 -0.0666
    5TCq1    C4   70   1.296   2.481  12.282  0.0689  0.2558 -0.3307
    5TCq1    C5   71   1.297   2.436  12.151 -0.1992  0.1034 -1.0959
    5TCq1    C6   72   1.370   2.328  12.111  0.6406 -0.4431  0.5261
    5TCq1    C7   73   1.450   2.273  12.201 -0.4449  0.6140  0.0847
    5TCq1    C8   74   1.390   2.301  11.975 -0.4333  0.5639  1.0363
    5TCq1    O4   75   1.424   2.191  11.934  0.1212  0.2679  0.1887
    5TCq1    C9   76   1.209   2.583  12.327  0.0374 -0.2738 -0.5991
    5TCq1    O5   77   1.118   2.623  12.250  0.3203  0.1645  0.3376
    5TCq1    O6   78   1.212   2.594  12.454 -0.1116 -0.0293 -0.0597
    5TCq1    H1   79   1.418   2.301  12.548 -0.7590 -0.2318 -1.6908
    5TCq1    H2   80   1.386   2.453  12.482  0.8359 -1.5447  0.3024
    5TCq1    H3   81   1.217   2.469  12.086 -0.8792  1.1440  0.2883
    5TCq1    H4   82   1.522   2.199  12.168  0.2474  1.7585 -0.9798
    6MPD2     C   83   1.288   2.557  11.718 -0.4368 -0.3464 -0.3983
    6MPD2    C1   84   1.321   2.432  11.771  0.1247  0.7018 -0.1768
    6MPD2    C2   85   1.307   2.320  11.692 -0.0511 -0.9149 -0.0444
    6MPD2    C3   86   1.255   2.330  11.564  0.4704  0.4262  0.2135
    6MPD2    C4   87   1.214   2.452  11.521 -0.6193  0.3414 -0.5332
    6MPD2    C5   88   1.237   2.560  11.590  0.2933 -0.1802 -0.0662
    6MPD2     H   89   1.339   2.219  11.716  0.7257 -0.6043  0.2355
    6MPD2    H1   90   1.166   2.468  11.425  0.0048  0.3739 -0.8399
    6MPD2    H2   91   1.295   2.652  11.771 -0.4841 -0.8260  0.4647
    6MPD2    H3   92   1.221   2.654  11.540  2.1351  1.2449  2.0088
    6MPD2     N   93   1.219   2.216  11.487 -0.2263  0.1220  0.4747
    6MPD2    H5   94   1.251   2.127  11.522 -2.1275 -1.2524 -1.3128
    6MPD2    N1   95   1.354   2.415  11.909  0.5324 -0.0872 -0.1513
    6MPD2    H7   96   1.347   2.501  11.963 -1.4222 -0.4231  0.1445
    7TCq1    O1   97   3.004   1.722  13.566  0.1778  0.0265  0.0070
    7TCq1    C1   98   3.075   1.726  13.449 -0.4163 -0.2371  0.4552
    7TCq1    O2   99   3.190   1.759  13.438  0.0572 -0.0649  0.6816
    7TCq1    C2  100   2.989   1.684  13.339 -0.4069  0.1885 -0.4308
    7TCq1    C3  101   3.037   1.706  13.212 -0.1849  0.3798 -0.1274
    7TCq1    C4  102   2.982   1.637  13.109  0.9018 -0.2162  0.0717
    7TCq1    C5  103   2.889   1.540  13.117 -0.1339  1.0251 -0.0870
    7TCq1    C6  104   2.864   1.503  13.246  0.6513  0.4020 -0.0476
    7TCq1    C7  105   2.919   1.568  13.356  0.1045  0.2405  0.3928
    7TCq1    C8  106   2.773   1.395  13.279 -0.0138 -0.0851  0.3107
    7TCq1    O4  107   2.755   1.297  13.206 -0.0301  0.4569  0.2062
    7TCq1    C9  108   3.034   1.659  12.975  0.3676  0.3404 -0.1064
    7TCq1    O5  109   3.156   1.678  12.957 -0.3800  0.6686  0.7232
    7TCq1    O6  110   2.950   1.633  12.880  0.3998  0.1623  0.1758
    7TCq1    H1  111   2.908   1.710  13.549  0.2072 -0.0330 -0.1168
    7TCq1    H2  112   3.106   1.783  13.182 -0.1926 -0.3574 -2.0350
    7TCq1    H3  113   2.848   1.481  13.035 -1.8759 -0.4404  1.8441
    7TCq1    H4  114   2.900   1.533  13.457  0.0137 -1.3432 -0.1740
    8MPD2     C  115   2.464   1.199  13.644 -0.9872 -0.4373  0.2221
    8MPD2    C1  116   2.514   1.133  13.534 -0.0589 -0.0576  0.2542
    8MPD2    C2  117   2.598   1.209  13.450  0.5949 -0.5571 -0.0414
    8MPD2    C3  118   2.611   1.346  13.470 -0.2233 -0.1187  0.1591
    8MPD2    C4  119   2.552   1.411  13.578 -0.7141  0.2507 -0.0777
    8MPD2    C5  120   2.482   1.330  13.667 -0.5991 -0.0172  0.0364
    8MPD2     H  121   2.654   1.158  13.373 -1.2936 -1.5261 -0.7753
    8MPD2    H1  122   2.560   1.518  13.589  0.2996  0.1303  0.4141
    8MPD2    H2  123   2.414   1.138  13.718  0.5582 -0.8127  0.9601
    8MPD2    H3  124   2.431   1.371  13.754  1.8536  1.7042  0.6710
    8MPD2     N  125   2.700   1.425  13.393 -0.0964 -0.2611 -0.6330
    8MPD2    H5  126   2.717   1.516  13.433  1.0236 -0.9962  0.5253
    8MPD2    N1  127   2.501   0.993  13.537  0.3543  0.3211 -0.0861
    8MPD2    H7  128   2.438   0.962  13.610  0.7167  0.2980  0.2171
    9TCq1    O1  129   0.240   0.565  10.456 -0.7131 -0.1593 -0.3829
    9TCq1    C1  130   0.254   0.555  10.590  0.2334 -0.2454 -0.3423
    9TCq1    O2  131   0.171   0.504  10.665 -0.6821 -0.8967  0.1258
    9TCq1    C2  132   0.392   0.530  10.612 -0.4146  0.1086  0.3768
    9TCq1    C3  133   0.468   0.483  10.505 -0.0640  0.1730 -0.2590
    9TCq1    C4  134   0.604   0.463  10.536  0.4735 -0.2855  0.0802
    9TCq1    C5  135   0.655   0.482  10.661 -0.2240 -0.1192  0.0293
    9TCq1    C6  136   0.574   0.531  10.756  0.1256  0.1858 -0.2578
    9TCq1    C7  137   0.434   0.538  10.738 -0.1637  0.1813 -0.6262
    9TCq1    C8  138   0.633   0.576  10.877  0.3905  1.0068  0.0441
    9TCq1    O4  139   0.754   0.595  10.870 -0.0815 -0.0416 -0.1314
    9TCq1    C9  140   0.694   0.418  10.427 -0.6034  0.6139  0.6041
    9TCq1    O5  141   0.812   0.393  10.460 -0.1862  0.5657 -0.1493
    9TCq1    O6  142   0.650   0.402  10.308  0.1428 -0.5556  0.8605
    9TCq1    H1  143   0.328   0.591  10.422 -0.5657  0.2077  0.2936
    9TCq1    H2  144   0.431   0.465  10.404 -1.3907 -0.0638  0.2624
    9TCq1    H3  145   0.760   0.471  10.684  0.1375  0.9397 -1.0730
    9TCq1    H4  146   0.375   0.602  10.802 -1.2421 -0.6057 -0.8243
   10MPD2     C  147   0.707   0.667  11.143  1.0968  0.2285  0.0169
   10MPD2    C1  148   0.593   0.595  11.115 -0.5879 -0.5259  0.4593
   10MPD2    C2  149   0.516   0.550  11.215  0.9004  0.5325  0.0227
   10MPD2    C3  150   0.556   0.580  11.346 -0.7547 -0.0182  0.3126
   10MPD2    C4  151   0.677   0.649  11.367 -0.3809  0.3913  0.7279
   10MPD2    C5  152   0.763   0.674  11.267  0.2051  0.1594  0.2327
   10MPD2     H  153   0.425   0.498  11.185 -0.3339  1.5186  2.0466
   10MPD2    H1  154   0.714   0.678  11.465  0.7376  2.5649 -0.3328
   10MPD2    H2  155   0.758   0.730  11.072  0.8061 -0.1807 -0.5514
   10MPD2    H3  156   0.858   0.723  11.282  0.8556 -1.2944  0.8873
   10MPD2     N  157   0.479   0.559  11.460 -0.1262  0.6167  0.2668
   10MPD2    H5  158   0.511   0.611  11.541  0.6232 -1.8354  1.5308
   10MPD2    N1  159   0.547   0.574  10.983  0.4937 -0.5335  0.5095
   10MPD2    H7  160   0.460   0.523  10.971  0.0918  0.3768 -0.4897
   11TCq1    O1  161   1.837   0.161  14.086  0.2424 -0.2262 -0.0081
   11TCq1    C1  162   1.743   0.067  14.096  0.1568 -0.1248 -0.4333
   11TCq1    O2  163   1.718   4.722  13.995  0.2080 -0.0683  0.3112
   11TCq1    C2  164   1.648   0.096  14.197 -0.2275 -0.7235 -0.2004
   11TCq1    C3  165   1.688   0.165  14.312  0.2947 -0.6094 -0.5276
   11TCq1    C4  166   1.594   0.177  14.410  0.6177 -0.2573 -0.1034
   11TCq1    C5  167   1.469   0.141  14.389  0.3260  0.6350 -0.0828
   11TCq1    C6  168   1.432   0.086  14.270 -0.4860  0.2536  0.2730
   11TCq1    C7  169   1.520   0.055  14.177  0.7466  0.3412  0.3324
   11TCq1    C8  170   1.292   0.084  14.245 -0.6339  0.8945 -0.2419
   11TCq1    O4  171   1.220   0.143  14.327  0.0780  0.4731 -0.1839
   11TCq1    C9  172   1.636   0.234  14.535 -0.1687 -0.5095  0.1378
   11TCq1    O5  173   1.757   0.247  14.543 -0.3972 -0.5771 -0.3328
   11TCq1    O6  174   1.557   0.237  14.636 -0.1532 -0.4107 -0.8849
   11TCq1    H1  175   1.850   0.230  14.154 -0.3457  0.2799 -0.4190
   11TCq1    H2  176   1.793   0.186  14.329  0.6219 -1.6091 -1.3248
   11TCq1    H3  177   1.398   0.154  14.471  0.0255  2.0404 -0.5581
   11TCq1    H4  178   1.500   0.010  14.080  0.0936 -0.1689  0.7022
   12MPD2     C  179   1.023   0.002  14.165 -0.5777  0.2797 -0.1009
   12MPD2    C1  180   1.129   4.670  14.109 -0.5469  0.4474  0.4394
   12MPD2    C2  181   1.107   4.561  14.027  0.2591 -0.4689 -0.8375
   12MPD2    C3  182   0.980   4.522  13.995 -0.8167 -0.0968  0.6324
   12MPD2    C4  183   0.871   4.582  14.054  0.0521  0.1510  0.1043
   12MPD2    C5  184   0.894   4.683  14.144 -0.4212 -0.3992  0.3504
   12MPD2     H  185   1.189   4.501  13.988 -0.1560  0.6112 -3.3393
   12MPD2    H1  186   0.771   4.551  14.027  0.8231 -2.1360 -0.1505
   12MPD2    H2  187   1.031   0.093  14.223 -0.7016  0.4525 -0.3590
   12MPD2    H3  188   0.817   0.022  14.185  0.1115 -1.1025  2.4283
   12MPD2     N  189   0.955   4.426  13.895  0.5628  0.7399  0.0901
   12MPD2    H5  190   1.035   4.371  13.866 -0.0594  1.0927 -2.3161
   12MPD2    N1  191   1.259   4.721  14.143 -0.5949  0.3097  0.3881
   12MPD2    H7  192   1.332   4.654  14.124 -0.8741  0.1022  0.0313
   13TCq1    O1  193   1.134   4.519  11.510  0.5637 -0.1239 -0.0195
   13TCq1    C1  194   1.017   4.587  11.532  0.6338  0.0685  0.2127
   13TCq1    O2  195   0.976   4.627  11.642 -0.0199  0.5957 -0.0519
   13TCq1    C2  196   0.989   4.664  11.417 -0.1694  0.5123  0.0619
   13TCq1    C3  197   1.066   4.656  11.306  0.3642  0.2276 -0.1114
   13TCq1    C4  198   1.048   0.024  11.204  0.4187 -0.3976 -0.3390
   13TCq1    C5  199   0.929   0.088  11.210  0.0524 -0.3342  0.1421
   13TCq1    C6  200   0.837   0.075  11.310 -0.4334 -0.4665  0.0706
   13TCq1    C7  201   0.869   0.007  11.421  0.6409 -0.6817 -0.2369
   13TCq1    C8  202   0.698   0.115  11.283 -0.1404 -0.3798  0.3755
   13TCq1    O4  203   0.624   0.129  11.374  0.6806 -0.4412  0.0458
   13TCq1    C9  204   1.157   0.054  11.115 -0.6568  0.6688  0.1346
   13TCq1    O5  205   1.138   0.136  11.018  0.2421 -0.0189 -0.0029
   13TCq1    O6  206   1.271   0.024  11.154  0.4580  0.5139 -0.4691
   13TCq1    H1  207   1.130   4.470  11.425 -0.1251  1.5310 -0.9488
   13TCq1    H2  208   1.157   4.599  11.294  0.3293  0.0176  0.5748
   13TCq1    H3  209   0.917   0.162  11.131 -1.6303  0.4044  1.0863
   13TCq1    H4  210   0.801   4.697  11.497 -1.0806  0.6312 -1.1969
   14MPD2     C  211   0.570   0.176  10.946  0.2825 -1.1294  0.2957
   14MPD2    C1  212   0.564   0.173  11.084  0.1619  0.3529  0.1527
   14MPD2    C2  213   0.449   0.225  11.144 -0.1159  0.5353  0.1721
   14MPD2    C3  214   0.341   0.249  11.068  0.1776 -0.0971 -0.5785
   14MPD2    C4  215   0.347   0.249  10.928 -0.0837  0.1825  0.0221
   14MPD2    C5  216   0.463   0.209  10.862 -0.5622  0.1539 -0.1193
   14MPD2     H  217   0.436   0.215  11.251  2.3281 -0.0395  0.4150
   14MPD2    H1  218   0.261   0.277  10.869 -0.0400  3.2880  1.4202
   14MPD2    H2  219   0.663   0.140  10.903 -0.0030 -2.8355  1.1047
   14MPD2    H3  220   0.463   0.207  10.754  2.0524 -1.6170 -0.0826
   14MPD2     N  221   0.228   0.302  11.146 -0.2083 -0.4606  0.4191
   14MPD2    H5  222   0.253   0.318  11.243 -1.4201  3.3865  0.0832
   14MPD2    N1  223   0.683   0.133  11.144 -0.3083  0.3919  0.1172
   14MPD2    H7  224   0.755   0.106  11.077 -1.1547  2.4180 -1.6021
   15TCq1    O1  225   2.013   3.557   2.124  0.1926 -0.2360 -0.8156
   15TCq1    C1  226   1.890   3.606   2.161 -0.1379 -0.3569 -0.0365
   15TCq1    O2  227   1.856   3.607   2.279 -0.5556 -0.2546  0.0878
   15TCq1    C2  228   1.819   3.642   2.041  0.4535  0.2464 -0.1037
   15TCq1    C3  229   1.747   3.759   2.048  0.2202  0.5080  0.2232
   15TCq1    C4  230   1.712   3.819   1.932 -0.7945  0.3152 -0.3885
   15TCq1    C5  231   1.745   3.767   1.813 -0.2716 -0.4494  0.3783
   15TCq1    C6  232   1.811   3.649   1.806  0.4095  0.4601  0.2697
   15TCq1    C7  233   1.856   3.587   1.922 -0.2354  0.4160  0.1533
   15TCq1    C8  234   1.872   3.594   1.680 -0.0646  0.4898 -0.2054
   15TCq1    O4  235   1.952   3.503   1.696 -0.2116 -0.0321  0.3794
   15TCq1    C9  236   1.623   3.931   1.945  0.4925 -0.0157 -0.1536
   15TCq1    O5  237   1.606   4.000   1.841  0.0000  0.8848 -0.3289
   15TCq1    O6  238   1.562   3.944   2.055  0.0935 -0.1152 -0.3816
   15TCq1    H1  239   2.033   3.574   2.030 -2.5484  1.7505 -1.0429
   15TCq1    H2  240   1.716   3.803   2.143  1.5909 -0.3732  1.0828
   15TCq1    H3  241   1.711   3.825   1.728 -0.4934 -0.8694  0.1810
   15TCq1    H4  242   1.910   3.494   1.924  0.9190  1.0346 -1.6993
   16MPD2     C  243   1.891   3.758   1.341 -0.1498 -0.0519  0.0542
   16MPD2    C1  244   1.918   3.662   1.438 -0.0588  0.5542 -0.3125
   16MPD2    C2  245   2.003   3.559   1.406 -0.6495  0.0304 -0.3088
   16MPD2    C3  246   2.050   3.539   1.273  0.5211 -0.3960  0.4007
   16MPD2    C4  247   2.007   3.630   1.178  0.4005 -0.0214 -0.3005
   16MPD2    C5  248   1.931   3.743   1.215  0.4764 -0.0320  0.5999
   16MPD2     H  249   2.036   3.477   1.468 -1.3173  0.8114  1.0978
   16MPD2    H1  250   2.042   3.622   1.076  0.0056 -0.6411 -0.3837
   16MPD2    H2  251   1.837   3.847   1.370 -0.6324 -0.1849 -0.4377
   16MPD2    H3  252   1.908   3.809   1.133 -1.9167 -0.5029  0.9131
   16MPD2     N  253   2.137   3.431   1.236 -0.6554 -0.0656  0.6894
   16MPD2    H5  254   2.161   3.359   1.304 -2.2913 -0.9774  0.2989
   16MPD2    N1  255   1.855   3.675   1.569 -0.0002  0.2623 -0.2822
   16MPD2    H7  256   1.793   3.755   1.578 -0.5932 -0.0811 -1.2331
   17TCq1    O1  257   4.474   0.269  11.071  0.5945  0.0495 -0.3354
   17TCq1    C1  258   4.488   0.145  11.123  0.5299  1.2670 -0.4672
   17TCq1    O2  259   4.449   0.113  11.235  0.3936 -0.2091  0.2900
   17TCq1    C2  260   4.605   0.090  11.058 -0.8463 -0.2308 -0.8574
   17TCq1    C3  261   4.687   0.014  11.136 -0.3772  0.3515  0.6184
   17TCq1    C4  262   0.075   4.690  11.090  0.5755  0.3770  0.8383
   17TCq1    C5  263   0.118   4.710  10.959 -0.2055  0.1288  0.7819
   17TCq1    C6  264   0.034   0.063  10.883 -0.4979  0.5339  0.2887
   17TCq1    C7  265   4.639   0.118  10.929  0.1050  0.5542 -0.2124
   17TCq1    C8  266   0.083   0.118  10.750 -0.4000  0.0619  0.6822
   17TCq1    O4  267   0.031   0.219  10.706 -0.9411  0.4692 -0.3254
   17TCq1    C9  268   0.158   4.611  11.173  0.7716 -0.0336 -0.2924
   17TCq1    O5  269   0.251   4.544  11.118 -0.4850  0.2542  0.0798
   17TCq1    O6  270   0.141   4.612  11.294 -0.0957  0.1786 -0.1857
   17TCq1    H1  271   4.496   0.295  10.979  1.0612 -1.0960 -0.5495
   17TCq1    H2  272   4.664   4.706  11.236  1.5893  0.9167  1.2475
   17TCq1    H3  273   0.208   4.663  10.922  0.2789  0.4554  1.5432
   17TCq1    H4  274   4.561   0.140  10.857  1.1037  2.4112 -0.7193
   18MPD2     C  275   0.215   0.173  10.485 -0.1894  0.7358 -0.1484
   18MPD2    C1  276   0.258   0.073  10.577  0.3518 -0.2331  0.3718
   18MPD2    C2  277   0.375   0.015  10.560 -0.1372  0.5941 -0.4451
   18MPD2    C3  278   0.454   0.047  10.445 -0.2963 -0.1977 -0.2551
   18MPD2    C4  279   0.417   0.145  10.356 -0.8475 -0.6687 -0.0755
   18MPD2    C5  280   0.293   0.202  10.373 -0.3490  0.4621 -0.2168
   18MPD2     H  281   0.403   4.671  10.639 -0.7782  1.0307  0.1617
   18MPD2    H1  282   0.472   0.174  10.267 -0.6536 -3.0292 -0.7345
   18MPD2    H2  283   0.127   0.233  10.502 -0.3168 -0.4802  3.3761
   18MPD2    H3  284   0.268   0.280  10.302 -3.0064  0.5664  0.8253
   18MPD2     N  285   0.570   4.701  10.408 -0.2165  0.1910  0.2589
   18MPD2    H5  286   0.617   0.004  10.322 -1.0715  0.5285 -0.0940
   18MPD2    N1  287   0.188   0.043  10.698  0.0426  0.0075  0.6952
   18MPD2    H7  288   0.202   4.676  10.740  2.6871  0.9439  1.8292
   19TMC2    C1  289   2.266   4.270  13.747  0.1877  0.0316 -0.1820
   19TMC2    C2  290   2.226   4.323  13.631  0.0047  0.1473 -0.3838
   19TMC2    C3  291   2.105   4.293  13.583 -0.8607  0.1735  0.5700
   19TMC2    C4  292   2.174   4.198  13.825 -0.2965  0.1858  0.4795
   19TMC2    C5  293   2.047   4.191  13.779  0.3562 -0.0210 -0.0999
   19TMC2    C6  294   2.011   4.238  13.658 -0.5652 -0.1989 -0.5068
   19TMC2     C  295   2.392   4.312  13.801 -0.3537 -0.1804 -0.9643
   19TMC2     O  296   2.440   4.408  13.746  0.1325  0.3593  0.0354
   19TMC2     H  297   2.298   4.387  13.581 -1.2626  1.4610 -0.5660
   19TMC2    H1  298   2.203   4.160  13.923  1.0063  1.3425  0.5494
   19TMC2    H2  299   1.911   4.231  13.617 -0.5545  0.3086 -0.6231
   19TMC2    C7  300   1.945   4.121  13.857 -0.1389  1.4946  0.4150
   19TMC2    C8  301   2.086   4.326  13.443 -0.3686  0.8289  0.5743
   19TMC2    O1  302   1.856   4.066  13.796  0.3605 -0.2039 -0.1377
   19TMC2    O2  303   2.181   4.332  13.360 -0.2835 -0.0166  0.1455
   19TMC2    O5  304   1.980   4.411  13.454  0.6612 -0.0876  0.2405
   19TMC2    H5  305   1.917   4.407  13.528  0.8141  0.7361  0.4155
   20MPD2     C  306   2.617   4.395  13.989  0.5956 -0.1316  0.1910
   20MPD2    C1  307   2.535   4.284  14.009  0.0293 -0.1787 -0.1276
   20MPD2    C2  308   2.547   4.212  14.130  0.2006 -0.1966  0.7213
   20MPD2    C3  309   2.645   4.248  14.223  0.2932  0.5741 -0.1817
   20MPD2    C4  310   2.721   4.357  14.202  0.5018  0.6657  0.2887
   20MPD2    C5  311   2.710   4.431  14.091 -0.4565 -0.4280  0.4373
   20MPD2     H  312   2.494   4.118  14.138  0.1721 -0.5704 -3.9039
   20MPD2    H1  313   2.800   4.381  14.273  1.2862  1.7694 -0.9635
   20MPD2    H2  314   2.608   4.450  13.896 -0.7249 -0.9354 -0.1546
   20MPD2    H3  315   2.782   4.509  14.069 -1.1999  0.8483  2.5982
   20MPD2     N  316   2.664   4.172  14.340  0.5079  0.4070  0.3888
   20MPD2    H5  317   2.730   4.209  14.408  0.7325 -0.1012  0.4500
   20MPD2    N1  318   2.443   4.241  13.912  0.8268 -0.1653 -0.4296
   20MPD2    H7  319   2.405   4.148  13.928  1.6835 -0.2915  0.8395
   21MPD2     C  320   0.108   0.731  14.432 -0.4473  0.2029  0.4105
   21MPD2    C1  321   0.152   0.616  14.498  0.2500 -0.2626  0.3609
   21MPD2    C2  322   0.064   0.511  14.534  0.4887  0.0421 -0.1697
   21MPD2    C3  323   4.657   0.514  14.489 -0.5659 -0.0115 -0.0501
   21MPD2    C4  324   4.619   0.626  14.412  0.3029 -0.8230 -0.7726
   21MPD2    C5  325   4.706   0.730  14.392  0.1228 -0.0845  0.5335
   21MPD2     H  326   0.095   0.413  14.568 -0.9711 -0.1544  0.5672
   21MPD2    H1  327   4.522   0.639  14.367  0.1150 -0.2859 -0.2222
   21MPD2    H2  328   0.172   0.814  14.404  1.9326 -1.0904  2.0062
   21MPD2    H3  329   4.682   0.817  14.331 -1.2157 -1.1383 -0.4402
   21MPD2     N  330   4.567   0.406  14.501  0.3500 -0.0860  0.0404
   21MPD2    H5  331   4.485   0.408  14.441 -0.0501  2.2381  0.6546
   21MPD2    N1  332   0.290   0.578  14.506 -0.1848 -0.2599  0.2536
   21MPD2    H7  333   0.301   0.487  14.551  1.6631  0.0490  0.4368
   22TCq2    C1  334   4.583   0.296  14.581 -0.5685  0.2185 -0.1382
   22TCq2    O2  335   4.665   0.270  14.671 -0.2311  0.7533  0.1389
   22TCq2    C2  336   4.467   0.211  14.575 -0.0347  0.3101  0.3122
   22TCq2    C3  337   4.421   0.165  14.700  0.9812 -0.0962  0.3711
   22TCq2    C4  338   4.299   0.112  14.698 -0.1686  0.2247  0.1940
   22TCq2    C5  339   4.222   0.097  14.583  0.1262  0.0886 -0.3167
   22TCq2    C6  340   4.284   0.126  14.463 -0.1450  0.1050  0.6078
   22TCq2    C7  341   4.412   0.183  14.457 -0.7174  0.3440 -0.1889
   22TCq2    C8  342   4.199   0.159  14.350  0.0926  0.1263  0.7501
   22TCq2    O4  343   4.257   0.156  14.243 -0.7134  0.5579 -0.1842
   22TCq2    C9  344   4.244   0.079  14.824  0.4497 -0.1170  0.6586
   22TCq2    O5  345   4.123   0.045  14.828  0.0614  0.4602 -0.4843
   22TCq2    O6  346   4.330   0.069  14.917  0.7484 -0.5729  0.7757
   22TCq2    H2  347   4.476   0.189  14.790 -0.1418  2.1504  0.4644
   22TCq2    H3  348   4.126   0.048  14.585 -0.1875  0.7318  0.3715
   22TCq2    H4  349   4.451   0.216  14.361  3.4932  1.3222  1.8608
   23MPD2     C  350   1.677   0.962  14.706 -0.1949 -0.3470 -0.8312
   23MPD2    C1  351   1.573   0.992  14.786  0.5644 -0.8174 -0.0370
   23MPD2    C2  352   1.511   1.124  14.766  0.1953  0.2242  0.1815
   23MPD2    C3  353   1.537   1.196  14.656 -0.5286  1.0680 -0.9848
   23MPD2    C4  354   1.639   1.156  14.574 -0.4334 -0.7789 -0.0512
   23MPD2    C5  355   1.707   1.042  14.600  0.3421 -0.1284  0.2053
   23MPD2     H  356   1.440   1.151  14.843 -0.1372 -0.0784 -0.0196
   23MPD2    H1  357   1.668   1.213  14.486  0.8954 -1.3536  0.0235
   23MPD2    H2  358   1.716   0.861  14.704  1.8515  0.4209  0.2517
   23MPD2    H3  359   1.780   0.999  14.532  0.8706  0.4376  0.4139
   23MPD2     N  360   1.467   1.319  14.621  0.0605  0.0217  0.1302
   23MPD2    H5  361   1.516   1.372  14.549 -0.5349  0.4062  0.0135
   23MPD2    N1  362   1.536   0.915  14.896  0.2575  0.3445  0.3202
   23MPD2    H7  363   1.469   0.963  14.957 -0.8408 -1.8951  0.8712
   24TCq2    C1  364   1.360   1.372  14.692  0.3120  0.2365 -0.4053
   24TCq2    O2  365   1.285   1.318  14.771  0.1187 -0.1124 -0.0449
   24TCq2    C2  366   1.311   1.501  14.635 -0.3292  0.0547  0.1035
   24TCq2    C3  367   1.379   1.557  14.528  0.1109  0.7378  0.4230
   24TCq2    C4  368   1.311   1.619  14.433  0.6109  0.2796 -0.5587
   24TCq2    C5  369   1.175   1.640  14.444 -0.9370 -0.0327 -0.4349
   24TCq2    C6  370   1.108   1.590  14.555  0.2378 -0.9422 -0.2044
   24TCq2    C7  371   1.174   1.507  14.641  0.0081  0.1396 -0.3201
   24TCq2    C8  372   0.977   1.551  14.542  0.0768  0.0504  0.7589
   24TCq2    O4  373   0.954   1.434  14.565  0.1972  0.0199  0.1037
   24TCq2    C9  374   1.362   1.628  14.299 -0.3188  0.2743  0.3415
   24TCq2    O5  375   1.485   1.607  14.282 -0.5631 -0.2012 -0.4254
   24TCq2    O6  376   1.292   1.668  14.200 -0.0300 -0.4874  0.1078
   24TCq2    H2  377   1.485   1.538  14.510 -0.0959  0.1050 -0.1064
   24TCq2    H3  378   1.119   1.683  14.361 -0.9916  2.2978  0.8162
   24TCq2    H4  379   1.122   1.464  14.726  0.7525 -0.5108 -0.1934
   25TMC2    C1  380   0.266   3.931  11.282 -0.1258 -0.3979 -1.1594
   25TMC2    C2  381   0.216   4.055  11.284  0.3547 -0.2690 -0.2896
   25TMC2    C3  382   0.142   4.087  11.388  1.2489  0.2339  0.5229
   25TMC2    C4  383   0.234   3.837  11.375 -0.3125 -0.1177 -0.2567
   25TMC2    C5  384   0.158   3.879  11.483  0.6508 -0.1634 -0.1889
   25TMC2    C6  385   0.108   4.005  11.493  0.5989  0.7571 -0.6046
   25TMC2     C  386   0.325   3.893  11.148  0.2762 -0.3418  0.2252
   25TMC2     O  387   0.369   3.988  11.083  1.0761  0.0138  0.1648
   25TMC2     H  388   0.241   4.118  11.200  1.2031 -1.1188 -0.6715
   25TMC2    H1  389   0.286   3.742  11.384  1.4364  0.8073 -0.5807
   25TMC2    H2  390   0.053   4.029  11.584  1.7877 -0.6001  0.4726
   25TMC2    C7  391   0.087   3.780  11.565  0.3021 -0.9256  0.0045
   25TMC2    C8  392   0.108   4.229  11.393  0.3211  0.0951  0.4047
   25TMC2    O1  393   0.064   3.806  11.682 -0.1358  0.2779 -0.1397
   25TMC2    O2  394   0.178   4.308  11.334 -0.3073  0.4679 -0.3203
   25TMC2    O5  395   4.713   4.247  11.458 -0.3363  0.2024  0.2996
   25TMC2    H5  396   4.665   4.162  11.467  0.1484  0.0104  1.1483
   26MPD2     C  397   0.323   3.612  10.728  0.0227 -0.0822  0.6778
   26MPD2    C1  398   0.251   3.536  10.821 -0.4104  0.2056  0.7166
   26MPD2    C2  399   0.257   3.586  10.954 -0.0970 -0.5367 -0.4998
   26MPD2    C3  400   0.310   3.712  10.990 -0.0712  0.0742 -0.9157
   26MPD2    C4  401   0.367   3.780  10.889 -0.1899 -0.4086 -0.7889
   26MPD2    C5  402   0.375   3.730  10.765  0.6762 -0.2785  0.1457
   26MPD2     H  403   0.222   3.525  11.037  0.3109 -1.0456 -0.7049
   26MPD2    H1  404   0.419   3.875  10.895 -1.4432  0.1812  0.7546
   26MPD2    H2  405   0.332   3.588  10.623 -2.9524  1.5249  0.0575
   26MPD2    H3  406   0.420   3.784  10.682 -2.4228  2.1299  0.0172
   26MPD2     N  407   0.292   3.763  11.121 -0.2069 -0.0333 -0.0477
   26MPD2    H5  408   0.252   3.705  11.195 -2.2073  0.1455 -0.9990
   26MPD2    N1  409   0.201   3.411  10.774 -0.4956 -0.3408 -1.3410
   26MPD2    H7  410   0.216   3.389  10.676  2.8498 -0.9221 -0.7148
   27TMC2    C1  411   3.584   0.785  12.055  0.6163  0.0322  0.8843
   27TMC2    C2  412   3.492   0.748  11.960  0.4324 -0.3348  0.8113
   27TMC2    C3  413   3.416   0.845  11.898 -0.2553  0.6677 -0.4624
   27TMC2    C4  414   3.605   0.914  12.079  0.5740  0.7646 -0.2102
   27TMC2    C5  415   3.531   1.012  12.010  0.6614  0.1220 -0.0981
   27TMC2    C6  416   3.429   0.983  11.919 -0.4999  0.0974 -0.1489
   27TMC2     C  417   3.605   0.707  12.167  0.2659  0.3253 -0.0875
   27TMC2     O  418   3.654   0.594  12.142  0.4199  0.2482 -0.6293
   27TMC2     H  419   3.479   0.641  11.944  1.0813  0.0523 -2.2053
   27TMC2    H1  420   3.677   0.942  12.156  1.5679  0.2644 -0.9708
   27TMC2    H2  421   3.377   1.061  11.863 -1.2067  0.5840  1.1910
   27TMC2    C7  422   3.560   1.138  12.076  0.5808  0.8193  0.6504
   27TMC2    C8  423   3.354   0.806  11.774  0.3092  0.0896 -0.3120
   27TMC2    O1  424   3.661   1.167  12.144 -0.1814  0.4138  0.5469
   27TMC2    O2  425   3.394   0.705  11.712  0.0214 -0.4723  0.6037
   27TMC2    O5  426   3.260   0.887  11.741 -0.4332  0.1178  0.0873
   27TMC2    H5  427   3.216   0.928  11.819  2.3059 -2.0023  2.7250
   28MPD2     C  428   3.577   0.578  12.665  0.5184 -0.4721 -0.5761
   28MPD2    C1  429   3.495   0.687  12.649  0.0261  0.5511 -0.0617
   28MPD2    C2  430   3.494   0.748  12.527 -0.1527 -0.3860  0.0560
   28MPD2    C3  431   3.556   0.695  12.413  0.6100  0.0961 -0.0033
   28MPD2    C4  432   3.626   0.575  12.427 -0.2150 -0.3352  0.2528
   28MPD2    C5  433   3.646   0.533  12.557  0.2557  0.1247  0.0352
   28MPD2     H  434   3.430   0.834  12.507  2.2844  1.2486 -0.6623
   28MPD2    H1  435   3.683   0.526  12.349  1.2842  0.7137  0.6909
   28MPD2    H2  436   3.614   0.533  12.757  2.9115  3.1955  0.2627
   28MPD2    H3  437   3.703   0.443  12.574 -1.0974 -0.7037  0.2449
   28MPD2     N  438   3.557   0.762  12.288 -0.1239 -0.4253 -0.3153
   28MPD2    H5  439   3.506   0.848  12.274 -0.5790 -0.6449 -0.0181
   28MPD2    N1  440   3.416   0.728  12.757 -0.3492 -0.2590 -0.2172
   28MPD2    H7  441   3.392   0.655  12.824  2.1397 -1.0753 -0.2052
   29MPD2     C  442   2.735   2.791  14.116 -0.1635 -0.4168 -0.0835
   29MPD2    C1  443   2.802   2.756  14.228 -0.0516 -0.0405 -0.4615
   29MPD2    C2  444   2.855   2.856  14.307  0.0060  0.2429  0.3918
   29MPD2    C3  445   2.821   2.988  14.297 -0.0587 -0.3819 -0.5470
   29MPD2    C4  446   2.737   3.019  14.190  0.4139  0.1104  0.4505
   29MPD2    C5  447   2.694   2.922  14.107 -0.7007  0.1606  0.3457
   29MPD2     H  448   2.935   2.832  14.375  0.3476 -0.2339 -0.1808
   29MPD2    H1  449   2.697   3.117  14.169 -0.6688 -0.1423  1.3487
   29MPD2    H2  450   2.692   2.716  14.051 -0.5029 -0.7129  0.4752
   29MPD2    H3  451   2.628   2.957  14.028 -1.6360 -0.3078  0.9253
   29MPD2     N  452   2.878   3.085  14.381 -0.6430 -0.1052  0.0881
   29MPD2    H5  453   2.869   3.183  14.352 -0.5356 -0.1980 -0.2655
   29MPD2    N1  454   2.847   2.626  14.232  0.8105  0.1474  0.5586
   29MPD2    H7  455   2.920   2.598  14.296 -2.7010 -1.4450  3.9024
   30TCq2    C1  456   2.941   3.066  14.505  0.5734  0.4176  0.6924
   30TCq2    O2  457   2.948   2.958  14.565 -0.5449 -0.0488  0.2150
   30TCq2    C2  458   2.978   3.192  14.559 -0.8224  0.2461 -0.6350
   30TCq2    C3  459   2.972   3.205  14.695 -0.3010  0.2549  0.1477
   30TCq2    C4  460   3.019   3.324  14.752  0.2003  0.5836 -0.5308
   30TCq2    C5  461   3.040   3.442  14.676  0.0439  0.9283 -0.9880
   30TCq2    C6  462   3.043   3.422  14.539  0.3056  0.1056  0.8168
   30TCq2    C7  463   3.017   3.299  14.474 -0.0884 -0.1356  0.6918
   30TCq2    C8  464   3.065   3.536  14.453  0.5464 -0.7365 -0.0507
   30TCq2    O4  465   3.030   3.537  14.335 -0.4737 -0.4988  0.0975
   30TCq2    C9  466   3.016   3.338  14.894  0.9221 -0.0682 -0.2469
   30TCq2    O5  467   2.998   3.238  14.963  0.7396  0.4040  0.1201
   30TCq2    O6  468   3.047   3.450  14.944 -0.1298  0.3217 -0.5401
   30TCq2    H2  469   2.947   3.123  14.761 -0.1635 -0.1127 -0.2563
   30TCq2    H3  470   3.065   3.533  14.729  1.4903  0.4189 -0.7971
   30TCq2    H4  471   3.024   3.288  14.366 -0.0254  0.3452  0.6457
   31MPD2     C  472   0.740   2.003  15.019 -0.5563 -0.2315  0.6244
   31MPD2    C1  473   0.652   2.107  15.039 -0.0113  0.7426  0.4647
   31MPD2    C2  474   0.564   2.100  15.139  0.2990  0.4257 -0.2461
   31MPD2    C3  475   0.563   1.999  15.229 -0.0293  0.7400  0.8982
   31MPD2    C4  476   0.656   1.899  15.215 -0.2227  0.0448  0.3096
   31MPD2    C5  477   0.735   1.896  15.105 -0.5590  0.2741  0.7913
   31MPD2     H  478   0.481   2.170  15.142 -0.0966 -0.0535  0.0233
   31MPD2    H1  479   0.675   1.816  15.281  2.8060 -0.1751 -0.8286
   31MPD2    H2  480   0.806   1.994  14.934 -1.7636 -1.4669 -0.1827
   31MPD2    H3  481   0.801   1.811  15.095 -2.0394 -0.7399 -0.4633
   31MPD2     N  482   0.472   1.988  15.338 -0.2551  0.3907 -0.7004
   31MPD2    H5  483   0.491   1.913  15.404 -1.8493  2.3420  1.9547
   31MPD2    N1  484   0.647   2.204  14.940 -0.2605  0.3590  0.1192
   31MPD2    H7  485   0.729   2.216  14.881 -0.1815  0.3530  0.2274
   32TCq2    C1  486   0.369   2.072  15.365 -0.3664 -0.2540 -0.1725
   32TCq2    O2  487   0.326   2.166  15.301 -0.1059 -0.1778  0.0124
   32TCq2    C2  488   0.315   2.055  15.502  0.1580 -0.0789  1.4319
   32TCq2    C3  489   0.187   2.100  15.523  0.3039  0.2236 -0.2194
   32TCq2    C4  490   0.115   2.075  15.647 -0.0118  0.1454  0.5464
   32TCq2    C5  491   0.167   1.988  15.735 -0.7313  0.5124 -0.6634
   32TCq2    C6  492   0.294   1.939  15.706  0.2323  0.1393 -0.0147
   32TCq2    C7  493   0.362   1.963  15.591 -0.1564  0.4261 -0.3374
   32TCq2    C8  494   0.349   1.853  15.812  0.6711 -0.3166 -0.1689
   32TCq2    O4  495   0.436   1.769  15.780 -0.4796 -0.3932 -0.4245
   32TCq2    C9  496   4.710   2.130  15.675  0.2726 -0.0320  0.1445
   32TCq2    O5  497   4.649   2.084  15.775  0.2797 -0.4848  0.2377
   32TCq2    O6  498   4.649   2.200  15.583 -0.2523 -0.1560 -0.2269
   32TCq2    H2  499   0.142   2.173  15.456  2.2135  1.9867  0.4101
   32TCq2    H3  500   0.112   1.962  15.825 -1.9055 -1.6385 -1.9955
   32TCq2    H4  501   0.461   1.920  15.581 -0.8216 -1.3328  0.6769
   33MPD2     C  502   1.137   4.290   9.903 -0.6908 -0.0251 -0.0106
   33MPD2    C1  503   1.040   4.386   9.933 -0.1691 -1.3442  0.0251
   33MPD2    C2  504   1.004   4.460   9.827  0.1323 -0.5472  0.0290
   33MPD2    C3  505   1.035   4.433   9.694  0.2882 -0.0214  0.4503
   33MPD2    C4  506   1.113   4.329   9.670 -0.4882  0.3050  0.1251
   33MPD2    C5  507   1.168   4.258   9.770 -0.2634  0.6211 -0.5919
   33MPD2     H  508   0.935   4.539   9.855  0.8079 -0.1769  0.6399
   33MPD2    H1  509   1.147   4.311   9.568  0.8821 -0.4614  0.7115
   33MPD2    H2  510   1.205   4.233   9.966  1.9488  1.0060 -1.9620
   33MPD2    H3  511   1.251   4.192   9.749 -1.4027 -1.4356  1.3613
   33MPD2     N  512   0.984   4.510   9.582  0.1289 -0.6318  0.5127
   33MPD2    H5  513   1.025   4.496   9.491  0.4126 -0.5001  0.6209
   33MPD2    N1  514   1.003   4.401  10.066  0.6800  0.1502 -0.6871
   33MPD2    H7  515   1.048   4.337  10.130  0.1449  0.8985  0.4454
   34TCq2    C1  516   0.914   4.627   9.587 -0.6278 -0.6438 -0.8763
   34TCq2    O2  517   0.863   4.680   9.690 -0.8432  0.0622  0.1260
   34TCq2    C2  518   0.926   4.717   9.473 -0.1133  0.7086  0.0036
   34TCq2    C3  519   0.833   0.088   9.478 -0.3156 -0.2635 -0.6830
   34TCq2    C4  520   0.836   0.181   9.375  0.1339 -0.3805  0.3078
   34TCq2    C5  521   0.933   0.179   9.277 -0.3068 -0.0965 -0.3663
   34TCq2    C6  522   1.015   0.074   9.276 -0.2687 -0.7268 -0.0071
   34TCq2    C7  523   1.013   4.694   9.372  0.7533  0.5141 -0.5102
   34TCq2    C8  524   1.125   0.084   9.178 -0.0517  0.4854  0.2214
   34TCq2    O4  525   1.165   0.194   9.149 -0.4611  0.0069 -0.0170
   34TCq2    C9  526   0.734   0.286   9.357 -0.2989  0.8762  0.0215
   34TCq2    O5  527   0.742   0.371   9.264  0.3585 -0.3433 -0.1866
   34TCq2    O6  528   0.655   0.316   9.446 -0.1036 -0.9098  0.2837
   34TCq2    H2  529   0.745   0.076   9.539  0.0281 -1.2093 -0.3756
   34TCq2    H3  530   0.934   0.247   9.192 -0.0462 -1.2939 -1.3156
   34TCq2    H4  531   1.096   4.625   9.377  0.4707  0.2475  0.5564
   35MPD2     C  532   2.992   1.672  12.580  0.0932 -0.2716 -0.0500
   35MPD2    C1  533   3.048   1.550  12.573  0.4307  0.3170 -0.0267
   35MPD2    C2  534   3.061   1.481  12.454  0.2780  0.1106  0.0211
   35MPD2    C3  535   3.006   1.547  12.342 -0.8423 -0.0198  0.1790
   35MPD2    C4  536   2.936   1.667  12.348  0.3381 -0.7850  0.1302
   35MPD2    C5  537   2.927   1.733  12.471  0.1805 -0.5082  0.1320
   35MPD2     H  538   3.114   1.387  12.451 -0.1043 -0.0970 -0.3043
   35MPD2    H1  539   2.898   1.721  12.262 -1.2136 -1.2093  0.5377
   35MPD2    H2  540   2.990   1.721  12.676  2.5449  1.6125 -0.9907
   35MPD2    H3  541   2.881   1.829  12.491  2.2550  0.1735  1.4981
   35MPD2     N  542   3.026   1.473  12.220 -0.9089 -0.2239  1.3626
   35MPD2    H5  543   3.061   1.378  12.229  1.2995  0.3599 -1.0618
   35MPD2    N1  544   3.063   1.488  12.693  0.3756 -0.0348 -1.1188
   35MPD2    H7  545   3.018   1.538  12.769  1.3492 -1.5861  0.4887
   36TCq2    C1  546   2.967   1.509  12.101 -0.3312  0.5088  0.2424
   36TCq2    O2  547   2.897   1.607  12.068  0.5966  0.6207  0.3461
   36TCq2    C2  548   2.988   1.405  12.005  0.5267 -0.3331  0.0132
   36TCq2    C3  549   3.069   1.302  12.036  0.2365 -0.7683 -0.1714
   36TCq2    C4  550   3.049   1.181  11.978  0.5856  0.2661  0.0918
   36TCq2    C5  551   2.977   1.174  11.869  0.1628 -0.3661  0.0315
   36TCq2    C6  552   2.896   1.277  11.835 -1.2051  0.3531  0.4764
   36TCq2    C7  553   2.895   1.402  11.899 -0.5778 -0.7318 -0.5035
   36TCq2    C8  554   2.784   1.224  11.764  0.6237 -0.0749  0.5989
   36TCq2    O4  555   2.757   1.106  11.778  0.2072  0.0402  0.1504
   36TCq2    C9  556   3.128   1.073  12.019 -0.1929  0.7616  1.0679
   36TCq2    O5  557   3.124   0.975  11.942 -0.0437  0.2347 -0.8760
   36TCq2    O6  558   3.191   1.070  12.129  0.7817 -0.1000  0.4357
   36TCq2    H2  559   3.145   1.305  12.113 -1.8103  0.8559  1.8006
   36TCq2    H3  560   2.976   1.091  11.800  1.1129 -0.7200  0.4564
   36TCq2    H4  561   2.829   1.483  11.870 -1.1100 -1.3903 -1.1750
   37TMC2    C1  562   4.476   1.091  11.686  0.2857  0.1946  0.1932
   37TMC2    C2  563   4.446   1.018  11.580  0.4150  0.2481  0.0511
   37TMC2    C3  564   4.537   1.020  11.479  0.0201  0.3260  0.2631
   37TMC2    C4  565   4.594   1.162  11.710  0.2703  0.3501 -0.1731
   37TMC2    C5  566   4.674   1.161  11.600 -0.2887 -0.0552 -0.4871
   37TMC2    C6  567   4.652   1.087  11.486 -0.0178  0.1690  0.2972
   37TMC2     C  568   4.377   1.099  11.792  0.2984  0.7569  0.0195
   37TMC2     O  569   4.265   1.058  11.762  0.1249 -0.4841 -0.4334
   37TMC2     H  570   4.348   0.976  11.559  0.5447 -0.4370  0.7954
   37TMC2    H1  571   4.602   1.229  11.795 -1.4480  0.8361 -0.3850
   37TMC2    H2  572   0.006   1.052  11.420 -1.1645 -1.2558 -0.3260
   37TMC2    C7  573   0.086   1.204  11.635  0.1264 -0.1254  0.4772
   37TMC2    C8  574   4.473   1.003  11.350 -0.1956 -0.1723  0.5456
   37TMC2    O1  575   0.120   1.208  11.754  0.2245 -0.1027 -0.3976
   37TMC2    O2  576   4.358   0.969  11.335  0.3430 -0.3301 -0.7074
   37TMC2    O5  577   4.512   1.117  11.287 -0.1242 -0.5683 -0.0540
   37TMC2    H5  578   4.603   1.141  11.313 -0.1965 -1.5636  1.1495
   38MPD2     C  579   4.180   1.209  12.244 -0.2067  0.3400  0.1961
   38MPD2    C1  580   4.311   1.190  12.260  0.5865  0.1879 -0.4268
   38MPD2    C2  581   4.395   1.163  12.150  0.8652 -0.4028  0.9614
   38MPD2    C3  582   4.336   1.160  12.025 -0.9656 -0.1387 -0.7293
   38MPD2    C4  583   4.204   1.185  12.010  0.0890 -0.2417 -0.3758
   38MPD2    C5  584   4.125   1.209  12.125  0.5533  0.6466  0.6704
   38MPD2     H  585   4.502   1.147  12.163  1.1982  0.1128 -1.0896
   38MPD2    H1  586   4.159   1.201  11.913  1.2976 -0.2735 -0.9381
   38MPD2    H2  587   4.121   1.231  12.332 -0.9225  2.6292 -0.8501
   38MPD2    H3  588   4.020   1.235  12.123  0.5024  0.3414 -0.7280
   38MPD2     N  589   4.422   1.128  11.916 -0.6058  0.5661 -0.6372
   38MPD2    H5  590   4.522   1.134  11.932 -0.9545  1.8619  1.1102
   38MPD2    N1  591   4.370   1.184  12.383  0.1088 -0.1211  0.0861
   38MPD2    H7  592   4.471   1.172  12.380 -0.0521 -1.0296 -1.9239
   39MPD2     C  593   2.808   2.393   1.645 -0.0853  0.0203 -1.0344
   39MPD2    C1  594   2.676   2.430   1.675  0.4830 -0.1924 -0.6476
   39MPD2    C2  595   2.592   2.460   1.566 -0.3785  0.2067 -0.0817
   39MPD2    C3  596   2.639   2.471   1.435 -0.1410 -0.2406 -0.0324
   39MPD2    C4  597   2.773   2.450   1.413 -0.1161  0.2216  0.7220
   39MPD2    C5  598   2.854   2.400   1.516 -0.2294  0.1124 -0.2895
   39MPD2     H  599   2.490   2.491   1.587 -0.2200  0.6064  0.0923
   39MPD2    H1  600   2.810   2.451   1.311 -0.3339 -0.7308  0.6359
   39MPD2    H2  601   2.875   2.362   1.724 -0.0070  0.8675 -0.7678
   39MPD2    H3  602   2.955   2.364   1.503  0.0891  0.8045  0.3089
   39MPD2     N  603   2.552   2.499   1.331 -0.1734  0.2886  0.6082
   39MPD2    H5  604   2.587   2.497   1.236  0.9333 -1.5504  1.0667
   39MPD2    N1  605   2.635   2.434   1.814  0.1464 -0.6888 -0.4478
   39MPD2    H7  606   2.700   2.402   1.885 -2.7494  2.7619  3.6958
   40TCq2    C1  607   2.512   2.454   1.860 -0.7032 -0.5474  0.6682
   40TCq2    O2  608   2.406   2.473   1.801 -0.0116  0.3091  0.1119
   40TCq2    C2  609   2.510   2.420   1.998  0.2341  0.1046  0.0840
   40TCq2    C3  610   2.394   2.381   2.062 -0.3409 -0.2520 -0.2336
   40TCq2    C4  611   2.391   2.359   2.194 -0.5941  0.0186  0.2563
   40TCq2    C5  612   2.501   2.383   2.271  0.6632 -0.8837  0.1405
   40TCq2    C6  613   2.606   2.437   2.205 -0.4553  0.0183 -0.0682
   40TCq2    C7  614   2.618   2.449   2.074  0.2711 -0.5061  0.2366
   40TCq2    C8  615   2.725   2.440   2.287 -0.9601 -0.1517 -0.1980
   40TCq2    O4  616   2.707   2.438   2.406  0.1554 -0.3821  0.5154
   40TCq2    C9  617   2.269   2.313   2.251  0.2683 -0.0220  0.0887
   40TCq2    O5  618   2.181   2.281   2.168 -0.1624  0.1438 -0.5301
   40TCq2    O6  619   2.251   2.295   2.376  0.6577 -0.0620  1.0157
   40TCq2    H2  620   2.302   2.371   2.005  0.1873 -0.1756 -1.0946
   40TCq2    H3  621   2.501   2.352   2.374  2.7061  0.0986  0.4392
   40TCq2    H4  622   2.704   2.498   2.031  0.2184 -0.3944  0.2596
   41TMC2    C1  623   2.041   1.228  13.886  0.4382  0.1927 -0.2064
   41TMC2    C2  624   1.929   1.263  13.961  0.0009  0.3129 -0.2636
   41TMC2    C3  625   1.874   1.387  13.935  0.1983 -0.0542  0.9781
   41TMC2    C4  626   2.076   1.306  13.779 -0.4417  0.2763 -0.2976
   41TMC2    C5  627   2.028   1.438  13.762  0.9642  0.3972 -0.1558
   41TMC2    C6  628   1.925   1.480  13.846 -0.5191  0.2297 -0.2573
   41TMC2     C  629   2.119   1.112  13.921  0.2663  0.3452 -0.6652
   41TMC2     O  630   2.212   1.083  13.846 -0.1355 -0.1009  0.0878
   41TMC2     H  631   1.887   1.205  14.042 -0.6823 -1.8581 -2.1817
   41TMC2    H1  632   2.167   1.271  13.732  0.4996  3.9211 -1.1929
   41TMC2    H2  633   1.902   1.586  13.842 -2.5880 -0.1872  0.8896
   41TMC2    C7  634   2.112   1.529  13.687  0.4199 -0.2301 -0.1701
   41TMC2    C8  635   1.782   1.425  14.038 -0.1467 -0.3434 -0.0328
   41TMC2    O1  636   2.136   1.636  13.741  0.5059 -0.0175  0.3529
   41TMC2    O2  637   1.750   1.349  14.129  0.1097  0.4181  0.9980
   41TMC2    O5  638   1.690   1.499  13.977  0.5367 -0.3873  0.4446
   41TMC2    H5  639   1.728   1.551  13.903  2.2219 -1.5906  0.4503
   42MPD2     C  640   2.225   0.857  14.037 -0.7801 -0.1342 -0.1891
   42MPD2    C1  641   2.148   0.948  14.105  0.3662  0.2615 -0.2938
   42MPD2    C2  642   2.122   0.921  14.243  1.0509  0.4708  0.3192
   42MPD2    C3  643   2.166   0.802  14.307  0.8996 -0.2210 -0.3254
   42MPD2    C4  644   2.240   0.709  14.229  0.4481 -0.7006  0.3784
   42MPD2    C5  645   2.268   0.743  14.101 -1.1083  0.5644 -0.6002
   42MPD2     H  646   2.062   0.992  14.299  0.5552  1.5791 -1.6274
   42MPD2    H1  647   2.297   0.627  14.271 -2.0242 -2.1886  0.8186
   42MPD2    H2  648   2.243   0.852  13.930 -0.8771 -1.4926 -0.1372
   42MPD2    H3  649   2.321   0.664  14.048 -1.8104  0.5956 -1.3357
   42MPD2     N  650   2.139   0.767  14.443 -1.1328  0.3325  0.2718
   42MPD2    H5  651   2.174   0.677  14.475 -1.1185  0.2223 -0.0497
   42MPD2    N1  652   2.088   1.057  14.049 -0.0365 -0.0682 -0.4330
   42MPD2    H7  653   2.016   1.107  14.100 -0.6406 -0.3425 -1.0191
   43MPD2     C  654   2.832   3.626   0.739  0.0684 -0.3218  0.2206
   43MPD2    C1  655   2.926   3.561   0.813  0.4284 -0.4423  0.2736
   43MPD2    C2  656   2.946   3.593   0.945  0.1764 -0.6772 -0.2139
   43MPD2    C3  657   2.875   3.689   1.012 -0.0556  0.4098 -0.2778
   43MPD2    C4  658   2.780   3.753   0.938  0.4522 -0.2695  0.1894
   43MPD2    C5  659   2.752   3.718   0.807 -0.2488 -0.4727  0.9214
   43MPD2     H  660   3.007   3.526   1.004  0.1148  0.0620  0.6869
   43MPD2    H1  661   2.725   3.831   0.990 -0.8262  0.2379 -1.9325
   43MPD2    H2  662   2.808   3.616   0.634  0.8661 -0.0876  0.0144
   43MPD2    H3  663   2.677   3.783   0.761  0.3362  0.8057  1.7773
   43MPD2     N  664   2.887   3.718   1.149 -0.7600  0.0890  0.4304
   43MPD2    H5  665   2.831   3.794   1.186 -1.5737  0.4458 -1.5463
   43MPD2    N1  666   3.018   3.470   0.753  0.0535  0.1779  0.1351
   43MPD2    H7  667   3.101   3.444   0.805  1.7427  1.9726 -1.6598
   44TCq2    C1  668   2.838   3.512   1.683  0.5409  0.0360 -0.0609
   44TCq2    O2  669   2.913   3.418   1.677 -0.3443 -0.0396  0.3197
   44TCq2    C2  670   2.866   3.617   1.592 -0.1379 -0.0023 -0.2518
   44TCq2    C3  671   2.798   3.735   1.617  0.2651  0.6295 -0.4754
   44TCq2    C4  672   2.802   3.824   1.518  0.5287  0.6969 -0.2883
   44TCq2    C5  673   2.867   3.805   1.402 -0.1685 -0.3531  0.2806
   44TCq2    C6  674   2.926   3.687   1.375  0.3310 -0.3972  1.0851
   44TCq2    C7  675   2.917   3.584   1.471  0.3626 -0.4761 -0.6849
   44TCq2    C8  676   2.967   3.651   1.236 -1.0001  0.3779 -0.6703
   44TCq2    O4  677   3.042   3.553   1.221  0.4018 -0.0463  0.0026
   44TCq2    C9  678   2.709   3.932   1.523  0.6373 -0.5429  0.2421
   44TCq2    O5  679   2.624   3.922   1.609  0.2816 -0.1480  0.2235
   44TCq2    O6  680   2.707   4.015   1.428  0.2736  0.1730  0.7065
   44TCq2    H2  681   2.765   3.774   1.713 -0.2902 -0.6796 -0.1396
   44TCq2    H3  682   2.870   3.889   1.334  0.2730  0.4304  1.2684
   44TCq2    H4  683   2.959   3.487   1.446  0.3417 -1.3585  2.6797
   45TMC2    C1  684   0.114   1.159   9.418  0.1231 -0.0672  0.5466
   45TMC2    C2  685   0.206   1.064   9.428 -0.2649  0.1792 -0.1737
   45TMC2    C3  686   0.320   1.101   9.491 -0.0015  0.1306  0.0531
   45TMC2    C4  687   0.131   1.293   9.466 -0.2619 -0.1923 -0.0040
   45TMC2    C5  688   0.250   1.322   9.539 -0.1416 -0.5372 -1.1567
   45TMC2    C6  689   0.341   1.222   9.548  0.0944 -0.1590 -1.0909
   45TMC2     C  690   4.718   1.127   9.350 -0.0929 -0.5951  0.0494
   45TMC2     O  691   4.687   1.008   9.359 -0.2834 -0.2925 -0.5816
   45TMC2     H  692   0.193   0.971   9.375  1.3035 -0.5025  0.6295
   45TMC2    H1  693   0.056   1.368   9.444 -1.0077 -0.9270  0.0457
   45TMC2    H2  694   0.441   1.242   9.584 -0.8300 -0.0149  1.4033
   45TMC2    C7  695   0.270   1.460   9.589 -0.5667  0.5061  0.1061
   45TMC2    C8  696   0.439   1.021   9.458  0.3498  0.1799  0.6556
   45TMC2    O1  697   0.163   1.521   9.604 -0.0734 -0.1421  0.1101
   45TMC2    O2  698   0.454   0.966   9.347  0.0735 -0.0064 -0.7574
   45TMC2    O5  699   0.532   1.034   9.550  0.4374  0.0013 -0.1506
   45TMC2    H5  700   0.490   1.060   9.635  1.6867 -1.5717  0.9480
   46MPD2     C  701   4.455   1.116   9.214 -0.1098  1.0108 -0.8388
   46MPD2    C1  702   4.529   1.228   9.216 -0.4233 -0.2181 -0.3657
   46MPD2    C2  703   4.483   1.338   9.157  0.8718 -0.1257 -0.0739
   46MPD2    C3  704   4.357   1.349   9.100 -0.0321 -0.2887 -0.1537
   46MPD2    C4  705   4.279   1.228   9.095  0.3584 -0.1639  0.2891
   46MPD2    C5  706   4.330   1.118   9.155  0.5860 -0.2653  0.0440
   46MPD2     H  707   4.550   1.424   9.155  1.2135 -0.3259  2.7812
   46MPD2    H1  708   4.186   1.218   9.040 -1.0057  3.1468  2.0265
   46MPD2    H2  709   4.487   1.025   9.264  0.7762 -0.1579 -3.4967
   46MPD2    H3  710   4.286   1.021   9.140  1.6975 -1.0510  1.9527
   46MPD2     N  711   4.298   1.476   9.075  0.3061 -0.3360 -0.5839
   46MPD2    H5  712   4.358   1.557   9.086  0.5572 -0.7263  0.8704
   46MPD2    N1  713   4.652   1.232   9.287  0.4668 -0.7665 -0.1882
   46MPD2    H7  714   4.688   1.326   9.300 -1.8961  0.2393 -1.0481
   47TMC2    C1  715   1.537   1.794   8.911  0.4662 -0.2684  0.8190
   47TMC2    C2  716   1.476   1.891   8.832  0.7413 -0.5722  0.5935
   47TMC2    C3  717   1.425   1.838   8.716  0.3181  0.0008  0.0834
   47TMC2    C4  718   1.551   1.662   8.879 -0.6780 -0.0617 -0.0312
   47TMC2    C5  719   1.490   1.616   8.767  0.2578 -0.3829  0.4535
   47TMC2    C6  720   1.423   1.703   8.687 -0.4121  0.8988  0.5428
   47TMC2     C  721   1.581   1.837   9.042 -0.8672  0.1758  0.2365
   47TMC2     O  722   1.595   1.959   9.062 -0.1732 -0.3148  0.0060
   47TMC2     H  723   1.484   1.997   8.851  0.7772 -0.2935 -0.9901
   47TMC2    H1  724   1.593   1.589   8.947  0.6349  0.8541  0.1478
   47TMC2    H2  725   1.365   1.667   8.603 -2.0012  1.5099  1.3752
   47TMC2    C7  726   1.535   1.486   8.712 -0.4415 -0.7800 -0.1906
   47TMC2    C8  727   1.340   1.921   8.635  0.2371  0.5084  0.1294
   47TMC2    O1  728   1.477   1.439   8.617  0.1314 -0.0849 -0.0999
   47TMC2    O2  729   1.326   1.909   8.513 -0.1255  0.0288 -0.0374
   47TMC2    O5  730   1.246   1.954   8.723  0.0296  0.0011  0.8858
   47TMC2    H5  731   1.278   1.951   8.815  1.1035 -1.1184  0.4799
   48MPD2     C  732   1.637   1.833   9.339  0.1272 -0.5191 -0.4299
   48MPD2    C1  733   1.607   1.717   9.269  0.3279  0.6863 -0.2136
   48MPD2    C2  734   1.623   1.589   9.320  0.1610  0.2568 -0.6857
   48MPD2    C3  735   1.654   1.565   9.455  0.0608 -0.0353 -0.2822
   48MPD2    C4  736   1.686   1.679   9.530  0.3534  0.5336  0.6441
   48MPD2    C5  737   1.674   1.808   9.474  0.7691 -0.4267 -0.2198
   48MPD2     H  738   1.612   1.503   9.255  3.0429 -0.2846 -0.4357
   48MPD2    H1  739   1.711   1.665   9.635 -0.0049  0.9873  0.7858
   48MPD2    H2  740   1.612   1.933   9.308  0.0580 -0.0885  0.9861
   48MPD2    H3  741   1.693   1.891   9.540 -1.2583  0.0192 -0.2003
   48MPD2     N  742   1.659   1.431   9.508  0.0664  0.7587 -0.3380
   48MPD2    H5  743   1.631   1.353   9.450  1.6141 -0.4452  0.5404
   48MPD2    N1  744   1.590   1.727   9.126 -0.4464 -0.0358 -0.0667
   48MPD2    H7  745   1.576   1.641   9.075 -0.0240 -0.4670  0.5504
   49MPD2     C  746   0.663   3.790   9.928  0.2169  0.2659 -0.1978
   49MPD2    C1  747   0.536   3.742   9.914  0.0615  0.2232  0.5579
   49MPD2    C2  748   0.464   3.749  10.028  0.5092  0.3332 -0.3674
   49MPD2    C3  749   0.517   3.799  10.150  0.1747  0.0502 -0.5936
   49MPD2    C4  750   0.644   3.849  10.157 -0.6663  0.0620 -0.9856
   49MPD2    C5  751   0.717   3.838  10.043  1.3378  0.0035 -0.3350
   49MPD2     H  752   0.362   3.711  10.022  0.6641 -0.0718 -0.4755
   49MPD2    H1  753   0.681   3.904  10.244 -0.2612  0.0505 -1.1486
   49MPD2    H2  754   0.741   3.781   9.853 -0.6578 -2.4306 -0.7901
   49MPD2    H3  755   0.822   3.867  10.044  1.5616 -0.8020 -0.6140
   49MPD2     N  756   0.438   3.816  10.268 -0.0477 -0.3857 -0.4747
   49MPD2    H5  757   0.487   3.828  10.356 -1.6438  0.9784  0.2268
   49MPD2    N1  758   0.476   3.696   9.796  0.0843 -0.2954 -0.6226
   49MPD2    H7  759   0.386   3.650   9.800 -0.4039  0.6216 -0.8659
   50TCq2    C1  760   0.528   3.730   9.672 -0.2993  0.7328  0.7043
   50TCq2    O2  761   0.609   3.815   9.649  0.6353 -0.1945 -0.0224
   50TCq2    C2  762   0.446   3.684   9.560  0.2855  0.5120  0.3431
   50TCq2    C3  763   0.469   3.752   9.442  0.1310 -0.1834  0.3694
   50TCq2    C4  764   0.367   3.764   9.352 -0.6603  0.3858  0.1764
   50TCq2    C5  765   0.243   3.714   9.382  0.1185 -0.1557  0.2189
   50TCq2    C6  766   0.229   3.637   9.496 -0.2400 -0.0661  0.0144
   50TCq2    C7  767   0.331   3.615   9.591 -0.4995  0.1213  1.3410
   50TCq2    C8  768   0.098   3.612   9.547 -0.0949 -0.3630  0.4210
   50TCq2    O4  769   0.087   3.531   9.638  0.0247  0.3274  0.0082
   50TCq2    C9  770   0.385   3.832   9.227 -0.3252 -0.2693 -0.5220
   50TCq2    O5  771   0.281   3.841   9.154  0.0172 -0.2347 -0.2431
   50TCq2    O6  772   0.505   3.868   9.193  0.1426  0.3879 -0.5199
   50TCq2    H2  773   0.562   3.806   9.428  0.2951 -1.1402 -2.2914
   50TCq2    H3  774   0.159   3.731   9.315  0.9137 -0.0862 -0.7655
   50TCq2    H4  775   0.309   3.549   9.674 -1.3517 -3.8564 -2.0576
   51MPD2     C  776   0.389   1.391   1.741 -0.9778 -0.2540 -0.1756
   51MPD2    C1  777   0.409   1.527   1.718 -0.1094 -0.4261 -0.3212
   51MPD2    C2  778   0.536   1.582   1.690 -0.0665  0.3877 -0.7640
   51MPD2    C3  779   0.653   1.493   1.692 -0.1777 -0.6824  0.1269
   51MPD2    C4  780   0.626   1.357   1.721  0.5610 -0.0448  0.0607
   51MPD2    C5  781   0.505   1.313   1.751  0.0591  0.0209  0.2513
   51MPD2     H  782   0.531   1.685   1.659  0.7301  0.7064  0.1875
   51MPD2    H1  783   0.717   1.298   1.724 -0.3077 -1.4695 -1.8075
   51MPD2    H2  784   0.295   1.349   1.775 -0.9060 -1.8168 -1.9168
   51MPD2    H3  785   0.504   1.207   1.777  2.9857 -0.1501 -0.2383
   51MPD2     N  786   0.785   1.534   1.654  0.1615  0.1805  0.6017
   51MPD2    H5  787   0.847   1.456   1.637 -0.0894  0.5973 -2.1154
   51MPD2    N1  788   0.316   1.625   1.740  0.0352  0.0227 -0.6367
   51MPD2    H7  789   0.346   1.722   1.742 -1.8900  0.5953  1.2346
   52TCq2    C1  790   0.830   1.654   1.612  0.7921  0.1630  0.0510
   52TCq2    O2  791   0.757   1.753   1.584  0.2374 -0.4198  0.4386
   52TCq2    C2  792   0.974   1.655   1.571  0.2543  0.7257  0.0487
   52TCq2    C3  793   1.056   1.549   1.590 -0.3109  0.6767  0.0654
   52TCq2    C4  794   1.191   1.576   1.600  0.0877 -0.1162  0.0009
   52TCq2    C5  795   1.235   1.709   1.601  0.4206 -0.5990 -0.3578
   52TCq2    C6  796   1.151   1.811   1.569 -0.3248 -0.0812  0.3572
   52TCq2    C7  797   1.018   1.787   1.564  0.8642  0.5471  0.0447
   52TCq2    C8  798   1.182   1.955   1.584  0.1672 -0.6254 -0.4175
   52TCq2    O4  799   1.117   2.034   1.520 -0.1934 -0.4669  0.1285
   52TCq2    C9  800   1.291   1.472   1.625  0.5538 -0.0138 -0.3403
   52TCq2    O5  801   1.256   1.352   1.633 -0.3265 -0.0622 -0.0785
   52TCq2    O6  802   1.409   1.508   1.621 -0.0058 -0.3822 -0.2832
   52TCq2    H2  803   1.023   1.448   1.611  1.0968 -0.1851 -1.9873
   52TCq2    H3  804   1.336   1.737   1.628  0.0154 -0.0616  0.6099
   52TCq2    H4  805   0.954   1.872   1.543  1.6062  1.6178  2.1666
   53TMC2    C1  806   0.754   1.389  11.838  0.3172  0.1934  0.2415
   53TMC2    C2  807   0.867   1.336  11.889 -0.2362 -0.1865 -0.2183
   53TMC2    C3  808   0.878   1.345  12.026 -0.2846  0.2562 -0.0113
   53TMC2    C4  809   0.655   1.459  11.914 -0.1937 -0.1780 -0.0170
   53TMC2    C5  810   0.674   1.473  12.049  0.3561 -0.4284 -0.5485
   53TMC2    C6  811   0.789   1.409  12.108 -0.0447 -0.5273  0.7866
   53TMC2     C  812   0.712   1.357  11.706  0.2894  1.0298 -0.1188
   53TMC2     O  813   0.800   1.343  11.621 -0.7525 -0.7757  0.1562
   53TMC2     H  814   0.935   1.285  11.822 -2.5560 -3.7033  0.0645
   53TMC2    H1  815   0.569   1.506  11.868 -1.2901 -0.0913  2.1038
   53TMC2    H2  816   0.811   1.421  12.213  0.2765  0.7561  0.5796
   53TMC2    C7  817   0.547   1.466  12.112  0.1492 -0.4336 -0.0007
   53TMC2    C8  818   1.002   1.302  12.091  0.5855 -0.5893  0.7859
   53TMC2    O1  819   0.450   1.448  12.041  0.6043 -0.4093  0.0182
   53TMC2    O2  820   1.042   1.365  12.188 -0.9746 -0.3512  0.5123
   53TMC2    O5  821   1.070   1.224  12.008 -0.6123 -0.5407  0.1524
   53TMC2    H5  822   1.006   1.173  11.955 -1.2020  0.6469 -0.2612
   54MPD2     C  823   0.564   1.318  11.460  1.1928  0.0735  0.3698
   54MPD2    C1  824   0.514   1.307  11.585  0.2598  1.1617 -0.4573
   54MPD2    C2  825   0.384   1.282  11.606 -0.5197 -0.4395  0.4845
   54MPD2    C3  826   0.296   1.267  11.506  0.6822  0.4986 -0.7487
   54MPD2    C4  827   0.346   1.280  11.380 -0.0545 -0.3206  0.5910
   54MPD2    C5  828   0.479   1.306  11.347 -0.2927  0.8060 -0.5754
   54MPD2     H  829   0.349   1.271  11.709 -0.3575  1.9351  0.7811
   54MPD2    H1  830   0.283   1.273  11.292 -0.1920  1.2939  0.5514
   54MPD2    H2  831   0.669   1.332  11.439  0.9274  0.4302 -0.6923
   54MPD2    H3  832   0.524   1.321  11.250 -1.1297 -1.1177 -1.2667
   54MPD2     N  833   0.155   1.240  11.524  0.2434  0.2916 -0.0041
   54MPD2    H5  834   0.104   1.241  11.436  1.6743  0.3279 -0.8315
   54MPD2    N1  835   0.584   1.321  11.704  0.2304 -0.2286  1.0097
   54MPD2    H7  836   0.534   1.307  11.791 -4.2174 -1.5993 -1.7604
   55MPD2     C  837   0.764   2.900  17.034  0.0840  0.6034 -0.1196
   55MPD2    C1  838   0.871   2.985  17.017 -0.8244  0.7731 -0.2819
   55MPD2    C2  839   0.848   3.119  17.046  0.6266  0.0906  0.3193
   55MPD2    C3  840   0.718   3.168  17.072  0.7645  0.5968  0.1150
   55MPD2    C4  841   0.621   3.078  17.092 -0.1124  0.2536 -0.1590
   55MPD2    C5  842   0.642   2.946  17.065  0.3839 -0.1288  0.1708
   55MPD2     H  843   0.933   3.187  17.042 -0.4879  1.4077 -1.2813
   55MPD2    H1  844   0.522   3.103  17.127  0.4324  1.2000  0.7245
   55MPD2    H2  845   0.777   2.796  17.005  1.7215  0.4492  1.1714
   55MPD2    H3  846   0.561   2.875  17.072  0.0456  0.2716  0.3172
   55MPD2     N  847   0.704   3.302  17.101 -0.1752  0.0033  0.0397
   55MPD2    H5  848   0.786   3.359  17.119 -1.2505  1.5011  0.1792
   55MPD2    N1  849   1.000   2.929  16.991  0.6436 -0.6765  0.2703
   55MPD2    H7  850   1.026   2.833  17.009  1.6598 -0.9387 -2.6700
   56TCq2    C1  851   1.099   3.010  16.939  0.5466 -0.6093 -0.2296
   56TCq2    O2  852   1.093   3.122  16.884  0.3134 -0.5965  0.0412
   56TCq2    C2  853   1.223   2.942  16.945  0.0098  0.1912 -0.4245
   56TCq2    C3  854   1.314   3.004  16.863  0.8013  0.2063  0.2218
   56TCq2    C4  855   1.442   2.972  16.859 -0.2901 -0.5901 -0.2842
   56TCq2    C5  856   1.492   2.889  16.951  0.4117 -0.9047 -0.2161
   56TCq2    C6  857   1.401   2.838  17.047 -0.0053 -0.1384 -0.6685
   56TCq2    C7  858   1.265   2.860  17.045  0.4219 -0.1231 -0.3887
   56TCq2    C8  859   1.440   2.774  17.174 -0.0679  0.4770 -0.5573
   56TCq2    O4  860   1.537   2.700  17.176 -0.4445  0.2841  0.0946
   56TCq2    C9  861   1.535   3.026  16.759 -0.0423  0.1328 -0.6028
   56TCq2    O5  862   1.658   2.996  16.760  0.4678 -1.0469 -0.3326
   56TCq2    O6  863   1.491   3.121  16.696  0.1005 -0.3413 -0.1718
   56TCq2    H2  864   1.287   3.075  16.785  1.7801  1.0121  0.6189
   56TCq2    H3  865   1.599   2.868  16.953  0.0960 -2.4941  0.3304
   56TCq2    H4  866   1.199   2.817  17.119  0.8911 -2.0634 -1.0995
   57TMC2    C1  867   0.378   0.554  13.437  0.7196 -0.2930  0.3650
   57TMC2    C2  868   0.413   0.613  13.319 -0.3542  0.0280 -0.0049
   57TMC2    C3  869   0.520   0.562  13.245  0.2404  0.6081  0.1056
   57TMC2    C4  870   0.442   0.432  13.472 -0.5741 -0.2803  0.1309
   57TMC2    C5  871   0.529   0.376  13.385 -0.4507  0.1317 -0.1339
   57TMC2    C6  872   0.578   0.441  13.275  0.1011 -0.4108  0.3419
   57TMC2     C  873   0.265   0.599  13.520  0.4785 -0.4996 -0.4144
   57TMC2     O  874   0.168   0.646  13.460  0.6837 -0.0350 -0.6046
   57TMC2     H  875   0.360   0.695  13.274  0.9749  0.1412 -1.3549
   57TMC2    H1  876   0.406   0.371  13.554  0.6780 -0.1834  0.7636
   57TMC2    H2  877   0.654   0.400  13.209 -0.9241  0.8834 -1.6493
   57TMC2    C7  878   0.584   0.247  13.427  0.6035  1.2001 -0.2910
   57TMC2    C8  879   0.544   0.619  13.114  0.0143  0.7162  0.5174
   57TMC2    O1  880   0.560   0.207  13.541 -0.3752 -0.3092  0.1728
   57TMC2    O2  881   0.466   0.671  13.034 -0.1731 -0.1918  0.2098
   57TMC2    O5  882   0.676   0.628  13.094  0.8220  0.0422 -0.3123
   57TMC2    H5  883   0.723   0.594  13.173  0.4090  1.0272  0.3650
   58MPD2     C  884   0.015   0.619  13.971 -0.2569 -0.1807 -0.5537
   58MPD2    C1  885   4.698   0.644  13.835  0.4746  0.3610  0.3527
   58MPD2    C2  886   0.058   0.618  13.730  0.7330  0.2900  0.0242
   58MPD2    C3  887   0.189   0.578  13.754  0.3658 -0.4900 -0.1268
   58MPD2    C4  888   0.230   0.566  13.884 -0.1915  0.8534 -0.5994
   58MPD2    C5  889   0.144   0.585  13.993  0.2988 -0.5666  0.9695
   58MPD2     H  890   0.024   0.631  13.628 -3.0968 -0.0828  1.2583
   58MPD2    H1  891   0.336   0.555  13.905 -0.1742  0.6424 -0.7948
   58MPD2    H2  892   4.668   0.637  14.050  0.6707  0.9187  0.0338
   58MPD2    H3  893   0.177   0.568  14.095 -1.4633  1.8659  1.9427
   58MPD2     N  894   0.281   0.557  13.648 -0.1091 -0.0073  0.4493
   58MPD2    H5  895   0.371   0.524  13.679 -0.2626  1.9938  3.0380
   58MPD2    N1  896   4.566   0.687  13.801  0.1156 -0.1284  0.6999
   58MPD2    H7  897   4.549   0.703  13.702  0.3437  0.6638  0.7854
   59MPD2     C  898   2.778   0.297  13.152 -0.0217 -0.0681  0.1765
   59MPD2    C1  899   2.894   0.275  13.092 -0.3381 -0.2540  0.2823
   59MPD2    C2  900   3.008   0.319  13.160 -0.1471 -0.7737  0.3620
   59MPD2    C3  901   3.000   0.400  13.273 -0.7502 -0.0993 -0.2716
   59MPD2    C4  902   2.879   0.419  13.332 -0.0099 -0.7343 -0.9619
   59MPD2    C5  903   2.774   0.364  13.271 -0.0984  0.4334 -0.9802
   59MPD2     H  904   3.103   0.295  13.113  0.2698  0.9217  0.3238
   59MPD2    H1  905   2.855   0.481  13.418  3.6672  0.2367 -0.6476
   59MPD2    H2  906   2.683   0.268  13.109  0.5309 -0.9602 -0.4479
   59MPD2    H3  907   2.670   0.390  13.292  0.1464  0.1537  0.5331
   59MPD2     N  908   3.106   0.455  13.339  0.2831  0.1657  0.1326
   59MPD2    H5  909   3.097   0.510  13.424 -0.0653  0.6364 -0.2088
   59MPD2    N1  910   2.907   0.216  12.964 -0.3949 -0.3267  0.6996
   59MPD2    H7  911   2.999   0.221  12.920 -0.5986  0.9046  0.4118
   60TCq2    C1  912   2.804   0.160  12.896  0.5143 -0.3467  0.0948
   60TCq2    O2  913   2.698   0.121  12.942  0.4905  0.4374 -0.6695
   60TCq2    C2  914   2.823   0.138  12.756 -0.3098  0.0835  0.0975
   60TCq2    C3  915   2.759   0.031  12.697  0.1543 -0.0111 -0.7319
   60TCq2    C4  916   2.777   0.011  12.562 -1.0617 -0.4375 -0.6764
   60TCq2    C5  917   2.845   0.096  12.480  0.1911 -0.2701  0.3546
   60TCq2    C6  918   2.897   0.208  12.546  0.4457 -0.9672  0.0367
   60TCq2    C7  919   2.891   0.222  12.682  0.5681  0.3621  0.4065
   60TCq2    C8  920   2.943   0.314  12.463 -0.1482 -0.3563 -0.1159
   60TCq2    O4  921   2.959   0.288  12.343 -0.2759  0.0650 -0.1361
   60TCq2    C9  922   2.702   4.629  12.505 -0.1546 -0.1472 -0.1073
   60TCq2    O5  923   2.624   4.567  12.584  0.4958 -0.1845 -0.3054
   60TCq2    O6  924   2.715   4.604  12.384  0.0421  0.2370 -0.8463
   60TCq2    H2  925   2.692   4.688  12.748 -0.6784  2.8790  2.0128
   60TCq2    H3  926   2.847   0.086  12.373 -0.8700 -3.8401  0.6798
   60TCq2    H4  927   2.943   0.305  12.729 -0.8759 -0.1913  3.0090
   61MPD2     C  928   2.041   1.292  14.765  0.5664  1.1371  0.4627
   61MPD2    C1  929   2.013   1.414  14.831 -1.2887  0.4691 -0.1806
   61MPD2    C2  930   1.942   1.508  14.758  0.2622  0.2803 -0.1462
   61MPD2    C3  931   1.883   1.476  14.638  0.7509  0.4167 -0.8147
   61MPD2    C4  932   1.917   1.357  14.576 -0.3307 -1.1135  0.5114
   61MPD2    C5  933   2.008   1.276  14.633 -0.1877  0.2256 -0.2518
   61MPD2     H  934   1.939   1.603  14.809  1.3866  0.2048  0.0573
   61MPD2    H1  935   1.885   1.320  14.479  2.2925 -0.8553 -0.4715
   61MPD2    H2  936   2.114   1.227  14.813 -0.2891  0.1322  0.4075
   61MPD2    H3  937   2.035   1.186  14.578 -2.4099 -1.0148  0.6863
   61MPD2     N  938   1.800   1.556  14.554  0.1003 -0.1862  0.9477
   61MPD2    H5  939   1.773   1.514  14.465 -2.3443 -0.0721  1.6335
   61MPD2    N1  940   2.046   1.455  14.965  0.0127 -0.2896 -0.0090
   61MPD2    H7  941   2.008   1.545  14.994 -0.7181 -0.9965  1.2130
   62TCq2    C1  942   2.122   1.384  15.054 -0.9527  0.5329 -0.4436
   62TCq2    O2  943   2.183   1.281  15.036 -0.2248  0.0803 -0.1988
   62TCq2    C2  944   2.129   1.446  15.184  0.2683 -0.1555  0.0482
   62TCq2    C3  945   2.197   1.388  15.285 -0.4536 -0.1907 -0.7030
   62TCq2    C4  946   2.159   1.394  15.419  0.0971 -0.1940  0.5338
   62TCq2    C5  947   2.055   1.472  15.455  0.2892 -0.1318  0.1436
   62TCq2    C6  948   1.992   1.548  15.359  0.4057  0.0270  0.1052
   62TCq2    C7  949   2.026   1.532  15.224  0.4096  0.6994 -0.1149
   62TCq2    C8  950   1.887   1.639  15.399 -0.1825 -1.1283  0.3097
   62TCq2    O4  951   1.809   1.605  15.488  0.0210 -0.4862 -0.0217
   62TCq2    C9  952   2.231   1.327  15.526 -0.0236 -0.2086 -0.2764
   62TCq2    O5  953   2.172   1.284  15.626  0.2789  0.0921 -0.1251
   62TCq2    O6  954   2.353   1.305  15.502  0.1808  0.1768 -0.1279
   62TCq2    H2  955   2.294   1.345  15.263 -0.5823 -1.1192  0.5183
   62TCq2    H3  956   2.032   1.489  15.559 -0.5997  2.2153 -0.4484
   62TCq2    H4  957   1.960   1.585  15.156  0.4669 -1.1976 -1.6277
   63TMC2    C1  958   1.888   2.269  10.322 -0.3954 -0.2704  0.5564
   63TMC2    C2  959   1.912   2.407  10.315 -0.2259 -0.4058  0.1690
   63TMC2    C3  960   2.023   2.451  10.247  0.3586  0.6222  0.0603
   63TMC2    C4  961   1.944   2.180  10.237  0.5007  0.3546 -0.5908
   63TMC2    C5  962   2.058   2.221  10.180 -0.0253 -0.5283  0.2151
   63TMC2    C6  963   2.098   2.354  10.179  0.2534 -0.0807  0.2534
   63TMC2     C  964   1.782   2.219  10.405  0.0862  0.0556  0.3579
   63TMC2     O  965   1.701   2.291  10.460 -0.3896  0.2245  0.6314
   63TMC2     H  966   1.855   2.464  10.388  0.2910  0.3051  0.0072
   63TMC2    H1  967   1.909   2.082  10.208 -3.4188  0.6845  2.9274
   63TMC2    H2  968   2.195   2.386  10.142  0.7821 -0.3580  1.3997
   63TMC2    C7  969   2.120   2.118  10.099  0.5378  0.0343  0.0262
   63TMC2    C8  970   2.043   2.589  10.222 -0.6787 -0.1427  0.6960
   63TMC2    O1  971   2.061   2.012  10.082 -0.4601  0.2230 -0.1707
   63TMC2    O2  972   2.157   2.632  10.191 -0.2437  0.8773  0.4975
   63TMC2    O5  973   1.950   2.651  10.290  0.3985  0.0517  0.0944
   63TMC2    H5  974   1.871   2.596  10.307  0.8657 -0.2774  1.2291
   64MPD2     C  975   1.507   1.819  10.559  0.0331  0.0368 -0.5502
   64MPD2    C1  976   1.625   1.770  10.518  0.3991 -0.1668 -0.5005
   64MPD2    C2  977   1.727   1.860  10.487  0.0640  0.8651 -0.1943
   64MPD2    C3  978   1.695   1.993  10.473 -0.5579 -0.7424  0.4435
   64MPD2    C4  979   1.566   2.038  10.502 -0.1841 -0.0751  0.1646
   64MPD2    C5  980   1.475   1.954  10.552 -0.1763  0.3796 -0.5024
   64MPD2     H  981   1.828   1.838  10.456  0.5696 -0.9333  2.7010
   64MPD2    H1  982   1.531   2.141  10.497  1.3506  0.3411 -1.8169
   64MPD2    H2  983   1.430   1.746  10.581  0.9596 -0.6727  0.3658
   64MPD2    H3  984   1.378   1.983  10.591  0.1060  2.4325 -1.3588
   64MPD2     N  985   1.793   2.072  10.423 -0.1272 -0.9794  0.1441
   64MPD2    H5  986   1.884   2.031  10.402  0.9145  0.0768  2.5626
   64MPD2    N1  987   1.660   1.637  10.523  0.2093 -0.4833 -0.0707
   64MPD2    H7  988   1.753   1.617  10.486  0.2853 -1.7112  0.7730
   65MPD2     C  989   2.844   0.866  15.926  0.5197 -0.4178  0.1999
   65MPD2    C1  990   2.852   0.847  15.785  0.9900  0.6013  0.0848
   65MPD2    C2  991   2.826   0.721  15.748  0.1948  0.0351 -0.5679
   65MPD2    C3  992   2.798   0.613  15.833  0.9045 -0.1302  0.0239
   65MPD2    C4  993   2.799   0.631  15.968  0.2254 -0.2518  0.0312
   65MPD2    C5  994   2.836   0.760  16.008  0.3460 -0.3264 -0.3501
   65MPD2     H  995   2.811   0.717  15.641 -2.6998 -0.2264 -0.1479
   65MPD2    H1  996   2.771   0.551  16.035 -0.6037  1.4214  1.7021
   65MPD2    H2  997   2.850   0.966  15.967 -1.3569 -0.4616  0.5653
   65MPD2    H3  998   2.818   0.769  16.115  2.0620 -1.7819  0.0726
   65MPD2     N  999   2.750   0.492  15.793  0.6952 -0.3233 -0.2119
   65MPD2    H5 1000   2.725   0.419  15.860  1.5757 -0.7163 -0.3125
   65MPD2    N1 1001   2.865   0.949  15.689  0.2059  0.2814 -0.4828
   65MPD2    H7 1002   2.876   0.921  15.592  0.3760  0.2302 -0.4493
   66TCq2    C1 1003   2.858   1.084  15.720  0.1435 -0.0061 -0.5122
   66TCq2    O2 1004   2.829   1.144  15.819 -0.0402 -0.1977 -0.3727
   66TCq2    C2 1005   2.917   1.168  15.618  0.1606 -1.1386 -0.4307
   66TCq2    C3 1006   3.007   1.115  15.532  0.6246  0.4108  0.2246
   66TCq2    C4 1007   3.071   1.198  15.443 -0.1977  0.2078  0.2483
   66TCq2    C5 1008   3.045   1.329  15.463 -0.5546 -0.2038 -0.1187
   66TCq2    C6 1009   2.956   1.383  15.548  0.1037  0.0123  0.4147
   66TCq2    C7 1010   2.888   1.303  15.630 -0.4468 -0.0879  0.3846
   66TCq2    C8 1011   2.920   1.524  15.538  0.1696  0.4463 -0.9326
   66TCq2    O4 1012   2.997   1.589  15.464  0.1312 -0.5893 -0.2940
   66TCq2    C9 1013   3.170   1.152  15.354 -0.3105  0.0952 -0.7049
   66TCq2    O5 1014   3.225   1.230  15.275  0.1943  0.3340 -0.2019
   66TCq2    O6 1015   3.178   1.022  15.340  0.0781  0.3465  0.1240
   66TCq2    H2 1016   3.032   1.010  15.524  0.4033  0.3816 -0.0673
   66TCq2    H3 1017   3.104   1.391  15.396 -0.4403 -1.8462 -1.5508
   66TCq2    H4 1018   2.806   1.339  15.691 -0.3087 -1.4549  1.3780
   67MPD2     C 1019   2.996   0.345  14.153 -0.5886  1.2388  0.0240
   67MPD2    C1 1020   2.912   0.378  14.264 -0.7682 -0.3970 -0.9455
   67MPD2    C2 1021   2.777   0.370  14.240 -0.0080 -0.0121  0.1165
   67MPD2    C3 1022   2.718   0.333  14.119 -0.1311 -0.5234 -1.0055
   67MPD2    C4 1023   2.807   0.310  14.013 -0.1999  0.4338  0.4314
   67MPD2    C5 1024   2.943   0.311  14.037 -0.2354  0.3238 -0.2472
   67MPD2     H 1025   2.707   0.394  14.319  0.8560  0.1982  0.8147
   67MPD2    H1 1026   2.762   0.297  13.915 -0.6813  0.6637  0.6178
   67MPD2    H2 1027   3.103   0.358  14.166 -0.2079 -0.1093 -1.9152
   67MPD2    H3 1028   3.009   0.295  13.952  0.2327  1.2271 -0.0593
   67MPD2     N 1029   2.577   0.322  14.097 -0.1569 -0.0235 -0.0133
   67MPD2    H5 1030   2.537   0.316  14.004 -1.4367  2.1649  0.3965
   67MPD2    N1 1031   2.960   0.418  14.393 -0.1256 -0.2780 -0.2711
   67MPD2    H7 1032   2.894   0.453  14.463 -0.4444  0.2144 -0.8210
   68TCq2    C1 1033   3.085   0.406  14.435  0.2433  0.0568 -0.1210
   68TCq2    O2 1034   3.182   0.359  14.381 -0.1028 -0.2602  0.4541
   68TCq2    C2 1035   3.118   0.488  14.550  0.3079 -0.0828 -0.4364
   68TCq2    C3 1036   3.036   0.592  14.595 -0.0254  0.0832  0.1628
   68TCq2    C4 1037   3.061   0.664  14.708 -0.4729 -0.1423  0.4836
   68TCq2    C5 1038   3.177   0.642  14.774 -0.1064  0.5585  0.7283
   68TCq2    C6 1039   3.254   0.530  14.737  0.3264  0.2689 -0.1930
   68TCq2    C7 1040   3.221   0.452  14.629 -0.1623  1.0903  0.0164
   68TCq2    C8 1041   3.359   0.481  14.821  0.3554  0.2249 -0.0813
   68TCq2    O4 1042   3.441   0.410  14.769 -0.3676  0.0830  0.2588
   68TCq2    C9 1043   2.983   0.782  14.736 -0.4161 -0.0054  0.3547
   68TCq2    O5 1044   2.889   0.809  14.659  0.5010  0.3445 -0.4862
   68TCq2    O6 1045   3.009   0.842  14.842 -0.3411 -0.5029  0.2467
   68TCq2    H2 1046   2.952   0.627  14.536  0.4259  0.8181 -0.0548
   68TCq2    H3 1047   3.205   0.708  14.856 -2.5058  2.6924 -0.1749
   68TCq2    H4 1048   3.266   0.355  14.609 -1.4049  0.4753  0.2389
   69TMC2    C1 1049   0.704   1.931  12.790 -0.7854  0.0087  0.1673
   69TMC2    C2 1050   0.645   2.005  12.696  0.0038  0.2052 -0.2730
   69TMC2    C3 1051   0.685   2.135  12.677  0.9582  0.0432 -0.3194
   69TMC2    C4 1052   0.801   1.982  12.876  0.1582 -0.6078 -0.3875
   69TMC2    C5 1053   0.830   2.117  12.860 -0.2475  0.0619 -0.3097
   69TMC2    C6 1054   0.778   2.189  12.759  0.5119 -0.3401 -0.7313
   69TMC2     C 1055   0.683   1.787  12.789  0.6082 -0.3624  0.9439
   69TMC2     O 1056   0.681   1.728  12.896  0.1212  0.2423  0.7940
   69TMC2     H 1057   0.562   1.964  12.639  0.6276 -0.0823 -0.9750
   69TMC2    H1 1058   0.856   1.903  12.928  2.4704 -0.0879 -2.0384
   69TMC2    H2 1059   0.815   2.289  12.737 -0.8075 -0.1600 -2.1727
   69TMC2    C7 1060   0.971   2.149  12.865 -0.4316  0.0196 -0.6539
   69TMC2    C8 1061   0.632   2.219  12.569  0.7862  0.0297  0.5710
   69TMC2    O1 1062   1.014   2.221  12.776  0.3739  0.0417  0.3566
   69TMC2    O2 1063   0.619   2.337  12.582 -0.1130  0.3374  0.0025
   69TMC2    O5 1064   0.552   2.143  12.488  0.2749 -0.3669  0.0672
   69TMC2    H5 1065   0.589   2.052  12.487 -0.4248 -0.6621  1.2615
   70MPD2     C 1066   0.809   1.564  12.534 -0.1005  0.3664 -0.3954
   70MPD2    C1 1067   0.763   1.602  12.655 -0.1182  0.1362  0.0245
   70MPD2    C2 1068   0.755   1.508  12.754 -0.1198 -1.3414 -0.1666
   70MPD2    C3 1069   0.801   1.375  12.733  0.5858  0.1009 -0.3878
   70MPD2    C4 1070   0.848   1.344  12.610  0.2885 -0.3220  0.0968
   70MPD2    C5 1071   0.849   1.437  12.512 -0.6572  0.6954  0.2267
   70MPD2     H 1072   0.720   1.528  12.855 -2.0374  0.6735 -1.2239
   70MPD2    H1 1073   0.884   1.244  12.588 -0.1288 -0.1019 -1.6067
   70MPD2    H2 1074   0.820   1.630  12.448  0.4178  2.6613  1.4120
   70MPD2    H3 1075   0.878   1.414  12.410 -1.5071  0.7214 -0.0226
   70MPD2     N 1076   0.804   1.276  12.829  0.5905  0.7942 -0.3107
   70MPD2    H5 1077   0.838   1.186  12.796 -0.5822  0.2215  0.0353
   70MPD2    N1 1078   0.721   1.736  12.665 -0.2111  0.0991  0.2527
   70MPD2    H7 1079   0.750   1.805  12.596 -2.4921 -0.6493 -1.4786
   71TMC2    C1 1080   2.486   2.156   1.487 -0.4954 -0.1552  0.0532
   71TMC2    C2 1081   2.576   2.126   1.580 -0.4823 -0.6369 -1.0349
   71TMC2    C3 1082   2.542   2.131   1.711 -0.6621 -0.0082  0.0720
   71TMC2    C4 1083   2.355   2.194   1.522 -0.2004  0.0421  0.4315
   71TMC2    C5 1084   2.332   2.196   1.652 -0.8467 -0.2503  0.0344
   71TMC2    C6 1085   2.418   2.151   1.755 -0.5580  0.1809 -0.3323
   71TMC2     C 1086   2.532   2.174   1.346  0.6898  0.1699 -0.1183
   71TMC2     O 1087   2.441   2.203   1.272 -0.3301 -0.3803  0.4419
   71TMC2     H 1088   2.680   2.126   1.551  0.6720 -1.6986  3.1374
   71TMC2    H1 1089   2.294   2.234   1.441  1.2708  1.0540 -0.1714
   71TMC2    H2 1090   2.415   2.153   1.863 -1.0588  1.2097 -0.3663
   71TMC2    C7 1091   2.202   2.229   1.704  0.4525 -0.4819  0.2405
   71TMC2    C8 1092   2.641   2.085   1.798  0.0686 -0.3260 -0.1772
   71TMC2    O1 1093   2.197   2.244   1.826  0.3764  0.4270  0.1449
   71TMC2    O2 1094   2.643   2.129   1.911  0.4725  0.0246  0.2914
   71TMC2    O5 1095   2.659   1.953   1.764 -0.0284  0.4156 -0.0654
   71TMC2    H5 1096   2.625   1.930   1.675  1.1869 -1.5310 -0.0164
   72MPD2     C 1097   2.825   2.088   0.926  0.4192 -0.5503 -0.1314
   72MPD2    C1 1098   2.712   2.158   0.945 -0.2276 -0.6414 -0.1140
   72MPD2    C2 1099   2.653   2.167   1.070 -0.0880  0.3246  0.2025
   72MPD2    C3 1100   2.708   2.114   1.186 -0.5204 -0.0839 -0.2655
   72MPD2    C4 1101   2.831   2.049   1.167 -0.2130 -0.2690  0.4462
   72MPD2    C5 1102   2.894   2.053   1.045 -0.3944 -0.6061 -0.8460
   72MPD2     H 1103   2.558   2.220   1.072 -0.3927 -0.2741  1.9707
   72MPD2    H1 1104   2.881   1.996   1.247 -0.3030 -1.0223  0.0027
   72MPD2    H2 1105   2.866   2.062   0.829  0.1109 -2.0930  0.1431
   72MPD2    H3 1106   2.979   1.988   1.028  1.6186  1.5951  0.9904
   72MPD2     N 1107   2.653   2.124   1.315  0.4938 -0.0140  0.1908
   72MPD2    H5 1108   2.715   2.089   1.387  2.4442  1.8788 -0.5772
   72MPD2    N1 1109   2.650   2.217   0.834  0.0395 -0.1551 -0.0785
   72MPD2    H7 1110   2.565   2.271   0.850  1.1658  1.2813  1.0765
   73TMC2    C1 1111   2.254   3.767  14.020 -0.3960 -0.3871  0.0663
   73TMC2    C2 1112   2.201   3.642  13.996 -0.1184 -0.1476 -0.2081
   73TMC2    C3 1113   2.266   3.535  14.049  0.1110  0.2357 -0.6442
   73TMC2    C4 1114   2.354   3.781  14.112 -0.5315  0.0928 -0.2457
   73TMC2    C5 1115   2.423   3.672  14.147 -0.9704 -0.7278  0.0365
   73TMC2    C6 1116   2.378   3.546  14.123  0.4716  0.0209 -0.2026
   73TMC2     C 1117   2.277   3.849  13.903 -0.3225  0.1077 -0.5647
   73TMC2     O 1118   2.355   3.938  13.929  0.3792 -0.4151  0.1925
   73TMC2     H 1119   2.115   3.634  13.930  1.4159 -1.9336 -1.9831
   73TMC2    H1 1120   2.389   3.881  14.134  0.2471  0.4036 -2.8616
   73TMC2    H2 1121   2.427   3.454  14.152 -1.5458 -0.6042  1.1852
   73TMC2    C7 1122   2.571   3.685  14.152 -0.4254 -0.1055  0.9425
   73TMC2    C8 1123   2.212   3.397  14.058 -0.2187  0.2271 -0.0923
   73TMC2    O1 1124   2.627   3.596  14.209 -0.0417  0.1979  0.1365
   73TMC2    O2 1125   2.279   3.294  14.062  0.5673 -0.0405 -0.2690
   73TMC2    O5 1126   2.082   3.410  14.020 -0.1351  0.1426  0.1998
   73TMC2    H5 1127   2.045   3.491  14.060  0.4367  0.3897  0.2256
   74MPD2     C 1128   2.235   4.041  13.434 -0.6087  0.7163  0.2738
   74MPD2    C1 1129   2.345   4.042  13.522 -0.4830  0.4313 -0.0647
   74MPD2    C2 1130   2.327   3.979  13.642  0.2969 -0.3220  0.5833
   74MPD2    C3 1131   2.219   3.894  13.669 -0.4770  0.0795  0.6239
   74MPD2    C4 1132   2.125   3.878  13.576 -0.4135  0.1610 -0.6182
   74MPD2    C5 1133   2.133   3.955  13.464 -0.2464  0.8176 -0.4106
   74MPD2     H 1134   2.403   3.983  13.719 -0.1048  1.2003  0.9090
   74MPD2    H1 1135   2.036   3.817  13.588 -0.2194  0.3788  1.9608
   74MPD2    H2 1136   2.242   4.085  13.335 -1.7720 -1.7738 -0.9226
   74MPD2    H3 1137   2.050   3.955  13.394  0.1997 -1.1894 -0.9267
   74MPD2     N 1138   2.203   3.824  13.791 -0.1073 -0.4386 -0.0175
   74MPD2    H5 1139   2.116   3.773  13.797 -0.8589  0.7061 -1.0914
   74MPD2    N1 1140   2.465   4.111  13.486 -0.2632 -0.3390 -0.1224
   74MPD2    H7 1141   2.469   4.171  13.404 -0.8749  3.7259  2.8163
   75TCq2    C1 1142   2.492   0.324  14.198 -0.8922 -0.4897 -0.2477
   75TCq2    O2 1143   2.509   0.317  14.321 -0.5216 -0.7106 -0.0496
   75TCq2    C2 1144   2.357   0.336  14.145  0.0872 -0.3933 -0.2357
   75TCq2    C3 1145   2.249   0.358  14.232  0.0228  0.1744  0.3433
   75TCq2    C4 1146   2.119   0.372  14.194 -0.2014  1.0400 -0.9062
   75TCq2    C5 1147   2.084   0.353  14.064  0.3012  0.0949 -0.2049
   75TCq2    C6 1148   2.191   0.335  13.975 -0.5516  0.4066 -0.2918
   75TCq2    C7 1149   2.323   0.322  14.011 -0.6219  0.2329 -0.2083
   75TCq2    C8 1150   2.168   0.333  13.834 -0.0377  0.1378 -0.2247
   75TCq2    O4 1151   2.255   0.367  13.753  0.0065  0.1884 -0.0498
   75TCq2    C9 1152   2.016   0.400  14.286  0.7579  0.0074  0.2828
   75TCq2    O5 1153   1.906   0.355  14.243  0.3112 -0.2979  0.2589
   75TCq2    O6 1154   2.055   0.415  14.407  0.4758 -0.5650  0.8014
   75TCq2    H2 1155   2.268   0.374  14.337  1.3347  0.6690  0.0281
   75TCq2    H3 1156   1.994   0.390  14.017  1.1574  0.7799 -1.2859
   75TCq2    H4 1157   2.391   0.293  13.931 -1.2715 -0.7795 -0.3898
   76MPD2     C 1158   1.983   1.572  12.267  0.9099 -0.5906  0.3704
   76MPD2    C1 1159   1.853   1.531  12.254 -0.9871 -0.3662  0.4706
   76MPD2    C2 1160   1.832   1.399  12.222  0.4770 -0.3425 -0.2105
   76MPD2    C3 1161   1.937   1.316  12.183 -0.4298 -0.3344  0.5185
   76MPD2    C4 1162   2.062   1.364  12.175 -0.7024 -0.1679 -1.0299
   76MPD2    C5 1163   2.091   1.488  12.224 -0.1165 -0.2760 -0.0611
   76MPD2     H 1164   1.732   1.360  12.208 -0.1635  1.6904 -1.3229
   76MPD2    H1 1165   2.150   1.307  12.144 -0.0541  1.7223 -2.7157
   76MPD2    H2 1166   2.013   1.670  12.303 -1.8874  0.3771  0.0597
   76MPD2    H3 1167   2.190   1.530  12.233 -1.6268  3.6864 -2.1261
   76MPD2     N 1168   1.926   1.186  12.143 -0.0492  1.1030 -0.7135
   76MPD2    H5 1169   2.014   1.147  12.112 -0.4716 -1.1851  0.8995
   76MPD2    N1 1170   1.735   1.610  12.267  0.6029 -0.7382  0.5858
   76MPD2    H7 1171   1.642   1.570  12.263  0.5782 -0.7142  1.0046
   77TCq2    C1 1172   1.821   1.100  12.151 -0.0048 -0.3322  0.1951
   77TCq2    O2 1173   1.705   1.125  12.156  0.3811 -0.0346 -0.5327
   77TCq2    C2 1174   1.853   0.962  12.118  0.4668  0.3681 -0.2863
   77TCq2    C3 1175   1.752   0.880  12.079 -0.1055  0.3264 -0.2356
   77TCq2    C4 1176   1.772   0.748  12.057  0.4571 -0.1061 -0.7908
   77TCq2    C5 1177   1.895   0.699  12.090 -0.1204 -0.1932 -0.5396
   77TCq2    C6 1178   1.992   0.776  12.150 -0.6531 -0.1530 -0.0131
   77TCq2    C7 1179   1.979   0.911  12.154 -0.0394  0.2389 -0.6178
   77TCq2    C8 1180   2.116   0.712  12.197  0.0369  0.4805  0.8792
   77TCq2    O4 1181   2.152   0.615  12.141  0.1944  0.4572  0.3071
   77TCq2    C9 1182   1.664   0.658  12.001  0.9203  0.3002 -0.0041
   77TCq2    O5 1183   1.565   0.714  11.945  0.2672 -0.5523 -0.6239
   77TCq2    O6 1184   1.664   0.529  12.018  0.0342  0.2319  0.4720
   77TCq2    H2 1185   1.658   0.922  12.044 -1.2795 -1.0548  1.2046
   77TCq2    H3 1186   1.901   0.592  12.077 -0.0032 -0.3053  0.4234
   77TCq2    H4 1187   2.062   0.974  12.184  0.4799 -1.2419  1.0041
   78MPD1     C 1188   2.639   4.401   2.761 -0.9117 -0.5841 -0.6206
   78MPD1    C1 1189   2.604   4.371   2.632 -0.2896 -1.0237 -0.3597
   78MPD1    C2 1190   2.662   4.438   2.528  0.0605  0.5016 -0.0515
   78MPD1    C3 1191   2.760   4.524   2.547 -0.3333  0.3104 -0.0439
   78MPD1    C4 1192   2.793   4.564   2.670  0.0425 -0.2185  0.4042
   78MPD1    C5 1193   2.736   4.497   2.778  0.5164  0.1509 -0.3298
   78MPD1     H 1194   2.622   4.414   2.430 -1.5679 -0.5718  0.8807
   78MPD1    H1 1195   2.874   4.633   2.690  0.2449  0.3585 -2.4163
   78MPD1    H2 1196   2.589   4.363   2.850 -1.2770  0.2406 -0.4714
   78MPD1    H3 1197   2.776   4.505   2.879  1.8781 -0.8036 -0.7907
   78MPD1     N 1198   2.838   4.582   2.444 -0.1692 -0.1029  0.4316
   78MPD1    H5 1199   2.916   4.640   2.477 -0.3935  1.2064 -1.3641
   78MPD1    N1 1200   2.489   4.294   2.605  0.2080  0.7369  0.1823
   78MPD1    H6 1201   2.458   4.235   2.682 -2.3904  0.9100 -0.7376
   78MPD1    H7 1202   2.490   4.245   2.516 -0.2998  1.1892 -0.0716
   79TCq2    C1 1203   2.820   4.560   2.310 -0.5833 -1.1830 -0.6102
   79TCq2    O2 1204   2.735   4.498   2.246 -0.0787  0.0447  0.4314
   79TCq2    C2 1205   2.910   4.643   2.234  0.0871 -0.0239  0.3246
   79TCq2    C3 1206   2.902   4.616   2.099 -0.3586  0.3260 -0.2361
   79TCq2    C4 1207   3.012   4.667   2.032  0.0276 -0.1413 -0.0552
   79TCq2    C5 1208   3.103   0.027   2.079  0.4715  0.2038  0.2944
   79TCq2    C6 1209   3.096   0.066   2.207 -0.2181 -0.0387 -0.4182
   79TCq2    C7 1210   2.999   0.007   2.287 -0.2537 -0.2281 -0.7326
   79TCq2    C8 1211   3.165   0.191   2.242 -0.7344  0.5007  0.6589
   79TCq2    O4 1212   3.238   0.230   2.151  0.2240 -0.2298  0.1585
   79TCq2    C9 1213   3.029   4.618   1.897 -0.1987  0.5006  0.1260
   79TCq2    O5 1214   2.937   4.551   1.852  0.0897 -0.0982 -0.0587
   79TCq2    O6 1215   3.134   4.648   1.834  0.1054 -0.3200  0.1717
   79TCq2    H2 1216   2.839   4.537   2.059  0.4699 -0.3211 -0.2629
   79TCq2    H3 1217   3.171   0.077   2.010  0.8551 -1.1043 -0.2783
   79TCq2    H4 1218   2.974   0.058   2.379  0.9833 -1.9530  0.5369
   80MPD2     C 1219   0.545   1.139  12.534 -0.3797 -0.0065 -0.3862
   80MPD2    C1 1220   0.441   1.119  12.449  0.0406 -0.1728 -0.0149
   80MPD2    C2 1221   0.310   1.120  12.494  0.2123 -0.3206 -0.0645
   80MPD2    C3 1222   0.276   1.137  12.623  0.1975  0.1709 -0.4537
   80MPD2    C4 1223   0.380   1.149  12.713 -0.4384  0.5673  0.0519
   80MPD2    C5 1224   0.508   1.142  12.667 -0.1865  0.0481  0.2487
   80MPD2     H 1225   0.232   1.123  12.419  0.2985 -1.2739 -0.1838
   80MPD2    H1 1226   0.368   1.144  12.821  0.8271 -0.6962  0.1359
   80MPD2    H2 1227   0.649   1.124  12.506 -0.4994  2.6134 -2.2485
   80MPD2    H3 1228   0.588   1.154  12.739  1.1777 -1.5587 -0.9979
   80MPD2     N 1229   0.144   1.138  12.673 -0.0571 -0.2940  0.0616
   80MPD2    H5 1230   0.128   1.131  12.773 -2.2402 -2.3896 -0.4273
   80MPD2    N1 1231   0.463   1.105  12.309  0.1316 -0.0743 -0.2929
   80MPD2    H7 1232   0.383   1.068  12.259  0.3965 -0.1364 -0.6711
   81TCq2    C1 1233   0.581   1.143  12.239  0.4484  0.0827  0.7530
   81TCq2    O2 1234   0.686   1.182  12.283 -0.0146 -0.0882 -0.1330
   81TCq2    C2 1235   0.578   1.095  12.106 -0.0455  0.1222  0.8357
   81TCq2    C3 1236   0.705   1.064  12.052 -0.7083 -0.4648  0.1197
   81TCq2    C4 1237   0.704   1.012  11.924 -0.0487 -0.6416  0.2228
   81TCq2    C5 1238   0.593   1.003  11.847 -0.3251  0.1799 -0.2305
   81TCq2    C6 1239   0.470   1.036  11.908 -0.5488  0.6421  0.4493
   81TCq2    C7 1240   0.460   1.076  12.043 -0.9165 -1.2528  0.3355
   81TCq2    C8 1241   0.351   0.978  11.852  0.2459  0.0122 -0.2002
   81TCq2    O4 1242   0.358   0.973  11.733  0.0738  0.5804 -0.0289
   81TCq2    C9 1243   0.834   0.974  11.868  0.1267  0.3378 -0.0683
   81TCq2    O5 1244   0.832   0.917  11.758  0.0184 -0.1813  0.1051
   81TCq2    O6 1245   0.926   1.052  11.897 -0.2879 -0.0224 -0.1906
   81TCq2    H2 1246   0.795   1.081  12.110  0.0810 -0.4446 -1.1023
   81TCq2    H3 1247   0.601   0.942  11.758 -2.2741 -0.2159 -0.1384
   81TCq2    H4 1248   0.361   1.087  12.085 -0.3669  0.7693  1.0627
   82MPD2     C 1249   4.115   1.104  10.295 -0.1312  0.2612  0.2490
   82MPD2    C1 1250   4.013   1.018  10.294 -0.4980 -0.8682 -0.4909
   82MPD2    C2 1251   4.038   0.896  10.351  0.1264  0.3794  0.1413
   82MPD2    C3 1252   4.152   0.862  10.416  0.3784  0.0687 -0.1707
   82MPD2    C4 1253   4.244   0.967  10.433  0.1575 -0.0344 -0.7423
   82MPD2    C5 1254   4.225   1.089  10.371  0.0666  0.3696  0.5077
   82MPD2     H 1255   3.953   0.828  10.344 -0.3680  0.9315  0.7146
   82MPD2    H1 1256   4.342   0.944  10.473 -0.7435 -0.7621  1.0014
   82MPD2    H2 1257   4.109   1.195  10.236  0.4323 -0.2327 -0.5714
   82MPD2    H3 1258   4.308   1.160  10.374  1.1484 -0.7695 -2.5679
   82MPD2     N 1259   4.180   0.734  10.479 -0.0067 -0.4935 -0.2517
   82MPD2    H5 1260   4.261   0.737  10.540 -0.6920  2.1079  0.4975
   82MPD2    N1 1261   3.887   1.058  10.231 -0.3337  0.2059  0.4951
   82MPD2    H7 1262   3.884   1.141  10.172 -0.8133 -1.6164 -2.0229
   83TCq2    C1 1263   4.105   0.621  10.470  0.2024 -0.2331  0.4767
   83TCq2    O2 1264   3.998   0.598  10.407  1.0145  0.4483 -0.1420
   83TCq2    C2 1265   4.151   0.508  10.553 -0.0022 -0.1924 -0.4301
   83TCq2    C3 1266   4.283   0.497  10.585 -0.0102  0.0032  0.2493
   83TCq2    C4 1267   4.330   0.407  10.673 -0.0706  0.3607  0.8948
   83TCq2    C5 1268   4.242   0.309  10.722  0.0998 -0.0078  1.0174
   83TCq2    C6 1269   4.112   0.309  10.684  0.2738  0.3001 -0.0966
   83TCq2    C7 1270   4.063   0.416  10.609  0.3178  0.5177  0.0718
   83TCq2    C8 1271   4.011   0.214  10.729 -0.4231 -0.1107  0.5002
   83TCq2    O4 1272   4.035   0.171  10.841  0.2036 -0.0499  0.3247
   83TCq2    C9 1273   4.476   0.408  10.707  0.2400 -0.0104  0.4313
   83TCq2    O5 1274   4.513   0.345  10.811  0.4454  0.3318 -0.6989
   83TCq2    O6 1275   4.555   0.494  10.661  0.4145 -0.6774 -0.8430
   83TCq2    H2 1276   4.358   0.562  10.540 -0.2586  0.5099  0.5680
   83TCq2    H3 1277   4.275   0.241  10.799  1.1449 -0.0722  0.5141
   83TCq2    H4 1278   3.955   0.422  10.600  0.2676  0.1085  0.3982
   84TCq2    C1 1279   0.306   3.773  10.267 -0.1933  0.9230 -1.2623
   84TCq2    O2 1280   0.239   3.711  10.185 -0.1795 -0.3220  0.1851
   84TCq2    C2 1281   0.249   3.803  10.398  0.8438  0.7247  1.2220
   84TCq2    C3 1282   0.291   3.926  10.450  0.0696 -0.4036  0.8347
   84TCq2    C4 1283   0.219   3.967  10.560  0.1541  0.1381 -0.0621
   84TCq2    C5 1284   0.114   3.901  10.614  0.4730  1.1509  0.1980
   84TCq2    C6 1285   0.075   3.784  10.549  0.2031 -0.2592  0.3102
   84TCq2    C7 1286   0.140   3.735  10.444 -0.0121 -0.1593 -0.2612
   84TCq2    C8 1287   4.675   3.731  10.605 -0.6153  0.0002  0.1405
   84TCq2    O4 1288   4.607   3.814  10.668  0.1628 -0.1885 -0.1678
   84TCq2    C9 1289   0.256   4.095  10.616 -0.0770  0.2810 -0.8650
   84TCq2    O5 1290   0.356   4.153  10.564  0.4270  0.0620  0.1646
   84TCq2    O6 1291   0.190   4.135  10.711  0.5228 -0.1130 -0.0495
   84TCq2    H2 1292   0.365   3.991  10.405  1.0267 -0.9609  1.5865
   84TCq2    H3 1293   0.063   3.938  10.702 -0.8624  1.7844 -0.8272
   84TCq2    H4 1294   0.113   3.650  10.382 -2.2153  1.5027 -1.5701
   85MPD2     C 1295   4.675   2.092  16.260  0.1989 -0.4302  0.6717
   85MPD2    C1 1296   4.692   2.112  16.122  0.5558  0.0510 -0.3930
   85MPD2    C2 1297   4.717   2.241  16.081 -0.3180 -0.4118  0.3888
   85MPD2    C3 1298   4.722   2.348  16.162  0.2096  0.2379 -0.4913
   85MPD2    C4 1299   4.700   2.329  16.297  0.0561 -0.3980  0.5091
   85MPD2    C5 1300   4.676   2.205  16.344  0.2979  0.1794 -0.4943
   85MPD2     H 1301   0.003   2.253  15.973 -1.6886 -0.1324  0.2886
   85MPD2    H1 1302   4.698   2.415  16.363 -0.6918  0.8181 -1.1042
   85MPD2    H2 1303   4.660   1.997  16.311  0.3436  0.7710  2.9313
   85MPD2    H3 1304   4.665   2.198  16.452  1.8007 -1.2412 -0.4238
   85MPD2     N 1305   0.026   2.476  16.110 -0.2698 -0.2919  0.3268
   85MPD2    H5 1306   0.049   2.480  16.012 -2.9680 -1.9091 -0.3700
   85MPD2    N1 1307   4.678   1.999  16.034  0.4296  0.1682  0.5115
   85MPD2    H7 1308   4.673   2.027  15.936  1.3224 -0.3357  0.3260
   86TCq2    C1 1309   0.003   2.604  16.168 -0.4247  0.1835  0.0724
   86TCq2    O2 1310   4.676   2.619  16.275 -0.3266  0.4319 -0.3810
   86TCq2    C2 1311   0.054   2.719  16.096 -0.1920 -0.1001  0.4877
   86TCq2    C3 1312   0.014   2.849  16.130 -0.6582  0.0035  0.0273
   86TCq2    C4 1313   0.084   2.959  16.084 -0.1926  0.1205 -0.3193
   86TCq2    C5 1314   0.195   2.943  16.009  0.5671  0.2674  0.0642
   86TCq2    C6 1315   0.235   2.815  15.976  0.2326 -0.7871  0.0975
   86TCq2    C7 1316   0.160   2.706  16.012  0.3456 -0.1690 -0.0418
   86TCq2    C8 1317   0.351   2.780  15.894  0.8114  0.4130  0.3676
   86TCq2    O4 1318   0.400   2.670  15.905 -0.1906  0.3057 -0.1227
   86TCq2    C9 1319   0.039   3.087  16.118 -0.3107 -0.9461 -0.0422
   86TCq2    O5 1320   0.126   3.178  16.109 -0.1875 -0.3129  0.5943
   86TCq2    O6 1321   4.640   3.103  16.137 -0.1941  0.1277  0.3722
   86TCq2    H2 1322   4.656   2.867  16.199  1.3822  2.4195  1.8366
   86TCq2    H3 1323   0.260   3.026  15.983 -0.0672  0.5619 -0.5991
   86TCq2    H4 1324   0.188   2.609  15.975  1.7910  0.1781  0.1037
   87MPD2     C 1325   2.234   1.296   1.199  0.4470 -0.8765  0.8515
   87MPD2    C1 1326   2.254   1.183   1.117 -0.4137 -0.3509 -0.2785
   87MPD2    C2 1327   2.156   1.156   1.020  0.1170 -0.6797  0.1336
   87MPD2    C3 1328   2.048   1.245   1.006 -0.1514  0.2016  0.1551
   87MPD2    C4 1329   2.035   1.360   1.081 -0.7030 -0.7322  0.8071
   87MPD2    C5 1330   2.122   1.383   1.184 -0.3012 -1.1047  0.8034
   87MPD2     H 1331   2.170   1.069   0.957  0.6256 -0.3960 -0.1520
   87MPD2    H1 1332   1.951   1.427   1.070  0.1733  0.1319 -0.7180
   87MPD2    H2 1333   2.307   1.321   1.275  1.7830  0.5189 -0.8985
   87MPD2    H3 1334   2.108   1.474   1.241  1.7719  0.7175 -1.6031
   87MPD2     N 1335   1.948   1.232   0.906  0.5586 -0.2378 -0.0903
   87MPD2    H5 1336   1.886   1.312   0.906  0.6310 -0.1927 -1.3410
   87MPD2    N1 1337   2.378   1.120   1.133  0.4084 -0.6260 -0.4139
   87MPD2    H7 1338   2.424   1.141   1.221  1.7086  0.3295 -1.3216
   88TCq2    C1 1339   2.432   1.019   1.052 -0.0153  0.0575 -0.2647
   88TCq2    O2 1340   2.388   0.967   0.955 -0.0301  0.3808 -1.6886
   88TCq2    C2 1341   2.568   0.977   1.089 -0.0851 -0.6656  0.6137
   88TCq2    C3 1342   2.636   1.037   1.195 -0.0253  0.1062  0.6483
   88TCq2    C4 1343   2.766   0.991   1.218 -0.1877  0.2044 -0.2926
   88TCq2    C5 1344   2.828   0.893   1.147 -0.4283 -0.1548 -0.0702
   88TCq2    C6 1345   2.757   0.832   1.049  0.7874 -0.1756 -0.3611
   88TCq2    C7 1346   2.632   0.877   1.011  0.5107  0.6473 -1.0535
   88TCq2    C8 1347   2.801   0.704   1.002 -0.8521 -0.6189 -0.2179
   88TCq2    O4 1348   2.882   0.647   1.080  0.4237 -0.1872 -0.5831
   88TCq2    C9 1349   2.839   1.053   1.331 -0.2727 -0.5625  0.1305
   88TCq2    O5 1350   2.959   1.021   1.339 -0.4381  0.3170  0.4654
   88TCq2    O6 1351   2.786   1.160   1.369  0.4480 -0.6917 -0.0612
   88TCq2    H2 1352   2.593   1.117   1.254  0.1212  0.4971  0.2292
   88TCq2    H3 1353   2.930   0.860   1.164 -0.3480  0.1420  0.0315
   88TCq2    H4 1354   2.567   0.823   0.943  1.8412 -1.3356 -0.7576
   89MPD2     C 1355   2.991   2.413   2.412 -0.5076  0.2305  1.1957
   89MPD2    C1 1356   2.966   2.482   2.292 -0.0678 -0.4437  0.2410
   89MPD2    C2 1357   3.066   2.556   2.242  0.2642 -0.6094  0.3798
   89MPD2    C3 1358   3.189   2.569   2.308  0.6163  0.8997  0.1000
   89MPD2    C4 1359   3.212   2.507   2.429 -0.3517  0.9428  0.4534
   89MPD2    C5 1360   3.112   2.429   2.482  0.4176 -0.2912 -0.1334
   89MPD2     H 1361   3.049   2.609   2.148 -1.8427  2.2101  2.3432
   89MPD2    H1 1362   3.304   2.505   2.486  0.6635  1.4247 -1.1930
   89MPD2    H2 1363   2.919   2.345   2.454 -2.2214  0.6736 -1.0425
   89MPD2    H3 1364   3.124   2.390   2.582 -1.8829  0.1305  0.3130
   89MPD2     N 1365   3.289   2.640   2.240 -0.3425  0.4471 -0.2847
   89MPD2    H5 1366   3.264   2.687   2.154  1.5431 -0.2594 -1.2132
   89MPD2    N1 1367   2.839   2.478   2.226  0.3327  0.1943  0.0932
   89MPD2    H7 1368   2.839   2.517   2.132  0.9651  0.0601  0.0400
   90TCq2    C1 1369   3.415   2.659   2.294  0.1940  0.0282  0.5280
   90TCq2    O2 1370   3.483   2.600   2.376  0.0107 -0.2780 -0.0721
   90TCq2    C2 1371   3.492   2.735   2.199  0.1274 -0.3100  0.5338
   90TCq2    C3 1372   3.615   2.694   2.174 -0.1460 -0.2186  0.0922
   90TCq2    C4 1373   3.687   2.739   2.065  0.2846 -0.3989 -0.8356
   90TCq2    C5 1374   3.629   2.817   1.974  0.0625  0.4698  0.1755
   90TCq2    C6 1375   3.501   2.859   2.001  0.1077 -0.4127 -0.7514
   90TCq2    C7 1376   3.427   2.816   2.110 -0.1060 -0.3320 -0.7816
   90TCq2    C8 1377   3.447   2.975   1.933 -1.2859  0.0829  0.3433
   90TCq2    O4 1378   3.352   3.040   1.982  0.8447 -0.8268  0.7178
   90TCq2    C9 1379   3.819   2.692   2.042  0.5302  0.2479 -0.3268
   90TCq2    O5 1380   3.867   2.631   2.137  0.4206 -0.3485  0.0807
   90TCq2    O6 1381   3.889   2.763   1.957 -0.1220 -0.4947  0.0305
   90TCq2    H2 1382   3.660   2.617   2.237 -0.5066  0.3290  1.0255
   90TCq2    H3 1383   3.682   2.845   1.884 -0.0318  0.7585  0.2098
   90TCq2    H4 1384   3.336   2.863   2.145 -1.0460 -0.8208 -2.5582
   91TMC2    C1 1385   0.093   3.147  16.492  0.6436  0.0857  0.1010
   91TMC2    C2 1386   0.105   3.250  16.399  0.2302 -0.1435 -0.5149
   91TMC2    C3 1387   4.716   3.317  16.359  0.1901 -0.3015 -0.6770
   91TMC2    C4 1388   4.695   3.120  16.551 -0.2218  0.3265  0.8169
   91TMC2    C5 1389   4.583   3.191  16.509  0.1823  0.1240  0.3586
   91TMC2    C6 1390   4.597   3.294  16.420 -0.1111  0.5304 -0.2574
   91TMC2     C 1391   0.166   3.026  16.459  0.4537  0.3992 -0.1178
   91TMC2     O 1392   0.120   2.920  16.497  0.5331 -0.0930  0.7380
   91TMC2     H 1393   0.206   3.276  16.370 -0.6985 -0.7397 -4.3132
   91TMC2    H1 1394   4.677   3.025  16.601 -1.2479  1.3607  2.4251
   91TMC2    H2 1395   4.510   3.342  16.376 -1.7147 -1.7311  0.4353
   91TMC2    C7 1396   4.450   3.143  16.557 -0.5029  0.8747 -0.7974
   91TMC2    C8 1397   0.013   3.439  16.281 -0.0300 -0.1714  0.1940
   91TMC2    O1 1398   4.437   3.079  16.663  0.1455  0.0713 -0.2224
   91TMC2    O2 1399   4.664   3.538  16.290 -0.2121 -0.0168  0.0373
   91TMC2    O5 1400   0.111   3.420  16.195 -0.0337 -0.2617  0.2426
   91TMC2    H5 1401   0.115   3.325  16.169  0.8299 -0.0063 -0.5616
   92MPD2     C 1402   0.330   2.807  16.298  0.3723 -0.2238  0.4553
   92MPD2    C1 1403   0.368   2.936  16.346  0.2273  0.0417  0.0055
   92MPD2    C2 1404   0.496   2.971  16.309 -0.4879 -0.6222 -0.5869
   92MPD2    C3 1405   0.591   2.882  16.257  0.6919  0.5327  0.6016
   92MPD2    C4 1406   0.555   2.755  16.225 -0.0010 -0.8860 -0.0211
   92MPD2    C5 1407   0.419   2.729  16.234 -0.2968  0.4059  0.1140
   92MPD2     H 1408   0.527   3.075  16.318  0.9768 -1.0893 -0.0965
   92MPD2    H1 1409   0.622   2.677  16.193  0.8701 -0.6084  1.1232
   92MPD2    H2 1410   0.225   2.779  16.307 -0.1203  1.5404  0.1144
   92MPD2    H3 1411   0.386   2.631  16.204 -0.2888  1.1902 -2.4250
   92MPD2     N 1412   0.718   2.929  16.225  0.2996  0.0996  0.3023
   92MPD2    H5 1413   0.742   3.026  16.244 -0.3616  0.5940 -1.3306
   92MPD2    N1 1414   0.284   3.042  16.393  0.6031 -0.8584 -0.2538
   92MPD2    H7 1415   0.330   3.130  16.412 -0.8455 -0.3413  0.8768
   93MPD2     C 1416   1.598   3.509  13.630 -0.3745  0.4591  0.2016
   93MPD2    C1 1417   1.610   3.375  13.672 -0.2167  0.1878 -0.1051
   93MPD2    C2 1418   1.495   3.317  13.712 -0.5053 -0.3923 -0.1176
   93MPD2    C3 1419   1.378   3.394  13.726 -0.7609 -0.3116  0.5660
   93MPD2    C4 1420   1.366   3.520  13.677  0.7645 -0.1913  0.4639
   93MPD2    C5 1421   1.483   3.587  13.638 -0.8725  1.3665  1.0369
   93MPD2     H 1422   1.492   3.210  13.726  1.2419 -0.4126  0.1528
   93MPD2    H1 1423   1.273   3.574  13.690  1.0126  0.4479 -0.3867
   93MPD2    H2 1424   1.685   3.567  13.601  1.9090 -1.4610  3.2921
   93MPD2    H3 1425   1.486   3.695  13.641 -0.9806  1.3989  0.0157
   93MPD2     N 1426   1.255   3.327  13.761  0.0863 -0.6495  0.5868
   93MPD2    H5 1427   1.172   3.367  13.718 -0.1057 -0.3178  1.2652
   93MPD2    N1 1428   1.729   3.302  13.682  0.1869 -0.6557 -0.1913
   93MPD2    H7 1429   1.727   3.201  13.691  0.1869 -0.5516  0.9376
   94TCq2    C1 1430   1.853   3.363  13.689  0.7462 -0.4240 -0.2940
   94TCq2    O2 1431   1.877   3.484  13.698  0.5137 -0.2139  0.6891
   94TCq2    C2 1432   1.964   3.270  13.683  0.1613 -0.1574  0.0776
   94TCq2    C3 1433   1.948   3.151  13.610 -0.1481  0.8083 -0.0520
   94TCq2    C4 1434   2.063   3.076  13.589 -0.2740  0.0533 -0.2130
   94TCq2    C5 1435   2.186   3.115  13.635 -0.3433 -0.3803  0.2576
   94TCq2    C6 1436   2.199   3.239  13.695  0.0921  0.2277 -0.3866
   94TCq2    C7 1437   2.089   3.319  13.709 -0.2914  0.1296 -0.3513
   94TCq2    C8 1438   2.337   3.291  13.706 -0.0883 -0.3883  0.3817
   94TCq2    O4 1439   2.428   3.208  13.692  0.3730 -0.1057  0.8570
   94TCq2    C9 1440   2.055   2.953  13.516 -0.3412 -0.9731 -0.0492
   94TCq2    O5 1441   2.154   2.878  13.516  0.3081 -0.0873  0.3832
   94TCq2    O6 1442   1.945   2.934  13.457  0.0809 -0.2429  0.2933
   94TCq2    H2 1443   1.860   3.111  13.560  0.7498 -1.3084  0.0617
   94TCq2    H3 1444   2.273   3.051  13.624 -0.6026 -0.6507 -0.2189
   94TCq2    H4 1445   2.097   3.422  13.740  1.1787 -0.0201 -0.2514
   95TMC2    C1 1446   1.987   4.645  16.191 -0.4407  0.2233 -0.5717
   95TMC2    C2 1447   2.007   4.543  16.285  0.1204  0.5010  0.1634
   95TMC2    C3 1448   1.906   4.521  16.376  0.8144 -0.8226 -0.2310
   95TMC2    C4 1449   1.879   0.005  16.191 -0.1814  0.3865  0.1377
   95TMC2    C5 1450   1.787   4.708  16.288 -0.2108 -0.2091 -0.3601
   95TMC2    C6 1451   1.803   4.614  16.382 -0.0111 -0.0386 -0.2184
   95TMC2     C 1452   2.067   4.647  16.078 -0.4924 -0.6841 -0.4666
   95TMC2     O 1453   2.080   0.028  16.019  0.1535  0.4705  0.6832
   95TMC2     H 1454   2.086   4.470  16.272  0.5730  0.7755  1.3210
   95TMC2    H1 1455   1.874   0.077  16.111 -1.9959 -2.0541 -1.9500
   95TMC2    H2 1456   1.718   4.583  16.442  0.1230  0.6767  0.3423
   95TMC2    C7 1457   1.663   0.051  16.271 -0.4821  0.4015  0.7227
   95TMC2    C8 1458   1.892   4.391  16.448 -0.7758  0.1870  0.3367
   95TMC2    O1 1459   1.601   0.072  16.372 -0.6842  0.6037 -0.2115
   95TMC2    O2 1460   1.778   4.358  16.471 -0.0975  0.1759  0.0433
   95TMC2    O5 1461   2.014   4.333  16.474 -0.0754  0.2204  0.3767
   95TMC2    H5 1462   2.089   4.394  16.460 -0.7624  1.4515  2.0803
   96MPD2     C 1463   2.400   4.421  15.762 -0.1489  0.8227  0.3042
   96MPD2    C1 1464   2.384   4.552  15.789  0.1259  0.2011 -0.2969
   96MPD2    C2 1465   2.292   4.584  15.881  0.0584 -0.5292 -0.3374
   96MPD2    C3 1466   2.210   4.491  15.943 -0.6130 -0.2262  0.1941
   96MPD2    C4 1467   2.228   4.361  15.915  0.1747  0.9617 -0.2977
   96MPD2    C5 1468   2.328   4.326  15.828  0.3074 -0.5082  0.1956
   96MPD2     H 1469   2.281   4.688  15.909 -0.5683 -0.1873 -1.8123
   96MPD2    H1 1470   2.167   4.286  15.964  0.5005  1.9625  1.6205
   96MPD2    H2 1471   2.473   4.385  15.690  0.0247  0.9441  0.4196
   96MPD2    H3 1472   2.336   4.220  15.803 -1.7984 -0.6396  0.0975
   96MPD2     N 1473   2.112   4.518  16.040  0.4754 -1.1545 -0.4810
   96MPD2    H5 1474   2.063   4.439  16.079 -0.4303 -0.2361  0.2474
   96MPD2    N1 1475   2.470   4.650  15.726  0.1140  0.2186 -0.4112
   96MPD2    H7 1476   2.546   4.614  15.670  0.0198  0.4571 -0.6914
   97MPD2     C 1477   4.687   2.241   1.694  0.6645  0.3739 -0.1433
   97MPD2    C1 1478   4.568   2.272   1.644  0.2276 -0.0242  0.3871
   97MPD2    C2 1479   4.557   2.329   1.515  0.3236 -0.0370  0.7768
   97MPD2    C3 1480   4.665   2.370   1.445 -0.6426 -0.0453 -0.1440
   97MPD2    C4 1481   0.062   2.338   1.500  0.5243 -0.3158  0.4427
   97MPD2    C5 1482   0.069   2.276   1.622  0.4730  0.0459  0.0997
   97MPD2     H 1483   4.458   2.349   1.474  1.9444 -1.7029 -4.0016
   97MPD2    H1 1484   0.154   2.362   1.448  0.2391 -0.4429 -0.1190
   97MPD2    H2 1485   4.704   2.196   1.791  1.5760 -0.1655 -0.5468
   97MPD2    H3 1486   0.166   2.251   1.663 -1.0607 -2.6002  2.0376
   97MPD2     N 1487   4.654   2.430   1.315 -0.2445  0.3875 -0.0183
   97MPD2    H5 1488   0.011   2.448   1.258 -0.3654  3.5635  0.7686
   97MPD2    N1 1489   4.458   2.250   1.731 -0.0254 -0.1590  0.0284
   97MPD2    H7 1490   4.485   2.212   1.821  0.0659 -2.0076 -0.7855
   98TCq2    C1 1491   4.536   2.476   1.256  0.5268 -0.0321 -0.3806
   98TCq2    O2 1492   4.426   2.486   1.303  0.0180  0.1271 -0.2140
   98TCq2    C2 1493   4.544   2.508   1.114  0.3551 -1.0012 -0.0753
   98TCq2    C3 1494   4.433   2.557   1.062 -0.8925  0.0975 -0.3653
   98TCq2    C4 1495   4.433   2.593   0.930 -1.0466  0.6257 -0.1685
   98TCq2    C5 1496   4.544   2.560   0.853 -0.2745  0.4825  0.4600
   98TCq2    C6 1497   4.660   2.514   0.911  0.1536 -0.6326 -0.0748
   98TCq2    C7 1498   4.662   2.483   1.047  0.4089  0.1731 -0.2043
   98TCq2    C8 1499   0.056   2.520   0.829 -0.5542 -0.1706  0.5846
   98TCq2    O4 1500   0.038   2.533   0.710  0.0986  0.0762 -0.2852
   98TCq2    C9 1501   4.324   2.674   0.881  1.2743 -0.2761 -0.0452
   98TCq2    O5 1502   4.327   2.698   0.759  0.7705 -0.3012 -0.2225
   98TCq2    O6 1503   4.241   2.715   0.966  0.2999  0.7375  0.4781
   98TCq2    H2 1504   4.350   2.589   1.124 -0.3289  4.3220 -1.7876
   98TCq2    H3 1505   4.549   2.585   0.748  0.1239  0.4807  0.4780
   98TCq2    H4 1506   0.024   2.452   1.103  0.1909  0.2042  0.1454
   99MPD2     C 1507   2.687   3.381   2.159 -0.0584 -0.1920 -0.7169
   99MPD2    C1 1508   2.615   3.495   2.113  0.5259  0.2805 -0.0624
   99MPD2    C2 1509   2.644   3.546   1.991 -0.4533  0.0785 -0.4235
   99MPD2    C3 1510   2.725   3.482   1.903  0.1890  0.5462 -0.0959
   99MPD2    C4 1511   2.790   3.371   1.943 -0.4750 -0.4108 -0.6269
   99MPD2    C5 1512   2.773   3.325   2.066  0.1564 -0.1876  0.5038
   99MPD2     H 1513   2.609   3.644   1.961  1.5971  1.1293  0.5757
   99MPD2    H1 1514   2.846   3.310   1.874  0.6898 -0.4868  0.3959
   99MPD2    H2 1515   2.674   3.339   2.258 -0.1879  0.3386 -0.5087
   99MPD2    H3 1516   2.804   3.223   2.090 -0.3926 -0.2262  1.0249
   99MPD2     N 1517   2.747   3.552   1.782 -0.3214 -0.3483 -0.1814
   99MPD2    H5 1518   2.693   3.637   1.770  2.1489  1.2822  0.2010
   99MPD2    N1 1519   2.521   3.569   2.190  0.6064  0.1451 -0.3858
   99MPD2    H7 1520   2.475   3.654   2.158 -1.7998 -0.1571  2.2711
  100TCq2    C1 1521   2.520   3.568   2.331 -0.1309  0.2702 -0.0598
  100TCq2    O2 1522   2.571   3.493   2.409 -0.1267 -0.2677 -0.3137
  100TCq2    C2 1523   2.451   3.672   2.394  0.1816 -0.7762  0.2811
  100TCq2    C3 1524   2.498   3.718   2.514 -0.0514  0.5688 -0.2953
  100TCq2    C4 1525   2.422   3.800   2.592 -0.3626  0.4305  0.4412
  100TCq2    C5 1526   2.297   3.843   2.556  0.1287  0.5754  0.7665
  100TCq2    C6 1527   2.255   3.797   2.433 -0.0273  0.4050  0.3729
  100TCq2    C7 1528   2.332   3.717   2.354  0.5689 -0.1442 -0.0149
  100TCq2    C8 1529   2.151   3.885   2.368 -0.5510  0.6133 -0.4097
  100TCq2    O4 1530   2.069   3.944   2.439 -0.5576 -0.5791 -0.2767
  100TCq2    C9 1531   2.460   3.827   2.730  0.3337 -0.6497 -0.1947
  100TCq2    O5 1532   2.376   3.890   2.805  0.6319  0.3163  0.4138
  100TCq2    O6 1533   2.572   3.785   2.773 -0.0531 -0.2682  0.2479
  100TCq2    H2 1534   2.600   3.693   2.539 -0.2616 -0.1460 -0.1547
  100TCq2    H3 1535   2.234   3.902   2.621 -2.1820  0.8290 -1.6983
  100TCq2    H4 1536   2.299   3.676   2.259  0.6547  0.9190 -0.4997
  101MPD2     C 1537   4.009   1.014  13.171 -0.4505  1.2060 -0.5603
  101MPD2    C1 1538   3.895   1.088  13.204 -0.2862 -0.6113  0.0115
  101MPD2    C2 1539   3.786   1.020  13.259 -0.9575 -0.3701 -0.1314
  101MPD2    C3 1540   3.789   0.885  13.269 -0.0699  0.0204 -0.2429
  101MPD2    C4 1541   3.904   0.820  13.237  0.3214  0.1552  0.8144
  101MPD2    C5 1542   4.012   0.880  13.189 -0.3049  0.5691 -0.4303
  101MPD2     H 1543   3.693   1.073  13.275  0.4178  1.6868  1.1089
  101MPD2    H1 1544   3.908   0.712  13.232 -1.5269  0.0466  1.5057
  101MPD2    H2 1545   4.100   1.052  13.125 -0.1720  1.7670  0.4535
  101MPD2    H3 1546   4.097   0.818  13.164 -0.6423  1.1356 -2.9950
  101MPD2     N 1547   3.677   0.826  13.331 -0.4642 -0.2943 -0.1813
  101MPD2    H5 1548   3.601   0.882  13.367  0.5769  1.2620 -0.4082
  101MPD2    N1 1549   3.888   1.226  13.172  0.0020 -0.9957 -0.9166
  101MPD2    H7 1550   3.970   1.276  13.142 -1.2798  1.6293 -0.0741
  102TCq2    C1 1551   3.856   1.524  12.768  0.1243 -0.5315  0.1363
  102TCq2    O2 1552   3.940   1.441  12.745 -0.2175  0.2935  0.4576
  102TCq2    C2 1553   3.803   1.536  12.903  0.1653  0.1267 -0.5017
  102TCq2    C3 1554   3.728   1.646  12.941  0.6828  0.3062  0.2272
  102TCq2    C4 1555   3.700   1.651  13.075  0.0068 -0.3589  0.1369
  102TCq2    C5 1556   3.726   1.554  13.164 -0.0243  0.0388 -0.1150
  102TCq2    C6 1557   3.791   1.443  13.119  0.4638 -0.0755 -0.1149
  102TCq2    C7 1558   3.829   1.444  12.994  0.4337 -0.3646 -0.4430
  102TCq2    C8 1559   3.781   1.314  13.189  0.0705 -0.1261  0.2479
  102TCq2    O4 1560   3.672   1.293  13.248  0.7098  0.1538 -0.3442
  102TCq2    C9 1561   3.619   1.765  13.112  0.0036 -0.2623 -0.8963
  102TCq2    O5 1562   3.569   1.836  13.019  0.2812  0.1639 -0.2562
  102TCq2    O6 1563   3.584   1.776  13.228  0.0272 -0.4201 -0.2770
  102TCq2    H2 1564   3.690   1.719  12.870 -1.2156  0.7660  1.7274
  102TCq2    H3 1565   3.687   1.553  13.265  1.0344  3.2005  0.3389
  102TCq2    H4 1566   3.869   1.352  12.954 -0.3044 -1.1739  0.7077
  103TMC2    C1 1567   2.406   1.020  12.889 -0.1803 -0.3056  0.4930
  103TMC2    C2 1568   2.529   0.987  12.927  0.0190 -0.1758 -0.2407
  103TMC2    C3 1569   2.577   1.047  13.037  0.5374 -0.1576  0.0725
  103TMC2    C4 1570   2.335   1.122  12.951  0.0311 -0.0425  0.4767
  103TMC2    C5 1571   2.393   1.192  13.054  0.2181 -0.1726  0.0273
  103TMC2    C6 1572   2.514   1.154  13.096  0.2032 -0.2950  0.6810
  103TMC2     C 1573   2.332   0.949  12.775 -0.3593  0.0549  0.0651
  103TMC2     O 1574   2.220   0.994  12.743  0.1132 -0.3729 -0.4985
  103TMC2     H 1575   2.584   0.903  12.886 -1.5768 -1.1970 -0.3038
  103TMC2    H1 1576   2.236   1.143  12.912  0.7735  0.4816 -1.1270
  103TMC2    H2 1577   2.552   1.178  13.195 -1.1465  0.7162  0.9582
  103TMC2    C7 1578   2.312   1.283  13.131 -0.4464  0.3821  0.0463
  103TMC2    C8 1579   2.716   1.021  13.063 -0.2060  0.0483 -0.0460
  103TMC2    O1 1580   2.193   1.254  13.151 -0.3241 -0.0709 -0.1423
  103TMC2    O2 1581   2.755   0.913  13.027 -0.0609  0.1070  0.5881
  103TMC2    O5 1582   2.769   1.137  13.009 -0.0448 -0.0689  0.0698
  103TMC2    H5 1583   2.753   1.214  13.066 -1.2551 -0.3676  0.1325
  104MPD2     C 1584   2.477   0.686  12.555 -0.2782  0.2098  0.0374
  104MPD2    C1 1585   2.391   0.787  12.591 -0.4015 -0.7464 -0.0926
  104MPD2    C2 1586   2.294   0.827  12.496  0.2287  0.4925  0.1761
  104MPD2    C3 1587   2.274   0.758  12.378  0.7139 -0.2486  0.4107
  104MPD2    C4 1588   2.363   0.657  12.343  0.3371 -0.0253  0.3449
  104MPD2    C5 1589   2.456   0.611  12.441 -0.0231  0.3916  0.3892
  104MPD2     H 1590   2.235   0.915  12.523 -0.1971  0.3316 -0.2280
  104MPD2    H1 1591   2.368   0.608  12.246  0.7891 -0.5250  0.6239
  104MPD2    H2 1592   2.557   0.649  12.617 -1.3347  1.6416  2.2262
  104MPD2    H3 1593   2.527   0.531  12.421 -0.8874 -0.2628 -0.0296
  104MPD2     N 1594   2.159   0.787  12.298 -1.0467  0.2015  0.7007
  104MPD2    H5 1595   2.100   0.861  12.336 -1.8016  0.0963 -0.2503
  104MPD2    N1 1596   2.411   0.854  12.716 -0.4477  0.8811  0.2531
  104MPD2    H7 1597   2.491   0.828  12.772 -0.7992 -0.1620  0.2675
  105MPD2     C 1598   3.698   4.352   0.490 -0.4929  0.4082  0.6147
  105MPD2    C1 1599   3.667   4.487   0.478 -0.0074 -0.1758 -0.1019
  105MPD2    C2 1600   3.571   4.543   0.563 -0.1814  0.3548  0.2764
  105MPD2    C3 1601   3.517   4.467   0.661 -0.4648 -0.0336  0.0748
  105MPD2    C4 1602   3.552   4.333   0.671  0.0073 -0.0629  0.4907
  105MPD2    C5 1603   3.630   4.277   0.585 -0.1028  0.6949  0.5282
  105MPD2     H 1604   3.539   4.645   0.547  0.4027  0.4734 -0.1369
  105MPD2    H1 1605   3.498   4.271   0.742 -1.3393 -0.4808 -0.8972
  105MPD2    H2 1606   3.753   4.300   0.412 -0.0362  0.0311  1.1852
  105MPD2    H3 1607   3.654   4.172   0.586  2.0218  1.1418 -4.0406
  105MPD2     N 1608   3.423   4.533   0.744  0.5589 -0.3612 -0.2517
  105MPD2    H5 1609   3.405   4.629   0.715  2.2012 -0.1066 -0.4371
  105MPD2    N1 1610   3.704   4.562   0.367  0.1659 -0.4865 -0.2648
  105MPD2    H7 1611   3.676   4.660   0.364  1.3163 -0.1059  1.5436
  106TCq2    C1 1612   3.363   4.492   0.865  0.0354 -0.4003 -0.0811
  106TCq2    O2 1613   3.397   4.399   0.941 -0.2823 -0.4966  0.2801
  106TCq2    C2 1614   3.246   4.581   0.901  0.1293 -0.6277  0.5812
  106TCq2    C3 1615   3.198   4.576   1.034  0.0758  0.2168 -0.3392
  106TCq2    C4 1616   3.100   4.669   1.063  0.4611  0.1934 -0.0725
  106TCq2    C5 1617   3.053   0.034   0.977 -0.5624  0.3290  0.0741
  106TCq2    C6 1618   3.099   0.032   0.851 -0.5093 -0.4845  0.2485
  106TCq2    C7 1619   3.193   4.664   0.808 -0.3932  0.3160 -0.6179
  106TCq2    C8 1620   3.025   0.114   0.756 -0.5603 -0.3399 -0.3457
  106TCq2    O4 1621   3.009   0.068   0.644 -0.0689 -0.1624  0.5147
  106TCq2    C9 1622   3.043   4.652   1.190  0.2493 -0.1108 -0.1371
  106TCq2    O5 1623   2.947   0.003   1.221  0.0380  0.0563 -0.3205
  106TCq2    O6 1624   3.074   4.553   1.265 -0.2778 -0.0589 -0.3727
  106TCq2    H2 1625   3.227   4.501   1.107 -1.0400 -0.1095 -0.2282
  106TCq2    H3 1626   2.961   0.087   0.995 -0.4213  0.7914 -0.5687
  106TCq2    H4 1627   3.232   4.670   0.707  0.5380  0.4879 -0.2429
  107TMC2    C1 1628   3.998   3.674  11.156  0.3997  0.4949  0.2342
  107TMC2    C2 1629   3.995   3.792  11.085 -0.3039 -0.0822  0.6349
  107TMC2    C3 1630   4.034   3.794  10.958  0.1446  0.0237 -0.6822
  107TMC2    C4 1631   4.027   3.557  11.095 -0.1640  0.3066  0.1971
  107TMC2    C5 1632   4.054   3.566  10.955 -0.1199 -0.8774  0.1060
  107TMC2    C6 1633   4.054   3.690  10.883 -0.0398 -0.4253  1.1433
  107TMC2     C 1634   3.961   3.670  11.298  0.2864  0.7790  0.2371
  107TMC2     O 1635   3.971   3.779  11.355  0.1640 -0.0545  0.1054
  107TMC2     H 1636   3.979   3.881  11.145  0.3522 -0.0272  0.7279
  107TMC2    H1 1637   4.033   3.466  11.153  0.7413 -0.6226 -1.3356
  107TMC2    H2 1638   4.062   3.700  10.776 -0.6379  1.4639  1.2753
  107TMC2    C7 1639   4.148   3.469  10.909  0.6889  0.2610 -1.0363
  107TMC2    C8 1640   4.048   3.918  10.892  0.3683 -0.2209 -0.5839
  107TMC2    O1 1641   4.136   3.350  10.940  0.0883  0.3682  0.0356
  107TMC2    O2 1642   4.085   3.928  10.779  0.2146 -0.2051  0.3664
  107TMC2    O5 1643   4.075   4.013  10.988 -0.1387 -0.2898 -0.2651
  107TMC2    H5 1644   4.090   3.984  11.080 -1.6599  0.0988  0.1067
  108MPD2     C 1645   3.807   3.409  11.501 -0.2704 -0.3180 -0.0017
  108MPD2    C1 1646   3.888   3.521  11.477  0.1386 -0.3447  0.5616
  108MPD2    C2 1647   3.943   3.586  11.583  0.4525  0.4366  0.3611
  108MPD2    C3 1648   3.912   3.559  11.708 -0.6063 -0.1112  0.6530
  108MPD2    C4 1649   3.818   3.456  11.729  0.6223 -0.0450  0.3879
  108MPD2    C5 1650   3.768   3.381  11.626  0.1549  0.0685 -0.8666
  108MPD2     H 1651   4.020   3.659  11.558 -0.3267  0.3671 -2.1940
  108MPD2    H1 1652   3.787   3.425  11.828 -1.0914  1.7597  0.4007
  108MPD2    H2 1653   3.763   3.349  11.422  0.8428 -2.1230  0.7584
  108MPD2    H3 1654   3.694   3.304  11.646  0.0457  0.9386  2.0921
  108MPD2     N 1655   3.961   3.619  11.824  0.4094  0.7167 -0.0349
  108MPD2    H5 1656   3.916   3.597  11.912  1.4164 -0.9720  0.0424
  108MPD2    N1 1657   3.905   3.551  11.342 -0.2126 -0.3529  0.3230
  108MPD2    H7 1658   3.871   3.485  11.273  3.5654 -1.8344 -0.0800
  109MPD2     C 1659   3.493   1.206   2.428  0.3081  0.8320 -0.2038
  109MPD2    C1 1660   3.588   1.186   2.335  0.5108  0.3749  0.0028
  109MPD2    C2 1661   3.715   1.229   2.359 -0.6431  0.1788 -1.2555
  109MPD2    C3 1662   3.746   1.295   2.478  0.0040  0.1718  0.4022
  109MPD2    C4 1663   3.645   1.305   2.575 -0.4094  0.6368 -0.2887
  109MPD2    C5 1664   3.518   1.264   2.552  0.4008  1.0180  0.6126
  109MPD2     H 1665   3.790   1.224   2.280  0.0060 -0.6600 -0.5951
  109MPD2    H1 1666   3.670   1.342   2.674 -0.5938 -1.0622  0.3848
  109MPD2    H2 1667   3.393   1.169   2.409  0.0251  0.5268  1.8605
  109MPD2    H3 1668   3.442   1.273   2.629 -1.3127 -1.4624 -0.7708
  109MPD2     N 1669   3.875   1.334   2.506  0.4884  0.0072  0.8596
  109MPD2    H5 1670   3.933   1.344   2.423 -0.9063 -0.4692 -0.1763
  109MPD2    N1 1671   3.549   1.104   2.228  0.1487  0.1688 -0.5184
  109MPD2    H7 1672   3.454   1.069   2.231  0.2681 -0.1318 -0.1866
  110TCq2    C1 1673   3.930   1.334   2.631 -0.4955  0.1176  0.0965
  110TCq2    O2 1674   3.893   1.281   2.734 -0.5703 -0.0181  1.0327
  110TCq2    C2 1675   4.067   1.388   2.633 -0.2225  0.0064  0.1821
  110TCq2    C3 1676   4.159   1.346   2.724 -0.1285 -0.1893 -0.1957
  110TCq2    C4 1677   4.277   1.411   2.728 -0.5523 -0.1545 -0.8804
  110TCq2    C5 1678   4.309   1.505   2.636  0.5921 -0.1522 -0.3892
  110TCq2    C6 1679   4.215   1.545   2.550  0.0228 -0.9695  0.1698
  110TCq2    C7 1680   4.091   1.490   2.552 -0.5615 -0.3357 -0.0218
  110TCq2    C8 1681   4.243   1.657   2.460  0.0746 -0.2441 -0.9464
  110TCq2    O4 1682   4.150   1.740   2.440 -0.2774 -0.3321 -0.5173
  110TCq2    C9 1683   4.384   1.360   2.813 -0.2070 -0.1815  0.8279
  110TCq2    O5 1684   4.499   1.415   2.802 -0.2573 -0.0259  0.1739
  110TCq2    O6 1685   4.360   1.262   2.892  0.8717 -0.0663 -0.2723
  110TCq2    H2 1686   4.147   1.264   2.794 -0.2243  0.7606  0.8915
  110TCq2    H3 1687   4.404   1.558   2.641  0.3152  0.3856 -0.8061
  110TCq2    H4 1688   4.012   1.533   2.491  0.9186 -1.0639 -2.4347
  111TMC2    C1 1689   4.107   1.318  11.136  0.9721 -0.3141  0.2010
  111TMC2    C2 1690   4.043   1.195  11.142 -0.0062 -0.8758  0.0302
  111TMC2    C3 1691   4.073   1.113  11.248 -0.7085 -0.0412  0.0399
  111TMC2    C4 1692   4.203   1.359  11.227  0.0836  1.0201  0.0414
  111TMC2    C5 1693   4.231   1.270  11.333  0.4590 -0.0915  0.2619
  111TMC2    C6 1694   4.150   1.159  11.353  0.5402  0.7739 -0.9805
  111TMC2     C 1695   4.096   1.392  11.011  0.7236 -0.1905 -0.2759
  111TMC2     O 1696   4.185   1.450  10.949  0.6465  1.0073 -0.1945
  111TMC2     H 1697   3.998   1.154  11.053 -0.6340  1.9773 -0.9842
  111TMC2    H1 1698   4.256   1.453  11.215  0.9916  0.5305  0.2110
  111TMC2    H2 1699   4.182   1.097  11.435  0.0851  2.2737  0.3255
  111TMC2    C7 1700   4.310   1.322  11.441 -0.8270  0.1782 -0.0555
  111TMC2    C8 1701   4.006   0.988  11.255  0.2935  0.1201  0.8018
  111TMC2    O1 1702   4.276   1.281  11.552 -0.4733 -0.0876  0.1635
  111TMC2    O2 1703   3.896   0.972  11.208  0.2675 -0.2884 -0.1648
  111TMC2    O5 1704   4.106   0.905  11.241 -0.0210 -0.1711  0.4196
  111TMC2    H5 1705   4.195   0.934  11.270 -0.5189  0.3240  1.4547
  112MPD2     C 1706   3.771   1.593  10.657  0.3169 -0.1990 -0.7941
  112MPD2    C1 1707   3.904   1.628  10.680 -0.7133 -0.2463  0.4365
  112MPD2    C2 1708   3.975   1.564  10.785  0.2607  0.4483  0.0910
  112MPD2    C3 1709   3.906   1.466  10.864 -0.3801  0.3389 -0.5388
  112MPD2    C4 1710   3.772   1.439  10.838 -0.5550  0.9556 -0.6348
  112MPD2    C5 1711   3.708   1.501  10.733  0.0643  0.0524 -0.0692
  112MPD2     H 1712   4.075   1.596  10.808 -0.2479  2.1959 -0.1620
  112MPD2    H1 1713   3.712   1.382  10.908 -2.2793  2.6645 -0.7171
  112MPD2    H2 1714   3.716   1.642  10.578 -1.5107 -2.3304 -0.8274
  112MPD2    H3 1715   3.601   1.491  10.724  0.1389  0.8903 -1.7893
  112MPD2     N 1716   3.965   1.389  10.967 -0.0486  0.4159 -0.2658
  112MPD2    H5 1717   3.902   1.333  11.024  1.1657 -0.0042  0.6577
  112MPD2    N1 1718   3.966   1.734  10.618  0.0025  0.4985 -0.4644
  112MPD2    H7 1719   4.067   1.737  10.616 -0.0162  1.0651 -0.6233
  113MPD2     C 1720   2.419   4.114   0.896  0.3819 -0.1134 -0.3916
  113MPD2    C1 1721   2.358   4.231   0.847 -0.1937 -0.2442  0.4071
  113MPD2    C2 1722   2.293   4.238   0.729  0.3024  0.0902  0.0854
  113MPD2    C3 1723   2.260   4.121   0.659 -0.5224 -0.0037 -0.4358
  113MPD2    C4 1724   2.321   4.004   0.705  0.7314  0.2208 -0.4566
  113MPD2    C5 1725   2.398   4.002   0.824 -0.5882  0.0420 -0.2769
  113MPD2     H 1726   2.263   4.334   0.690 -0.3962  0.8642  2.5826
  113MPD2    H1 1727   2.304   3.915   0.647  0.8066 -0.7728  1.0291
  113MPD2    H2 1728   2.479   4.103   0.986 -0.7158  2.4987  0.6548
  113MPD2    H3 1729   2.443   3.909   0.854  1.0163 -0.0096 -2.8194
  113MPD2     N 1730   2.163   4.108   0.554  0.2461 -0.0005 -0.4560
  113MPD2    H5 1731   2.149   4.015   0.516  0.1966 -1.4353  3.1046
  113MPD2    N1 1732   2.364   4.352   0.929 -0.3375 -0.0435  0.3767
  113MPD2    H7 1733   2.308   4.430   0.898 -0.0043 -0.8431 -2.1947
  114TCq2    C1 1734   2.099   4.216   0.500  0.0468 -0.3080  0.1021
  114TCq2    O2 1735   2.123   4.335   0.511 -0.5474  0.1835 -0.4858
  114TCq2    C2 1736   1.994   4.183   0.409 -0.5820  0.0523 -0.6500
  114TCq2    C3 1737   1.958   4.265   0.305 -0.3085 -0.3555 -0.5610
  114TCq2    C4 1738   1.851   4.234   0.230  1.0595 -0.0069 -0.1780
  114TCq2    C5 1739   1.788   4.117   0.254 -0.9645  0.2952  0.3464
  114TCq2    C6 1740   1.825   4.031   0.352 -0.5377 -0.5173 -0.0847
  114TCq2    C7 1741   1.932   4.067   0.431  0.1470  0.1479 -0.0413
  114TCq2    C8 1742   1.752   3.916   0.385  0.2419 -0.1430 -0.1074
  114TCq2    O4 1743   1.811   3.840   0.465  0.1486 -0.5342 -0.0189
  114TCq2    C9 1744   1.785   4.331   0.155 -0.6376 -0.3958 -0.2906
  114TCq2    O5 1745   1.832   4.450   0.148  0.2417  0.3903 -0.3482
  114TCq2    O6 1746   1.691   4.292   0.081 -0.5339 -0.0704 -0.3651
  114TCq2    H2 1747   1.990   4.368   0.302 -2.1658  0.2379  0.1595
  114TCq2    H3 1748   1.689   4.108   0.210 -1.2936 -2.6354  1.6765
  114TCq2    H4 1749   1.955   4.007   0.518 -0.1523  1.5951  1.0443
  115TMC2    C1 1750   2.959   2.056   0.365 -0.2629  0.2707  0.0912
  115TMC2    C2 1751   2.993   2.060   0.497 -0.1151  0.2540 -0.5082
  115TMC2    C3 1752   3.023   2.184   0.551  0.0297  0.1834 -0.1500
  115TMC2    C4 1753   2.959   2.171   0.289  0.6918  0.4811 -0.2854
  115TMC2    C5 1754   2.996   2.294   0.355 -0.5394  0.0017 -0.5642
  115TMC2    C6 1755   3.009   2.306   0.488 -0.0458  0.2384  0.1542
  115TMC2     C 1756   2.892   1.936   0.316  0.4129 -0.0540  0.5548
  115TMC2     O 1757   2.943   1.883   0.218  0.2209  0.3211  0.0280
  115TMC2     H 1758   2.984   1.975   0.564  0.6075 -0.1218 -0.8918
  115TMC2    H1 1759   2.923   2.168   0.187  0.8162 -1.8916 -0.2583
  115TMC2    H2 1760   3.039   2.404   0.524 -0.2569  0.6344 -0.7606
  115TMC2    C7 1761   2.957   2.417   0.295  0.1297  0.4876 -0.3132
  115TMC2    C8 1762   3.080   2.186   0.685 -0.4261  0.5272 -0.6440
  115TMC2    O1 1763   2.917   2.508   0.365  0.1490 -0.3331  0.1545
  115TMC2    O2 1764   3.085   2.283   0.763  0.0600  0.1973 -0.1713
  115TMC2    O5 1765   3.182   2.094   0.679 -0.3249  0.5174  0.0605
  115TMC2    H5 1766   3.188   2.044   0.595  1.4885 -0.5823  0.8676
  116MPD2     C 1767   2.506   1.604   0.339  0.2014  0.1939 -0.3403
  116MPD2    C1 1768   2.624   1.593   0.266  0.7815  0.1093 -0.4957
  116MPD2    C2 1769   2.720   1.691   0.286  0.2617  0.1365  0.2980
  116MPD2    C3 1770   2.703   1.795   0.373 -0.3480 -0.6752 -0.3461
  116MPD2    C4 1771   2.588   1.798   0.450 -0.4134 -0.6897 -0.0137
  116MPD2    C5 1772   2.493   1.705   0.434 -0.3698  0.2150 -0.0631
  116MPD2     H 1773   2.815   1.687   0.234  0.0429  2.1180 -0.2471
  116MPD2    H1 1774   2.573   1.871   0.529 -0.0291 -0.5171 -0.1005
  116MPD2    H2 1775   2.430   1.527   0.332  0.4781 -0.0066 -1.2011
  116MPD2    H3 1776   2.411   1.694   0.504 -0.3989  1.9211  0.1689
  116MPD2     N 1777   2.792   1.903   0.400 -0.1796  0.1192  0.0866
  116MPD2    H5 1778   2.777   1.961   0.483  0.4125  0.8619 -0.3252
  116MPD2    N1 1779   2.636   1.491   0.168  0.5425 -0.0328  0.3455
  116MPD2    H7 1780   2.563   1.424   0.145  1.4541 -1.5459  1.8410
  117TMC2    C1 1781   1.364   3.491  14.137  0.4726  0.6255  0.0493
  117TMC2    C2 1782   1.437   3.383  14.127 -0.1297 -0.2317  0.4931
  117TMC2    C3 1783   1.557   3.388  14.068 -0.5529 -0.4731  0.7392
  117TMC2    C4 1784   1.410   3.615  14.092  0.1046 -0.7380  0.1936
  117TMC2    C5 1785   1.537   3.616  14.027  1.0562 -0.3467  0.4613
  117TMC2    C6 1786   1.604   3.501  14.011  0.4123  0.1974  0.7000
  117TMC2     C 1787   1.219   3.454  14.114  0.1913  0.6020 -0.7834
  117TMC2     O 1788   1.182   3.339  14.122 -0.3893 -0.1993 -0.0358
  117TMC2     H 1789   1.395   3.296  14.176  1.0140 -1.2836 -0.3727
  117TMC2    H1 1790   1.349   3.702  14.077  2.7535  0.8864 -1.2458
  117TMC2    H2 1791   1.706   3.508  13.974  0.8861 -2.3178  1.4954
  117TMC2    C7 1792   1.617   3.737  14.013 -0.4476  0.0954  0.6039
  117TMC2    C8 1793   1.641   3.271  14.075 -0.9732 -0.1636 -0.3242
  117TMC2    O1 1794   1.700   3.744  13.921  0.1389 -0.1444 -0.4358
  117TMC2    O2 1795   1.759   3.268  14.058 -0.0262 -0.5605  0.1027
  117TMC2    O5 1796   1.560   3.167  14.064  0.5409  0.5067  0.2167
  117TMC2    H5 1797   1.468   3.201  14.065 -0.5441 -2.3946  1.5519
  118MPD2     C 1798   1.667   4.001  14.265  0.6063  0.3257  0.2661
  118MPD2    C1 1799   1.682   3.938  14.141  0.3002  0.2658  0.5570
  118MPD2    C2 1800   1.782   3.982  14.058 -0.7877  0.1951 -0.5745
  118MPD2    C3 1801   1.846   4.102  14.085 -0.2520  0.5744  0.8102
  118MPD2    C4 1802   1.831   4.158  14.206 -0.2963 -0.5808  0.0571
  118MPD2    C5 1803   1.747   4.108  14.298 -0.0004  0.2390 -0.7142
  118MPD2     H 1804   1.804   3.930  13.966  1.8319 -1.0149  0.7465
  118MPD2    H1 1805   1.892   4.243  14.233  0.4173 -0.8753 -0.6302
  118MPD2    H2 1806   1.593   3.962  14.333  1.5333  0.9198  1.6198
  118MPD2    H3 1807   1.735   4.168  14.388 -0.4095 -0.2039 -0.4773
  118MPD2     N 1808   1.936   4.160  13.987 -0.1544 -0.4108  0.2714
  118MPD2    H5 1809   1.998   4.237  14.008 -0.8545  0.2128  0.0445
  118MPD2    N1 1810   1.604   3.819  14.125  0.0674 -0.3258 -0.5062
  118MPD2    H7 1811   1.526   3.798  14.186  0.9205  0.2167  0.7818
  119MPD2     C 1812   4.416   0.821  13.208  0.4349 -0.7197  0.9895
  119MPD2    C1 1813   4.327   0.756  13.288  0.3490  0.1378 -0.2125
  119MPD2    C2 1814   4.265   0.641  13.244  0.2814 -0.5122  0.7102
  119MPD2    C3 1815   4.321   0.571  13.140  0.5955  0.0680  0.4975
  119MPD2    C4 1816   4.421   0.633  13.067 -0.1269  0.2578 -0.2886
  119MPD2    C5 1817   4.467   0.753  13.097 -0.3049 -0.2670 -0.7253
  119MPD2     H 1818   4.183   0.597  13.299 -1.0277  1.7194  0.5528
  119MPD2    H1 1819   4.457   0.594  12.972  0.8784 -0.5356  0.4252
  119MPD2    H2 1820   4.465   0.913  13.234  0.1242 -0.7136  1.5550
  119MPD2    H3 1821   4.551   0.787  13.037  1.6713  1.2046  2.9263
  119MPD2     N 1822   4.285   0.444  13.103 -0.4123 -0.0331  0.0386
  119MPD2    H5 1823   4.341   0.405  13.028 -2.5952 -0.2410 -1.5080
  119MPD2    N1 1824   4.299   0.816  13.412 -0.1814  0.1635 -0.0047
  119MPD2    H7 1825   4.344   0.904  13.436 -0.0753  0.4022 -1.0908
  120TCq2    C1 1826   4.185   0.370  13.163 -0.4318  0.1660  0.3595
  120TCq2    O2 1827   4.101   0.408  13.243  0.4171 -0.1664  0.1659
  120TCq2    C2 1828   4.194   0.226  13.129  0.8979  0.0207 -0.7408
  120TCq2    C3 1829   4.221   0.191  12.993  0.7716 -0.1151 -0.8097
  120TCq2    C4 1830   4.168   0.082  12.936  0.7639  0.1952  0.4675
  120TCq2    C5 1831   4.076   0.009  13.004  0.0256 -0.5074  0.3116
  120TCq2    C6 1832   4.041   0.045  13.134  0.5223  0.5419  0.0514
  120TCq2    C7 1833   4.104   0.151  13.197 -0.3282 -0.4694  0.8585
  120TCq2    C8 1834   3.915   4.714  13.194  0.2601  0.2915 -0.9009
  120TCq2    O4 1835   3.830   4.666  13.120  0.2096 -1.0806 -0.2397
  120TCq2    C9 1836   4.194   0.044  12.803 -0.0881  0.2741  0.3930
  120TCq2    O5 1837   4.271   0.120  12.737 -0.0112  0.5198 -0.1006
  120TCq2    O6 1838   4.146   4.657  12.764 -0.2321 -0.3731  0.1255
  120TCq2    H2 1839   4.284   0.254  12.931  0.2950 -0.4308 -1.6116
  120TCq2    H3 1840   4.038   4.646  12.953  0.2112 -0.8488  0.7606
  120TCq2    H4 1841   4.091   0.173  13.302 -1.1526  1.3908  0.3693
  121TMC2    C1 1842   1.284   2.286  14.424  0.6837 -1.1311  0.0745
  121TMC2    C2 1843   1.325   2.263  14.556 -0.5304 -0.5906 -0.5521
  121TMC2    C3 1844   1.273   2.150  14.621 -0.7799  0.5644 -0.2964
  121TMC2    C4 1845   1.203   2.200  14.354 -0.0445 -0.7607  0.2460
  121TMC2    C5 1846   1.158   2.084  14.425  0.5348 -0.3031  0.8924
  121TMC2    C6 1847   1.193   2.058  14.555 -0.9229 -0.5777 -0.1918
  121TMC2     C 1848   1.326   2.412  14.369  0.3259  0.4275 -0.2717
  121TMC2     O 1849   1.334   2.500  14.451  0.2499 -0.2993  0.3235
  121TMC2     H 1850   1.391   2.334  14.605 -0.8914 -1.5467  1.3020
  121TMC2    H1 1851   1.194   2.224  14.249  1.4619  0.1990  0.3297
  121TMC2    H2 1852   1.158   1.980  14.621  1.0126 -0.6336  0.7466
  121TMC2    C7 1853   1.059   1.998  14.372  0.0598 -0.5691 -0.7608
  121TMC2    C8 1854   1.260   2.153  14.764  0.9279  0.4538 -0.5353
  121TMC2    O1 1855   1.035   1.902  14.441  0.2718 -0.4914  0.3959
  121TMC2    O2 1856   1.145   2.160  14.811  0.0212  0.1409 -0.0326
  121TMC2    O5 1857   1.379   2.147  14.833  0.1759 -0.1097  0.1144
  121TMC2    H5 1858   1.462   2.149  14.781 -0.6738  0.1775 -1.2299
  122MPD2     C 1859   1.403   2.652  14.210 -0.1288  0.2239  0.0040
  122MPD2    C1 1860   1.388   2.524  14.159  0.0635  0.0652 -0.1274
  122MPD2    C2 1861   1.431   2.503  14.027 -0.0140 -0.4465  0.0455
  122MPD2    C3 1862   1.474   2.610  13.947  0.4404  0.9254 -0.6660
  122MPD2    C4 1863   1.491   2.735  14.003 -0.7228 -0.7779 -0.3330
  122MPD2    C5 1864   1.446   2.754  14.131  0.3259  0.2100  1.1607
  122MPD2     H 1865   1.432   2.403  13.985  1.0548 -0.8949  1.1358
  122MPD2    H1 1866   1.507   2.832  13.957 -2.9531  0.8943  2.4017
  122MPD2    H2 1867   1.386   2.680  14.313 -4.6025 -1.1821 -0.3283
  122MPD2    H3 1868   1.437   2.851  14.179  0.6395  0.8101  0.0149
  122MPD2     N 1869   1.492   2.606  13.807 -0.1287  0.2201 -0.2812
  122MPD2    H5 1870   1.518   2.694  13.762  0.5750 -0.3452 -0.9844
  122MPD2    N1 1871   1.351   2.411  14.233  0.0113  0.2251  0.5307
  122MPD2    H7 1872   1.349   2.328  14.176  1.0731  0.1176  0.6480
  123MPD2     C 1873   4.047   0.203   9.331  0.1121 -0.7819 -0.6457
  123MPD2    C1 1874   4.181   0.210   9.364 -1.2594 -0.3062  0.3819
  123MPD2    C2 1875   4.268   0.252   9.268  0.1477  0.4033  0.3679
  123MPD2    C3 1876   4.211   0.290   9.143 -0.6922 -0.1891 -0.4742
  123MPD2    C4 1877   4.078   0.284   9.112 -0.2166 -0.0666  0.5209
  123MPD2    C5 1878   3.993   0.233   9.207  1.3162 -0.3706 -0.0156
  123MPD2     H 1879   4.377   0.254   9.269  0.1721 -1.7663  1.7791
  123MPD2    H1 1880   4.042   0.317   9.016 -1.6442 -1.9563  0.3956
  123MPD2    H2 1881   3.975   0.180   9.409 -1.5740 -0.2309 -2.0348
  123MPD2    H3 1882   3.886   0.234   9.188  1.0127 -0.3604  1.6967
  123MPD2     N 1883   4.302   0.340   9.051  0.0598 -0.0095  0.9023
  123MPD2    H5 1884   4.400   0.355   9.073  0.3416  1.6508 -1.4765
  123MPD2    N1 1885   4.224   0.179   9.495 -0.8542  0.0022  0.2246
  123MPD2    H7 1886   4.154   0.150   9.563 -1.6177  1.4934  0.0743
  124TCq2    C1 1887   4.276   0.396   8.932  0.0705 -0.0930 -0.0104
  124TCq2    O2 1888   4.174   0.399   8.863 -0.3451 -0.0670 -0.3937
  124TCq2    C2 1889   4.396   0.439   8.868  0.0482  0.0320  0.3598
  124TCq2    C3 1890   4.397   0.536   8.773 -0.6034 -0.0822 -0.2806
  124TCq2    C4 1891   4.505   0.540   8.690 -0.6033  0.0794  0.2531
  124TCq2    C5 1892   4.610   0.451   8.700  0.1005  0.3822 -0.1690
  124TCq2    C6 1893   4.597   0.355   8.797  0.1904 -0.8689  0.2217
  124TCq2    C7 1894   4.492   0.338   8.880 -0.2760  0.3603 -0.7990
  124TCq2    C8 1895   4.688   0.248   8.793  0.5083 -0.9344  0.1068
  124TCq2    O4 1896   4.651   0.136   8.816 -0.1426 -0.3615  0.2154
  124TCq2    C9 1897   4.527   0.649   8.599  0.6410 -0.3407  0.9126
  124TCq2    O5 1898   4.438   0.736   8.586 -0.1460  0.2848  0.4722
  124TCq2    O6 1899   4.626   0.645   8.522  0.0488  0.7572  0.4252
  124TCq2    H2 1900   4.316   0.608   8.765 -0.2911  0.3606  0.4649
  124TCq2    H3 1901   4.698   0.463   8.638  1.3032 -0.1884  1.4140
  124TCq2    H4 1902   4.476   0.253   8.945 -0.5909 -0.6377 -2.2067
  125TMC2    C1 1903   1.498   0.720   8.346 -0.3024  0.1341 -0.0851
  125TMC2    C2 1904   1.548   0.662   8.231  0.7103  0.0126 -0.4923
  125TMC2    C3 1905   1.670   0.696   8.192  0.0444 -0.5440  0.0574
  125TMC2    C4 1906   1.573   0.809   8.426  0.4624 -0.4535 -0.6803
  125TMC2    C5 1907   1.694   0.851   8.377  1.0676 -0.3821 -0.3772
  125TMC2    C6 1908   1.738   0.797   8.261  0.2754  0.1289 -0.8564
  125TMC2     C 1909   1.366   0.677   8.398  0.0495 -0.1374 -0.2835
  125TMC2     O 1910   1.322   0.733   8.502  0.0888 -0.3818  0.1199
  125TMC2     H 1911   1.500   0.581   8.177  0.8756 -0.3801 -0.0553
  125TMC2    H1 1912   1.543   0.840   8.525 -0.1468  2.0261 -1.6409
  125TMC2    H2 1913   1.836   0.831   8.230  0.1202  0.6320 -0.8069
  125TMC2    C7 1914   1.782   0.945   8.445 -0.6129  0.4708  0.0527
  125TMC2    C8 1915   1.716   0.635   8.067 -0.5983 -0.5643  0.3346
  125TMC2    O1 1916   1.901   0.931   8.429 -0.4339 -0.5661 -0.0996
  125TMC2    O2 1917   1.651   0.573   7.985  0.0987 -0.4314  0.5466
  125TMC2    O5 1918   1.843   0.613   8.101  0.0536 -0.5163 -0.0686
  125TMC2    H5 1919   1.867   0.641   8.192  0.1194 -1.2975  0.1553
  126MPD1     C 1920   0.966   0.342   8.420 -0.3581  0.1854 -0.5435
  126MPD1    C1 1921   1.043   0.308   8.311  0.7324 -0.0939 -0.7789
  126MPD1    C2 1922   1.140   0.400   8.276  0.1949 -0.2374  0.1628
  126MPD1    C3 1923   1.193   0.498   8.365  0.3925  0.0316 -0.1157
  126MPD1    C4 1924   1.123   0.515   8.487  0.2687  0.2512  0.1147
  126MPD1    C5 1925   1.013   0.435   8.511 -0.1207  0.5339  0.0301
  126MPD1     H 1926   1.191   0.384   8.182 -1.4132 -1.1473 -0.5440
  126MPD1    H1 1927   1.147   0.598   8.553 -0.8316  1.6786 -1.2616
  126MPD1    H2 1928   0.883   0.280   8.451  0.2509 -0.2266  0.2579
  126MPD1    H3 1929   0.956   0.448   8.602 -1.0988  1.4936 -0.7331
  126MPD1     N 1930   1.304   0.577   8.328  0.3135  0.1470  0.5145
  126MPD1    H5 1931   1.345   0.548   8.239 -0.4730  1.7100 -0.3494
  126MPD1    N1 1932   0.983   0.218   8.219  0.0936 -0.9154  0.0135
  126MPD1    H6 1933   1.044   0.193   8.141 -0.0041  1.3350 -0.7712
  126MPD1    H7 1934   0.942   0.135   8.262 -1.1241  0.1867  0.9577
  127MPD2     C 1935   1.453   0.649   9.070 -0.3304 -0.1772 -0.3787
  127MPD2    C1 1936   1.586   0.635   9.108  0.3293 -0.1089  0.0330
  127MPD2    C2 1937   1.640   0.725   9.195  0.4566  0.3105 -0.9163
  127MPD2    C3 1938   1.564   0.824   9.250  0.1928 -0.8090 -0.1629
  127MPD2    C4 1939   1.432   0.832   9.210 -0.1728 -0.6570 -0.5415
  127MPD2    C5 1940   1.382   0.751   9.115  0.1469  0.2500 -0.1096
  127MPD2     H 1941   1.744   0.710   9.222  0.0909 -1.9321 -0.7930
  127MPD2    H1 1942   1.365   0.911   9.243 -1.0072 -1.7061  0.2728
  127MPD2    H2 1943   1.399   0.578   9.009 -1.3978 -1.2149  1.7677
  127MPD2    H3 1944   1.277   0.765   9.090  0.5808  0.6881 -1.6637
  127MPD2     N 1945   1.622   0.899   9.353  0.4733 -0.5739  0.2229
  127MPD2    H5 1946   1.723   0.889   9.349  0.3698 -1.4993 -0.0670
  127MPD2    N1 1947   1.654   0.528   9.041  0.4068  0.3030 -0.1612
  127MPD2    H7 1948   1.590   0.459   9.001 -0.8680  0.6772  1.2154
  128TCq2    C1 1949   1.784   0.504   9.033  0.4351 -0.7955  0.3319
  128TCq2    O2 1950   1.878   0.558   9.087  0.1216  0.0277  0.2755
  128TCq2    C2 1951   1.810   0.402   8.933 -0.1387 -0.1738  0.0739
  128TCq2    C3 1952   1.904   0.429   8.842 -0.0987  0.7150  0.3571
  128TCq2    C4 1953   1.923   0.339   8.740 -0.1776 -0.2381  0.2240
  128TCq2    C5 1954   1.833   0.237   8.716 -0.0920  0.0240  0.2118
  128TCq2    C6 1955   1.725   0.228   8.794 -0.2842 -0.5338 -0.5083
  128TCq2    C7 1956   1.711   0.310   8.904 -0.3017  0.0036  0.0803
  128TCq2    C8 1957   1.655   0.109   8.782 -0.2635 -0.1496  0.3868
  128TCq2    O4 1958   1.708   0.007   8.741 -0.4807  0.7643  0.0852
  128TCq2    C9 1959   2.041   0.354   8.657 -0.1659 -0.4138  0.0180
  128TCq2    O5 1960   2.114   0.457   8.675 -0.2120  0.4188  0.5102
  128TCq2    O6 1961   2.071   0.257   8.586  0.0676  0.3153 -0.7319
  128TCq2    H2 1962   1.965   0.517   8.853  0.7707  0.2238 -0.4772
  128TCq2    H3 1963   1.844   0.184   8.622  1.0428  0.1436  0.2713
  128TCq2    H4 1964   1.641   0.286   8.983  1.9771 -1.0291  1.7717
  129MPD2     C 1965   4.127   1.574   2.132  0.0463  0.1134  0.3021
  129MPD2    C1 1966   4.237   1.501   2.142 -0.1017  0.8981  0.3735
  129MPD2    C2 1967   4.353   1.552   2.080 -0.3621 -0.9062 -0.2675
  129MPD2    C3 1968   4.353   1.666   2.004 -0.2076 -0.2728  0.1156
  129MPD2    C4 1969   4.241   1.749   2.005  0.6327 -0.1067  0.7686
  129MPD2    C5 1970   4.136   1.701   2.075 -0.3270 -0.5081  0.0528
  129MPD2     H 1971   4.444   1.494   2.080 -0.7421 -1.5058 -0.0301
  129MPD2    H1 1972   4.218   1.836   1.944  1.3363  0.6150  1.5412
  129MPD2    H2 1973   4.034   1.541   2.177 -0.4321 -2.0730 -2.2965
  129MPD2    H3 1974   4.043   1.758   2.076  1.0838  1.7430  0.9781
  129MPD2     N 1975   4.469   1.701   1.935  0.1194 -0.0389  0.1997
  129MPD2    H5 1976   4.552   1.644   1.941  0.7671  0.5873 -2.7530
  129MPD2    N1 1977   4.247   1.376   2.214 -0.0924  0.2201 -0.2474
  129MPD2    H7 1978   4.339   1.334   2.225  0.6186  1.9554  0.4955
  130TCq2    C1 1979   4.144   1.318   2.279  0.1037  0.1128 -0.0177
  130TCq2    O2 1980   4.030   1.343   2.263  0.2602  0.9257  0.1030
  130TCq2    C2 1981   4.191   1.210   2.367 -0.6066 -0.5384  0.0268
  130TCq2    C3 1982   4.311   1.226   2.423  1.2515 -0.2989  0.1239
  130TCq2    C4 1983   4.353   1.130   2.513 -0.5819  0.0762 -0.4233
  130TCq2    C5 1984   4.270   1.022   2.549  0.3609 -0.0935  0.3347
  130TCq2    C6 1985   4.143   1.026   2.498  0.0058  0.6950 -0.5069
  130TCq2    C7 1986   4.101   1.115   2.407  0.6657  0.3292  0.3163
  130TCq2    C8 1987   4.035   0.937   2.542  0.6696  0.5033  0.0478
  130TCq2    O4 1988   3.936   0.936   2.474 -0.3737  0.3317 -0.0210
  130TCq2    C9 1989   4.490   1.130   2.555 -0.0149 -0.4000  0.1165
  130TCq2    O5 1990   4.573   1.202   2.487  0.5260 -0.1700  0.3627
  130TCq2    O6 1991   4.515   1.069   2.661 -0.2330  0.3535  0.2620
  130TCq2    H2 1992   4.377   1.311   2.407  0.4413  0.1222 -0.9347
  130TCq2    H3 1993   4.303   0.942   2.615  1.5769 -0.1712 -0.3576
  130TCq2    H4 1994   4.003   1.112   2.362  0.5346  2.6392  0.4777
  131MPD2     C 1995   0.077   0.631  10.145  0.1317 -0.2871  0.4469
  131MPD2    C1 1996   4.715   0.674  10.042 -0.5799  0.9191 -0.5212
  131MPD2    C2 1997   4.635   0.582   9.974  0.6484  0.1670 -0.1362
  131MPD2    C3 1998   4.653   0.446   9.998 -0.2117  0.8813 -0.1483
  131MPD2    C4 1999   0.024   0.404  10.095 -0.2373 -0.5097  0.0613
  131MPD2    C5 2000   0.091   0.500  10.169  0.4600 -0.1463 -0.0732
  131MPD2     H 2001   4.562   0.617   9.902  0.1407 -0.3122  0.1478
  131MPD2    H1 2002   0.032   0.302  10.132  0.0912 -0.2786  0.6171
  131MPD2    H2 2003   0.149   0.690  10.201  0.7322 -0.9053  0.3191
  131MPD2    H3 2004   0.153   0.480  10.255 -0.0287 -3.3190 -0.4320
  131MPD2     N 2005   4.567   0.357   9.937 -0.6256 -0.3063  0.3264
  131MPD2    H5 2006   4.509   0.393   9.862  0.7709 -1.7331 -1.4342
  131MPD2    N1 2007   4.721   0.814  10.014 -0.1652 -0.0981  0.0324
  131MPD2    H7 2008   0.058   0.879  10.061 -0.5757 -0.9918  1.8069
  132TCq2    C1 2009   0.231   1.238   9.990 -0.1554  0.1686 -0.3509
  132TCq2    O2 2010   0.304   1.147  10.021  0.1460 -0.2934 -0.6102
  132TCq2    C2 2011   0.102   1.193   9.928 -0.6297  0.4156 -0.7240
  132TCq2    C3 2012   0.003   1.283   9.900 -0.3161  0.0916  0.0540
  132TCq2    C4 2013   4.601   1.238   9.867  0.1156  0.2115  0.9230
  132TCq2    C5 2014   4.569   1.101   9.871  0.0416  0.8144 -0.5621
  132TCq2    C6 2015   4.673   1.019   9.905  0.0924 -0.1016  0.5709
  132TCq2    C7 2016   0.078   1.057   9.940 -0.5948  0.4186 -0.7950
  132TCq2    C8 2017   4.633   0.880   9.932  0.2772  0.2617 -0.4571
  132TCq2    O4 2018   4.529   0.839   9.881 -0.2141  0.0548 -0.0306
  132TCq2    C9 2019   4.515   1.333   9.796  0.3501 -0.5476  0.6865
  132TCq2    O5 2020   4.563   1.448   9.761  0.4604 -0.1498 -0.1932
  132TCq2    O6 2021   4.398   1.288   9.772 -0.0083 -0.0464  0.4093
  132TCq2    H2 2022   0.020   1.390   9.898 -0.7495  0.1614  0.0412
  132TCq2    H3 2023   4.474   1.063   9.835  0.5920 -1.9753  0.8850
  132TCq2    H4 2024   0.154   0.984   9.966  0.0276  1.5188  0.4354
  133MPD2     C 2025   4.718   2.205   9.126  0.3808  0.6278  0.3518
  133MPD2    C1 2026   4.600   2.271   9.100 -0.1847  0.3718 -0.4434
  133MPD2    C2 2027   4.488   2.196   9.077  0.1806  0.0981  0.1630
  133MPD2    C3 2028   4.500   2.060   9.079 -0.4644  0.3022  0.0185
  133MPD2    C4 2029   4.619   1.997   9.106 -0.6934 -0.4083 -0.1393
  133MPD2    C5 2030   0.003   2.073   9.121  0.0119  0.1450  0.1372
  133MPD2     H 2031   4.397   2.245   9.044 -1.3410 -1.9014  1.4068
  133MPD2    H1 2032   4.631   1.890   9.109 -2.3988 -0.5607  0.9314
  133MPD2    H2 2033   0.080   2.269   9.144  0.3942  0.6531  0.1944
  133MPD2    H3 2034   0.102   2.031   9.138  0.0771  0.3540  0.2823
  133MPD2     N 2035   4.388   1.968   9.065  0.2818 -0.3662  0.5192
  133MPD2    H5 2036   4.411   1.870   9.079  0.5969 -0.1836  1.2749
  133MPD2    N1 2037   4.598   2.414   9.106 -0.4775 -0.6075 -0.2732
  133MPD2    H7 2038   4.686   2.460   9.128  0.4461 -1.9134 -1.1891
  134TCq2    C1 2039   4.482   2.496   9.097  0.3093  0.4973 -0.0483
  134TCq2    O2 2040   4.361   2.469   9.079 -0.3634  0.9016 -0.7585
  134TCq2    C2 2041   4.517   2.644   9.112  0.0003  0.7434  0.1900
  134TCq2    C3 2042   4.418   2.718   9.175 -0.1260  0.5182  0.8134
  134TCq2    C4 2043   4.451   2.846   9.213 -0.0121  0.6999  0.1019
  134TCq2    C5 2044   4.574   2.894   9.197  0.3493  0.1581 -0.1516
  134TCq2    C6 2045   4.665   2.819   9.128  0.2163 -0.6677 -0.3330
  134TCq2    C7 2046   4.640   2.690   9.091  0.4898 -0.7075 -0.3928
  134TCq2    C8 2047   0.066   2.894   9.087  0.2221  0.3392 -0.5363
  134TCq2    O4 2048   0.046   3.009   9.058 -0.5272 -0.1673 -0.5167
  134TCq2    C9 2049   4.344   2.925   9.269  0.6903  0.6975  0.0750
  134TCq2    O5 2050   4.384   3.036   9.311  0.4798  0.7670 -0.1248
  134TCq2    O6 2051   4.225   2.886   9.239  0.1165 -0.3949 -0.6046
  134TCq2    H2 2052   4.318   2.678   9.194 -0.8816  2.0546  0.0515
  134TCq2    H3 2053   4.603   2.989   9.240  0.7010  1.2186 -2.7104
  134TCq2    H4 2054   4.696   2.640   9.013  0.8724  1.9464 -1.8197
  135MPD2     C 2055   1.676   2.846   9.584 -0.1625  0.5471 -0.5860
  135MPD2    C1 2056   1.654   2.709   9.594  0.2612  0.4328  0.2393
  135MPD2    C2 2057   1.751   2.623   9.542 -0.8523  0.6513  0.2959
  135MPD2    C3 2058   1.882   2.666   9.501  0.5264  0.3218 -0.4772
  135MPD2    C4 2059   1.898   2.802   9.510 -0.4592  0.1031 -0.3834
  135MPD2    C5 2060   1.800   2.886   9.542 -0.1129  0.1456  0.3373
  135MPD2     H 2061   1.725   2.518   9.539  1.5104  0.0974 -0.9086
  135MPD2    H1 2062   1.991   2.849   9.480 -0.4476  0.0545 -0.4240
  135MPD2    H2 2063   1.603   2.921   9.611 -1.4287  0.0114 -2.4880
  135MPD2    H3 2064   1.831   2.989   9.530  0.0619 -0.2476 -2.6136
  135MPD2     N 2065   1.984   2.585   9.451  0.3127  0.8868  0.0289
  135MPD2    H5 2066   2.056   2.641   9.406 -1.5072  1.3158 -2.3028
  135MPD2    N1 2067   1.532   2.656   9.635 -0.3191  0.4461  0.0750
  135MPD2    H7 2068   1.528   2.555   9.639  3.9711  0.1736 -2.7557
  136TCq2    C1 2069   1.428   2.730   9.677  0.4574 -0.0312  0.6312
  136TCq2    O2 2070   1.405   2.849   9.672  0.1744 -0.0040  0.3626
  136TCq2    C2 2071   1.345   2.641   9.765 -0.0617 -0.6344 -0.3235
  136TCq2    C3 2072   1.232   2.693   9.820 -0.0311 -0.3835 -0.6749
  136TCq2    C4 2073   1.146   2.617   9.899  0.0782 -0.6018  0.2036
  136TCq2    C5 2074   1.187   2.493   9.928 -0.1460 -0.8722 -0.2174
  136TCq2    C6 2075   1.301   2.441   9.873  0.7908 -0.4003 -0.1770
  136TCq2    C7 2076   1.387   2.517   9.797 -0.4153  0.2845  0.4152
  136TCq2    C8 2077   1.350   2.311   9.911  0.0463 -0.8402  0.1211
  136TCq2    O4 2078   1.450   2.273   9.851  0.1073 -0.0183 -0.4414
  136TCq2    C9 2079   1.022   2.671   9.950  0.1487 -0.2816  0.5928
  136TCq2    O5 2080   0.997   2.789   9.920  0.5080 -0.3297 -0.4683
  136TCq2    O6 2081   0.974   2.608  10.049 -0.7270  0.4504 -0.6590
  136TCq2    H2 2082   1.211   2.798   9.805 -1.7641 -1.0451 -2.9461
  136TCq2    H3 2083   1.114   2.433   9.981 -0.8997 -0.3020 -0.6007
  136TCq2    H4 2084   1.465   2.463   9.744 -1.3161 -1.3731  0.7664
  137MPD2     C 2085   1.175   1.282   9.303  0.0124 -0.1843  0.5790
  137MPD2    C1 2086   1.208   1.371   9.409 -0.3946 -0.1104  0.0217
  137MPD2    C2 2087   1.204   1.320   9.537 -0.1298  0.2607 -0.4359
  137MPD2    C3 2088   1.174   1.187   9.564  0.8184  0.4156 -0.2601
  137MPD2    C4 2089   1.141   1.097   9.460 -0.0990  0.4634  0.2486
  137MPD2    C5 2090   1.139   1.153   9.334  0.2156  0.1728 -0.0081
  137MPD2     H 2091   1.223   1.388   9.619 -0.5612  0.6327 -0.6425
  137MPD2    H1 2092   1.119   0.993   9.479 -0.0785  0.0350 -2.1446
  137MPD2    H2 2093   1.163   1.313   9.200 -0.8104  0.0809  0.7523
  137MPD2    H3 2094   1.111   1.086   9.254  0.9867 -0.9911  0.7131
  137MPD2     N 2095   1.183   1.143   9.698 -0.5134 -0.8035  0.6454
  137MPD2    H5 2096   1.211   1.217   9.762  2.6944 -0.2058 -1.4023
  137MPD2    N1 2097   1.244   1.503   9.377  0.1575  0.5655 -0.4041
  137MPD2    H7 2098   1.256   1.526   9.279  1.0213  2.2872  0.0978
  138TCq2    C1 2099   1.258   1.613   9.467  0.2672 -0.0162 -0.7442
  138TCq2    O2 2100   1.277   1.621   9.588 -0.0759  0.6615  0.1740
  138TCq2    C2 2101   1.264   1.739   9.390 -0.4256  0.4071  0.5391
  138TCq2    C3 2102   1.218   1.749   9.262 -1.5776  0.1711 -0.1558
  138TCq2    C4 2103   1.243   1.865   9.189 -0.1450 -0.1763  0.2038
  138TCq2    C5 2104   1.311   1.971   9.246  0.3067  0.6497  0.3859
  138TCq2    C6 2105   1.331   1.970   9.383 -0.3531 -0.4161  0.8726
  138TCq2    C7 2106   1.305   1.854   9.456 -0.2580  0.5610 -0.4732
  138TCq2    C8 2107   1.302   2.103   9.439 -0.1603  0.1611  0.4322
  138TCq2    O4 2108   1.354   2.198   9.383  0.3747 -0.1465  0.1309
  138TCq2    C9 2109   1.189   1.875   9.060 -0.3907  0.1465 -0.2937
  138TCq2    O5 2110   1.104   1.787   9.031  0.0612  0.0902 -0.6719
  138TCq2    O6 2111   1.237   1.962   8.980  0.5495  0.4225  0.5784
  138TCq2    H2 2112   1.169   1.671   9.205 -0.5420 -0.0951 -0.6771
  138TCq2    H3 2113   1.343   2.054   9.185  0.4680  0.5511  0.3348
  138TCq2    H4 2114   1.334   1.851   9.561  0.1329 -0.2748 -0.6011
  139TMC2    C1 2115   1.048   4.707  13.197 -0.1652 -0.2931  0.0830
  139TMC2    C2 2116   1.015   0.028  13.069  0.6763  0.8239 -0.1109
  139TMC2    C3 2117   0.982   0.160  13.049  0.6109  0.0304  0.2801
  139TMC2    C4 2118   1.054   0.071  13.304  0.4709  0.1332  0.5489
  139TMC2    C5 2119   1.026   0.203  13.269 -0.1727  0.3220 -0.9654
  139TMC2    C6 2120   0.988   0.249  13.148  0.1044 -0.4116  0.3395
  139TMC2     C 2121   1.078   4.565  13.212 -0.1060 -0.0974  0.0587
  139TMC2     O 2122   1.101   4.508  13.106  0.3639  0.2443 -0.0180
  139TMC2     H 2123   1.017   4.700  12.975 -1.0116 -0.7252  0.7043
  139TMC2    H1 2124   1.061   0.039  13.407 -1.5955 -0.8382  0.3716
  139TMC2    H2 2125   0.962   0.352  13.124 -0.8764 -0.3153  1.8037
  139TMC2    C7 2126   1.016   0.298  13.384 -0.0008  0.2530  0.2675
  139TMC2    C8 2127   0.968   0.214  12.917 -0.6718  0.1963  0.0493
  139TMC2    O1 2128   0.948   0.395  13.363  0.0691  0.3055  0.4478
  139TMC2    O2 2129   1.045   0.303  12.882  0.6351  0.2125  0.0687
  139TMC2    O5 2130   0.910   0.116  12.838 -0.3619 -0.4101 -0.0949
  139TMC2    H5 2131   0.860   0.052  12.893 -1.4137  0.0711 -0.4700
  140MPD2     C 2132   1.078   4.363  13.506  0.3717  0.2698 -0.4857
  140MPD2    C1 2133   1.096   4.383  13.370  0.2916 -0.3346 -0.0049
  140MPD2    C2 2134   1.114   4.276  13.282 -0.0156 -0.5503 -0.2645
  140MPD2    C3 2135   1.132   4.153  13.335 -0.0784 -1.2724  0.2336
  140MPD2    C4 2136   1.115   4.135  13.473 -0.3235 -0.3325  0.6661
  140MPD2    C5 2137   1.081   4.235  13.556 -0.0661 -0.6488 -0.2697
  140MPD2     H 2138   1.108   4.291  13.175 -2.0345  1.4701  0.1136
  140MPD2    H1 2139   1.123   4.033  13.509  3.3030 -0.3055 -0.1069
  140MPD2    H2 2140   1.040   4.443  13.568 -0.7276 -1.0574  0.5425
  140MPD2    H3 2141   1.062   4.215  13.660 -2.1389 -1.4011 -0.8077
  140MPD2     N 2142   1.150   4.037  13.248 -0.2166 -0.0505  0.4760
  140MPD2    H5 2143   1.180   4.058  13.153  0.5228  2.5832  1.2888
  140MPD2    N1 2144   1.082   4.519  13.338  0.4162  0.0785 -0.5487
  140MPD2    H7 2145   1.077   4.590  13.410 -0.5056 -0.5584  0.0131
  141TCq2    C1 2146   2.070   0.847  14.528 -0.9177  0.2260 -0.5940
  141TCq2    O2 2147   2.014   0.954  14.513 -0.1108 -0.0112  0.0242
  141TCq2    C2 2148   2.057   0.792  14.658  0.3199  0.5983  0.2379
  141TCq2    C3 2149   2.072   0.652  14.668  0.1093 -0.0731  0.4832
  141TCq2    C4 2150   2.055   0.597  14.791 -0.0803 -0.1640  0.7152
  141TCq2    C5 2151   2.037   0.677  14.908  0.5639  0.1640  0.0176
  141TCq2    C6 2152   2.029   0.811  14.892 -0.2494 -0.0362  0.9040
  141TCq2    C7 2153   2.030   0.872  14.769 -0.1230 -0.1254 -0.0113
  141TCq2    C8 2154   1.958   0.877  14.999  0.2290  0.2252  0.4977
  141TCq2    O4 2155   1.954   0.822  15.110 -0.1917 -0.0693  0.8589
  141TCq2    C9 2156   2.036   0.453  14.798  0.7632 -0.5396  0.1945
  141TCq2    O5 2157   2.011   0.403  14.913 -0.3299 -0.7738 -0.4800
  141TCq2    O6 2158   2.017   0.386  14.691 -0.3556 -0.0604  0.2393
  141TCq2    H2 2159   2.083   0.577  14.590  0.9247  0.8043 -0.2548
  141TCq2    H3 2160   2.018   0.631  15.004 -1.2318  1.3800  0.2480
  141TCq2    H4 2161   2.027   0.979  14.752 -0.7345 -0.0724  0.4289
  142MPD2     C 2162   0.241   4.001   9.771  0.3261 -0.8875  0.9153
  142MPD2    C1 2163   0.139   4.033   9.686  0.0400  0.2269 -0.2365
  142MPD2    C2 2164   0.166   4.076   9.565 -0.2970 -0.3575  0.5642
  142MPD2    C3 2165   0.301   4.096   9.517 -0.3276 -0.7014  0.6618
  142MPD2    C4 2166   0.400   4.053   9.607  0.0219 -0.1276  0.5890
  142MPD2    C5 2167   0.373   4.003   9.737  0.0374  0.2315 -0.3842
  142MPD2     H 2168   0.084   4.089   9.496 -0.8713 -1.8302  0.9815
  142MPD2    H1 2169   0.507   4.051   9.591  0.0093  0.5473  0.4175
  142MPD2    H2 2170   0.217   3.950   9.863  0.6878 -1.6522  0.5908
  142MPD2    H3 2171   0.451   3.975   9.806  0.4481 -1.6482 -1.6162
  142MPD2     N 2172   0.346   4.149   9.392 -0.0586  0.2293  0.0395
  142MPD2    H5 2173   0.447   4.153   9.379  0.1635  0.1910  1.7752
  142MPD2    N1 2174   0.009   4.003   9.725  0.3661  0.3460 -0.1226
  142MPD2    H7 2175   0.005   3.959   9.816  1.7791 -1.1233 -0.7639
  143TCq2    C1 2176   0.258   4.192   9.289  1.5443  0.4043  0.7825
  143TCq2    O2 2177   0.134   4.192   9.287  0.0163 -0.2266  0.1677
  143TCq2    C2 2178   0.333   4.246   9.175 -0.0621 -0.2230  0.1814
  143TCq2    C3 2179   0.460   4.202   9.142 -0.1293  0.1974  0.0892
  143TCq2    C4 2180   0.521   4.254   9.027  0.7331  0.3059 -0.0241
  143TCq2    C5 2181   0.467   4.359   8.953  0.8576  0.1779 -0.3488
  143TCq2    C6 2182   0.343   4.401   8.992 -0.6123 -0.7469 -0.3388
  143TCq2    C7 2183   0.279   4.347   9.095 -0.0312  0.4066 -0.6755
  143TCq2    C8 2184   0.285   4.528   8.944  0.0682  0.1747 -0.5311
  143TCq2    O4 2185   0.173   4.557   8.983  0.5441  0.6833 -1.0429
  143TCq2    C9 2186   0.652   4.198   8.994 -0.2360 -0.2412  0.1804
  143TCq2    O5 2187   0.712   4.233   8.887 -0.1311  0.4772  0.4687
  143TCq2    O6 2188   0.703   4.122   9.080 -0.3436  0.7412 -0.1740
  143TCq2    H2 2189   0.508   4.122   9.198 -2.4684 -0.7377  0.7841
  143TCq2    H3 2190   0.523   4.379   8.862 -1.4818 -0.7870 -1.9956
  143TCq2    H4 2191   0.185   4.393   9.125 -1.2412 -1.2910 -1.8495
  144MPD2     C 2192   1.976   3.609   0.657 -0.9064  0.2148 -0.4287
  144MPD2    C1 2193   2.027   3.506   0.585  0.6767  0.2451  0.0813
  144MPD2    C2 2194   2.163   3.463   0.590 -0.4254 -0.4355  0.1860
  144MPD2    C3 2195   2.255   3.530   0.673 -0.2999 -0.2750  0.3602
  144MPD2    C4 2196   2.202   3.635   0.743 -0.4613  0.0404 -0.0759
  144MPD2    C5 2197   2.065   3.671   0.739  0.0807  0.2957  0.5635
  144MPD2     H 2198   2.205   3.377   0.539 -0.9919 -0.1451 -0.7704
  144MPD2    H1 2199   2.266   3.689   0.811  2.0439  0.6499 -2.9124
  144MPD2    H2 2200   1.875   3.648   0.653 -0.5607  1.0490 -1.2005
  144MPD2    H3 2201   2.032   3.759   0.793  0.6590  2.3569 -2.4370
  144MPD2     N 2202   2.394   3.495   0.689  1.0212 -0.3142  0.2645
  144MPD2    H5 2203   2.447   3.536   0.765  0.6455  0.3722  0.1557
  144MPD2    N1 2204   1.925   3.457   0.493  0.3576  0.1511  0.3212
  144MPD2    H7 2205   1.840   3.512   0.490  0.6593  0.5240 -1.2964
  145TCq2    C1 2206   2.457   3.388   0.628 -0.6619 -1.2354 -0.1391
  145TCq2    O2 2207   2.416   3.318   0.536 -0.1870  0.1911 -0.4471
  145TCq2    C2 2208   2.577   3.353   0.700  0.3388 -0.4916  0.3480
  145TCq2    C3 2209   2.638   3.241   0.654 -0.0965 -0.2320 -0.4494
  145TCq2    C4 2210   2.744   3.184   0.712 -0.5196 -0.0664 -0.2104
  145TCq2    C5 2211   2.777   3.229   0.832  0.4050 -0.4241  0.0216
  145TCq2    C6 2212   2.714   3.335   0.890 -0.0040  0.3682 -0.9380
  145TCq2    C7 2213   2.607   3.397   0.828 -0.1754  0.3964 -0.1798
  145TCq2    C8 2214   2.723   3.345   1.033  0.0321 -0.0699  0.1781
  145TCq2    O4 2215   2.785   3.255   1.085 -0.3889 -0.5199  0.1870
  145TCq2    C9 2216   2.810   3.071   0.669 -0.1758 -0.0302 -0.4690
  145TCq2    O5 2217   2.861   2.989   0.749  0.1526  0.0789 -0.2860
  145TCq2    O6 2218   2.759   3.022   0.563  0.4613 -0.0899 -0.0611
  145TCq2    H2 2219   2.620   3.204   0.554 -0.1989 -1.0940 -0.1087
  145TCq2    H3 2220   2.858   3.175   0.880 -0.2394 -1.5183 -0.1339
  145TCq2    H4 2221   2.544   3.477   0.866  0.9974  1.2390  0.0144
  146TMC2    C1 2222   4.204   1.908  12.027  0.2280  0.2990 -0.1995
  146TMC2    C2 2223   4.163   1.850  11.909 -0.1326 -0.6620  0.3341
  146TMC2    C3 2224   4.258   1.821  11.815 -0.1956 -0.2606 -0.8122
  146TMC2    C4 2225   4.334   1.923  12.061  0.6756  0.0569 -0.3667
  146TMC2    C5 2226   4.426   1.899  11.958  0.7458 -0.4969 -0.0631
  146TMC2    C6 2227   4.392   1.851  11.832  0.3472 -0.4031  0.0143
  146TMC2     C 2228   4.098   1.928  12.129  0.4399  0.3685  0.3273
  146TMC2     O 2229   3.985   1.958  12.091  0.3370  0.2298  0.0936
  146TMC2     H 2230   4.059   1.844  11.879  0.3640 -1.0234 -1.3378
  146TMC2    H1 2231   4.351   1.973  12.156 -0.2352 -1.2427  0.4794
  146TMC2    H2 2232   4.466   1.826  11.758  0.6409 -4.7569  1.7919
  146TMC2    C7 2233   4.569   1.893  11.989 -0.0550  0.4670 -0.0920
  146TMC2    C8 2234   4.203   1.758  11.695  0.8359 -1.0258 -0.8242
  146TMC2    O1 2235   4.646   1.900  11.898  0.3951  0.6691  0.3507
  146TMC2    O2 2236   4.089   1.710  11.690  0.0807  0.4278  0.3684
  146TMC2    O5 2237   4.271   1.796  11.582  0.3188 -0.2135 -0.2722
  146TMC2    H5 2238   4.319   1.882  11.587 -0.9236  0.3796  1.2842
  147MPD2     C 2239   0.246   1.872  12.293 -0.2344 -0.2344  0.1480
  147MPD2    C1 2240   0.140   1.848  12.373  0.2449  0.3962 -0.0347
  147MPD2    C2 2241   0.015   1.857  12.315  0.4450 -0.0445 -0.9404
  147MPD2    C3 2242   0.004   1.894  12.179  0.0300  1.0242  0.6640
  147MPD2    C4 2243   0.117   1.926  12.105 -0.4048  0.8699  0.0989
  147MPD2    C5 2244   0.236   1.923  12.167  1.2309 -0.3936 -0.2091
  147MPD2     H 2245   4.648   1.840  12.370  1.5115  0.4477  0.9919
  147MPD2    H1 2246   0.119   1.966  12.004 -2.3714  0.3410 -0.1425
  147MPD2    H2 2247   0.350   1.867  12.322  0.1825 -0.9263 -1.4658
  147MPD2    H3 2248   0.333   1.944  12.123  1.2311 -0.3546 -0.1902
  147MPD2     N 2249   4.604   1.880  12.121  0.2666 -0.4068 -0.9632
  147MPD2    H5 2250   4.526   1.879  12.186  1.4793 -0.3354  0.4888
  147MPD2    N1 2251   0.164   1.824  12.512  0.1344  0.2683  0.7856
  147MPD2    H7 2252   0.262   1.823  12.537 -0.0965 -1.3185  1.6307
  148MPD2     C 2253   4.105   1.894   9.872 -0.1236  0.0909 -0.6397
  148MPD2    C1 2254   4.142   1.773   9.926 -0.6989  0.1068  0.5403
  148MPD2    C2 2255   4.076   1.660   9.874  0.2769  0.1618  0.5148
  148MPD2    C3 2256   3.983   1.662   9.772 -1.1231 -0.3604 -0.4350
  148MPD2    C4 2257   3.947   1.785   9.716 -0.3514  0.0202  0.6987
  148MPD2    C5 2258   4.006   1.902   9.771 -0.3493  0.3204  0.5997
  148MPD2     H 2259   4.092   1.567   9.928 -0.6582 -0.2060  0.1661
  148MPD2    H1 2260   3.871   1.802   9.642  2.4442  1.4683 -1.8349
  148MPD2    H2 2261   4.159   1.986   9.892  1.2867 -0.4446 -1.9963
  148MPD2    H3 2262   3.990   1.995   9.718  2.9500  0.1945 -0.6355
  148MPD2     N 2263   3.922   1.549   9.722  0.3244  0.0664 -0.0193
  148MPD2    H5 2264   3.833   1.558   9.676 -0.3125 -0.9683  1.0190
  148MPD2    N1 2265   4.258   1.771  10.002  0.2939 -0.7141  0.1098
  148MPD2    H7 2266   4.291   1.862  10.032 -0.6041  0.0636 -1.3080
  149TCq2    C1 2267   4.326   1.655  10.039  0.0198  0.4535  0.2370
  149TCq2    O2 2268   4.284   1.537  10.037  0.5167  0.0354 -0.3604
  149TCq2    C2 2269   4.455   1.676  10.110  0.0379 -0.7598 -0.4924
  149TCq2    C3 2270   4.549   1.708  10.019 -0.5216  0.0878  0.5180
  149TCq2    C4 2271   4.675   1.661  10.042 -0.9294 -0.1996 -0.4881
  149TCq2    C5 2272   4.699   1.557  10.127  0.0489  0.3775 -0.8398
  149TCq2    C6 2273   4.597   1.517  10.207  0.8965 -0.3079  0.2305
  149TCq2    C7 2274   4.473   1.580  10.205  0.5129  0.1634 -0.6928
  149TCq2    C8 2275   4.590   1.374  10.253  1.2175  0.2730 -0.9500
  149TCq2    O4 2276   4.485   1.328  10.290  0.0702 -0.8537 -0.2709
  149TCq2    C9 2277   0.046   1.691   9.936 -0.0749 -0.6467 -0.0230
  149TCq2    O5 2278   0.104   1.588   9.900  0.2786  0.3812  0.7124
  149TCq2    O6 2279   0.012   1.775   9.849  0.1349 -0.3822 -0.1758
  149TCq2    H2 2280   4.525   1.766   9.931  3.2258  2.2443  0.9399
  149TCq2    H3 2281   0.066   1.499  10.124 -1.0783 -1.5122  1.0491
  149TCq2    H4 2282   4.386   1.544  10.258 -1.1007  3.9334 -0.7860
  150MPD2     C 2283   0.490   0.725  12.247  1.1681 -0.5007 -0.6947
  150MPD2    C1 2284   0.540   0.684  12.124  0.2829  0.8272 -0.4395
  150MPD2    C2 2285   0.673   0.693  12.085  0.2915  0.1752 -0.0761
  150MPD2    C3 2286   0.760   0.752  12.182  0.2495 -0.4172  0.0634
  150MPD2    C4 2287   0.712   0.791  12.302 -0.5546  0.0427 -0.3327
  150MPD2    C5 2288   0.579   0.785  12.339  0.1356 -0.0549 -0.2115
  150MPD2     H 2289   0.711   0.652  11.992  1.0502 -0.0416  0.3346
  150MPD2    H1 2290   0.775   0.850  12.367  0.1731 -0.2563 -0.7627
  150MPD2    H2 2291   0.382   0.731  12.250  1.2088 -1.2204  2.0897
  150MPD2    H3 2292   0.544   0.820  12.435  1.5934 -1.3376  0.7960
  150MPD2     N 2293   0.899   0.753  12.150  0.0247 -0.1586 -0.2334
  150MPD2    H5 2294   0.916   0.683  12.078  1.5940  1.0463 -1.0335
  150MPD2    N1 2295   0.456   0.615  12.036 -0.2081  0.2843  0.3555
  150MPD2    H7 2296   0.368   0.580  12.071 -0.6733 -1.2782 -2.3425
  151TCq2    C1 2297   1.006   0.800  12.232  0.3682 -0.1750  0.3904
  151TCq2    O2 2298   1.011   0.886  12.320 -0.3033 -0.1384 -0.7817
  151TCq2    C2 2299   1.136   0.744  12.192  0.5845  0.8942 -0.2281
  151TCq2    C3 2300   1.139   0.614  12.159 -1.1369  0.6358 -0.1464
  151TCq2    C4 2301   1.254   0.547  12.163  1.1456  0.0221 -0.0061
  151TCq2    C5 2302   1.364   0.611  12.216 -0.0067 -0.1593 -0.2763
  151TCq2    C6 2303   1.362   0.741  12.257 -0.1759  0.1434  0.1023
  151TCq2    C7 2304   1.242   0.808  12.244 -0.1383 -0.0275  0.5212
  151TCq2    C8 2305   1.469   0.809  12.322 -0.2312 -0.0550 -0.7148
  151TCq2    O4 2306   1.459   0.932  12.338 -0.5553  0.4649  0.8837
  151TCq2    C9 2307   1.252   0.413  12.119  0.3266  0.0761 -0.0790
  151TCq2    O5 2308   1.171   0.378  12.028  0.4744  1.0587 -0.0659
  151TCq2    O6 2309   1.341   0.341  12.173  0.1838  0.0742  0.3218
  151TCq2    H2 2310   1.055   0.552  12.129  1.3613 -1.3646 -2.9156
  151TCq2    H3 2311   1.452   0.548  12.217  0.4675  0.4881 -0.7180
  151TCq2    H4 2312   1.239   0.913  12.271 -0.7647  0.6145 -1.9987
  152MPD2     C 2313   0.683   4.713  12.619 -0.4383  0.0543 -0.5154
  152MPD2    C1 2314   0.691   0.108  12.556 -0.6716 -0.3304  0.5980
  152MPD2    C2 2315   0.577   0.160  12.500  0.7815  0.0477 -0.1647
  152MPD2    C3 2316   0.462   0.092  12.507  0.4910  0.5304 -0.0945
  152MPD2    C4 2317   0.442   4.702  12.581  0.3556  0.1851  0.4832
  152MPD2    C5 2318   0.557   4.656  12.635  0.3158 -0.1931  0.3046
  152MPD2     H 2319   0.592   0.246  12.436  0.1791 -1.2499 -2.0270
  152MPD2    H1 2320   0.352   4.646  12.603 -2.0277  2.9111 -2.3168
  152MPD2    H2 2321   0.772   4.660  12.651 -1.0856  0.4806  1.9253
  152MPD2    H3 2322   0.549   4.562  12.689  3.6963 -1.2067 -0.9516
  152MPD2     N 2323   0.350   0.153  12.442  0.0944 -0.0963  0.1215
  152MPD2    H5 2324   0.372   0.247  12.412  3.4823 -1.2603 -1.0451
  152MPD2    N1 2325   0.824   0.155  12.534  0.0294  0.3296 -0.1316
  152MPD2    H7 2326   0.899   0.092  12.560 -0.6975 -0.1394  0.8053
  153TCq2    C1 2327   0.855   0.280  12.481  0.7490 -0.2185  0.0780
  153TCq2    O2 2328   0.784   0.367  12.435 -0.1743  0.3271 -0.1239
  153TCq2    C2 2329   0.998   0.304  12.475  0.0977 -0.4819  0.4913
  153TCq2    C3 2330   1.078   0.193  12.461 -0.0220 -0.0592 -0.4879
  153TCq2    C4 2331   1.211   0.204  12.508 -0.3736  0.5707 -0.3952
  153TCq2    C5 2332   1.261   0.322  12.545 -0.2734 -0.2081 -0.3452
  153TCq2    C6 2333   1.183   0.432  12.547  0.1550 -0.4874 -0.1748
  153TCq2    C7 2334   1.049   0.426  12.508 -0.1218 -0.4022  0.3686
  153TCq2    C8 2335   1.233   0.561  12.581  0.5359 -0.2132 -0.0646
  153TCq2    O4 2336   1.173   0.661  12.557  0.0187  0.2526  0.5704
  153TCq2    C9 2337   1.298   0.095  12.482 -0.1145  0.4386  0.1742
  153TCq2    O5 2338   1.417   0.109  12.517  0.0157 -0.0196  0.4964
  153TCq2    O6 2339   1.247   4.716  12.430  0.1495  0.2605 -0.2961
  153TCq2    H2 2340   1.042   0.101  12.416  1.3822  0.0999 -1.9359
  153TCq2    H3 2341   1.364   0.325  12.579 -0.2297 -1.9592 -0.3278
  153TCq2    H4 2342   0.985   0.512  12.523  0.9432  0.3491  0.5997
  154MPD2     C 2343   3.138   0.409   0.534  0.5743 -0.4872 -0.3658
  154MPD2    C1 2344   3.055   0.517   0.515  0.9624  0.1115  0.0819
  154MPD2    C2 2345   2.948   0.501   0.420  0.1999 -0.0355  0.1874
  154MPD2    C3 2346   2.926   0.387   0.352  0.2759  0.5617 -0.0704
  154MPD2    C4 2347   3.018   0.288   0.361 -0.2008  0.0919 -0.0883
  154MPD2    C5 2348   3.120   0.298   0.459  0.4799  0.8226 -0.1759
  154MPD2     H 2349   2.867   0.572   0.424  1.4144  1.2695  1.9516
  154MPD2    H1 2350   3.026   0.203   0.294  1.9703 -0.7561  1.2253
  154MPD2    H2 2351   3.213   0.413   0.612 -0.4098  0.0858  0.5441
  154MPD2    H3 2352   3.193   0.222   0.486 -0.6876 -0.6001 -1.0034
  154MPD2     N 2353   2.801   0.372   0.279  0.6325  0.9849 -0.2535
  154MPD2    H5 2354   2.747   0.456   0.261  0.5889  1.1282  0.5653
  154MPD2    N1 2355   3.069   0.639   0.589  0.3598 -0.3843 -0.4895
  154MPD2    H7 2356   3.115   0.633   0.679  1.7844 -1.1338 -1.2590
  155TCq2    C1 2357   2.997   0.753   0.573  0.0998 -0.1443  0.2882
  155TCq2    O2 2358   2.919   0.780   0.483  0.2223  0.3802  0.0514
  155TCq2    C2 2359   3.004   0.844   0.688 -0.2872 -0.0969 -0.1645
  155TCq2    C3 2360   3.101   0.822   0.783  0.3964 -0.0407  0.4068
  155TCq2    C4 2361   3.116   0.906   0.890 -0.0944 -0.1283 -0.2357
  155TCq2    C5 2362   3.025   1.014   0.902 -0.5822  0.2147 -0.3850
  155TCq2    C6 2363   2.931   1.031   0.802  0.3110 -0.0667  0.8634
  155TCq2    C7 2364   2.907   0.937   0.702 -0.1601 -0.0355  0.1330
  155TCq2    C8 2365   2.819   1.124   0.819  0.0467 -0.6879 -0.7630
  155TCq2    O4 2366   2.707   1.097   0.771 -0.2587  0.3179 -0.2502
  155TCq2    C9 2367   3.206   0.872   0.993  0.1013  0.2424 -0.3036
  155TCq2    O5 2368   3.258   0.758   0.992  0.6615  0.1716  0.1078
  155TCq2    O6 2369   3.213   0.959   1.085  0.2312 -0.3925  0.8903
  155TCq2    H2 2370   3.173   0.741   0.774  0.0003 -0.4062  0.5121
  155TCq2    H3 2371   3.027   1.076   0.991 -0.5840 -1.0246  0.4708
  155TCq2    H4 2372   2.846   0.957   0.615 -1.9700 -0.1922  1.3623
  156MPD2     C 2373   1.744   2.373  11.880 -0.4789 -0.6691 -0.1725
  156MPD2    C1 2374   1.697   2.473  11.801 -0.3032 -0.2206 -0.0516
  156MPD2    C2 2375   1.644   2.588  11.861  1.3299 -0.0145  0.0319
  156MPD2    C3 2376   1.643   2.609  11.999 -0.0304 -0.6077 -0.3399
  156MPD2    C4 2377   1.710   2.519  12.072 -0.6079 -0.0797  0.3570
  156MPD2    C5 2378   1.770   2.409  12.013  0.0527 -0.9629 -0.5458
  156MPD2     H 2379   1.587   2.662  11.806  2.0047  2.6935  2.9935
  156MPD2    H1 2380   1.708   2.528  12.180  1.8221 -1.0459  0.4760
  156MPD2    H2 2381   1.770   2.275  11.842  0.4542 -1.0781  1.5390
  156MPD2    H3 2382   1.813   2.346  12.090 -2.2184 -0.1053  1.4207
  156MPD2     N 2383   1.571   2.717  12.053  0.0715  0.0374 -0.2170
  156MPD2    H5 2384   1.511   2.767  11.988  1.0848  1.4815 -0.0314
  156MPD2    N1 2385   1.665   2.443  11.669  0.4901 -0.4922  0.4584
  156MPD2    H7 2386   1.657   2.346  11.640  1.7660  0.1387 -1.9583
  157TCq2    C1 2387   1.635   2.541  11.577 -0.2861  0.0584 -0.4139
  157TCq2    O2 2388   1.655   2.662  11.580  0.2697  0.0553 -1.0197
  157TCq2    C2 2389   1.593   2.491  11.446 -0.3714  0.4047 -0.0087
  157TCq2    C3 2390   1.608   2.354  11.413 -0.9053 -0.2770 -0.8117
  157TCq2    C4 2391   1.542   2.314  11.296  0.1654 -0.4146 -0.1961
  157TCq2    C5 2392   1.476   2.398  11.213  0.3010  0.4225 -0.3278
  157TCq2    C6 2393   1.454   2.525  11.253  0.3070  0.4704  0.3295
  157TCq2    C7 2394   1.507   2.575  11.372  0.2678  0.5971 -0.7337
  157TCq2    C8 2395   1.346   2.603  11.184 -0.2290 -0.2142 -0.2557
  157TCq2    O4 2396   1.327   2.722  11.204  0.4130 -0.3562 -0.5861
  157TCq2    C9 2397   1.563   2.180  11.241 -0.2337 -0.4705 -0.0818
  157TCq2    O5 2398   1.662   2.112  11.274 -0.6591 -0.0634 -0.5398
  157TCq2    O6 2399   1.485   2.145  11.152 -0.3739 -0.1197 -0.0379
  157TCq2    H2 2400   1.669   2.283  11.468 -1.6235 -0.0099  0.3396
  157TCq2    H3 2401   1.440   2.360  11.119  2.5711 -1.7088 -0.3511
  157TCq2    H4 2402   1.495   2.676  11.411 -1.5691 -0.1202  0.5610
  158TMC2    C1 2403   1.298   1.341  13.309 -0.1439 -0.6772 -0.3083
  158TMC2    C2 2404   1.335   1.367  13.176  0.7403 -0.3762  0.5810
  158TMC2    C3 2405   1.231   1.411  13.098  0.6267 -0.6164 -0.2319
  158TMC2    C4 2406   1.172   1.339  13.354  0.0018 -0.3174 -0.3700
  158TMC2    C5 2407   1.073   1.385  13.270  0.2236 -0.4009 -0.4279
  158TMC2    C6 2408   1.106   1.444  13.145 -0.3157 -0.5019 -0.0516
  158TMC2     C 2409   1.405   1.309  13.394 -0.1739 -0.2272 -0.3043
  158TMC2     O 2410   1.514   1.292  13.344 -0.2669  0.2240  0.7357
  158TMC2     H 2411   1.438   1.372  13.143  0.4175  0.8816 -0.1960
  158TMC2    H1 2412   1.147   1.304  13.453  1.7300  1.3021  0.6534
  158TMC2    H2 2413   1.037   1.490  13.075 -0.3913  1.3421  1.2356
  158TMC2    C7 2414   0.932   1.374  13.297 -0.2456 -0.3589  0.0624
  158TMC2    C8 2415   1.262   1.478  12.972  0.3725  0.6054 -0.3295
  158TMC2    O1 2416   0.865   1.440  13.223 -0.1884  0.7709 -0.4421
  158TMC2    O2 2417   1.202   1.575  12.929  0.5108 -0.5442  0.1021
  158TMC2    O5 2418   1.365   1.410  12.922 -0.1287  0.0754 -0.4114
  158TMC2    H5 2419   1.363   1.322  12.965 -0.7483 -0.6485 -1.8894
  159MPD2     C 2420   1.596   1.199  13.858 -0.4818  0.1228 -0.3326
  159MPD2    C1 2421   1.474   1.258  13.872 -0.5241 -0.4661 -0.0707
  159MPD2    C2 2422   1.401   1.296  13.759  0.1440  0.4841  0.3987
  159MPD2    C3 2423   1.457   1.280  13.635  0.3252  0.6524  0.5516
  159MPD2    C4 2424   1.586   1.228  13.623  0.2079  0.2829 -0.3910
  159MPD2    C5 2425   1.654   1.179  13.733  0.1584 -0.3869  0.5167
  159MPD2     H 2426   1.303   1.340  13.773 -0.4217 -0.4001 -0.7875
  159MPD2    H1 2427   1.636   1.219  13.528 -0.3992  0.7191 -0.7484
  159MPD2    H2 2428   1.652   1.159  13.942 -2.7239 -1.5209  0.3910
  159MPD2    H3 2429   1.755   1.141  13.722 -1.4028 -3.7698 -2.0858
  159MPD2     N 2430   1.375   1.326  13.532  0.2189  0.1799 -0.1071
  159MPD2    H5 2431   1.281   1.355  13.556 -0.4095  0.2626 -2.6597
  159MPD2    N1 2432   1.421   1.256  13.999  0.1666 -0.5541 -0.4715
  159MPD2    H7 2433   1.483   1.216  14.068  0.5283 -0.5400 -0.7884
  160TMC2    C1 2434   1.297   3.786   0.979  0.4638  0.2842  0.3247
  160TMC2    C2 2435   1.415   3.729   1.015 -0.3292 -0.0208 -1.2384
  160TMC2    C3 2436   1.531   3.760   0.945  0.1326  0.0219 -0.2373
  160TMC2    C4 2437   1.300   3.877   0.880 -0.7294  0.2398  0.4998
  160TMC2    C5 2438   1.418   3.908   0.812  0.2693 -0.4460  0.4967
  160TMC2    C6 2439   1.536   3.839   0.839 -0.6983 -0.2290  0.8989
  160TMC2     C 2440   1.178   3.762   1.056  0.1805  0.1658  0.2577
  160TMC2     O 2441   1.187   3.705   1.162 -0.3482 -0.1516  0.0601
  160TMC2     H 2442   1.415   3.653   1.092 -2.1205 -0.5880 -1.7920
  160TMC2    H1 2443   1.216   3.943   0.859 -1.3730 -0.8983 -0.5624
  160TMC2    H2 2444   1.627   3.864   0.785  0.2828 -1.7267  1.8606
  160TMC2    C7 2445   1.422   3.998   0.699  0.4001  0.6784  0.2803
  160TMC2    C8 2446   1.654   3.682   0.985  0.1353 -0.2355 -0.4748
  160TMC2    O1 2447   1.317   4.011   0.633  0.2077 -0.4050 -0.5955
  160TMC2    O2 2448   1.654   3.579   1.052 -0.2188  0.4078 -0.3395
  160TMC2    O5 2449   1.759   3.753   0.945 -0.2748 -0.0428  0.2164
  160TMC2    H5 2450   1.738   3.846   0.921 -0.7760 -1.0119 -3.1688
  161MPD2     C 2451   0.909   3.770   1.166  0.3866  0.2025  0.8784
  161MPD2    C1 2452   0.932   3.783   1.036 -0.3019 -0.3432 -0.1030
  161MPD2    C2 2453   0.820   3.799   0.946  0.4334  0.2782 -0.3097
  161MPD2    C3 2454   0.692   3.800   0.995 -1.2228  0.5214  1.0944
  161MPD2    C4 2455   0.672   3.788   1.129  0.2592 -0.5640  0.2712
  161MPD2    C5 2456   0.784   3.777   1.210  0.2000 -0.6910  0.1419
  161MPD2     H 2457   0.837   3.809   0.840  1.3052  0.1738 -0.1840
  161MPD2    H1 2458   0.577   3.803   1.178 -0.0700  0.8914 -0.7930
  161MPD2    H2 2459   0.991   3.766   1.237 -0.7596  1.0765  2.2796
  161MPD2    H3 2460   0.777   3.787   1.317 -0.7219  3.4998 -0.3131
  161MPD2     N 2461   0.573   3.825   0.926 -0.2921  0.0779  0.0536
  161MPD2    H5 2462   0.484   3.825   0.976 -1.3765 -0.8001 -1.8465
  161MPD2    N1 2463   1.062   3.791   0.984  0.2883 -0.5213 -0.1659
  161MPD2    H7 2464   1.069   3.809   0.885  1.9092 -0.1251  0.0169
  162TMC2    C1 2465   3.825   0.652   1.208  0.1426 -0.1309  0.0152
  162TMC2    C2 2466   3.950   0.598   1.251 -0.1499  0.4150  0.5979
  162TMC2    C3 2467   3.963   0.565   1.379  0.3054 -0.1995  0.4787
  162TMC2    C4 2468   3.730   0.671   1.296 -0.0496 -0.1631  0.8815
  162TMC2    C5 2469   3.743   0.614   1.419  0.1715 -0.2058  0.4880
  162TMC2    C6 2470   3.859   0.560   1.464  1.0942  0.1635 -0.7587
  162TMC2     C 2471   3.831   0.717   1.084 -0.1511  0.2016 -0.2252
  162TMC2     O 2472   3.929   0.694   1.018 -0.1242  0.9583  0.5992
  162TMC2     H 2473   4.036   0.606   1.186  1.0333  1.2938  2.2570
  162TMC2    H1 2474   3.629   0.707   1.277  0.7028  1.1752 -0.5866
  162TMC2    H2 2475   3.866   0.513   1.561 -0.8765  0.5222 -0.4390
  162TMC2    C7 2476   3.623   0.574   1.485 -0.1655  1.1863  0.6976
  162TMC2    C8 2477   4.090   0.502   1.407 -0.1483 -0.3245  0.2356
  162TMC2    O1 2478   3.542   0.529   1.402  0.1826 -0.0963  0.2023
  162TMC2    O2 2479   4.114   0.473   1.521  0.0133 -0.1699 -0.2018
  162TMC2    O5 2480   4.096   0.411   1.308 -0.4530  0.6290 -0.4409
  162TMC2    H5 2481   4.070   0.426   1.215  1.1127  1.1098 -0.8026
  163MPD2     C 2482   3.622   0.927   0.642  0.2110  0.2539 -0.7116
  163MPD2    C1 2483   3.751   0.888   0.674 -0.4453  0.6665 -0.3232
  163MPD2    C2 2484   3.784   0.843   0.808  0.3566  0.0629  0.3814
  163MPD2    C3 2485   3.688   0.827   0.905 -0.6769  0.3805  0.9537
  163MPD2    C4 2486   3.555   0.862   0.870 -0.0533 -0.9187 -0.0601
  163MPD2    C5 2487   3.528   0.903   0.740  0.4711  0.1569  0.0933
  163MPD2     H 2488   3.889   0.831   0.833  0.5490 -0.8163 -0.8656
  163MPD2    H1 2489   3.474   0.844   0.940  0.2650 -2.1336 -0.0138
  163MPD2    H2 2490   3.601   0.975   0.547  0.6733  3.0456  0.6100
  163MPD2    H3 2491   3.425   0.930   0.720  0.2927  0.5003  1.4818
  163MPD2     N 2492   3.711   0.767   1.036 -0.1385  0.6594  0.3616
  163MPD2    H5 2493   3.628   0.762   1.094 -0.9020 -0.6960 -0.8460
  163MPD2    N1 2494   3.840   0.885   0.569 -0.0606 -0.0413  0.0122
  163MPD2    H7 2495   3.808   0.910   0.476 -2.6747  0.2215  0.9847
  164TCq2    C1 2496   0.280   1.177  10.734 -0.0176  0.3550 -0.1783
  164TCq2    O2 2497   0.328   1.103  10.651 -0.5042 -0.6278  0.6037
  164TCq2    C2 2498   0.232   1.122  10.863  0.0738 -0.3396 -0.3766
  164TCq2    C3 2499   0.210   1.215  10.962  0.2314  0.7346 -0.2181
  164TCq2    C4 2500   0.114   1.180  11.062 -0.0823 -0.0584 -0.4622
  164TCq2    C5 2501   0.054   1.058  11.057  0.0338  0.0026  0.5100
  164TCq2    C6 2502   0.077   0.975  10.955 -0.3907  0.5784 -0.7079
  164TCq2    C7 2503   0.169   1.000  10.860 -0.0009  0.1802  0.2400
  164TCq2    C8 2504   4.724   0.859  10.940  0.0179  0.2616 -0.0013
  164TCq2    O4 2505   0.053   0.750  10.940 -0.3296  0.0883  0.4538
  164TCq2    C9 2506   0.085   1.270  11.170 -0.1362  0.1578 -0.1741
  164TCq2    O5 2507   0.116   1.391  11.152  0.2786  0.0645 -0.2517
  164TCq2    O6 2508   0.011   1.229  11.262 -0.4614 -0.4429 -0.7532
  164TCq2    H2 2509   0.273   1.299  10.985  1.9526 -0.3579 -0.9305
  164TCq2    H3 2510   4.707   1.037  11.135  0.8127  0.2270  1.2795
  164TCq2    H4 2511   0.182   0.930  10.779 -0.1729  1.7896 -1.1931
  165MPD2     C 2512   1.454   2.074   1.799 -0.5562 -0.1115  0.5406
  165MPD2    C1 2513   1.344   2.082   1.715  0.2236  0.7367  0.0358
  165MPD2    C2 2514   1.291   2.205   1.694 -0.2308 -0.7620  0.2355
  165MPD2    C3 2515   1.344   2.320   1.757 -0.1411  0.5542  0.0747
  165MPD2    C4 2516   1.448   2.308   1.844 -0.2945 -0.1972 -0.3065
  165MPD2    C5 2517   1.502   2.184   1.856 -0.1328 -0.5479 -0.0777
  165MPD2     H 2518   1.195   2.217   1.647 -0.8160 -0.6861  1.4443
  165MPD2    H1 2519   1.495   2.394   1.888  0.0856 -0.7139  0.2862
  165MPD2    H2 2520   1.503   1.982   1.828  2.3555  1.0132 -0.7983
  165MPD2    H3 2521   1.594   2.171   1.914 -0.2337  0.6083  0.3545
  165MPD2     N 2522   1.275   2.442   1.760 -0.3661 -0.2924 -0.3039
  165MPD2    H5 2523   1.321   2.514   1.815 -2.2357  2.1399 -1.9057
  165MPD2    N1 2524   1.285   1.964   1.672 -1.0077 -0.1516 -0.1515
  165MPD2    H7 2525   1.324   1.876   1.704 -0.7100 -0.2921 -0.8988
  166TCq2    C1 2526   1.182   2.485   1.671 -0.3176  0.1230 -0.2658
  166TCq2    O2 2527   1.126   2.425   1.580 -0.2596  0.5898  0.0203
  166TCq2    C2 2528   1.161   2.627   1.685 -0.1129  0.6330  0.7412
  166TCq2    C3 2529   1.174   2.686   1.807 -0.1806 -0.0817  0.6761
  166TCq2    C4 2530   1.146   2.814   1.828 -0.3157  0.7833  0.1157
  166TCq2    C5 2531   1.120   2.885   1.719  0.0434 -0.1714 -0.6174
  166TCq2    C6 2532   1.116   2.832   1.595 -0.4028 -0.5937 -0.0133
  166TCq2    C7 2533   1.127   2.702   1.573 -0.1822  0.9817  0.2997
  166TCq2    C8 2534   1.143   2.922   1.481 -0.0639 -0.2375  0.3332
  166TCq2    O4 2535   1.198   2.876   1.380  0.4059  0.6995  0.6775
  166TCq2    C9 2536   1.131   2.861   1.964  0.6797  0.2849  0.4907
  166TCq2    O5 2537   1.096   2.768   2.042 -0.1195  0.3836 -0.1548
  166TCq2    O6 2538   1.123   2.985   1.978  0.2677  0.2262  0.2954
  166TCq2    H2 2539   1.183   2.629   1.899  0.9901  0.7532  1.0705
  166TCq2    H3 2540   1.099   2.991   1.735 -0.3418 -0.3986  0.3783
  166TCq2    H4 2541   1.121   2.660   1.473 -0.8613 -0.0648  0.7732
  167TMC2    C1 2542   3.507   1.390  12.740  0.2667  0.2244 -0.1682
  167TMC2    C2 2543   3.438   1.441  12.839 -0.4111  0.6335  0.2865
  167TMC2    C3 2544   3.417   1.360  12.945  0.9161 -0.5612  0.3248
  167TMC2    C4 2545   3.573   1.271  12.750  0.9970 -0.2950  0.8862
  167TMC2    C5 2546   3.556   1.195  12.865 -0.7260  0.2699 -0.0983
  167TMC2    C6 2547   3.483   1.241  12.969  0.7638  0.0291  0.6824
  167TMC2     C 2548   3.478   1.455  12.619  0.4590  0.6805  0.3618
  167TMC2     O 2549   3.431   1.570  12.623  0.2058  0.2199  0.5669
  167TMC2     H 2550   3.388   1.537  12.844 -0.4653  0.6508 -0.5376
  167TMC2    H1 2551   3.632   1.230  12.670 -0.2685  0.6678 -0.5381
  167TMC2    H2 2552   3.476   1.191  13.064  1.8843 -1.3575  0.0328
  167TMC2    C7 2553   3.637   1.077  12.891  0.0634 -0.1467  0.4650
  167TMC2    C8 2554   3.377   1.448  13.057 -0.7331 -0.1431  0.3271
  167TMC2    O1 2555   3.596   1.016  12.986  0.5304  0.3772 -0.6328
  167TMC2    O2 2556   3.419   1.563  13.062  0.1764  0.2006 -0.1730
  167TMC2    O5 2557   3.331   1.365  13.156  0.0368 -0.4763  0.2688
  167TMC2    H5 2558   3.292   1.285  13.115  1.3091 -0.9629  0.0062
  168MPD2     C 2559   3.404   1.531  12.342  0.1991 -0.5413  0.7415
  168MPD2    C1 2560   3.456   1.407  12.382  0.7780  0.3048  0.4402
  168MPD2    C2 2561   3.482   1.310  12.283 -0.2179 -0.3120 -0.3415
  168MPD2    C3 2562   3.457   1.333  12.150 -0.1548 -0.4384 -0.0101
  168MPD2    C4 2563   3.399   1.452  12.115  0.1740  1.0892 -0.2942
  168MPD2    C5 2564   3.380   1.553  12.207 -0.6218  0.4889  0.0057
  168MPD2     H 2565   3.519   1.214  12.317 -0.0491 -0.2526 -0.3582
  168MPD2    H1 2566   3.401   1.480  12.010 -0.1122 -0.0851 -0.6093
  168MPD2    H2 2567   3.382   1.614  12.409  1.3934 -1.3046  2.0672
  168MPD2    H3 2568   3.347   1.650  12.172 -1.1947  0.3623  0.2077
  168MPD2     N 2569   3.473   1.236  12.045 -0.4659  0.1710 -0.3657
  168MPD2    H5 2570   3.425   1.240  11.956 -1.5528  2.9896  0.3362
  168MPD2    N1 2571   3.493   1.374  12.513  0.0071 -0.1266 -0.0868
  168MPD2    H7 2572   3.534   1.281  12.521 -0.6766 -0.3534  0.7723
  169MPD1     C 2573   0.915   1.086   9.023  0.0322 -0.1198  0.5314
  169MPD1    C1 2574   0.951   0.955   8.996 -0.1942 -0.2992 -0.6175
  169MPD1    C2 2575   1.086   0.940   8.972  0.0056  0.0516  0.5560
  169MPD1    C3 2576   1.179   1.042   8.951  0.8326  0.4859 -0.7554
  169MPD1    C4 2577   1.132   1.175   8.961  0.0353 -0.4498 -0.7242
  169MPD1    C5 2578   1.004   1.186   9.005  0.0733 -0.9774 -0.3008
  169MPD1     H 2579   1.120   0.837   8.981  0.4378  0.2431  1.2086
  169MPD1    H1 2580   1.194   1.261   8.937  0.5433  0.0078  2.2080
  169MPD1    H2 2581   0.817   1.111   9.062  0.5190  1.3022  0.8105
  169MPD1    H3 2582   0.968   1.286   9.028  1.1740 -0.7378  0.4237
  169MPD1     N 2583   1.313   1.007   8.909 -0.2218 -0.1478 -0.3102
  169MPD1    H5 2584   1.331   0.918   8.865  3.4113  1.4330 -2.0083
  169MPD1    N1 2585   0.868   0.846   9.035 -0.1383 -0.4852  0.4229
  169MPD1    H6 2586   0.889   0.750   9.007 -0.2972 -0.2348 -0.5556
  169MPD1    H7 2587   0.774   0.864   9.000  0.0294 -1.7621 -0.7383
  170MPD1     C 2588   4.695   2.934  12.861  0.4193 -0.1068  0.0064
  170MPD1    C1 2589   4.704   3.072  12.847  0.3106  0.2102 -0.5777
  170MPD1    C2 2590   4.641   3.143  12.942 -0.0917 -0.0449  0.0583
  170MPD1    C3 2591   4.586   3.089  13.058  0.3555  0.1908 -0.0762
  170MPD1    C4 2592   4.573   2.952  13.066  0.0680  0.3482  0.7310
  170MPD1    C5 2593   4.625   2.876  12.968 -0.1368  0.3321  0.5503
  170MPD1     H 2594   4.635   3.251  12.927 -0.6037  0.0268  0.7831
  170MPD1    H1 2595   4.535   2.909  13.158 -0.8122 -0.1024  0.1616
  170MPD1    H2 2596   4.712   2.871  12.774  1.1571 -0.6865  0.5687
  170MPD1    H3 2597   4.616   2.768  12.965 -1.1434  0.4435 -0.6169
  170MPD1     N 2598   4.539   3.179  13.155  0.5869 -0.2330  0.6939
  170MPD1    H5 2599   4.537   3.278  13.130 -0.0525 -0.3017  0.4660
  170MPD1    N1 2600   0.010   3.132  12.726 -0.6459  0.5748 -0.4004
  170MPD1    H6 2601   0.082   3.084  12.673  0.0330  2.4090 -1.1495
  170MPD1    H7 2602   0.026   3.233  12.728  1.2537  0.2522  0.4410
  171MPD1     C 2603   3.312   4.559  15.498 -0.7653 -0.3727  0.0542
  171MPD1    C1 2604   3.399   4.473  15.426 -0.9471  0.2886  0.3339
  171MPD1    C2 2605   3.449   4.361  15.494 -0.5115 -0.1300  0.1231
  171MPD1    C3 2606   3.396   4.327  15.618  0.4179 -0.2143 -0.1561
  171MPD1    C4 2607   3.322   4.418  15.686  0.2170  0.5611  0.4548
  171MPD1    C5 2608   3.286   4.533  15.628 -1.3484  0.1927  0.1609
  171MPD1     H 2609   3.519   4.294  15.446  0.3484  1.0355 -0.2448
  171MPD1    H1 2610   3.286   4.392  15.785 -0.0642  0.1439  0.2422
  171MPD1    H2 2611   3.265   4.645  15.452 -0.8948 -0.8355 -0.6725
  171MPD1    H3 2612   3.223   4.596  15.688 -1.2667 -0.0691  0.5223
  171MPD1     N 2613   3.432   4.210  15.684  0.2381 -0.6989  0.1113
  171MPD1    H5 2614   3.414   4.197  15.783 -0.5758 -3.2300 -0.3575
  171MPD1    N1 2615   3.427   4.493  15.285  0.0355  0.2305 -0.9666
  171MPD1    H6 2616   3.435   4.591  15.260 -1.5340  0.3689 -0.8971
  171MPD1    H7 2617   3.508   4.445  15.245  0.8608  2.5416 -2.0653
  172MPD1     C 2618   2.184   2.872   0.093  0.2841  0.5951 -0.3414
  172MPD1    C1 2619   2.312   2.874   0.046 -0.2064 -0.3360  0.2405
  172MPD1    C2 2620   2.392   2.985   0.058 -0.3116 -0.8607 -0.2290
  172MPD1    C3 2621   2.337   3.105   0.105 -0.3896 -0.5059  0.3759
  172MPD1    C4 2622   2.203   3.108   0.132 -0.4067  0.2281 -0.2577
  172MPD1    C5 2623   2.126   2.989   0.129 -0.1246  0.2954 -0.1795
  172MPD1     H 2624   2.492   2.962   0.024  0.1521  0.5213  0.1923
  172MPD1    H1 2625   2.154   3.200   0.162  0.8348  0.4097  1.2266
  172MPD1    H2 2626   2.128   2.780   0.087 -0.8711  1.4300 -2.2332
  172MPD1    H3 2627   2.022   2.994   0.160 -0.9980  0.0167 -3.1010
  172MPD1     N 2628   2.429   3.199   0.140  0.0976 -0.4480  0.1478
  172MPD1    H5 2629   2.525   3.179   0.113  0.0770 -0.4512  0.0789
  172MPD1    N1 2630   2.369   2.754   0.005 -0.0105  0.1535  0.4033
  172MPD1    H6 2631   2.294   2.691  17.675 -0.6316  2.1411 -2.1880
  172MPD1    H7 2632   2.442   2.765  17.635 -1.7398 -1.2255 -1.6155
  173MPD1     C 2633   3.537   3.581  14.495  0.7004 -0.2564 -0.1868
  173MPD1    C1 2634   3.507   3.498  14.386 -0.2841  0.7552  0.2163
  173MPD1    C2 2635   3.441   3.381  14.417 -0.2495  0.3980 -0.3948
  173MPD1    C3 2636   3.409   3.350  14.549 -0.3272 -0.1613 -0.7741
  173MPD1    C4 2637   3.438   3.436  14.651 -0.0885 -0.4281 -0.7850
  173MPD1    C5 2638   3.503   3.554  14.623 -0.1363  0.0104 -0.3371
  173MPD1     H 2639   3.424   3.303  14.343 -1.0867 -0.2623  0.4873
  173MPD1    H1 2640   3.428   3.404  14.753  1.5694  0.1048 -0.4442
  173MPD1    H2 2641   3.593   3.671  14.478 -0.4522  0.4753 -0.1242
  173MPD1    H3 2642   3.531   3.630  14.695 -0.9925 -0.7253  0.7712
  173MPD1     N 2643   3.352   3.225  14.577 -0.0108  0.2562 -0.1133
  173MPD1    H5 2644   3.333   3.162  14.500 -1.7220  3.3225 -2.2131
  173MPD1    N1 2645   3.526   3.542  14.253  0.1025  0.4789 -0.4559
  173MPD1    H6 2646   3.606   3.602  14.234  0.5965  0.0153  0.1694
  173MPD1    H7 2647   3.513   3.467  14.185  0.6363  0.6110 -0.7123
  174MPD1     C 2648   3.661   2.627  14.082  0.8471  0.8015  0.3617
  174MPD1    C1 2649   3.559   2.558  14.135  0.2813  0.2839  0.6443
  174MPD1    C2 2650   3.485   2.613  14.232  0.0430  0.5501 -0.1259
  174MPD1    C3 2651   3.505   2.746  14.273 -0.2503  0.2160  0.7303
  174MPD1    C4 2652   3.611   2.817  14.221  0.5209  0.7411  0.2844
  174MPD1    C5 2653   3.685   2.757  14.124  0.0217 -0.2088  0.0848
  174MPD1     H 2654   3.397   2.560  14.265 -1.0599  2.8708  0.6521
  174MPD1    H1 2655   3.633   2.919  14.249 -1.0534  0.9184  0.8801
  174MPD1    H2 2656   3.720   2.587  14.001  0.7466 -1.0335  1.2080
  174MPD1    H3 2657   3.766   2.813  14.080 -0.7372  2.0837  1.5896
  174MPD1     N 2658   3.420   2.803  14.370 -0.7659 -0.3834  0.1406
  174MPD1    H5 2659   3.436   2.901  14.390 -2.5874  0.6987 -3.7489
  174MPD1    N1 2660   3.534   2.425  14.092 -0.2986  0.8603  0.4631
  174MPD1    H6 2661   3.558   2.412  13.994 -0.5799  1.0519  0.3710
  174MPD1    H7 2662   3.437   2.397  14.104  0.1145 -1.6250 -1.7391
  175MPD1     C 2663   1.833   3.950  15.272 -0.5943 -0.4829  0.2654
  175MPD1    C1 2664   1.964   3.969  15.302 -0.3941 -0.1557  0.2625
  175MPD1    C2 2665   2.009   3.973  15.435 -0.2875  0.2199  0.3427
  175MPD1    C3 2666   1.913   3.965  15.532  0.0865  0.3975  0.5704
  175MPD1    C4 2667   1.777   3.947  15.503 -1.1004  0.5401  0.6479
  175MPD1    C5 2668   1.739   3.943  15.372  0.3201 -0.0798 -0.4437
  175MPD1     H 2669   2.116   3.978  15.451 -0.3267 -1.7756  1.1109
  175MPD1    H1 2670   1.695   3.938  15.574 -2.5448  1.4773 -0.8894
  175MPD1    H2 2671   1.795   3.951  15.170  1.0600  1.3665 -0.3164
  175MPD1    H3 2672   1.636   3.931  15.340  0.0580 -0.6432  0.6123
  175MPD1     N 2673   1.944   3.978  15.669  0.6086 -0.5962  0.6052
  175MPD1    H5 2674   1.875   3.958  15.741 -0.7545 -2.2943 -1.1653
  175MPD1    N1 2675   2.053   4.009  15.200  0.2391  0.2182 -0.5084
  175MPD1    H6 2676   2.148   3.985  15.228 -0.3883  0.5068  1.9135
  175MPD1    H7 2677   2.037   3.951  15.118  0.8062  0.6486 -0.9256
  176MPD1     C 2678   4.238   0.464  16.457  0.2206  0.4071 -0.6254
  176MPD1    C1 2679   4.112   0.492  16.424 -0.8242 -0.2013  0.7231
  176MPD1    C2 2680   4.026   0.522  16.519 -0.8676 -0.3178  0.9023
  176MPD1    C3 2681   4.057   0.519  16.655  0.6321  0.2001  0.0195
  176MPD1    C4 2682   4.188   0.477  16.687 -0.1598 -0.2764 -0.7627
  176MPD1    C5 2683   4.275   0.451  16.585 -0.5006 -0.0492 -0.1408
  176MPD1     H 2684   3.928   0.553  16.485  0.0136  1.8278  0.3004
  176MPD1    H1 2685   4.231   0.458  16.785  0.9001 -0.1153 -1.2018
  176MPD1    H2 2686   4.315   0.436  16.387 -0.4072 -0.5682 -0.9253
  176MPD1    H3 2687   4.378   0.425  16.605 -1.0858 -1.4160  1.0678
  176MPD1     N 2688   3.963   0.557  16.759 -0.3506 -0.0445 -0.6599
  176MPD1    H5 2689   3.872   0.585  16.725 -0.5496 -0.0906 -0.1539
  176MPD1    N1 2690   4.077   0.513  16.288  0.0498 -0.0202  0.3362
  176MPD1    H6 2691   4.125   0.452  16.222 -0.5064 -1.6516  1.4497
  176MPD1    H7 2692   3.977   0.502  16.278  0.0809  0.8071 -0.8594
  177MPD1     C 2693   2.288   0.888  10.092  0.1709 -0.4129 -0.1920
  177MPD1    C1 2694   2.306   1.010  10.036 -0.0836 -0.0678  0.6643
  177MPD1    C2 2695   2.222   1.053   9.935 -0.2004  0.5373 -0.3050
  177MPD1    C3 2696   2.116   0.979   9.902 -0.3706 -0.1653  0.0847
  177MPD1    C4 2697   2.095   0.859   9.962  0.1824 -0.0193 -0.7616
  177MPD1    C5 2698   2.178   0.814  10.066 -0.5410  0.7932 -0.0386
  177MPD1     H 2699   2.243   1.152   9.894 -1.7566  0.4289 -1.3501
  177MPD1    H1 2700   2.020   0.788   9.930 -0.9474  0.8733 -0.0856
  177MPD1    H2 2701   2.355   0.849  10.168 -1.6733  1.2587  2.2442
  177MPD1    H3 2702   2.163   0.714  10.103 -0.4243  0.9691  0.4794
  177MPD1     N 2703   2.011   1.020   9.807 -0.6085  0.2599  0.8326
  177MPD1    H5 2704   2.025   1.110   9.761 -0.2946  1.1246  2.6226
  177MPD1    N1 2705   2.432   1.063  10.040 -0.1309  0.0859  0.5040
  177MPD1    H6 2706   2.433   1.163  10.017  2.4990 -0.0792 -0.0449
  177MPD1    H7 2707   2.485   1.043  10.124 -0.2855 -1.7992  0.1538
  178MPD1     C 2708   3.765   2.881  17.675  0.7619 -0.1738 -0.0534
  178MPD1    C1 2709   3.887   2.827   0.019 -0.0044 -0.3379  0.3049
  178MPD1    C2 2710   3.942   2.738  17.626 -0.3460 -0.7510 -0.1282
  178MPD1    C3 2711   3.879   2.700  17.512  0.1619 -0.4149 -0.1649
  178MPD1    C4 2712   3.757   2.753  17.473 -0.4078 -0.4040  0.8550
  178MPD1    C5 2713   3.700   2.846  17.561 -0.7340  0.1114  0.0591
  178MPD1     H 2714   4.043   2.704  17.646  1.1425  2.1112 -2.8175
  178MPD1    H1 2715   3.703   2.727  17.382 -2.0329 -0.7161  1.9132
  178MPD1    H2 2716   3.717   2.959   0.033 -0.4092 -0.1508 -1.0643
  178MPD1    H3 2717   3.605   2.890  17.532 -1.4191  0.0420  2.1646
  178MPD1     N 2718   3.935   2.606  17.419 -0.1755  0.0610 -0.0903
  178MPD1    H5 2719   3.885   2.608  17.331  0.5313  4.4482 -0.3972
  178MPD1    N1 2720   3.970   2.889   0.116  0.6678  0.0562 -0.1032
  178MPD1    H6 2721   3.926   2.912   0.205 -1.3660 -0.9710 -0.8337
  178MPD1    H7 2722   4.048   2.831   0.144 -0.0130 -1.6142 -1.7027
  179MPD1     C 2723   4.065   0.764  15.084 -0.1325 -0.9282 -0.0439
  179MPD1    C1 2724   4.190   0.720  15.122  0.2065  0.7889  0.2634
  179MPD1    C2 2725   4.201   0.622  15.224  0.5834 -0.3549  0.6070
  179MPD1    C3 2726   4.088   0.584  15.291  0.2565  0.1309  0.6999
  179MPD1    C4 2727   3.965   0.634  15.249  0.0106  0.4206  0.0415
  179MPD1    C5 2728   3.952   0.719  15.146 -0.2330  0.4324  0.2420
  179MPD1     H 2729   4.298   0.576  15.242  0.5771 -1.3635 -1.9572
  179MPD1    H1 2730   3.872   0.606  15.298 -0.6381  0.7801 -1.0058
  179MPD1    H2 2731   4.049   0.850  15.020 -0.6100  0.8594  2.5073
  179MPD1    H3 2732   3.856   0.766  15.129 -0.8698 -0.8007  0.5021
  179MPD1     N 2733   4.086   0.493  15.401 -0.6031  0.6247 -0.0241
  179MPD1    H5 2734   4.009   0.481  15.466  0.8612 -2.7942  1.0438
  179MPD1    N1 2735   4.301   0.754  15.045 -0.0745  0.0407 -0.2646
  179MPD1    H6 2736   4.392   0.773  15.087  0.0403  1.5219 -1.1816
  179MPD1    H7 2737   4.285   0.842  14.996 -1.3910  1.5464  2.8493
  180MPD1     C 2738   3.950   1.699  15.069 -0.3879  0.4712  0.4920
  180MPD1    C1 2739   3.931   1.624  14.959 -0.1037 -0.6295 -0.0793
  180MPD1    C2 2740   3.902   1.683  14.841  0.1546 -0.6322 -0.1232
  180MPD1    C3 2741   3.910   1.816  14.827  0.7951  0.8919  0.7452
  180MPD1    C4 2742   3.933   1.897  14.934 -0.2516 -0.1863 -0.1003
  180MPD1    C5 2743   3.952   1.831  15.051  0.4595  0.3221  0.2073
  180MPD1     H 2744   3.873   1.625  14.754 -0.6631 -1.0461  0.4253
  180MPD1    H1 2745   3.930   2.005  14.939 -1.1011 -0.2467  0.6445
  180MPD1    H2 2746   3.971   1.649  15.163  2.6291 -0.3547 -0.6378
  180MPD1    H3 2747   3.979   1.888  15.140  1.3022  0.4078 -0.0976
  180MPD1     N 2748   3.894   1.869  14.694  0.6966  0.3302  0.0424
  180MPD1    H5 2749   3.871   1.813  14.613 -0.8043 -0.9517  1.3636
  180MPD1    N1 2750   3.933   1.486  14.974  0.1160  0.4055 -0.0459
  180MPD1    H6 2751   3.964   1.445  14.886 -1.4695 -1.2076  0.1400
  180MPD1    H7 2752   3.990   1.461  15.054  2.3626 -0.4579 -1.8957
  181MPD1     C 2753   2.351   3.587   9.512  0.2075  0.1418  0.2151
  181MPD1    C1 2754   2.466   3.528   9.560  0.2947  0.0259 -0.8490
  181MPD1    C2 2755   2.441   3.424   9.643  0.5025  0.3928  0.3960
  181MPD1    C3 2756   2.322   3.396   9.711  0.0396 -0.6450  0.1153
  181MPD1    C4 2757   2.217   3.475   9.681 -0.1596  0.4424 -0.1026
  181MPD1    C5 2758   2.230   3.564   9.578 -0.1400 -0.2562  0.1564
  181MPD1     H 2759   2.528   3.366   9.673  0.3230  0.8064  1.7234
  181MPD1    H1 2760   2.121   3.463   9.730  0.4498  0.9317  1.1903
  181MPD1    H2 2761   2.347   3.659   9.431 -2.5165 -1.6162 -1.2278
  181MPD1    H3 2762   2.149   3.628   9.547 -0.8338 -1.9957 -1.6115
  181MPD1     N 2763   2.308   3.290   9.804 -0.6248 -0.0590 -0.0352
  181MPD1    H5 2764   2.220   3.292   9.855  0.1949 -1.3946  1.4454
  181MPD1    N1 2765   2.585   3.543   9.489 -0.4084  0.4356  0.0434
  181MPD1    H6 2766   2.667   3.539   9.549  0.0257 -0.2133 -0.5936
  181MPD1    H7 2767   2.589   3.630   9.437 -0.2785 -0.5488 -1.6156
  182MPD1     C 2768   1.905   2.637   1.423  0.3787  0.0578 -0.0816
  182MPD1    C1 2769   1.986   2.573   1.334 -0.4065 -0.7129 -0.0870
  182MPD1    C2 2770   1.955   2.600   1.199 -0.3374  0.2875  0.7621
  182MPD1    C3 2771   1.847   2.680   1.165  0.0886  0.2401  0.5261
  182MPD1    C4 2772   1.763   2.737   1.263  0.4089  0.0019 -0.5564
  182MPD1    C5 2773   1.793   2.711   1.390  0.1993  0.0127  0.4198
  182MPD1     H 2774   2.015   2.551   1.124 -0.6793  1.5826 -0.3718
  182MPD1    H1 2775   1.675   2.798   1.244  0.5612  0.3179 -0.2285
  182MPD1    H2 2776   1.926   2.624   1.529 -1.4948  2.1830  0.5487
  182MPD1    H3 2777   1.740   2.754   1.474  1.1533 -0.9392  1.5076
  182MPD1     N 2778   1.806   2.700   1.029  0.0127 -0.5008  0.0522
  182MPD1    H5 2779   1.719   2.751   1.022  0.7353  0.9502  1.7625
  182MPD1    N1 2780   2.099   2.507   1.379 -0.0925 -1.0950 -0.1280
  182MPD1    H6 2781   2.126   2.438   1.309 -2.2817 -1.9164 -0.1522
  182MPD1    H7 2782   2.075   2.460   1.465  0.3080 -0.2507  0.4466
  183MPD1     C 2783   3.154   3.551   9.553 -0.6617 -0.7850  0.2695
  183MPD1    C1 2784   3.116   3.440   9.634 -0.1446  0.2283 -0.2418
  183MPD1    C2 2785   3.001   3.449   9.709  0.5092  0.1504  0.3734
  183MPD1    C3 2786   2.914   3.553   9.709  0.0126  0.4762 -0.1536
  183MPD1    C4 2787   2.946   3.655   9.625  0.0380 -0.0938 -0.0403
  183MPD1    C5 2788   3.059   3.655   9.545  0.1637  0.1153  0.7407
  183MPD1     H 2789   2.987   3.354   9.759  0.1582 -0.8981 -1.7273
  183MPD1    H1 2790   2.885   3.737   9.589 -3.3248 -2.3999  0.4183
  183MPD1    H2 2791   3.238   3.552   9.485 -1.7124 -0.5610 -1.0410
  183MPD1    H3 2792   3.091   3.731   9.475 -2.0202  0.4016  0.0581
  183MPD1     N 2793   2.795   3.554   9.792  0.0090  0.6256 -0.5343
  183MPD1    H5 2794   2.764   3.468   9.837 -0.4437  0.8763 -0.3694
  183MPD1    N1 2795   3.193   3.327   9.632  0.1184  0.1262 -0.7551
  183MPD1    H6 2796   3.182   3.271   9.716  1.0187 -0.0708 -0.7588
  183MPD1    H7 2797   3.293   3.346   9.622  0.3611 -2.1459 -2.7084
  184MPD1     C 2798   2.041   0.394  10.572 -0.4463 -0.2653  0.7279
  184MPD1    C1 2799   2.082   0.515  10.618 -0.2131 -0.0660  0.1285
  184MPD1    C2 2800   2.043   0.628  10.543 -0.5473 -0.2411  0.1716
  184MPD1    C3 2801   1.977   0.612  10.431  0.2365 -0.8037 -0.2150
  184MPD1    C4 2802   1.946   0.487  10.381  0.3987  0.0472 -0.9637
  184MPD1    C5 2803   1.978   0.379  10.454  0.2971 -0.1803  0.0899
  184MPD1     H 2804   2.063   0.726  10.583  0.7639  0.0622 -1.2354
  184MPD1    H1 2805   1.913   0.474  10.278  1.3063 -0.6827 -1.1629
  184MPD1    H2 2806   2.066   0.303  10.625 -1.7957 -1.0545  0.0103
  184MPD1    H3 2807   1.966   0.284  10.404  0.9099  0.3626 -1.0845
  184MPD1     N 2808   1.933   0.720  10.344 -0.6467 -0.4153 -0.0138
  184MPD1    H5 2809   1.887   0.691  10.259 -0.3427  1.6967 -0.9068
  184MPD1    N1 2810   2.141   0.530  10.746 -0.9117 -0.7881  0.7968
  184MPD1    H6 2811   2.192   0.445  10.772 -2.1221 -0.7259  3.2706
  184MPD1    H7 2812   2.180   0.623  10.760 -3.2578  0.4129 -0.6318
  185MPD1     C 2813   1.287   0.658   9.778  0.5360 -0.1746  0.3547
  185MPD1    C1 2814   1.370   0.747   9.718  0.0793  0.6568  0.8303
  185MPD1    C2 2815   1.461   0.811   9.804  0.4915  0.0782 -0.3672
  185MPD1    C3 2816   1.469   0.793   9.947  0.2781 -0.1661  0.1597
  185MPD1    C4 2817   1.377   0.713  10.003 -0.0263  0.6160  0.3484
  185MPD1    C5 2818   1.298   0.640   9.915  0.1705 -0.4891 -0.1225
  185MPD1     H 2819   1.541   0.876   9.771 -0.5758  1.9704  0.7737
  185MPD1    H1 2820   1.366   0.699  10.110  2.9928  0.5497  0.6509
  185MPD1    H2 2821   1.214   0.598   9.725 -0.1730  1.2374 -0.2838
  185MPD1    H3 2822   1.226   0.571   9.957  0.8032 -1.8336 -1.2463
  185MPD1     N 2823   1.560   0.863  10.034 -0.2573  0.1667  0.4200
  185MPD1    H5 2824   1.572   0.812  10.121  0.2327  1.1270  0.9153
  185MPD1    N1 2825   1.381   0.759   9.575  0.5584 -0.2601  0.7195
  185MPD1    H6 2826   1.437   0.839   9.548  0.2254 -0.5537 -0.8272
  185MPD1    H7 2827   1.290   0.772   9.531  0.5555  0.2199  0.8615
  186MPD1     C 2828   4.022   0.980  15.397 -0.2040 -0.1160 -0.3754
  186MPD1    C1 2829   3.958   1.016  15.515  0.4319 -0.4451 -0.3797
  186MPD1    C2 2830   4.032   1.044  15.630  0.3558  0.0340  0.1640
  186MPD1    C3 2831   4.169   1.020  15.633  0.6826 -0.0963  1.3794
  186MPD1    C4 2832   4.231   0.975  15.516 -0.1050 -0.7945 -0.1240
  186MPD1    C5 2833   4.153   0.953  15.407 -0.3475 -0.7298  0.3443
  186MPD1     H 2834   3.973   1.075  15.715  0.5272  0.4499  0.1307
  186MPD1    H1 2835   4.339   0.971  15.505 -0.2095  1.0073 -1.7878
  186MPD1    H2 2836   3.967   0.969  15.304 -1.6335 -2.4309  0.7528
  186MPD1    H3 2837   4.199   0.922  15.314 -0.6370  1.0689 -0.3823
  186MPD1     N 2838   4.255   1.028  15.745 -0.1638 -0.1066 -0.3368
  186MPD1    H5 2839   4.355   1.020  15.730 -0.0596  0.8312 -0.1426
  186MPD1    N1 2840   3.819   1.045  15.504 -0.4420 -0.1100  0.1752
  186MPD1    H6 2841   3.767   1.045  15.591 -0.8544 -0.8866 -0.0759
  186MPD1    H7 2842   3.763   0.981  15.449 -0.3622 -0.1852  0.1815
  187MPD1     C 2843   3.639   2.001   0.416 -0.1632 -0.1293 -0.7987
  187MPD1    C1 2844   3.630   2.131   0.365  0.2677 -0.5078 -0.3723
  187MPD1    C2 2845   3.629   2.156   0.230 -0.0096  0.5029  0.1635
  187MPD1    C3 2846   3.629   2.050   0.139  0.1532  0.2331 -0.2609
  187MPD1    C4 2847   3.657   1.924   0.186  0.2273  0.3663  0.7547
  187MPD1    C5 2848   3.654   1.899   0.323  0.0200  0.2643 -0.3439
  187MPD1     H 2849   3.621   2.259   0.196  0.4010  0.7944  0.9465
  187MPD1    H1 2850   3.677   1.841   0.118 -0.0120 -0.8489  2.1616
  187MPD1    H2 2851   3.638   1.973   0.521 -0.5548  0.4647 -0.6444
  187MPD1    H3 2852   3.662   1.795   0.350 -2.2270  0.4504  1.0290
  187MPD1     N 2853   3.611   2.072   0.002 -0.0579  0.3081 -0.0290
  187MPD1    H5 2854   3.594   1.986  17.651  2.5097  1.6186 -3.0990
  187MPD1    N1 2855   3.601   2.233   0.453 -0.3229  0.2015  0.1939
  187MPD1    H6 2856   3.632   2.327   0.428 -1.4193  0.0526 -1.7011
  187MPD1    H7 2857   3.632   2.213   0.548  0.9881 -0.0800 -0.2951
  188MPD1     C 2858   0.193   3.201   9.461  0.0808 -0.4211 -0.2212
  188MPD1    C1 2859   0.061   3.190   9.510  0.2735 -0.0058 -0.4441
  188MPD1    C2 2860   4.723   3.061   9.498  0.3666  0.0591  0.6481
  188MPD1    C3 2861   0.080   2.951   9.465  0.4196  0.3137  0.0136
  188MPD1    C4 2862   0.208   2.969   9.426  0.5669  0.9392 -0.7131
  188MPD1    C5 2863   0.257   3.095   9.403  0.5216  0.1839 -0.3525
  188MPD1     H 2864   4.624   3.049   9.538 -1.0115 -2.3150 -3.5129
  188MPD1    H1 2865   0.255   2.885   9.377 -0.3447  0.2267 -0.3486
  188MPD1    H2 2866   0.235   3.298   9.438  1.3272 -0.8322  0.2999
  188MPD1    H3 2867   0.355   3.122   9.366  0.6122  0.6504  0.2252
  188MPD1     N 2868   0.037   2.821   9.466 -0.0558  0.4311 -0.5749
  188MPD1    H5 2869   0.112   2.754   9.450  2.4408  3.2763 -0.7399
  188MPD1    N1 2870   4.707   3.301   9.548  0.0489  0.5849  0.4278
  188MPD1    H6 2871   0.046   3.377   9.568  0.8643  0.4861 -1.7765
  188MPD1    H7 2872   4.659   3.278   9.635  0.5965 -1.5799  0.1634
  189MPD1     C 2873   1.160   2.568   0.091 -0.3529 -0.1589 -0.2128
  189MPD1    C1 2874   1.118   2.547   0.219  0.6235  0.4966 -0.0097
  189MPD1    C2 2875   1.006   2.613   0.259  0.1526 -0.6954  0.2509
  189MPD1    C3 2876   0.936   2.696   0.169  0.1231 -0.5087 -0.2747
  189MPD1    C4 2877   0.983   2.715   0.041 -0.1700  0.5823  0.8900
  189MPD1    C5 2878   1.103   2.653   0.000  0.0771  0.0724 -0.0078
  189MPD1     H 2879   0.970   2.584   0.357 -0.1171 -0.6739  0.1570
  189MPD1    H1 2880   0.928   2.774  17.668 -0.7540 -0.6026  0.3677
  189MPD1    H2 2881   1.247   2.516   0.053  0.7188  1.7408 -0.3942
  189MPD1    H3 2882   1.149   2.679  17.605  0.3129  0.6633  0.2694
  189MPD1     N 2883   0.808   2.748   0.211  0.0399  0.0553 -0.0469
  189MPD1    H5 2884   0.769   2.710   0.297 -0.8936 -0.3224 -0.6402
  189MPD1    N1 2885   1.160   2.427   0.279 -0.3980  0.2968  0.1503
  189MPD1    H6 2886   1.167   2.431   0.380  0.7986 -0.1383  0.0937
  189MPD1    H7 2887   1.250   2.386   0.253 -1.1566  0.2927 -2.5087
  190MPD1     C 2888   4.202   2.523  15.116  0.0056  0.0732 -0.4328
  190MPD1    C1 2889   4.326   2.546  15.160  0.3338  0.2765 -0.5408
  190MPD1    C2 2890   4.386   2.442  15.225 -0.0765  0.0915  1.0949
  190MPD1    C3 2891   4.330   2.318  15.237 -0.7367 -0.6686  0.1199
  190MPD1    C4 2892   4.210   2.295  15.168  0.1205  0.9760  0.2545
  190MPD1    C5 2893   4.148   2.395  15.108  0.5563  0.0874 -0.7169
  190MPD1     H 2894   4.482   2.467  15.267  0.6268 -0.7950  0.0065
  190MPD1    H1 2895   4.167   2.195  15.171  0.0176  0.9768 -1.4482
  190MPD1    H2 2896   4.146   2.602  15.068  1.3285  1.9380  1.0863
  190MPD1    H3 2897   4.051   2.386  15.061 -0.0905  0.2121  0.6105
  190MPD1     N 2898   4.413   2.221  15.300 -0.3139  0.9826 -0.3574
  190MPD1    H5 2899   4.510   2.238  15.321 -0.1345 -1.0462  0.5017
  190MPD1    N1 2900   4.374   2.678  15.159 -0.5271  0.6438 -0.0047
  190MPD1    H6 2901   4.346   2.736  15.081  1.2363  2.5296  0.7683
  190MPD1    H7 2902   4.476   2.676  15.168 -0.3004  0.0563 -2.7934
  191MPD1     C 2903   3.675   2.212  11.791  0.1797  0.2965  0.4182
  191MPD1    C1 2904   3.632   2.280  11.893  0.0991 -0.3094  0.9841
  191MPD1    C2 2905   3.644   2.418  11.893  0.5083  0.4904  0.2465
  191MPD1    C3 2906   3.671   2.482  11.776  0.3877 -0.7697 -0.3193
  191MPD1    C4 2907   3.728   2.413  11.670 -0.5668  0.5094  0.1819
  191MPD1    C5 2908   3.733   2.275  11.678  0.5480 -0.1413 -0.0792
  191MPD1     H 2909   3.626   2.477  11.982  0.2350 -0.3754  0.7616
  191MPD1    H1 2910   3.753   2.468  11.580 -0.2395  0.1307  0.0422
  191MPD1    H2 2911   3.666   2.104  11.792  0.8683  0.2371  0.2262
  191MPD1    H3 2912   3.764   2.222  11.589  0.5723 -0.3503  0.0526
  191MPD1     N 2913   3.681   2.626  11.787  0.7653  0.3971  0.0941
  191MPD1    H5 2914   3.646   2.660  11.877 -2.6885 -0.0773 -1.0796
  191MPD1    N1 2915   3.615   2.214  12.015 -0.7059 -0.3112  1.2744
  191MPD1    H6 2916   3.564   2.265  12.086 -0.5554  1.4997  0.0886
  191MPD1    H7 2917   3.594   2.115  12.005  0.7169 -0.4295 -0.8141
  192MPD1     C 2918   3.507   2.753  12.517 -0.5069  0.4439 -0.3783
  192MPD1    C1 2919   3.624   2.821  12.512  0.6302 -0.1279  0.3575
  192MPD1    C2 2920   3.664   2.880  12.393 -0.0740 -0.2479  0.1919
  192MPD1    C3 2921   3.578   2.881  12.287  0.2361 -0.4203 -0.1676
  192MPD1    C4 2922   3.455   2.815  12.290  0.5747 -0.3772 -1.6049
  192MPD1    C5 2923   3.420   2.757  12.414 -0.3987  0.1725 -0.2497
  192MPD1     H 2924   3.768   2.909  12.390 -0.5909  1.5689  0.1381
  192MPD1    H1 2925   3.386   2.809  12.206 -1.7389  0.7813  0.2104
  192MPD1    H2 2926   3.476   2.703  12.609 -0.9250 -0.0038 -0.7643
  192MPD1    H3 2927   3.321   2.714  12.417  0.2475 -1.2625  0.4791
  192MPD1     N 2928   3.612   2.928  12.155  0.4365  0.1000 -0.1605
  192MPD1    H5 2929   3.555   2.896  12.078 -0.7702  0.1146  0.7216
  192MPD1    N1 2930   3.713   2.811  12.621  0.2189 -0.5792  0.2691
  192MPD1    H6 2931   3.766   2.897  12.637  0.1468 -0.2897 -1.0798
  192MPD1    H7 2932   3.674   2.775  12.708  1.6128  3.8489  2.7296
  193MPD1     C 2933   3.030   3.637  15.713  0.3847  0.2468 -0.1157
  193MPD1    C1 2934   3.168   3.610  15.718  0.6010  0.0950 -0.0102
  193MPD1    C2 2935   3.229   3.660  15.829  0.3696 -0.2476  0.0657
  193MPD1    C3 2936   3.167   3.723  15.932  0.3571  0.6065  0.5823
  193MPD1    C4 2937   3.033   3.745  15.921  0.6146 -0.6892 -0.0212
  193MPD1    C5 2938   2.966   3.706  15.811  0.5822  0.3687  0.0898
  193MPD1     H 2939   3.334   3.635  15.833  0.4380  0.2725  1.7003
  193MPD1    H1 2940   2.977   3.788  16.003 -1.5008 -0.2125 -1.7348
  193MPD1    H2 2941   2.976   3.606  15.624 -2.5756 -0.0435  1.7994
  193MPD1    H3 2942   2.859   3.722  15.809  0.2549 -2.1052 -2.2528
  193MPD1     N 2943   3.225   3.757  16.053 -0.0859 -0.3357  0.5503
  193MPD1    H5 2944   3.167   3.792  16.128 -1.0254  0.1128 -0.4039
  193MPD1    N1 2945   3.242   3.563  15.607  0.0515  0.2019 -0.3525
  193MPD1    H6 2946   3.194   3.494  15.550  1.6440 -1.5155  0.4234
  193MPD1    H7 2947   3.331   3.519  15.628 -0.3102  0.0960  0.9045
  194MPD1     C 2948   1.020   1.402  17.193 -0.3652 -0.3421  0.4751
  194MPD1    C1 2949   0.977   1.369  17.061 -0.3032 -0.4599 -0.3368
  194MPD1    C2 2950   1.039   1.266  16.998 -0.1579  0.9181  0.2261
  194MPD1    C3 2951   1.153   1.210  17.047 -0.4353 -0.6190  0.5519
  194MPD1    C4 2952   1.200   1.258  17.169  0.1905 -0.0923  0.1265
  194MPD1    C5 2953   1.129   1.341  17.246 -0.0202 -0.3511  0.0883
  194MPD1     H 2954   0.995   1.241  16.902  1.4929 -0.8075 -0.0651
  194MPD1    H1 2955   1.275   1.199  17.219  1.3903  1.0468 -0.3168
  194MPD1    H2 2956   0.974   1.484  17.248  0.9152  0.3911  0.4488
  194MPD1    H3 2957   1.162   1.364  17.347 -2.4134  3.9724 -0.1528
  194MPD1     N 2958   1.236   1.113  16.988  0.0904 -0.2647 -0.0437
  194MPD1    H5 2959   1.329   1.100  17.027 -1.3439 -1.9195  2.8268
  194MPD1    N1 2960   0.857   1.423  17.008 -0.1572  0.9203  0.2189
  194MPD1    H6 2961   0.857   1.521  17.035 -1.4366  0.5656  1.4431
  194MPD1    H7 2962   0.851   1.430  16.906  1.0491 -2.5922 -0.1016
  195MPD1     C 2963   3.597   1.627  17.226  0.9839  0.5601 -0.7408
  195MPD1    C1 2964   3.677   1.686  17.316  0.1095 -0.0663  0.1869
  195MPD1    C2 2965   3.706   1.622  17.433 -0.1112  0.1218 -0.4777
  195MPD1    C3 2966   3.644   1.501  17.466  0.6035  0.6689  0.5184
  195MPD1    C4 2967   3.575   1.438  17.363 -0.3498 -0.0563  0.2038
  195MPD1    C5 2968   3.544   1.500  17.250  0.0658  0.3577  0.7361
  195MPD1     H 2969   3.759   1.679  17.508 -0.0536  1.2910 -1.4059
  195MPD1    H1 2970   3.547   1.334  17.376  1.0408 -0.3823  0.6207
  195MPD1    H2 2971   3.582   1.666  17.126 -2.1531 -2.4104 -1.4063
  195MPD1    H3 2972   3.482   1.459  17.171 -0.6230  0.2308  1.3526
  195MPD1     N 2973   3.646   1.431  17.594  0.8117  0.2342  0.2930
  195MPD1    H5 2974   3.600   1.344  17.616  1.4296 -0.9412 -3.0309
  195MPD1    N1 2975   3.695   1.824  17.296 -0.1130 -0.2751 -0.4319
  195MPD1    H6 2976   3.758   1.875  17.357 -1.7685 -0.4663  1.4186
  195MPD1    H7 2977   3.722   1.856  17.203  0.4890  2.7664  0.7942
  196MPD1     C 2978   2.790   2.357  17.461 -0.6060 -0.2600  0.0344
  196MPD1    C1 2979   2.802   2.242  17.535 -0.3767  0.4649 -0.4865
  196MPD1    C2 2980   2.742   2.242  17.664  0.6436 -0.3889  0.4542
  196MPD1    C3 2981   2.693   2.363   0.018  0.4026 -0.1944 -0.1130
  196MPD1    C4 2982   2.693   2.474  17.645  0.1630 -0.7129  0.9352
  196MPD1    C5 2983   2.745   2.474  17.522  0.3103  0.7603 -0.3725
  196MPD1     H 2984   2.745   2.151   0.024 -0.5346 -0.4503  0.4111
  196MPD1    H1 2985   2.654   2.568  17.682  0.7849 -0.2081  0.3108
  196MPD1    H2 2986   2.816   2.355  17.356 -0.4878  0.3486  0.0494
  196MPD1    H3 2987   2.745   2.574  17.480 -0.0223  1.6701  1.8067
  196MPD1     N 2988   2.645   2.374   0.148  0.0223 -0.1485  0.6018
  196MPD1    H5 2989   2.635   2.467   0.188  1.0358 -0.0535  0.6388
  196MPD1    N1 2990   2.837   2.123  17.472  0.1764 -0.6752  0.7324
  196MPD1    H6 2991   2.883   2.054  17.532  0.2956  0.7139  2.2389
  196MPD1    H7 2992   2.897   2.133  17.390  0.3566  2.0071  1.1953
  197MPD1     C 2993   2.034   3.705  17.414  0.1515  0.8605  0.1460
  197MPD1    C1 2994   2.152   3.729  17.483  0.1061  0.6744  0.2914
  197MPD1    C2 2995   2.231   3.829  17.437  0.5500 -0.0795  0.6581
  197MPD1    C3 2996   2.198   3.912  17.329 -0.1606 -0.2807 -0.1062
  197MPD1    C4 2997   2.078   3.884  17.262 -0.2812 -0.0256  0.1966
  197MPD1    C5 2998   1.997   3.786  17.312  0.3157 -0.5190 -0.3587
  197MPD1     H 2999   2.328   3.839  17.486  1.4060 -1.1361 -0.8116
  197MPD1    H1 3000   2.043   3.957  17.190 -1.6325 -0.2061  0.6879
  197MPD1    H2 3001   1.970   3.627  17.453 -0.4624  0.4284 -1.7329
  197MPD1    H3 3002   1.903   3.764  17.263  0.5684  0.5755 -1.3126
  197MPD1     N 3003   2.279   4.006  17.272  0.5508  0.0271  0.2141
  197MPD1    H5 3004   2.242   4.051  17.189 -2.4619 -3.2267 -0.2158
  197MPD1    N1 3005   2.170   3.661  17.606  0.3209 -0.2415  0.4215
  197MPD1    H6 3006   2.264   3.639  17.639  0.2617 -3.0131 -1.2082
  197MPD1    H7 3007   2.120   3.573  17.616 -1.7164  0.8747  0.0511
  198MPD1     C 3008   3.249   2.505  15.766 -0.9132  0.5757  1.2410
  198MPD1    C1 3009   3.377   2.460  15.803 -0.6072 -0.5052 -0.2139
  198MPD1    C2 3010   3.483   2.544  15.823 -0.5976 -0.8335 -0.7982
  198MPD1    C3 3011   3.466   2.677  15.811 -0.1325 -0.1301 -0.0445
  198MPD1    C4 3012   3.344   2.721  15.769 -0.3124  0.3915  0.3071
  198MPD1    C5 3013   3.234   2.638  15.744 -0.7000 -0.4913  0.7681
  198MPD1     H 3014   3.582   2.511  15.854 -1.0606  0.8564  2.5092
  198MPD1    H1 3015   3.323   2.827  15.761  1.5893  0.8404  1.3356
  198MPD1    H2 3016   3.175   2.426  15.753 -0.2078  0.0482  0.3349
  198MPD1    H3 3017   3.143   2.688  15.711 -0.0607 -0.2284 -0.6031
  198MPD1     N 3018   3.569   2.771  15.827  0.1894 -0.0679 -0.0965
  198MPD1    H5 3019   3.652   2.735  15.874  1.4676 -1.5588 -3.5119
  198MPD1    N1 3020   3.396   2.319  15.803 -0.4220 -0.4882  0.4169
  198MPD1    H6 3021   3.303   2.280  15.811 -0.0133 -1.7747 -1.0740
  198MPD1    H7 3022   3.440   2.292  15.891  0.8562 -0.6622 -0.2660
  199MPD1     C 3023   1.457   4.272   8.314  0.3034  0.1834 -0.3363
  199MPD1    C1 3024   1.390   4.232   8.430 -0.1285 -0.8203 -0.1863
  199MPD1    C2 3025   1.313   4.331   8.498 -0.1037 -0.3134  0.5074
  199MPD1    C3 3026   1.292   4.453   8.441 -0.6600  0.2235 -0.4700
  199MPD1    C4 3027   1.359   4.482   8.324  0.0710  0.5392 -0.5597
  199MPD1    C5 3028   1.449   4.393   8.266 -0.1060  0.7188 -0.3316
  199MPD1     H 3029   1.285   4.305   8.600  0.8433 -1.1640  0.5538
  199MPD1    H1 3030   1.366   4.583   8.286  0.4777 -0.1198 -2.2328
  199MPD1    H2 3031   1.535   4.204   8.283 -1.2087  0.5786 -5.0017
  199MPD1    H3 3032   1.510   4.433   8.186  1.6982  0.6200  1.0143
  199MPD1     N 3033   1.229   4.558   8.506 -0.4658 -0.9578 -0.1401
  199MPD1    H5 3034   1.216   4.655   8.478 -0.6472 -0.6984  0.8502
  199MPD1    N1 3035   1.408   4.106   8.481 -0.2917  0.8288 -0.5365
  199MPD1    H6 3036   1.332   4.066   8.535  1.0311 -1.2191 -0.1563
  199MPD1    H7 3037   1.456   4.044   8.415  0.7916 -0.8634  1.8151
  200MPD1     C 3038   4.556   3.867  14.268  0.0627  0.8834  0.3448
  200MPD1    C1 3039   4.667   3.876  14.344 -0.3567 -0.8646  0.1805
  200MPD1    C2 3040   0.032   3.979  14.304 -0.3147 -0.4159  0.2052
  200MPD1    C3 3041   0.003   4.070  14.212 -0.2875 -0.1248 -0.0890
  200MPD1    C4 3042   4.610   4.058  14.140  0.2686 -0.1052 -0.1435
  200MPD1    C5 3043   4.526   3.958  14.173 -0.7579 -0.3588  0.4465
  200MPD1     H 3044   0.130   3.991  14.349 -0.3062  0.7412 -0.1253
  200MPD1    H1 3045   4.589   4.128  14.060 -2.7402  0.2367  0.9493
  200MPD1    H2 3046   4.484   3.787  14.280 -0.2580  1.2850  1.1173
  200MPD1    H3 3047   4.438   3.952  14.110 -0.4495 -0.2888  0.0099
  200MPD1     N 3048   0.102   4.170  14.196  0.0548 -0.2091  0.3960
  200MPD1    H5 3049   0.179   4.164  14.262  0.6751  0.0986 -0.2852
  200MPD1    N1 3050   4.708   3.770  14.423  0.3164 -0.6404  0.4965
  200MPD1    H6 3051   4.640   3.737  14.491 -1.2233  1.9087  0.1994
  200MPD1    H7 3052   0.068   3.786  14.477  0.7689  0.0850 -0.4276
  201MPD1     C 3053   2.451   3.063  13.157 -0.4720  0.0184  0.2662
  201MPD1    C1 3054   2.401   3.012  13.275  0.1321  0.4796  0.2361
  201MPD1    C2 3055   2.474   2.926  13.349 -0.1367 -0.2013  0.5418
  201MPD1    C3 3056   2.592   2.869  13.297  0.3145  0.0074 -0.2117
  201MPD1    C4 3057   2.622   2.900  13.170 -0.0603  0.0846  0.5680
  201MPD1    C5 3058   2.557   3.000  13.105  0.1584  0.3962  0.0719
  201MPD1     H 3059   2.437   2.905  13.449 -0.8297 -1.6489 -0.0257
  201MPD1    H1 3060   2.705   2.853  13.118  1.0810  1.1410  1.4434
  201MPD1    H2 3061   2.401   3.138  13.097 -0.6139  0.7914  1.3529
  201MPD1    H3 3062   2.601   3.035  13.013 -0.0130 -0.7964 -0.4685
  201MPD1     N 3063   2.660   2.773  13.379  0.2276 -0.7259  0.0609
  201MPD1    H5 3064   2.611   2.746  13.464 -0.3754 -2.9671 -0.9926
  201MPD1    N1 3065   2.281   3.066  13.329  0.1097  0.2198  0.1819
  201MPD1    H6 3066   2.233   3.000  13.391 -0.6873  0.5914 -0.0390
  201MPD1    H7 3067   2.225   3.111  13.257 -1.4991 -1.3667  0.4399
  202MPD1     C 3068   3.763   3.015   9.954 -0.1163  0.6218  0.0264
  202MPD1    C1 3069   3.648   3.078   9.927  0.3719  0.4982 -0.1375
  202MPD1    C2 3070   3.533   3.019   9.983  0.2640 -0.2664  0.3904
  202MPD1    C3 3071   3.539   2.915  10.070 -0.7727  0.0702  0.5513
  202MPD1    C4 3072   3.664   2.857  10.099 -0.1477 -0.4620 -0.3031
  202MPD1    C5 3073   3.774   2.904  10.034  0.0909  0.0882  0.0001
  202MPD1     H 3074   3.443   3.075   9.965 -0.2512 -1.1012  0.3768
  202MPD1    H1 3075   3.675   2.780  10.174  0.5589 -0.8988 -0.8521
  202MPD1    H2 3076   3.855   3.033   9.900 -0.7742  2.6119 -0.4594
  202MPD1    H3 3077   3.869   2.851  10.042  0.3173  0.3515 -0.9693
  202MPD1     N 3078   3.435   2.852  10.134  0.2316  0.7816  0.3438
  202MPD1    H5 3079   3.454   2.769  10.189  0.2249  1.5261  1.4740
  202MPD1    N1 3080   3.642   3.157   9.809 -0.3434  0.5015  0.1762
  202MPD1    H6 3081   3.557   3.210   9.791 -0.4689  0.0623 -0.5305
  202MPD1    H7 3082   3.725   3.215   9.793 -0.1023 -0.2409 -1.2609
  203MPD1     C 3083   0.780   3.678  12.588  0.0798 -0.7484 -0.2373
  203MPD1    C1 3084   0.780   3.595  12.698 -0.5470 -0.0559 -0.6947
  203MPD1    C2 3085   0.897   3.522  12.725  0.8792 -0.1898 -0.6866
  203MPD1    C3 3086   1.004   3.507  12.633  0.0880 -0.3963 -0.0566
  203MPD1    C4 3087   1.001   3.588  12.523  0.6256  0.9058 -0.5789
  203MPD1    C5 3088   0.897   3.673  12.509 -0.2073  0.2962  0.4805
  203MPD1     H 3089   0.898   3.474  12.823 -0.2391 -0.9133 -1.0278
  203MPD1    H1 3090   1.091   3.598  12.463  0.4911 -1.3889 -1.1716
  203MPD1    H2 3091   0.704   3.754  12.576  1.0374  0.5038  1.5018
  203MPD1    H3 3092   0.903   3.747  12.430  0.2382 -2.2250 -1.8816
  203MPD1     N 3093   1.111   3.428  12.658  0.2300  0.3192 -0.5286
  203MPD1    H5 3094   1.105   3.382  12.749  0.8629 -1.2095 -1.2606
  203MPD1    N1 3095   0.692   3.625  12.800  0.1351  0.2380  0.3389
  203MPD1    H6 3096   0.599   3.655  12.773 -0.0929 -0.0746  0.7660
  203MPD1    H7 3097   0.690   3.550  12.870 -2.0721  0.8315  0.9097
  204MPD1     C 3098   0.227   4.047  17.292  0.4755 -0.2941 -0.4035
  204MPD1    C1 3099   0.351   4.096  17.261 -0.1260 -0.8194  0.2640
  204MPD1    C2 3100   0.425   4.026  17.162 -0.4464 -0.2661  1.0212
  204MPD1    C3 3101   0.372   3.915  17.097  0.9134  0.3114  0.1583
  204MPD1    C4 3102   0.236   3.885  17.116 -0.0490  0.1291 -0.4465
  204MPD1    C5 3103   0.171   3.945  17.221  0.0766 -0.1495  0.3841
  204MPD1     H 3104   0.527   4.055  17.143 -0.3584 -0.6056  0.9722
  204MPD1    H1 3105   0.182   3.807  17.063  0.3394 -0.8059  0.5516
  204MPD1    H2 3106   0.163   4.097  17.363 -1.7954 -2.0861 -1.1888
  204MPD1    H3 3107   0.073   3.917  17.258 -0.5385 -0.1726 -1.2457
  204MPD1     N 3108   0.448   3.861  16.992 -0.2718  0.2983  0.7525
  204MPD1    H5 3109   0.541   3.898  16.975 -0.8276  0.6434 -1.6199
  204MPD1    N1 3110   0.415   4.193  17.337  0.0184  0.2231  0.0999
  204MPD1    H6 3111   0.483   4.239  17.278  0.4923 -1.3480 -0.5865
  204MPD1    H7 3112   0.364   4.256  17.398 -2.8316 -2.6594  0.7314
  205MPD1     C 3113   1.842   2.684  16.431  0.0261  0.3395  0.0650
  205MPD1    C1 3114   1.776   2.805  16.447  0.2112  0.2038  0.2259
  205MPD1    C2 3115   1.638   2.800  16.465  0.0780  0.1012 -0.2257
  205MPD1    C3 3116   1.567   2.684  16.442  0.1911  0.1324 -0.3616
  205MPD1    C4 3117   1.634   2.567  16.417  0.0927 -0.6532 -0.5207
  205MPD1    C5 3118   1.766   2.571  16.401  0.2327  0.3024  0.4361
  205MPD1     H 3119   1.584   2.892  16.483 -1.5221 -1.0335  0.7408
  205MPD1    H1 3120   1.579   2.479  16.385 -0.8043 -0.6331  0.9517
  205MPD1    H2 3121   1.950   2.676  16.424  0.0257 -0.3186  0.8171
  205MPD1    H3 3122   1.816   2.476  16.385 -0.5686 -0.3397  1.6682
  205MPD1     N 3123   1.432   2.681  16.450 -0.1935  0.4809 -0.2671
  205MPD1    H5 3124   1.400   2.585  16.451  0.9364  0.1221  1.2613
  205MPD1    N1 3125   1.850   2.924  16.487  0.4187  0.4356 -0.6349
  205MPD1    H6 3126   1.944   2.929  16.447  1.6119 -1.5042  1.9384
  205MPD1    H7 3127   1.801   3.009  16.461 -1.7670 -0.6891 -0.2784
  206MPD1     C 3128   1.433   1.362  16.644 -0.2099 -0.2770 -0.4982
  206MPD1    C1 3129   1.336   1.390  16.735  0.0576  0.1920 -0.2535
  206MPD1    C2 3130   1.206   1.376  16.690 -0.3748 -0.1749  0.3990
  206MPD1    C3 3131   1.179   1.347  16.561 -0.2452 -0.9977  0.4556
  206MPD1    C4 3132   1.281   1.326  16.472  0.5841  0.2958 -0.1215
  206MPD1    C5 3133   1.410   1.332  16.517 -0.0590  0.0435 -0.3064
  206MPD1     H 3134   1.125   1.379  16.762 -2.1523 -1.0205 -1.5677
  206MPD1    H1 3135   1.263   1.300  16.368  1.2106 -1.8540  0.3191
  206MPD1    H2 3136   1.537   1.372  16.672 -0.9811 -1.2763  2.7937
  206MPD1    H3 3137   1.494   1.305  16.455 -0.5186 -2.0336 -0.0088
  206MPD1     N 3138   1.039   1.333  16.517  0.5373 -0.0836  0.3560
  206MPD1    H5 3139   1.026   1.291  16.426 -1.0913  0.1258  0.4958
  206MPD1    N1 3140   1.362   1.436  16.860  0.0742  0.3572  0.2799
  206MPD1    H6 3141   1.440   1.381  16.897 -0.0492 -0.7688 -1.1341
  206MPD1    H7 3142   1.286   1.423  16.926 -0.8536  1.4801 -0.5816
  207MPD1     C 3143   3.696   4.178  10.028 -0.8009  0.0321  0.4226
  207MPD1    C1 3144   3.762   4.235   9.928 -0.4982  0.3134  0.5147
  207MPD1    C2 3145   3.884   4.184   9.886  0.0315 -0.4222 -0.1632
  207MPD1    C3 3146   3.951   4.091   9.969  0.7209  0.0715 -0.5013
  207MPD1    C4 3147   3.882   4.037  10.078 -0.4645  0.1601 -0.1824
  207MPD1    C5 3148   3.755   4.076  10.105  0.0680  0.2318  0.4619
  207MPD1     H 3149   3.933   4.226   9.800  0.2949 -2.3972 -0.9663
  207MPD1    H1 3150   3.930   3.970  10.148 -0.4404 -1.5833 -1.8766
  207MPD1    H2 3151   3.595   4.210  10.053 -1.0315  0.0189 -0.4935
  207MPD1    H3 3152   3.697   4.046  10.192 -0.0393 -0.1333  0.2625
  207MPD1     N 3153   4.076   4.028   9.929 -0.3612 -0.0124  0.4844
  207MPD1    H5 3154   4.110   3.952   9.987  0.2658 -1.4734 -1.7901
  207MPD1    N1 3155   3.702   4.326   9.847  0.2132  0.6483  0.6569
  207MPD1    H6 3156   3.637   4.384   9.900 -1.3112 -0.7074  0.2647
  207MPD1    H7 3157   3.780   4.382   9.812  0.0754  1.7284  2.1103
  208MPD1     C 3158   2.293   3.000  17.195  0.4812 -0.2125  0.5361
  208MPD1    C1 3159   2.275   2.976  17.332 -0.0607  0.0451  0.1468
  208MPD1    C2 3160   2.198   2.868  17.379 -0.0756  0.6552  0.5195
  208MPD1    C3 3161   2.122   2.790  17.287  0.7347 -0.0055  0.0900
  208MPD1    C4 3162   2.149   2.812  17.158  0.6597  0.1369 -0.1491
  208MPD1    C5 3163   2.226   2.916  17.112 -0.4355  0.8152  0.5803
  208MPD1     H 3164   2.196   2.850  17.486  1.0114  1.0483  0.6070
  208MPD1    H1 3165   2.087   2.769  17.079  1.0039 -3.4460  1.5530
  208MPD1    H2 3166   2.348   3.089  17.165 -1.9357  1.3041  0.5945
  208MPD1    H3 3167   2.239   2.935  17.006  0.2369 -3.5038 -0.1202
  208MPD1     N 3168   2.031   2.702  17.338 -0.2032 -0.6335 -0.3434
  208MPD1    H5 3169   2.001   2.712  17.435  0.1576  1.0940 -0.4134
  208MPD1    N1 3170   2.343   3.053  17.432  0.3129 -0.6026  0.3268
  208MPD1    H6 3171   2.280   3.053  17.512  1.3040  0.2289  1.0956
  208MPD1    H7 3172   2.345   3.148  17.395 -1.3383 -0.2036  1.2747
  209MPD1     C 3173   4.479   2.434  10.473 -0.6944 -0.8724 -0.1105
  209MPD1    C1 3174   4.494   2.566  10.505 -0.3129  0.2987  0.2437
  209MPD1    C2 3175   4.516   2.655  10.405 -0.7907 -0.2284 -0.0891
  209MPD1    C3 3176   4.566   2.618  10.285 -0.1636 -0.0160 -0.0383
  209MPD1    C4 3177   4.576   2.484  10.258 -0.3870 -0.2261  0.3314
  209MPD1    C5 3178   4.536   2.394  10.351 -0.4023  0.0551 -0.2383
  209MPD1     H 3179   4.493   2.759  10.425 -0.8560 -0.5034  1.2567
  209MPD1    H1 3180   4.620   2.439  10.169  3.5836  3.6150  0.3823
  209MPD1    H2 3181   4.441   2.360  10.543  1.6810 -0.3112  1.7592
  209MPD1    H3 3182   4.552   2.290  10.324  1.3646 -0.1523  1.6012
  209MPD1     N 3183   4.604   2.715  10.190  0.1209  0.2644  0.3014
  209MPD1    H5 3184   4.591   2.812  10.218 -0.6973  0.7389 -1.7306
  209MPD1    N1 3185   4.447   2.618  10.622 -0.3934 -0.1354  0.3649
  209MPD1    H6 3186   4.475   2.711  10.654 -0.0629 -0.0111 -0.2762
  209MPD1    H7 3187   4.476   2.554  10.696  1.3379  0.5541  0.2815
  210MPD1     C 3188   0.588   3.354   9.823 -0.4685  0.2203 -0.4357
  210MPD1    C1 3189   0.594   3.233   9.768 -0.5262  0.8556 -0.1204
  210MPD1    C2 3190   0.484   3.151   9.779 -0.1861  0.5678 -0.5630
  210MPD1    C3 3191   0.384   3.184   9.866  0.2269  0.4787  0.1468
  210MPD1    C4 3192   0.386   3.301   9.935  0.2372 -0.1657  0.2411
  210MPD1    C5 3193   0.490   3.390   9.911 -0.6205  0.0639 -0.2141
  210MPD1     H 3194   0.490   3.050   9.740  2.2636  0.3850  0.2871
  210MPD1    H1 3195   0.306   3.331  10.001 -2.2617  0.0199 -2.8510
  210MPD1    H2 3196   0.656   3.431   9.788 -0.3051  1.1115  1.8806
  210MPD1    H3 3197   0.486   3.486   9.962  0.9101  1.2639 -2.3522
  210MPD1     N 3198   0.277   3.098   9.885 -1.1120 -0.9331 -0.4065
  210MPD1    H5 3199   0.205   3.142   9.942 -1.6849 -1.2944 -0.8473
  210MPD1    N1 3200   0.694   3.200   9.681  0.4694  0.2060 -0.3595
  210MPD1    H6 3201   0.779   3.253   9.698  0.0112  1.7120 -2.7913
  210MPD1    H7 3202   0.720   3.102   9.673  2.5754  0.9185 -2.1951
  211MPD1     C 3203   1.631   2.563  15.990 -0.6701  0.3463 -0.1367
  211MPD1    C1 3204   1.509   2.520  15.956 -0.3627  0.1275 -0.9241
  211MPD1    C2 3205   1.398   2.597  15.978  0.1260  0.3989  0.1468
  211MPD1    C3 3206   1.407   2.729  16.029  0.1116 -0.2697  0.6970
  211MPD1    C4 3207   1.532   2.764  16.081 -0.6384 -0.1666  0.6630
  211MPD1    C5 3208   1.644   2.684  16.053  0.5654  0.1198 -0.0666
  211MPD1     H 3209   1.297   2.558  15.967  0.7135 -0.6369 -1.6293
  211MPD1    H1 3210   1.552   2.852  16.142 -0.3302  0.4540 -0.3251
  211MPD1    H2 3211   1.720   2.501  15.984 -0.2622  0.9195 -0.0617
  211MPD1    H3 3212   1.734   2.711  16.105 -1.2240  1.5015  2.3131
  211MPD1     N 3213   1.290   2.812  16.055 -0.0051  0.2638  0.6226
  211MPD1    H5 3214   1.196   2.787  16.027  0.1630 -0.0338  0.3261
  211MPD1    N1 3215   1.500   2.382  15.926 -0.1811  0.1865  0.7930
  211MPD1    H6 3216   1.582   2.340  15.885 -1.1123 -0.9340  0.0754
  211MPD1    H7 3217   1.420   2.345  15.874  0.9813  0.8503 -1.4221
  212MPD1     C 3218   0.206   1.411  16.541  0.2115  0.2709 -0.7703
  212MPD1    C1 3219   0.206   1.398  16.680  0.7920  0.4214 -0.7597
  212MPD1    C2 3220   0.228   1.263  16.730  0.5936 -0.1273 -0.5493
  212MPD1    C3 3221   0.266   1.154  16.651  0.3691  0.0404  0.4987
  212MPD1    C4 3222   0.275   1.171  16.511 -0.3939 -0.6551  0.0561
  212MPD1    C5 3223   0.239   1.301  16.461 -0.1897  0.0856 -0.2780
  212MPD1     H 3224   0.214   1.251  16.837  0.9304  0.8160 -0.4032
  212MPD1    H1 3225   0.311   1.097  16.440 -3.1767  1.2783 -3.3776
  212MPD1    H2 3226   0.204   1.506  16.488  0.4287  1.5072  1.4685
  212MPD1    H3 3227   0.259   1.327  16.358  2.0155 -1.5488 -0.2527
  212MPD1     N 3228   0.300   1.024  16.697  0.5386  0.0650  0.7814
  212MPD1    H5 3229   0.309   0.950  16.628 -2.9672 -0.7360  1.1504
  212MPD1    N1 3230   0.152   1.493  16.760  0.0831 -0.2329  0.2735
  212MPD1    H6 3231   0.157   1.591  16.732 -1.1194 -0.1672  0.3127
  212MPD1    H7 3232   0.192   1.475  16.852 -0.8413  0.0482  0.7209
  213MPD1     C 3233   3.901   2.350  15.573  0.3371 -0.7090  0.6831
  213MPD1    C1 3234   3.960   2.350  15.448  0.0702  0.0353  0.3069
  213MPD1    C2 3235   3.863   2.334  15.348  0.2860  0.5282  0.5482
  213MPD1    C3 3236   3.745   2.266  15.378  0.6935  0.2826  0.1087
  213MPD1    C4 3237   3.705   2.249  15.506 -0.4802  0.0673 -0.0394
  213MPD1    C5 3238   3.781   2.299  15.612 -0.7169  0.8458  0.1130
  213MPD1     H 3239   3.883   2.368  15.248  3.7397 -0.0041  1.0780
  213MPD1    H1 3240   3.611   2.202  15.536 -0.9932  1.7527  0.9726
  213MPD1    H2 3241   3.967   2.367  15.657  0.8225  1.0972 -0.0704
  213MPD1    H3 3242   3.748   2.300  15.715 -0.1968 -0.0057  0.2881
  213MPD1     N 3243   3.654   2.257  15.263  0.1263  0.2618  0.3663
  213MPD1    H5 3244   3.677   2.293  15.172 -0.3812 -0.9942 -0.2545
  213MPD1    N1 3245   4.059   2.445  15.420  0.2630  0.1685 -0.3225
  213MPD1    H6 3246   4.106   2.435  15.330  0.7359  3.2774 -0.4260
  213MPD1    H7 3247   4.140   2.450  15.483  1.0782  0.3679 -1.3881
  214MPD1     C 3248   2.822   1.695  15.092 -0.3655  0.3688 -0.5459
  214MPD1    C1 3249   2.895   1.717  14.975  0.5324 -0.3625  0.7092
  214MPD1    C2 3250   2.995   1.816  14.977  0.2481  0.0774 -0.1303
  214MPD1    C3 3251   3.012   1.893  15.094 -0.1593 -0.9375 -0.3261
  214MPD1    C4 3252   2.945   1.864  15.209 -0.8499  0.2843  0.3960
  214MPD1    C5 3253   2.854   1.764  15.204  0.2789 -0.2311  0.1539
  214MPD1     H 3254   3.058   1.836  14.890  2.1369 -2.7553  0.5519
  214MPD1    H1 3255   2.954   1.926  15.298 -3.5244  0.4687  0.5215
  214MPD1    H2 3256   2.732   1.635  15.100 -0.3613  0.5853  1.0265
  214MPD1    H3 3257   2.783   1.747  15.285  0.1040 -3.3264 -0.6227
  214MPD1     N 3258   3.099   2.007  15.105 -0.4555 -0.2220  0.3923
  214MPD1    H5 3259   3.121   2.047  15.196 -1.4164  0.4869  0.3223
  214MPD1    N1 3260   2.877   1.630  14.866  0.1553  0.1322 -0.0981
  214MPD1    H6 3261   2.880   1.671  14.773 -0.8235  1.5678  0.5045
  214MPD1    H7 3262   2.788   1.580  14.874 -0.4302  1.4864  1.9179
  215MPD1     C 3263   4.317   2.681   9.809  0.5008 -0.3047 -0.5229
  215MPD1    C1 3264   4.302   2.666   9.949  0.3638  0.1545  0.3833
  215MPD1    C2 3265   4.233   2.762  10.014  0.5373 -0.3251 -0.0383
  215MPD1    C3 3266   4.199   2.881   9.953  0.6432  0.2869 -0.4841
  215MPD1    C4 3267   4.220   2.891   9.820 -0.2519 -0.6076 -0.0301
  215MPD1    C5 3268   4.272   2.790   9.741  0.2545  0.1435  0.0970
  215MPD1     H 3269   4.204   2.738  10.115 -0.6567  0.5010 -0.1802
  215MPD1    H1 3270   4.180   2.976   9.766  0.5602  0.2883  0.7633
  215MPD1    H2 3271   4.356   2.602   9.747  0.6625 -0.6310 -0.0114
  215MPD1    H3 3272   4.274   2.790   9.632  1.3380 -0.4623  0.1168
  215MPD1     N 3273   4.134   2.991  10.011 -0.5829  0.8475  0.2289
  215MPD1    H5 3274   4.111   3.066   9.946 -0.3935  1.3473  0.7368
  215MPD1    N1 3275   4.342   2.541  10.007  0.2279  0.7297 -0.0147
  215MPD1    H6 3276   4.350   2.547  10.108 -0.1312 -1.7563  0.1811
  215MPD1    H7 3277   4.423   2.492   9.969  0.6758  0.6794  1.0059
  216MPD1     C 3278   0.923   0.968  17.217  0.3055  0.3797  0.1626
  216MPD1    C1 3279   0.864   0.865  17.164  0.5627  0.7989  0.1256
  216MPD1    C2 3280   0.910   0.741  17.201  0.4309  0.2230 -0.4105
  216MPD1    C3 3281   1.005   0.718  17.296  0.1900  0.3072 -0.4316
  216MPD1    C4 3282   1.055   0.830  17.360  0.2278  0.5392  0.1253
  216MPD1    C5 3283   1.007   0.957  17.323 -0.6219 -0.3089 -0.8188
  216MPD1     H 3284   0.853   0.656  17.167 -0.7430  0.3738  1.2041
  216MPD1    H1 3285   1.131   0.820  17.436 -0.5556  0.7505  0.9360
  216MPD1    H2 3286   0.895   1.070  17.192  2.7360  0.7410 -1.0813
  216MPD1    H3 3287   1.044   1.046  17.371  2.6862 -0.7763 -2.4541
  216MPD1     N 3288   1.055   0.585  17.321  0.0712  0.2785 -0.3879
  216MPD1    H5 3289   1.000   0.509  17.282 -0.7666  1.4276 -1.4670
  216MPD1    N1 3290   0.754   0.884  17.079 -0.4785 -0.7469  0.0939
  216MPD1    H6 3291   0.745   0.976  17.036 -0.3091 -0.8815 -0.2323
  216MPD1    H7 3292   0.759   0.814  17.005  1.9932  1.5889 -1.9660
  217MPD1     C 3293   2.769   2.891   9.357 -0.3447  0.0556  0.2215
  217MPD1    C1 3294   2.807   2.763   9.392  0.3013  0.0022  0.1566
  217MPD1    C2 3295   2.710   2.665   9.409 -0.0958  0.2586  0.4372
  217MPD1    C3 3296   2.578   2.710   9.413  0.4768 -0.0891  0.6638
  217MPD1    C4 3297   2.544   2.846   9.400  0.3847 -0.9828 -0.3319
  217MPD1    C5 3298   2.638   2.936   9.363  0.3283  0.2186  0.2921
  217MPD1     H 3299   2.741   2.562   9.419  2.1776  1.0082  1.1638
  217MPD1    H1 3300   2.442   2.883   9.386  0.5685 -0.7525 -1.0514
  217MPD1    H2 3301   2.844   2.961   9.321 -0.0841  0.6376  1.9202
  217MPD1    H3 3302   2.613   3.040   9.344  1.2600  0.5285  0.7209
  217MPD1     N 3303   2.470   2.622   9.421 -0.0368  0.4064  0.2652
  217MPD1    H5 3304   2.380   2.667   9.413  0.1785  1.0235  1.2612
  217MPD1    N1 3305   2.943   2.721   9.374 -0.4831  0.0115  1.0134
  217MPD1    H6 3306   2.968   2.648   9.441  1.0337 -0.9108 -0.5746
  217MPD1    H7 3307   3.012   2.795   9.363 -0.6971  0.3278  1.7889
  218MPD1     C 3308   2.465   2.603  12.248  0.4018  0.5885 -0.1025
  218MPD1    C1 3309   2.547   2.560  12.349 -0.2318  0.3560  0.0994
  218MPD1    C2 3310   2.682   2.517  12.322 -0.2476 -0.2185  0.0725
  218MPD1    C3 3311   2.724   2.511  12.195 -0.4551  0.0491  0.2113
  218MPD1    C4 3312   2.634   2.537  12.096  0.0325 -0.9232 -0.5988
  218MPD1    C5 3313   2.512   2.582  12.123 -0.2586  0.4243  0.0664
  218MPD1     H 3314   2.750   2.490  12.402  0.2841 -1.0229 -0.6600
  218MPD1    H1 3315   2.668   2.528  11.994 -0.2642 -4.0406 -0.4185
  218MPD1    H2 3316   2.366   2.646  12.263  1.2859  2.5452  0.2317
  218MPD1    H3 3317   2.453   2.616  12.039 -1.1497  0.0292  0.5243
  218MPD1     N 3318   2.859   2.491  12.159 -0.2563  0.4959  0.0650
  218MPD1    H5 3319   2.914   2.459  12.239 -1.8489 -0.4506  0.7793
  218MPD1    N1 3320   2.511   2.597  12.481 -0.0968 -0.5369 -0.1079
  218MPD1    H6 3321   2.412   2.598  12.501  0.0763 -2.1450  0.8692
  218MPD1    H7 3322   2.559   2.530  12.541 -0.3154 -2.1342 -1.7154
  219MPD1     C 3323   3.396   3.193  12.009  0.5583 -0.4599  0.7842
  219MPD1    C1 3324   3.446   3.112  11.910 -0.5664  0.1893 -0.3480
  219MPD1    C2 3325   3.408   2.980  11.918 -0.4540  0.1051  0.0807
  219MPD1    C3 3326   3.298   2.935  11.998 -0.3512  0.5003 -0.2236
  219MPD1    C4 3327   3.233   3.030  12.065 -0.2611 -0.3135 -0.7984
  219MPD1    C5 3328   3.289   3.152  12.085  0.9484  0.6282  0.1307
  219MPD1     H 3329   3.465   2.920  11.848 -0.8431 -1.2296  0.8843
  219MPD1    H1 3330   3.146   2.996  12.119 -0.4709 -0.3016 -1.1274
  219MPD1    H2 3331   3.432   3.295  12.013 -0.4206 -0.0385 -0.9830
  219MPD1    H3 3332   3.240   3.226  12.148 -0.2848 -0.4637  0.4669
  219MPD1     N 3333   3.255   2.798  12.003 -0.0664 -0.4443 -0.2910
  219MPD1    H5 3334   3.178   2.784  12.068  0.6878  2.8459  1.2998
  219MPD1    N1 3335   3.551   3.147  11.826  0.0514 -0.5070  0.1922
  219MPD1    H6 3336   3.560   3.247  11.808 -0.2167 -0.0609  2.6054
  219MPD1    H7 3337   3.551   3.092  11.740  2.8714 -3.1457  1.9029
  220MPD1     C 3338   2.538   4.343   9.799 -0.0278 -0.1709 -0.4174
  220MPD1    C1 3339   2.517   4.240   9.882 -0.2541  0.1477 -0.1546
  220MPD1    C2 3340   2.620   4.148   9.888  0.1621 -0.0400 -0.2085
  220MPD1    C3 3341   2.740   4.165   9.825  0.1548 -0.0146 -0.3322
  220MPD1    C4 3342   2.756   4.273   9.739 -0.3710 -0.1839 -0.3571
  220MPD1    C5 3343   2.650   4.359   9.724  0.8649 -0.3537 -0.6518
  220MPD1     H 3344   2.610   4.067   9.959  0.4256 -0.5254 -0.7216
  220MPD1    H1 3345   2.844   4.294   9.679  0.0119  2.4870  1.1073
  220MPD1    H2 3346   2.460   4.417   9.784  0.8382  1.0014  0.8019
  220MPD1    H3 3347   2.663   4.445   9.659  0.4648 -0.1480 -0.4566
  220MPD1     N 3348   2.843   4.072   9.850  0.8153  0.2118 -0.5106
  220MPD1    H5 3349   2.826   3.995   9.914 -0.3725 -0.6619 -1.8845
  220MPD1    N1 3350   2.391   4.208   9.944 -0.7816 -0.4376  0.3501
  220MPD1    H6 3351   2.411   4.142  10.019  2.9191 -0.8466 -0.9790
  220MPD1    H7 3352   2.333   4.288   9.970 -1.1739 -1.1745  1.7819
  221MPD1     C 3353   0.223   2.222  16.688 -0.4150 -0.5842 -0.5405
  221MPD1    C1 3354   0.304   2.209  16.798 -0.4592 -0.1331 -0.2341
  221MPD1    C2 3355   0.434   2.167  16.780  0.3687 -0.4585  0.0771
  221MPD1    C3 3356   0.486   2.170  16.652  0.8223 -0.1964  0.4874
  221MPD1    C4 3357   0.408   2.206  16.544  0.6289  0.7480  0.3586
  221MPD1    C5 3358   0.275   2.228  16.563  0.3589  0.7099 -0.1553
  221MPD1     H 3359   0.496   2.139  16.864  1.1657 -0.4603 -0.5112
  221MPD1    H1 3360   0.456   2.218  16.448  0.8771  0.4194  0.4410
  221MPD1    H2 3361   0.118   2.246  16.702  0.5336  3.2249  0.1335
  221MPD1    H3 3362   0.209   2.262  16.484  1.1046  2.1945 -0.1352
  221MPD1     N 3363   0.620   2.153  16.616  0.4286 -0.5024  0.3402
  221MPD1    H5 3364   0.647   2.160  16.518 -0.0375  2.2843  0.4079
  221MPD1    N1 3365   0.239   2.193  16.927  0.6787  0.6512 -0.0180
  221MPD1    H6 3366   0.150   2.240  16.941  0.1781 -0.2211 -0.3129
  221MPD1    H7 3367   0.309   2.214  16.999 -1.1360  2.9453  1.0787
  222MPD1     C 3368   1.643   1.061   1.036  0.2174 -0.1836  0.5434
  222MPD1    C1 3369   1.545   1.089   0.939  0.8622  1.0787 -0.1792
  222MPD1    C2 3370   1.493   1.221   0.937  0.0111 -0.2030 -0.1016
  222MPD1    C3 3371   1.513   1.312   1.039  0.1258 -0.0639  0.2576
  222MPD1    C4 3372   1.595   1.277   1.141  0.5613 -0.0897  0.3206
  222MPD1    C5 3373   1.655   1.156   1.137  0.3700  0.0786 -0.3470
  222MPD1     H 3374   1.423   1.242   0.857 -2.0094 -0.0303  1.7008
  222MPD1    H1 3375   1.613   1.336   1.231  0.0049 -0.8787  0.9458
  222MPD1    H2 3376   1.702   0.970   1.026  0.5560 -0.0978  1.7912
  222MPD1    H3 3377   1.715   1.125   1.223 -0.7256  0.9692  0.7397
  222MPD1     N 3378   1.464   1.448   1.041  0.1283  0.9482 -0.3079
  222MPD1    H5 3379   1.482   1.498   1.128 -1.0818  0.2256  0.3420
  222MPD1    N1 3380   1.524   0.995   0.833 -0.1828  0.8497 -0.4685
  222MPD1    H6 3381   1.427   1.005   0.803 -1.0024  0.2836  1.9898
  222MPD1    H7 3382   1.528   0.897   0.860 -0.7485  1.3526  1.4184
  223MPD1     C 3383   1.734   1.919   1.638  0.8396 -0.5004  0.1297
  223MPD1    C1 3384   1.741   1.787   1.585  0.5535  0.0243  0.1496
  223MPD1    C2 3385   1.657   1.757   1.483 -0.4979  0.3634 -0.8256
  223MPD1    C3 3386   1.573   1.850   1.423 -0.2332 -0.3590  0.3341
  223MPD1    C4 3387   1.579   1.979   1.463 -0.7089  0.8682  0.4336
  223MPD1    C5 3388   1.668   2.015   1.566 -0.1031  1.2372  0.1768
  223MPD1     H 3389   1.658   1.660   1.435 -1.0278 -0.1645  0.2326
  223MPD1    H1 3390   1.510   2.050   1.419  0.8784  1.1637 -1.5856
  223MPD1    H2 3391   1.788   1.944   1.729 -0.7295  0.9588  0.6366
  223MPD1    H3 3392   1.667   2.114   1.611  1.1633  0.9189  0.9215
  223MPD1     N 3393   1.495   1.807   1.312  0.3277  0.5400 -0.3929
  223MPD1    H5 3394   1.508   1.712   1.277  1.4796  0.6857 -0.3675
  223MPD1    N1 3395   1.801   1.684   1.661 -0.4227  0.2301  0.5326
  223MPD1    H6 3396   1.820   1.599   1.609 -1.0313  1.9421 -2.5095
  223MPD1    H7 3397   1.891   1.720   1.694 -0.8592 -0.2411  2.2164
  224MPD1     C 3398   3.760   2.289   9.691  0.3057 -0.0737  0.2191
  224MPD1    C1 3399   3.665   2.369   9.633 -0.2104  0.1582 -1.2080
  224MPD1    C2 3400   3.530   2.348   9.668 -0.0820  0.0799  0.1321
  224MPD1    C3 3401   3.497   2.258   9.767 -0.5969  0.3078 -0.0653
  224MPD1    C4 3402   3.594   2.183   9.825 -0.0622  1.3559 -0.6532
  224MPD1    C5 3403   3.729   2.203   9.790  0.5417  0.3803  0.6484
  224MPD1     H 3404   3.453   2.406   9.619 -0.3126  1.4812  2.1775
  224MPD1    H1 3405   3.575   2.119   9.910 -0.9028 -0.7793 -2.4400
  224MPD1    H2 3406   3.866   2.289   9.669  0.1039 -0.3780 -0.7416
  224MPD1    H3 3407   3.815   2.152   9.831  0.3055 -0.8243 -0.3676
  224MPD1     N 3408   3.365   2.233   9.804 -0.4312  0.1935  0.4993
  224MPD1    H5 3409   3.354   2.162   9.876 -0.5254 -1.6438 -1.3387
  224MPD1    N1 3410   3.700   2.466   9.537 -0.4751 -0.4387  0.1860
  224MPD1    H6 3411   3.799   2.488   9.541 -0.6706  0.5254 -0.3440
  224MPD1    H7 3412   3.638   2.547   9.538  1.7531  1.2576  1.6556
  225MPD1     C 3413   3.251   0.242  12.778 -0.2973 -0.5513 -0.0692
  225MPD1    C1 3414   3.219   0.109  12.784 -0.3884 -0.8496  0.0498
  225MPD1    C2 3415   3.203   0.034  12.668  0.1165  0.4252 -0.2417
  225MPD1    C3 3416   3.228   0.097  12.547 -0.4654 -0.3198 -0.6371
  225MPD1    C4 3417   3.262   0.227  12.541  0.8520 -0.3479  0.0841
  225MPD1    C5 3418   3.274   0.299  12.659  0.4180  0.5932  0.1177
  225MPD1     H 3419   3.173   4.655  12.677  0.1116  0.6364  2.3551
  225MPD1    H1 3420   3.283   0.278  12.448  1.8517 -1.2115 -0.1633
  225MPD1    H2 3421   3.264   0.293  12.872 -0.8148 -1.4143  0.4715
  225MPD1    H3 3422   3.303   0.403  12.653 -0.9054  0.8189 -2.1408
  225MPD1     N 3423   3.218   0.036  12.421 -0.1958 -0.3189  0.2122
  225MPD1    H5 3424   3.261   0.077  12.339  4.2191 -0.3226  2.4883
  225MPD1    N1 3425   3.175   0.047  12.903  0.6154 -0.3916  0.5784
  225MPD1    H6 3426   3.186   4.671  12.905 -1.7533 -0.6353  0.9950
  225MPD1    H7 3427   3.207   0.091  12.989  2.8380 -0.3977 -0.2398
  226MPD1     C 3428   2.565   0.059   9.794  0.2678  0.5830 -0.5274
  226MPD1    C1 3429   2.452   0.130   9.753  0.7198  0.3355  0.1234
  226MPD1    C2 3430   2.332   0.102   9.804  0.5511  0.3239  0.6303
  226MPD1    C3 3431   2.319   4.720   9.893 -0.0004 -0.3861 -0.3869
  226MPD1    C4 3432   2.430   4.648   9.939 -0.3515 -1.0427  0.3716
  226MPD1    C5 3433   2.552   4.678   9.889 -0.0448 -0.0112  0.5528
  226MPD1     H 3434   2.241   0.152   9.773 -0.7982 -1.7735  1.1980
  226MPD1    H1 3435   2.421   4.566  10.009  1.6028 -0.9754  0.7036
  226MPD1    H2 3436   2.665   0.061   9.752  1.0857 -1.4251  1.2728
  226MPD1    H3 3437   2.641   4.627   9.924  1.5409  1.5450 -1.2657
  226MPD1     N 3438   2.188   4.689   9.942  0.5373 -0.9598 -0.5487
  226MPD1    H5 3439   2.113   0.031   9.925  0.5889  0.0107  2.9793
  226MPD1    N1 3440   2.451   0.205   9.629 -0.2489  0.1444 -0.3490
  226MPD1    H6 3441   2.379   0.277   9.633 -2.0595 -1.5950 -1.9384
  226MPD1    H7 3442   2.537   0.257   9.615 -1.2818  1.9072 -0.1438
  227MPD1     C 3443   1.832   0.018  10.864 -0.1682  0.4354  0.1292
  227MPD1    C1 3444   1.752   4.642  10.822  0.1346  0.8522  0.0695
  227MPD1    C2 3445   1.772   4.600  10.691 -0.2486  0.3951  0.0217
  227MPD1    C3 3446   1.859   4.658  10.608 -0.3429 -0.0369  0.0237
  227MPD1    C4 3447   1.933   0.041  10.650 -0.6911  0.0721  0.3447
  227MPD1    C5 3448   1.925   0.078  10.783  0.0204 -0.0796 -0.2466
  227MPD1     H 3449   1.709   4.523  10.647  1.4274 -0.7282 -0.4118
  227MPD1    H1 3450   2.000   0.096  10.586 -1.5180 -1.1068 -1.5480
  227MPD1    H2 3451   1.817   0.056  10.964 -1.8188  1.3446 -0.4627
  227MPD1    H3 3452   1.978   0.164  10.824 -0.1658  0.8036 -1.8599
  227MPD1     N 3453   1.853   4.613  10.472 -0.5147 -0.3553  0.4069
  227MPD1    H5 3454   1.777   4.558  10.433  0.2848 -0.3763 -1.1101
  227MPD1    N1 3455   1.648   4.594  10.905 -1.0315  0.3833 -0.1403
  227MPD1    H6 3456   1.682   4.577  10.999  1.2414  0.3692 -0.9466
  227MPD1    H7 3457   1.604   4.505  10.880 -0.5002  0.7004 -2.2616
  228MPD1     C 3458   0.633   2.260  13.138  0.0110 -0.7201  1.4293
  228MPD1    C1 3459   0.545   2.304  13.042 -0.3345  0.0622  0.0174
  228MPD1    C2 3460   0.484   2.213  12.964  1.0332  0.3606 -0.5336
  228MPD1    C3 3461   0.488   2.079  12.999  0.9196  0.2232  0.1602
  228MPD1    C4 3462   0.586   2.032  13.088 -0.2820  0.1526 -0.7428
  228MPD1    C5 3463   0.656   2.127  13.158  0.4285 -0.2902 -0.0960
  228MPD1     H 3464   0.415   2.239  12.885 -1.3309 -0.5125  1.2669
  228MPD1    H1 3465   0.602   1.931  13.123  0.3910  0.2742 -0.7010
  228MPD1    H2 3466   0.690   2.322  13.206  1.2133  0.9553 -1.0983
  228MPD1    H3 3467   0.720   2.109  13.244  0.8671 -0.9025 -0.5519
  228MPD1     N 3468   0.391   1.990  12.946 -0.5498  0.2476  0.2526
  228MPD1    H5 3469   0.313   2.024  12.891 -1.9784  0.4614  2.3857
  228MPD1    N1 3470   0.538   2.442  13.013  0.1536  0.5372  0.6526
  228MPD1    H6 3471   0.566   2.503  13.090  0.0302 -0.0363  1.1438
  228MPD1    H7 3472   0.450   2.477  12.976  0.4623  0.9930  0.3412
  229MPD1     C 3473   4.689   0.859  14.772  0.6709 -0.1459 -0.7779
  229MPD1    C1 3474   4.706   0.931  14.890 -0.1870 -0.2255 -0.2311
  229MPD1    C2 3475   4.693   0.853  15.006  0.8162  0.7886 -0.1163
  229MPD1    C3 3476   4.644   0.722  15.005  0.4111 -0.1531 -0.6044
  229MPD1    C4 3477   4.618   0.663  14.886  0.2484 -0.1876  0.4053
  229MPD1    C5 3478   4.641   0.731  14.769  0.0834  0.8666 -0.9850
  229MPD1     H 3479   4.716   0.897  15.102 -0.1437  0.6060  0.1938
  229MPD1    H1 3480   4.586   0.559  14.884  0.8877 -0.3913  0.9718
  229MPD1    H2 3481   4.692   0.905  14.674 -0.4866  1.0871 -0.2224
  229MPD1    H3 3482   4.622   0.688  14.672  2.0503 -1.4582 -0.3411
  229MPD1     N 3483   4.630   0.651  15.129 -0.8731  0.0605  0.3210
  229MPD1    H5 3484   4.593   0.557  15.122 -0.4987  0.0363 -1.2343
  229MPD1    N1 3485   0.054   1.053  14.874 -0.0233 -0.6453 -0.2209
  229MPD1    H6 3486   0.045   1.112  14.956  0.8651 -3.6672  2.0328
  229MPD1    H7 3487   0.035   1.100  14.785 -1.1138 -1.3293 -0.3502
  230MPD1     C 3488   4.088   0.664  15.903 -0.2344 -1.0228 -0.8840
  230MPD1    C1 3489   4.096   0.719  15.774  0.1654  0.1393 -0.5976
  230MPD1    C2 3490   4.209   0.685  15.697  0.4053  0.7869  0.5634
  230MPD1    C3 3491   4.318   0.617  15.747  0.4310  0.7060 -0.2196
  230MPD1    C4 3492   4.310   0.583  15.879  0.0720 -0.2515 -0.3024
  230MPD1    C5 3493   4.195   0.596  15.950  0.2583  0.0535  0.4411
  230MPD1     H 3494   4.223   0.714  15.593  0.2516 -1.0245  0.0305
  230MPD1    H1 3495   4.381   0.517  15.928 -2.1356 -3.2169 -1.1171
  230MPD1    H2 3496   4.000   0.685  15.963  0.1644 -1.2696 -0.2236
  230MPD1    H3 3497   4.187   0.562  16.053 -1.0971 -0.3130  0.2119
  230MPD1     N 3498   4.424   0.580  15.654 -0.4106  0.7879  0.5547
  230MPD1    H5 3499   4.403   0.591  15.555  0.4755  0.0704  0.2832
  230MPD1    N1 3500   3.982   0.765  15.712  0.5366 -0.6396 -0.7261
  230MPD1    H6 3501   3.914   0.800  15.779  0.6372  0.2929 -1.1043
  230MPD1    H7 3502   4.015   0.839  15.649  1.6719 -0.4338  0.1142
  231MPD1     C 3503   2.159   1.687  15.680 -0.8208  0.7799  0.5742
  231MPD1    C1 3504   2.094   1.804  15.630 -0.5915  0.4260 -0.9659
  231MPD1    C2 3505   2.172   1.896  15.563  0.3807  0.5054  0.4946
  231MPD1    C3 3506   2.294   1.858  15.515 -0.1248 -0.4595  0.0163
  231MPD1    C4 3507   2.352   1.739  15.550  0.4387 -0.2503  0.5966
  231MPD1    C5 3508   2.285   1.657  15.636  0.4712  0.0052  0.5915
  231MPD1     H 3509   2.132   1.994  15.544  1.8926  0.8170 -1.0780
  231MPD1    H1 3510   2.454   1.712  15.523 -0.3938 -1.9495 -0.8775
  231MPD1    H2 3511   2.109   1.631  15.758 -2.0526  1.0842  0.0003
  231MPD1    H3 3512   2.328   1.562  15.668  0.8274  0.3615  1.1839
  231MPD1     N 3513   2.359   1.954  15.428  0.0122  0.1264 -0.5967
  231MPD1    H5 3514   2.314   2.044  15.419  0.1277  0.1966 -0.4719
  231MPD1    N1 3515   1.970   1.839  15.689 -0.2593  0.0798  0.0041
  231MPD1    H6 3516   1.903   1.765  15.706 -3.3617  3.0390  0.7668
  231MPD1    H7 3517   1.922   1.910  15.634 -1.1666 -1.3304 -1.0017
  232MPD1     C 3518   3.990   3.149  17.255 -0.6496 -0.3033  0.0996
  232MPD1    C1 3519   4.001   3.096  17.381  0.1131  0.0103  0.4858
  232MPD1    C2 3520   3.999   3.176  17.494  0.2233  0.7721 -0.5516
  232MPD1    C3 3521   3.975   3.313  17.482 -0.1162  0.4666  0.3449
  232MPD1    C4 3522   3.976   3.367  17.355 -0.4256 -0.2059  0.0471
  232MPD1    C5 3523   3.980   3.285  17.249 -0.1263  0.3921  0.3461
  232MPD1     H 3524   3.989   3.130  17.591  0.3082  0.1705 -0.8325
  232MPD1    H1 3525   3.973   3.473  17.333 -0.0687 -0.3144 -0.5159
  232MPD1    H2 3526   4.000   3.090  17.165 -1.0369  1.3394 -1.0188
  232MPD1    H3 3527   3.984   3.326  17.148 -1.5750 -0.6601 -0.1328
  232MPD1     N 3528   3.971   3.383  17.601 -0.1207  0.0220 -0.1751
  232MPD1    H5 3529   3.997   3.330  17.683 -0.1542  1.5792  0.8287
  232MPD1    N1 3530   4.033   2.955  17.387  0.4962  0.0080  0.1338
  232MPD1    H6 3531   3.995   2.899  17.311  1.6020  1.6963 -1.6811
  232MPD1    H7 3532   3.984   2.908  17.463 -1.0087  0.3099 -0.6602
  233MPD1     C 3533   0.226   3.607   1.047 -0.0578  0.8813  0.0771
  233MPD1    C1 3534   0.288   3.581   0.923 -0.1223 -0.4292  0.4503
  233MPD1    C2 3535   0.412   3.516   0.929 -0.4087  0.2179  0.2351
  233MPD1    C3 3536   0.455   3.448   1.048 -0.5790 -0.1562  0.1412
  233MPD1    C4 3537   0.382   3.469   1.163  0.0649  0.2704  0.0287
  233MPD1    C5 3538   0.279   3.556   1.153  0.0958  0.0925 -0.1890
  233MPD1     H 3539   0.471   3.501   0.839 -1.6102 -3.0048  0.0162
  233MPD1    H1 3540   0.414   3.419   1.253  0.8085 -0.8595 -0.8744
  233MPD1    H2 3541   0.140   3.673   1.052 -0.9034 -0.1167 -1.1622
  233MPD1    H3 3542   0.223   3.575   1.244 -0.0151  1.9473 -0.6627
  233MPD1     N 3543   0.573   3.363   1.048 -0.1221 -0.1386 -0.3965
  233MPD1    H5 3544   0.608   3.337   1.140 -0.1558 -2.2970 -0.9749
  233MPD1    N1 3545   0.242   3.633   0.802 -0.2814 -0.6428 -0.2970
  233MPD1    H6 3546   0.147   3.669   0.803  0.9754  2.6172 -1.1091
  233MPD1    H7 3547   0.276   3.600   0.712  0.6059 -2.7487  0.7838
  234MPD1     C 3548   1.984   0.756   9.456  0.2698  0.3598 -0.3773
  234MPD1    C1 3549   1.999   0.865   9.368  0.0791  0.3627 -0.2003
  234MPD1    C2 3550   2.079   0.973   9.407 -0.4949  0.1947  0.3000
  234MPD1    C3 3551   2.168   0.963   9.511 -0.1357  0.1068 -0.5181
  234MPD1    C4 3552   2.178   0.833   9.571  0.5136 -0.6753  0.1522
  234MPD1    C5 3553   2.078   0.737   9.554  0.4625 -0.1388 -0.5114
  234MPD1     H 3554   2.068   1.064   9.349 -1.0191 -1.7703 -2.7228
  234MPD1    H1 3555   2.246   0.821   9.655  1.3208  0.1893 -0.3770
  234MPD1    H2 3556   1.902   0.688   9.436  0.2684 -0.0579  1.0018
  234MPD1    H3 3557   2.079   0.651   9.620  1.8604 -0.2166 -0.6319
  234MPD1     N 3558   2.245   1.075   9.544 -0.1031  0.5369  0.3417
  234MPD1    H5 3559   2.213   1.161   9.502  1.5580  2.3372  2.7759
  234MPD1    N1 3560   1.917   0.882   9.260 -0.0520 -0.3739  0.4383
  234MPD1    H6 3561   1.971   0.952   9.209  0.3385 -1.3228 -0.4708
  234MPD1    H7 3562   1.904   0.799   9.201  1.2225  0.5545 -1.1590
  235MPD1     C 3563   4.110   4.298  10.258 -0.2971 -0.0365 -0.0704
  235MPD1    C1 3564   4.232   4.346  10.279  0.1080  0.0572  0.1452
  235MPD1    C2 3565   4.275   4.444  10.191 -0.0056 -0.3827 -0.1281
  235MPD1    C3 3566   4.193   4.497  10.091  0.0625 -0.0197 -0.3038
  235MPD1    C4 3567   4.069   4.451  10.079 -0.1308 -0.3206  0.0637
  235MPD1    C5 3568   4.031   4.347  10.158  0.4336 -0.3139  0.3520
  235MPD1     H 3569   4.376   4.479  10.208 -0.2768  1.2144 -1.8735
  235MPD1    H1 3570   3.993   4.482  10.008 -1.4802  0.4052  1.8223
  235MPD1    H2 3571   4.074   4.215  10.317 -0.2551 -1.2232 -1.7106
  235MPD1    H3 3572   3.937   4.298  10.135  1.0148 -0.3637 -1.8991
  235MPD1     N 3573   4.243   4.602  10.011  0.6925  0.2398  0.2084
  235MPD1    H5 3574   4.338   4.623  10.036  1.1214 -1.8657  0.3811
  235MPD1    N1 3575   4.323   4.289  10.362  0.0152  0.0265  0.3085
  235MPD1    H6 3576   4.293   4.234  10.442  3.0611  1.5862  2.5567
  235MPD1    H7 3577   4.401   4.348  10.391 -0.2347 -0.2543  1.5542
  236MPD1     C 3578   3.229   1.441   9.220  0.9470  0.0799 -0.1280
  236MPD1    C1 3579   3.220   1.322   9.290 -0.2067 -0.1409 -0.2046
  236MPD1    C2 3580   3.327   1.293   9.375  0.0214  0.4318  0.0320
  236MPD1    C3 3581   3.445   1.370   9.375 -0.6094  0.2666 -0.6475
  236MPD1    C4 3582   3.454   1.472   9.287 -0.4775  0.0169  0.3883
  236MPD1    C5 3583   3.351   1.501   9.211  0.3593  0.6091 -0.2279
  236MPD1     H 3584   3.314   1.199   9.427 -0.0129  1.1048  1.2330
  236MPD1    H1 3585   3.544   1.531   9.280  1.3886 -2.4921  3.0068
  236MPD1    H2 3586   3.150   1.474   9.153  1.8673  2.1142 -0.2010
  236MPD1    H3 3587   3.351   1.580   9.137  4.1101 -0.9331 -1.8409
  236MPD1     N 3588   3.571   1.333   9.436 -0.4985  0.1795  0.2773
  236MPD1    H5 3589   3.659   1.382   9.419  0.0700 -0.8567  0.2567
  236MPD1    N1 3590   3.099   1.250   9.304 -0.9449  0.3661  0.1680
  236MPD1    H6 3591   3.119   1.154   9.329 -2.4053 -0.1602 -0.6915
  236MPD1    H7 3592   3.048   1.256   9.216 -2.3378  0.0985  0.9525
  237MPD1     C 3593   3.113   3.112  15.579 -0.2788 -0.0548 -0.0927
  237MPD1    C1 3594   3.096   3.112  15.447 -0.0597  0.3728  0.2843
  237MPD1    C2 3595   2.982   3.175  15.400 -0.7149  0.2355 -0.2046
  237MPD1    C3 3596   2.898   3.242  15.482 -0.2894  0.2564 -0.0139
  237MPD1    C4 3597   2.919   3.239  15.618  0.4223 -0.2608 -0.0909
  237MPD1    C5 3598   3.022   3.164  15.666  0.2746 -0.5801  0.3420
  237MPD1     H 3599   2.969   3.160  15.294 -0.3828  1.3612 -0.3991
  237MPD1    H1 3600   2.848   3.276  15.692  1.0232  1.6112 -0.4600
  237MPD1    H2 3601   3.203   3.067  15.618 -0.4427  1.5223  2.1573
  237MPD1    H3 3602   3.036   3.155  15.773 -1.4049  2.7961  0.8690
  237MPD1     N 3603   2.787   3.304  15.425  0.0117  0.0854  0.2379
  237MPD1    H5 3604   2.734   3.375  15.475  0.4605  0.1291  0.6575
  237MPD1    N1 3605   3.186   3.044  15.364  0.1832  0.6333  0.0198
  237MPD1    H6 3606   3.267   3.018  15.420  0.2132 -0.8071 -0.6952
  237MPD1    H7 3607   3.219   3.112  15.295  0.8664  0.3384  0.0539
  238MPD1     C 3608   4.059   3.240  15.124 -0.2240 -1.5004  0.3406
  238MPD1    C1 3609   4.045   3.121  15.197 -0.1886 -0.1136 -0.8504
  238MPD1    C2 3610   4.033   3.002  15.125  0.0079 -0.1757 -0.1034
  238MPD1    C3 3611   4.005   3.003  14.989 -0.1627  0.3649 -0.5360
  238MPD1    C4 3612   4.012   3.122  14.920 -0.5938  0.7478  0.2598
  238MPD1    C5 3613   4.034   3.244  14.989 -0.1125 -0.4679  0.4867
  238MPD1     H 3614   4.024   2.909  15.178  0.9061 -0.0452  0.2721
  238MPD1    H1 3615   4.000   3.118  14.812 -3.2361  1.3619  0.5389
  238MPD1    H2 3616   4.083   3.329  15.181 -1.9656 -1.2323  0.6786
  238MPD1    H3 3617   4.044   3.335  14.932 -1.0526  0.2663  1.4990
  238MPD1     N 3618   3.987   2.885  14.908  0.0231 -0.2959 -0.6901
  238MPD1    H5 3619   3.988   2.886  14.806  1.2056  0.7002 -0.6692
  238MPD1    N1 3620   4.079   3.116  15.333  0.1949 -0.3814  0.1273
  238MPD1    H6 3621   4.037   3.040  15.386  0.6171 -0.4606  0.3462
  238MPD1    H7 3622   4.060   3.205  15.377  0.8541 -0.3693  0.3893
  239MPD1     C 3623   0.293   3.306  14.743  0.7049 -0.4883 -0.8414
  239MPD1    C1 3624   0.358   3.271  14.625 -0.4614  0.2897  0.6851
  239MPD1    C2 3625   0.283   3.297  14.510  0.0490  0.3310  0.0131
  239MPD1    C3 3626   0.155   3.349  14.520 -0.1886  0.1185 -0.4193
  239MPD1    C4 3627   0.098   3.383  14.638  0.5024 -0.6813  0.3479
  239MPD1    C5 3628   0.167   3.351  14.749 -0.3785 -0.7749  0.2941
  239MPD1     H 3629   0.318   3.262  14.413  2.4630  0.5840  0.8017
  239MPD1    H1 3630   4.722   3.420  14.649  0.4120 -1.0224  0.6938
  239MPD1    H2 3631   0.338   3.295  14.841 -2.4230 -2.0805  0.4109
  239MPD1    H3 3632   0.126   3.378  14.845 -0.2574 -3.3891  1.0776
  239MPD1     N 3633   0.077   3.380  14.412 -0.6424  0.1825 -0.7702
  239MPD1    H5 3634   4.710   3.419  14.431 -1.1659 -0.4394 -2.0366
  239MPD1    N1 3635   0.486   3.218  14.620 -0.1080 -0.1064  0.2641
  239MPD1    H6 3636   0.512   3.178  14.530 -0.2624  0.1877  0.0886
  239MPD1    H7 3637   0.510   3.156  14.697 -0.6194  0.0342  0.5343
  240MPD1     C 3638   4.287   1.796  13.493 -0.0600 -0.0005  0.6446
  240MPD1    C1 3639   4.178   1.765  13.573 -0.1826 -0.5718  0.3469
  240MPD1    C2 3640   4.092   1.864  13.610 -0.3569 -0.0718 -0.4925
  240MPD1    C3 3641   4.112   1.988  13.565 -0.0118  0.0142  0.1636
  240MPD1    C4 3642   4.220   2.021  13.483  0.0549 -0.2234 -0.0560
  240MPD1    C5 3643   4.303   1.922  13.443 -0.4177 -0.3733  0.3138
  240MPD1     H 3644   3.999   1.837  13.658  1.6138  1.0306  3.9537
  240MPD1    H1 3645   4.237   2.126  13.463  1.7442  0.1057  2.9863
  240MPD1    H2 3646   4.364   1.726  13.463 -0.2753 -0.0447  0.1916
  240MPD1    H3 3647   4.400   1.932  13.395  0.3184 -2.3268  1.3407
  240MPD1     N 3648   4.014   2.084  13.602  0.0816  0.2738  0.2310
  240MPD1    H5 3649   3.947   2.049  13.671 -1.0400 -1.1356 -1.5923
  240MPD1    N1 3650   4.181   1.641  13.635  0.1675  0.4559 -0.0777
  240MPD1    H6 3651   4.227   1.581  13.567 -0.3906 -0.0387 -0.0252
  240MPD1    H7 3652   4.083   1.613  13.632  0.5106 -0.7490  0.0661
  241MPD1     C 3653   3.898   3.101  13.817  0.1400  0.3123  0.4161
  241MPD1    C1 3654   3.975   3.038  13.732 -0.4319  0.1669 -0.0105
  241MPD1    C2 3655   3.936   2.917  13.685  0.3572 -0.5178  0.7974
  241MPD1    C3 3656   3.815   2.859  13.730  0.0503  0.5622 -0.8176
  241MPD1    C4 3657   3.733   2.923  13.812 -0.1277  0.7837 -0.4571
  241MPD1    C5 3658   3.776   3.051  13.853  0.0641 -0.0173  0.6103
  241MPD1     H 3659   4.006   2.864  13.621  1.2779 -0.7777  2.0267
  241MPD1    H1 3660   3.640   2.875  13.840  1.2373 -0.1392  2.4372
  241MPD1    H2 3661   3.929   3.203  13.839  2.3945 -0.1671 -0.5216
  241MPD1    H3 3662   3.701   3.121  13.887  0.5135  0.1085  1.3424
  241MPD1     N 3663   3.777   2.727  13.689 -0.5996 -0.1891  0.1712
  241MPD1    H5 3664   3.692   2.690  13.731  0.6684  0.3636  3.2165
  241MPD1    N1 3665   4.082   3.100  13.676  0.0227 -0.6110 -0.5815
  241MPD1    H6 3666   4.127   3.157  13.747 -0.6220 -3.6289  2.2246
  241MPD1    H7 3667   4.143   3.049  13.612  1.0162 -1.9665  1.4588
  242MPD1     C 3668   3.844   1.883  15.573 -0.3880  0.0290 -0.0077
  242MPD1    C1 3669   3.964   1.894  15.515 -0.0821  0.1540 -0.1268
  242MPD1    C2 3670   4.014   1.781  15.456 -0.2490 -0.1762  0.0008
  242MPD1    C3 3671   3.937   1.666  15.450 -0.6041 -1.3040 -0.1075
  242MPD1    C4 3672   3.809   1.658  15.504  0.4064 -0.2824 -0.4255
  242MPD1    C5 3673   3.766   1.771  15.564 -1.3579  0.4279 -0.3781
  242MPD1     H 3674   4.114   1.783  15.414  0.6286  0.6006  2.1350
  242MPD1    H1 3675   3.747   1.570  15.503  0.1590 -0.1000 -1.3916
  242MPD1    H2 3676   3.800   1.971  15.619  0.7465  1.0436 -0.8390
  242MPD1    H3 3677   3.665   1.786  15.599 -1.3455  1.4100 -0.7512
  242MPD1     N 3678   3.992   1.545  15.395 -0.0004 -0.3450  0.4255
  242MPD1    H5 3679   3.930   1.466  15.380 -1.0000  0.9372 -2.4535
  242MPD1    N1 3680   4.032   2.017  15.537 -0.5415 -0.4945  0.0398
  242MPD1    H6 3681   4.106   2.036  15.470  0.6151  0.8866  1.7211
  242MPD1    H7 3682   3.970   2.098  15.539  0.1147 -0.0444  2.2395
  243MPD1     C 3683   0.579   0.865  16.511  0.6149 -0.1728  0.6090
  243MPD1    C1 3684   0.561   0.743  16.452 -0.2555  0.1496  0.4606
  243MPD1    C2 3685   0.587   0.625  16.525 -0.6343 -0.1272  0.4452
  243MPD1    C3 3686   0.641   0.628  16.650  0.3541  0.1137  0.2675
  243MPD1    C4 3687   0.650   0.755  16.712 -0.5769  0.1733 -0.2429
  243MPD1    C5 3688   0.629   0.866  16.641  0.2392  0.5459  0.0915
  243MPD1     H 3689   0.572   0.531  16.472  1.9071 -0.0516 -0.3923
  243MPD1    H1 3690   0.674   0.766  16.817  0.6281  0.1430 -0.5176
  243MPD1    H2 3691   0.566   0.962  16.464  1.8797  0.5556  1.7443
  243MPD1    H3 3692   0.646   0.961  16.691  2.2111  0.2187  0.0241
  243MPD1     N 3693   0.687   0.506  16.713 -0.0282  0.0743  0.0028
  243MPD1    H5 3694   0.682   0.427  16.650  0.3090  0.5337 -0.6017
  243MPD1    N1 3695   0.489   0.743  16.332 -0.1313 -0.4627 -0.2005
  243MPD1    H6 3696   0.518   0.667  16.271 -0.0041  1.0326 -1.9737
  243MPD1    H7 3697   0.499   0.830  16.281 -0.1696 -1.6220 -2.1792
  244MPD1     C 3698   1.587   4.724  17.071 -0.6754 -0.1701  0.8278
  244MPD1    C1 3699   1.483   4.629  17.057  0.0654  0.2213 -0.2383
  244MPD1    C2 3700   1.353   4.675  17.044 -0.4617  0.1738 -1.0569
  244MPD1    C3 3701   1.324   0.088  17.030 -0.7973 -0.9258 -0.5479
  244MPD1    C4 3702   1.436   0.177  17.025  0.1916 -0.8281  0.0099
  244MPD1    C5 3703   1.564   0.132  17.044 -0.0752 -0.1727  0.0514
  244MPD1     H 3704   1.275   4.600  17.034 -0.2891 -0.3757  1.7531
  244MPD1    H1 3705   1.420   0.283  17.005  2.8622  0.0750  2.6557
  244MPD1    H2 3706   1.690   4.696  17.091 -0.5221  0.2598  0.6364
  244MPD1    H3 3707   1.649   0.200  17.041 -0.7286  0.6248 -0.1340
  244MPD1     N 3708   1.189   0.121  16.990 -0.2069 -0.3309  0.1440
  244MPD1    H5 3709   1.143   0.040  16.949  0.2136  0.3176 -1.5624
  244MPD1    N1 3710   1.504   4.489  17.074  0.2833  0.2919  0.2332
  244MPD1    H6 3711   1.594   4.457  17.040 -0.4969 -0.4792 -1.1370
  244MPD1    H7 3712   1.434   4.444  17.014  0.6455 -0.1587  0.1488
  245MPD1     C 3713   2.244   4.713  13.344 -0.0009 -0.3075  0.5697
  245MPD1    C1 3714   2.240   0.014  13.482  0.5206  0.1223 -0.2084
  245MPD1    C2 3715   2.297   0.136  13.524 -0.3233  0.2360  0.1651
  245MPD1    C3 3716   2.332   0.236  13.437 -0.2554  1.2130 -0.0904
  245MPD1    C4 3717   2.323   0.214  13.302 -0.5467 -0.1683 -0.6660
  245MPD1    C5 3718   2.282   0.091  13.259 -0.0515  0.5331  0.7710
  245MPD1     H 3719   2.305   0.158  13.630 -0.5383 -0.1154  0.2565
  245MPD1    H1 3720   2.331   0.288  13.223  1.9374 -0.1837 -0.4372
  245MPD1    H2 3721   2.191   4.623  13.315 -2.2483  1.3123 -0.3239
  245MPD1    H3 3722   2.272   0.067  13.153 -0.7673 -1.4128  1.2976
  245MPD1     N 3723   2.366   0.359  13.496  0.9672  0.4029  0.4738
  245MPD1    H5 3724   2.365   0.360  13.597 -1.0985  1.9369  0.4322
  245MPD1    N1 3725   2.216   4.637  13.574 -0.2120 -0.2910  0.2784
  245MPD1    H6 3726   2.205   4.652  13.674  1.0513  1.6267  0.1267
  245MPD1    H7 3727   2.145   4.570  13.543  1.8810 -1.5707 -1.7421
  246MPD1     C 3728   0.568   2.908   9.036  0.1970 -0.3098  0.0273
  246MPD1    C1 3729   0.531   2.771   9.046  0.2125 -0.1681  0.6192
  246MPD1    C2 3730   0.397   2.747   9.054 -0.2382  1.3231 -0.0625
  246MPD1    C3 3731   0.302   2.842   9.071 -0.5176  0.2677  0.1164
  246MPD1    C4 3732   0.347   2.973   9.080 -0.2248 -0.5502  0.2181
  246MPD1    C5 3733   0.478   3.002   9.073 -0.2355 -0.5330 -0.3182
  246MPD1     H 3734   0.358   2.646   9.057  0.9847  0.7790 -2.4802
  246MPD1    H1 3735   0.284   3.051   9.121 -1.7515 -0.8439 -1.5735
  246MPD1    H2 3736   0.671   2.939   9.028 -0.1491  0.0743 -3.1077
  246MPD1    H3 3737   0.508   3.106   9.082 -0.8826 -0.0979 -3.1281
  246MPD1     N 3738   0.166   2.803   9.079 -0.0001  0.2888  0.4959
  246MPD1    H5 3739   0.153   2.705   9.104 -0.2863  0.8972  2.7115
  246MPD1    N1 3740   0.622   2.668   9.008 -0.8439 -0.0760 -0.8879
  246MPD1    H6 3741   0.597   2.576   9.042  1.3575  0.5480  2.3128
  246MPD1    H7 3742   0.716   2.696   9.033 -1.2775 -0.5489  1.2492
  247MPD1     C 3743   1.246   0.202  16.042  0.3689  0.1669  0.7282
  247MPD1    C1 3744   1.282   0.206  16.168 -0.4863  0.0759  0.4464
  247MPD1    C2 3745   1.403   0.151  16.199 -0.0608  0.2516 -0.1769
  247MPD1    C3 3746   1.495   0.115  16.111 -0.1928 -0.2823 -0.5798
  247MPD1    C4 3747   1.465   0.124  15.980 -0.3205 -0.4757  0.0342
  247MPD1    C5 3748   1.338   0.169  15.940 -0.1902 -0.1910  0.1103
  247MPD1     H 3749   1.415   0.145  16.307 -0.9197 -3.0195 -0.2594
  247MPD1    H1 3750   1.538   0.084  15.911  0.6570 -0.5357  1.0914
  247MPD1    H2 3751   1.143   0.220  16.013  1.1107  3.6562  0.2218
  247MPD1    H3 3752   1.317   0.173  15.834 -2.5381  1.1013  0.6084
  247MPD1     N 3753   1.623   0.061  16.143 -0.6836  0.7377  0.5857
  247MPD1    H5 3754   1.687   0.038  16.067 -0.4800  0.4280  0.8528
  247MPD1    N1 3755   1.188   0.225  16.272  0.2942  0.4244 -1.1986
  247MPD1    H6 3756   1.228   0.241  16.364 -0.5674  1.8620 -1.0878
  247MPD1    H7 3757   1.121   0.300  16.259  1.2656  1.4428 -0.2990
  248MPD1     C 3758   2.587   1.505   1.045 -0.4361 -0.1863 -0.9667
  248MPD1    C1 3759   2.728   1.525   1.059 -0.3288  0.1611  0.4322
  248MPD1    C2 3760   2.806   1.422   1.027  0.5753  0.5819 -0.9233
  248MPD1    C3 3761   2.758   1.317   0.956  0.4019  0.4995  0.1454
  248MPD1    C4 3762   2.621   1.299   0.942  0.0454 -0.1015 -0.9567
  248MPD1    C5 3763   2.536   1.393   0.990 -0.3980 -0.4142  0.0415
  248MPD1     H 3764   2.912   1.428   1.049 -0.1336  0.2197  2.5123
  248MPD1    H1 3765   2.569   1.216   0.896 -1.8420  0.3916  0.2594
  248MPD1    H2 3766   2.525   1.572   1.103 -1.4416 -0.8225 -1.2826
  248MPD1    H3 3767   2.428   1.382   0.992 -0.5430  1.1689  0.6653
  248MPD1     N 3768   2.848   1.217   0.918 -0.2576  0.0800  0.9478
  248MPD1    H5 3769   2.948   1.236   0.918 -0.6340  2.1045 -0.6953
  248MPD1    N1 3770   2.779   1.634   1.132 -0.1740 -0.0879 -0.1488
  248MPD1    H6 3771   2.719   1.712   1.108  1.2227  1.0117 -0.0740
  248MPD1    H7 3772   2.874   1.655   1.104 -0.3974  0.6164 -0.3693
  249MPD1     C 3773   4.322   3.688   9.526 -0.0256 -0.7911 -0.2131
  249MPD1    C1 3774   4.379   3.785   9.448 -0.2636 -0.5548  0.7756
  249MPD1    C2 3775   4.517   3.777   9.424 -0.2355 -0.5602 -0.1656
  249MPD1    C3 3776   4.594   3.684   9.500 -0.0866 -0.5190  0.0669
  249MPD1    C4 3777   4.527   3.597   9.589 -0.5482 -0.2892 -0.4808
  249MPD1    C5 3778   4.391   3.600   9.592  0.1008  0.4604  0.3187
  249MPD1     H 3779   4.569   3.840   9.354 -0.4682 -0.8392 -0.5924
  249MPD1    H1 3780   4.568   3.520   9.653  1.0399  0.7378 -0.2567
  249MPD1    H2 3781   4.214   3.681   9.531 -0.2987  0.1043 -4.7150
  249MPD1    H3 3782   4.337   3.525   9.649  0.3708 -1.2911 -1.7142
  249MPD1     N 3783   0.003   3.691   9.479 -0.8503 -0.8107 -0.8435
  249MPD1    H5 3784   0.040   3.758   9.412 -1.2188 -0.4906 -0.7217
  249MPD1    N1 3785   4.290   3.860   9.365  0.3261  0.0421  0.5527
  249MPD1    H6 3786   4.338   3.937   9.319  3.2563 -2.6148 -0.8422
  249MPD1    H7 3787   4.214   3.906   9.414 -1.5782 -2.4494 -0.0623
  250MPD2     C 3788   0.479   3.915  13.086  0.8017  0.1177 -0.8785
  250MPD2    C1 3789   0.473   3.957  12.950 -0.2793  0.2740  0.5400
  250MPD2    C2 3790   0.412   3.876  12.855  0.5146  0.1650  0.0124
  250MPD2    C3 3791   0.369   3.746  12.893 -1.1274  0.5663 -0.2076
  250MPD2    C4 3792   0.368   3.710  13.025 -0.4936  0.4478 -0.2238
  250MPD2    C5 3793   0.420   3.795  13.123 -0.0407  0.3716  0.1260
  250MPD2     H 3794   0.403   3.907  12.751  0.3868 -0.5423 -0.1858
  250MPD2    H1 3795   0.320   3.617  13.053 -0.5841 -0.1733 -2.4415
  250MPD2    H2 3796   0.537   3.973  13.156 -0.7263  2.1631 -1.3296
  250MPD2    H3 3797   0.439   3.765  13.225  1.2164 -2.5466 -0.9521
  250MPD2     N 3798   0.324   3.647  12.797  0.0131 -0.0883 -0.1437
  250MPD2    H5 3799   0.288   3.558  12.831 -1.8685  0.0749 -1.7080
  250MPD2    N1 3800   0.533   4.080  12.911 -0.3230  0.5688 -0.0800
  250MPD2    H7 3801   0.564   4.139  12.988  0.4648  0.0152  0.0254
  251TMC3    C1 3802   0.656   4.231  12.783  0.1719  0.0976 -0.5246
  251TMC3    C2 3803   0.677   4.310  12.895 -0.2162 -0.5233  0.0903
  251TMC3    C3 3804   0.774   4.407  12.881  0.0022 -0.3248 -0.4733
  251TMC3    C4 3805   0.728   4.249  12.670  0.2113  0.1935  0.1320
  251TMC3    C5 3806   0.827   4.344  12.668 -0.2011 -1.2328 -0.3870
  251TMC3    C6 3807   0.847   4.425  12.773  0.5216  0.1564 -0.0013
  251TMC3     C 3808   0.572   4.116  12.783  0.4874 -0.4180 -0.2544
  251TMC3     O 3809   0.571   4.046  12.684 -0.3187  0.2871  0.0090
  251TMC3     H 3810   0.612   4.318  12.982  0.5766  1.2314  0.5099
  251TMC3    H1 3811   0.700   4.202  12.577 -2.0478  0.3306  0.7355
  251TMC3    H2 3812   0.915   4.510  12.766  0.7766 -0.0193  0.3281
  251TMC3    C7 3813   0.949   4.275  12.640  0.1816 -1.3301 -0.2100
  251TMC3    C8 3814   0.760   4.526  12.966  0.1202 -0.0907 -0.3336
  251TMC3    O1 3815   1.041   4.298  12.715  0.1185 -0.3519  0.3940
  251TMC3    O2 3816   0.767   4.636  12.918 -0.1856  0.4781 -0.0501
  252TMC3    C1 3817   1.546   1.027   8.910 -0.2665  0.4958  0.2415
  252TMC3    C2 3818   1.655   1.097   8.961  1.0709 -0.0261 -0.5679
  252TMC3    C3 3819   1.773   1.029   8.953 -0.0095  0.2792 -0.1573
  252TMC3    C4 3820   1.557   0.913   8.838 -0.4501  1.2415  0.0455
  252TMC3    C5 3821   1.683   0.858   8.830  0.0272  0.2362 -0.8696
  252TMC3    C6 3822   1.794   0.910   8.888 -0.4083  0.1082 -0.6137
  252TMC3     C 3823   1.421   1.084   8.946 -0.0301 -0.5292 -0.0985
  252TMC3     O 3824   1.424   1.194   8.998  0.7269 -0.2755 -0.4570
  252TMC3     H 3825   1.643   1.179   9.030  4.2633  0.7065 -0.8603
  252TMC3    H1 3826   1.472   0.870   8.786 -0.1004 -0.6754  1.0340
  252TMC3    H2 3827   1.892   0.870   8.869 -0.5180  0.1222 -1.1928
  252TMC3    C7 3828   1.712   0.741   8.746  0.3430  0.7512 -0.0867
  252TMC3    C8 3829   1.887   1.116   9.010  0.5325 -0.5486  0.7470
  252TMC3    O1 3830   1.820   0.742   8.691  0.2750  0.0001  0.7572
  252TMC3    O2 3831   1.862   1.230   9.050 -0.0072 -0.1224 -0.5020
  253MPD2     C 3832   2.222   3.594  14.968  0.2593  0.3230 -0.1297
  253MPD2    C1 3833   2.092   3.559  14.999  0.2185  0.4162  0.1276
  253MPD2    C2 3834   2.055   3.549  15.131 -0.7601 -0.2221  0.0776
  253MPD2    C3 3835   2.136   3.584  15.239 -0.0937  0.2042  0.3479
  253MPD2    C4 3836   2.265   3.615  15.207  0.5054  0.5422 -0.4185
  253MPD2    C5 3837   2.307   3.629  15.077  0.5034 -0.3894  0.6598
  253MPD2     H 3838   1.953   3.523  15.156 -0.0037 -3.6360 -0.4635
  253MPD2    H1 3839   2.344   3.631  15.280 -0.4668  0.6906  0.5981
  253MPD2    H2 3840   2.251   3.607  14.865 -0.3821  1.3634 -0.1794
  253MPD2    H3 3841   2.411   3.646  15.052  0.2302  0.7449  0.2942
  253MPD2     N 3842   2.094   3.578  15.372 -0.0787  0.2155 -0.0191
  253MPD2    H5 3843   2.170   3.599  15.435 -0.9487  1.0934  0.7443
  253MPD2    N1 3844   1.992   3.540  14.898 -0.6886 -0.0690  0.1499
  253MPD2    H7 3845   1.897   3.531  14.931  0.1839 -2.0026  2.1508
  254TMC3    C1 3846   1.953   3.592  15.564  0.4769  0.2998  0.9222
  254TMC3    C2 3847   1.828   3.587  15.621  0.3199 -0.3294 -0.0573
  254TMC3    C3 3848   1.810   3.621  15.751  0.3153 -0.5385 -0.4791
  254TMC3    C4 3849   2.062   3.617  15.644  0.2789  0.6802 -0.1203
  254TMC3    C5 3850   2.043   3.640  15.778 -0.5507 -0.4669  0.5914
  254TMC3    C6 3851   1.915   3.642  15.832 -0.0819  0.3743 -0.1894
  254TMC3     C 3852   1.968   3.561  15.427  0.7975 -0.3876 -0.3641
  254TMC3     O 3853   1.868   3.543  15.361  0.1960 -0.1072  0.0404
  254TMC3     H 3854   1.742   3.572  15.557  0.4756  0.0126 -0.3497
  254TMC3    H1 3855   2.160   3.616  15.598 -0.4320 -0.7320 -1.6024
  254TMC3    H2 3856   1.898   3.659  15.937  1.2692  0.9147 -0.0589
  254TMC3    C7 3857   2.156   3.605  15.861 -0.5527 -0.0240  0.2993
  254TMC3    C8 3858   1.695   3.700  15.791  0.0512 -0.4857 -0.7171
  254TMC3    O1 3859   2.128   3.584  15.977 -0.1818 -0.2219 -0.1407
  254TMC3    O2 3860   1.716   3.814  15.836 -0.0459 -0.0428  0.2313
  255MPD2     C 3861   0.697   1.295  10.493 -0.0842  1.1423 -0.3599
  255MPD2    C1 3862   0.808   1.363  10.439 -0.6018 -0.0264 -1.2545
  255MPD2    C2 3863   0.886   1.297  10.344  0.5670 -0.0343  0.0430
  255MPD2    C3 3864   0.867   1.166  10.314  0.5328  0.5359  0.1157
  255MPD2    C4 3865   0.756   1.097  10.360 -0.5823 -0.3499  0.1232
  255MPD2    C5 3866   0.669   1.170  10.437  0.1766 -0.0321 -0.5586
  255MPD2     H 3867   0.971   1.349  10.303  0.9012 -1.0233 -0.5197
  255MPD2    H1 3868   0.735   0.993  10.339 -0.6406 -0.1737 -0.6954
  255MPD2    H2 3869   0.633   1.332  10.572 -2.3747  0.1847 -1.7644
  255MPD2    H3 3870   0.594   1.103  10.479  1.0442 -0.4859  0.2743
  255MPD2     N 3871   0.973   1.111  10.236  0.0345 -0.0140 -0.5193
  255MPD2    H5 3872   1.050   1.176  10.225  0.0701 -0.6837 -4.0780
  255MPD2    N1 3873   0.844   1.494  10.474  0.7076 -0.3380 -0.1048
  255MPD2    H7 3874   0.934   1.525  10.439  0.4470  3.2941  2.4934
  256TMC3    C1 3875   0.877   1.698  10.580 -0.1242  0.0953 -0.0468
  256TMC3    C2 3876   1.010   1.697  10.531 -0.1187 -0.7989 -1.0212
  256TMC3    C3 3877   1.080   1.813  10.531  0.6628 -0.6231 -0.8906
  256TMC3    C4 3878   0.813   1.805  10.630 -0.1168  0.3164  0.6160
  256TMC3    C5 3879   0.889   1.918  10.635  0.1750 -0.5061  0.0365
  256TMC3    C6 3880   1.020   1.927  10.581 -0.1275 -0.0157 -0.4085
  256TMC3     C 3881   0.791   1.587  10.554  0.0254 -0.3824 -0.0083
  256TMC3     O 3882   0.681   1.584  10.610  0.6486 -0.0405  0.5433
  256TMC3     H 3883   1.073   1.611  10.514 -0.2844 -0.7698 -1.8094
  256TMC3    H1 3884   0.706   1.809  10.649 -0.6401  0.6689 -2.4752
  256TMC3    H2 3885   1.064   2.025  10.565 -0.9373  0.5656  0.9687
  256TMC3    C7 3886   0.810   2.039  10.627 -0.1375 -0.5206  0.2294
  256TMC3    C8 3887   1.175   1.823  10.424 -0.0970  0.1399 -0.0963
  256TMC3    O1 3888   0.692   2.016  10.611  0.0294  0.3448 -0.3027
  256TMC3    O2 3889   1.238   1.721  10.398 -0.3828 -0.3351 -0.1080
  257MPD2     C 3890   4.387   3.945  12.866  0.1808 -1.0984  0.3824
  257MPD2    C1 3891   4.372   3.820  12.803 -0.3444  0.6600  0.2934
  257MPD2    C2 3892   4.350   3.709  12.883  0.4075 -0.1250  0.1012
  257MPD2    C3 3893   4.355   3.717  13.023  0.1299  0.1809  0.1416
  257MPD2    C4 3894   4.373   3.844  13.080  0.6922  0.0940  0.6478
  257MPD2    C5 3895   4.377   3.954  13.005 -0.7478 -0.2742  0.1042
  257MPD2     H 3896   4.338   3.612  12.837 -1.3580 -0.3882  1.1022
  257MPD2    H1 3897   4.394   3.857  13.186  0.8884  2.7828  0.2699
  257MPD2    H2 3898   4.405   4.035  12.808  1.2709 -1.1321  0.6701
  257MPD2    H3 3899   4.412   4.049  13.043  0.3973 -1.0526  0.9903
  257MPD2     N 3900   4.343   3.602  13.106 -0.2076 -0.0611 -1.1305
  257MPD2    H5 3901   4.357   3.514  13.057 -2.2060 -0.0005 -1.8031
  257MPD2    N1 3902   4.384   3.819  12.660 -0.3243 -0.2908 -0.0045
  257MPD2    H7 3903   4.394   3.913  12.622  2.2620  0.1288  1.7143
  258TMC3    C1 3904   4.312   3.477  13.304 -0.0968  0.1105  0.0733
  258TMC3    C2 3905   4.385   3.378  13.249 -0.4343  0.2563  0.1718
  258TMC3    C3 3906   4.418   3.272  13.335 -0.5661  0.4258  0.0624
  258TMC3    C4 3907   4.269   3.472  13.433 -0.0604  0.2544 -0.2143
  258TMC3    C5 3908   4.294   3.362  13.506 -0.3807  0.3223 -0.1882
  258TMC3    C6 3909   4.366   3.254  13.464 -0.0524  0.3748 -0.0060
  258TMC3     C 3910   4.287   3.606  13.231  0.2688  0.7006 -0.9509
  258TMC3     O 3911   4.259   3.709  13.290  0.4632 -0.0600  0.8921
  258TMC3     H 3912   4.419   3.389  13.147 -0.4893 -3.2415 -0.2232
  258TMC3    H1 3913   4.226   3.562  13.475 -2.0849 -0.3905 -0.9389
  258TMC3    H2 3914   4.379   3.167  13.527  0.9667  0.3527 -0.2495
  258TMC3    C7 3915   4.259   3.372  13.650  0.0072  0.6558  0.5150
  258TMC3    C8 3916   4.473   3.150  13.271  0.1704 -0.0551 -0.9035
  258TMC3    O1 3917   4.196   3.465  13.691  0.0434 -0.0963 -0.3527
  258TMC3    O2 3918   4.447   3.042  13.323 -0.0565  0.1942  0.2465
  259MPD2     C 3919   3.228   3.659   1.590  0.7855  0.8181 -0.1161
  259MPD2    C1 3920   3.287   3.781   1.577  0.0793 -0.4064  1.0050
  259MPD2    C2 3921   3.393   3.804   1.492  0.5066  0.1259 -0.5518
  259MPD2    C3 3922   3.439   3.696   1.412  0.3732 -0.1211 -0.1869
  259MPD2    C4 3923   3.375   3.575   1.423  0.5781 -0.0658 -0.5337
  259MPD2    C5 3924   3.272   3.560   1.515  0.6506 -0.3718 -0.2290
  259MPD2     H 3925   3.452   3.895   1.489  1.0891 -0.2266  0.3189
  259MPD2    H1 3926   3.400   3.492   1.357  0.3844 -1.9520  1.7823
  259MPD2    H2 3927   3.136   3.651   1.647  1.0482  0.9805  0.3250
  259MPD2    H3 3928   3.211   3.470   1.520  1.1065 -0.7383 -1.3708
  259MPD2     N 3929   3.538   3.737   1.314  0.4051 -0.1703  0.2143
  259MPD2    H5 3930   3.555   3.834   1.292 -1.2806  0.5271  1.9350
  259MPD2    N1 3931   3.219   3.881   1.654 -0.3857 -0.0494 -0.3207
  259MPD2    H7 3932   3.136   3.848   1.702  0.4703  0.7749  1.7659
  260TMC3    C1 3933   3.705   3.718   1.157 -0.2693 -0.5022  0.1263
  260TMC3    C2 3934   3.832   3.673   1.155  0.5707 -0.3456  0.3218
  260TMC3    C3 3935   3.902   3.702   1.040 -0.5470 -0.2202 -0.1332
  260TMC3    C4 3936   3.639   3.779   1.055  0.3786  0.0571 -0.7792
  260TMC3    C5 3937   3.715   3.813   0.951 -0.0221 -0.1834 -0.4208
  260TMC3    C6 3938   3.849   3.782   0.941  0.2678 -0.1793  0.0395
  260TMC3     C 3939   3.621   3.652   1.251  0.9938 -0.3113  0.1806
  260TMC3     O 3940   3.640   3.531   1.263  0.2318 -0.4139  0.4594
  260TMC3     H 3941   3.879   3.624   1.240 -0.7475 -1.2127  0.5461
  260TMC3    H1 3942   3.532   3.795   1.063  0.0584 -0.6799 -3.6299
  260TMC3    H2 3943   3.908   3.806   0.854  0.2919  0.7061  0.2916
  260TMC3    C7 3944   3.658   3.881   0.834  0.4476  0.3720  0.7470
  260TMC3    C8 3945   4.037   3.650   1.014  0.1504 -0.1067 -0.2146
  260TMC3    O1 3946   3.736   3.896   0.746  0.0634 -0.2012 -0.0161
  260TMC3    O2 3947   4.120   3.618   1.099 -0.5926 -0.2594 -0.3162
  261MPD2     C 3948   0.314   3.427  11.979  0.1174  0.3898  0.2221
  261MPD2    C1 3949   0.345   3.535  12.049  0.7225 -0.0304  0.4410
  261MPD2    C2 3950   0.374   3.651  11.981 -0.3757  0.0015 -0.4532
  261MPD2    C3 3951   0.353   3.661  11.848  0.3464 -0.0420  0.7092
  261MPD2    C4 3952   0.324   3.551  11.775 -0.6631  0.3460  0.8693
  261MPD2    C5 3953   0.298   3.433  11.846 -0.1800 -0.1850 -0.5169
  261MPD2     H 3954   0.404   3.732  12.046  0.1788 -1.1716  0.7511
  261MPD2    H1 3955   0.323   3.549  11.667 -0.6521 -0.8753  0.8967
  261MPD2    H2 3956   0.285   3.332  12.022 -1.6953  0.5126 -0.7358
  261MPD2    H3 3957   0.282   3.341  11.792 -0.5722  0.1656 -0.9929
  261MPD2     N 3958   0.391   3.768  11.769 -0.1084 -0.3326  0.2241
  261MPD2    H5 3959   0.406   3.742  11.672  0.2011  1.9299 -0.3305
  261MPD2    N1 3960   0.357   3.537  12.194  0.8641 -0.5347 -1.0325
  261MPD2    H7 3961   0.385   3.626  12.235 -0.9160 -0.1626 -0.6362
  262TMC3    C1 3962   0.461   3.991  11.718  0.3401 -0.1724 -0.3187
  262TMC3    C2 3963   0.412   4.113  11.735 -0.5603  0.3464 -0.0443
  262TMC3    C3 3964   0.414   4.202  11.632 -0.1866 -0.0392  0.3056
  262TMC3    C4 3965   0.496   3.939  11.594  0.2137 -0.4097 -0.3446
  262TMC3    C5 3966   0.521   4.031  11.500  0.0382  0.8206  0.5035
  262TMC3    C6 3967   0.473   4.162  11.512 -0.5130  0.3755 -0.1107
  262TMC3     C 3968   0.437   3.896  11.819 -0.0946 -0.2771 -0.4984
  262TMC3     O 3969   0.440   3.939  11.933 -0.4524  0.2000  0.3003
  262TMC3     H 3970   0.382   4.147  11.833  3.3753  2.2570  0.5233
  262TMC3    H1 3971   0.537   3.839  11.579  2.0024  0.1906  0.5552
  262TMC3    H2 3972   0.450   4.221  11.424 -0.0583 -0.4474 -0.7739
  262TMC3    C7 3973   0.578   3.984  11.387 -0.2558  0.2941 -0.0895
  262TMC3    C8 3974   0.344   4.326  11.641 -0.3970 -0.3552  0.2588
  262TMC3    O1 3975   0.588   3.864  11.368  0.2520  1.2354  0.4049
  262TMC3    O2 3976   0.350   4.396  11.539  0.4697 -0.8408 -0.0214
  263MPD2     C 3977   1.719   3.631  11.910 -1.3144 -0.3431  0.6275
  263MPD2    C1 3978   1.829   3.591  11.838 -0.8207 -0.1928 -0.2068
  263MPD2    C2 3979   1.837   3.629  11.708  0.7717  0.4577  0.3487
  263MPD2    C3 3980   1.741   3.715  11.657 -0.5742  0.1884  0.9577
  263MPD2    C4 3981   1.628   3.748  11.733 -1.0398  0.6062 -0.4718
  263MPD2    C5 3982   1.612   3.702  11.858 -0.4529 -0.1401  0.2391
  263MPD2     H 3983   1.921   3.606  11.643  0.9201 -1.5739  1.2658
  263MPD2    H1 3984   1.541   3.805  11.701 -2.1182 -0.1610  1.0921
  263MPD2    H2 3985   1.715   3.597  12.013 -1.8094  2.2891  1.4809
  263MPD2    H3 3986   1.520   3.716  11.913 -0.4000  1.2343 -0.0172
  263MPD2     N 3987   1.754   3.762  11.525 -0.0404  0.8568  0.5532
  263MPD2    H5 3988   1.829   3.717  11.473 -0.9750  0.0022 -0.0551
  263MPD2    N1 3989   1.924   3.514  11.907 -0.0621  0.1251  0.2958
  263MPD2    H7 3990   1.903   3.485  12.002  3.6331  0.3160  1.1671
  264TMC3    C1 3991   1.726   3.908  11.353  0.8449  0.1197 -0.1511
  264TMC3    C2 3992   1.675   4.032  11.316  0.2953 -0.6214  0.7424
  264TMC3    C3 3993   1.664   4.048  11.179 -0.3418  0.0294 -0.6684
  264TMC3    C4 3994   1.765   3.812  11.265 -0.6312 -0.1594 -0.2579
  264TMC3    C5 3995   1.741   3.835  11.140  0.0394 -0.5882  0.8442
  264TMC3    C6 3996   1.683   3.952  11.091  0.7932  0.9457  0.3448
  264TMC3     C 3997   1.682   3.869  11.478  0.3125  0.4809  0.2669
  264TMC3     O 3998   1.602   3.947  11.537 -0.1617 -0.4459 -0.6035
  264TMC3     H 3999   1.648   4.110  11.386  1.1884  0.7283 -0.4199
  264TMC3    H1 4000   1.807   3.713  11.279 -1.1664  0.1320  3.2992
  264TMC3    H2 4001   1.666   3.968  10.985  0.1049 -0.7634  0.1934
  264TMC3    C7 4002   1.845   3.789  11.054  0.0964 -0.0428 -0.1815
  264TMC3    C8 4003   1.729   4.163  11.119  0.2058  0.6928  0.1404
  264TMC3    O1 4004   1.873   3.670  11.046 -0.2444 -0.2982 -0.0877
  264TMC3    O2 4005   1.799   4.141  11.025 -0.1743  0.0656 -0.3204
  265MPD2     C 4006   3.531   3.382  15.565  0.0880 -0.3570 -0.1970
  265MPD2    C1 4007   3.570   3.498  15.500  0.3100  0.2271 -0.8629
  265MPD2    C2 4008   3.593   3.501  15.360  0.3707  0.7451  0.6587
  265MPD2    C3 4009   3.580   3.383  15.286  0.4547  0.3386 -0.1212
  265MPD2    C4 4010   3.527   3.275  15.353 -0.7909 -0.1598 -0.6077
  265MPD2    C5 4011   3.500   3.274  15.490 -0.7695 -0.5546 -1.0099
  265MPD2     H 4012   3.620   3.595  15.314 -0.1523  0.2265 -0.7043
  265MPD2    H1 4013   3.507   3.180  15.305 -0.4379 -0.5848  0.0832
  265MPD2    H2 4014   3.513   3.369  15.671 -0.6431  0.4742 -0.2174
  265MPD2    H3 4015   3.476   3.179  15.537  0.4084 -0.1213  0.4366
  265MPD2     N 4016   3.600   3.365  15.150 -0.1870  0.4983 -0.4746
  265MPD2    H5 4017   3.597   3.269  15.117  0.1705 -0.3527  2.0060
  265MPD2    N1 4018   3.587   3.622  15.570  0.7319  0.1833  0.3140
  265MPD2    H7 4019   3.591   3.707  15.515  1.4339 -1.0693 -1.5998
  266TMC3    C1 4020   3.595   3.775  15.755 -0.1624 -0.1099 -0.3919
  266TMC3    C2 4021   3.637   3.806  15.881  0.1991  0.6186  0.1180
  266TMC3    C3 4022   3.611   3.931  15.922  0.0636  0.2223 -0.2662
  266TMC3    C4 4023   3.543   3.870  15.676  0.2431  0.1163  0.2392
  266TMC3    C5 4024   3.520   3.998  15.723  0.0801 -0.2429 -0.1739
  266TMC3    C6 4025   3.563   4.032  15.846  0.7049 -1.1648  0.4245
  266TMC3     C 4026   3.592   3.642  15.707 -0.1578 -0.3994 -0.1230
  266TMC3     O 4027   3.615   3.561  15.793  0.2735 -0.3659 -0.0495
  266TMC3     H 4028   3.665   3.729  15.952 -0.4831  0.9974  0.7925
  266TMC3    H1 4029   3.496   3.849  15.581  0.8318 -1.7835  0.3646
  266TMC3    H2 4030   3.548   4.132  15.886 -0.8862 -1.8901  1.6826
  266TMC3    C7 4031   3.483   4.096  15.628 -0.3435 -0.4425  0.6077
  266TMC3    C8 4032   3.655   3.959  16.054 -0.2692  0.5119 -0.0467
  266TMC3    O1 4033   3.499   4.070  15.507 -0.0193 -0.0383 -0.2727
  266TMC3    O2 4034   3.741   3.885  16.100 -0.1356  0.1434  0.1455
  267MPD2     C 4035   1.903   4.628  17.413 -0.1313 -0.0331 -0.5572
  267MPD2    C1 4036   1.894   0.029  17.358 -0.2494  0.1609 -0.2316
  267MPD2    C2 4037   1.770   0.095  17.344 -0.6673 -0.0062  0.0149
  267MPD2    C3 4038   1.654   0.027  17.389 -0.0338 -0.1752 -0.2727
  267MPD2    C4 4039   1.663   4.618  17.432 -0.6737 -0.3011  0.6541
  267MPD2    C5 4040   1.789   4.566  17.455  0.4838  0.4109 -0.3876
  267MPD2     H 4041   1.769   0.203  17.332 -1.0291 -0.0238 -0.1287
  267MPD2    H1 4042   1.570   4.567  17.454  0.4102 -2.4621  0.3061
  267MPD2    H2 4043   1.999   4.582  17.436 -0.7172 -1.4632 -0.9844
  267MPD2    H3 4044   1.798   4.471  17.506 -0.8925  1.1076  1.1546
  267MPD2     N 4045   1.527   0.084  17.391 -0.0880  0.2571 -0.0260
  267MPD2    H5 4046   1.454   0.019  17.419  1.9664 -2.2124 -0.4997
  267MPD2    N1 4047   2.016   0.093  17.327 -0.4759 -0.1765  1.0514
  267MPD2    H7 4048   2.104   0.051  17.357  0.7183  0.7980 -1.0853
  268TMC3    C1 4049   2.149   0.283  17.313 -0.1713 -0.4579  0.8116
  268TMC3    C2 4050   2.143   0.409  17.258 -0.6406 -0.2566  1.1243
  268TMC3    C3 4051   2.181   0.520  17.328 -0.5800 -0.0172  0.1120
  268TMC3    C4 4052   2.198   0.267  17.440 -0.3825  0.1485 -0.5322
  268TMC3    C5 4053   2.217   0.386  17.516 -0.2299 -0.2073  0.1339
  268TMC3    C6 4054   2.208   0.511  17.463 -0.5205  0.2752 -0.1285
  268TMC3     C 4055   2.024   0.220  17.290  0.3188 -1.2379 -0.9553
  268TMC3     O 4056   1.939   0.276  17.223  0.0546  0.1945  0.5717
  268TMC3     H 4057   2.116   0.409  17.152  0.8372 -2.0215  0.7366
  268TMC3    H1 4058   2.181   0.176  17.497  0.4123 -0.4733 -1.2893
  268TMC3    H2 4059   2.233   0.594  17.528 -3.0974  0.0852  1.0633
  268TMC3    C7 4060   2.174   0.363  17.655 -0.3218  0.3813 -0.0745
  268TMC3    C8 4061   2.178   0.654  17.272 -0.2327 -0.2327 -0.1686
  268TMC3    O1 4062   2.195   0.249   0.001 -0.2690  0.2526 -0.7932
  268TMC3    O2 4063   2.240   0.745  17.330  0.0216  0.5634 -0.3552
  269MPD2     C 4064   1.280   3.808  15.644  0.2701  0.3006 -0.2402
  269MPD2    C1 4065   1.154   3.850  15.676  0.2664  0.1487 -0.3069
  269MPD2    C2 4066   1.127   3.980  15.705  0.4507  0.7872 -0.7547
  269MPD2    C3 4067   1.237   4.072  15.710 -0.3011  0.2612  0.0774
  269MPD2    C4 4068   1.363   4.019  15.687 -0.6045 -0.3143 -0.4423
  269MPD2    C5 4069   1.385   3.889  15.651  0.1248  0.0550 -0.1217
  269MPD2     H 4070   1.025   4.007  15.731  0.9433  1.9285  0.0403
  269MPD2    H1 4071   1.458   4.069  15.698  0.2364 -1.8599 -0.7712
  269MPD2    H2 4072   1.301   3.707  15.611  2.0744  0.9809 -1.1498
  269MPD2    H3 4073   1.482   3.845  15.634  0.0349 -0.2778  0.2150
  269MPD2     N 4074   1.202   4.208  15.736  0.0751  0.3162 -0.2349
  269MPD2    H5 4075   1.105   4.224  15.762 -0.7449 -0.6977 -2.6911
  269MPD2    N1 4076   1.054   3.748  15.671  0.1271 -0.4332  0.0895
  269MPD2    H7 4077   1.082   3.651  15.661  2.3959  0.2421 -0.2029
  270TMC3    C1 4078   0.860   3.631  15.646  0.1525  0.3341  0.3411
  270TMC3    C2 4079   0.750   3.628  15.558 -0.8085  0.0951 -0.3026
  270TMC3    C3 4080   0.680   3.513  15.563  0.5117  0.4911 -0.4540
  270TMC3    C4 4081   0.894   3.534  15.736 -0.4021 -0.0054 -1.1564
  270TMC3    C5 4082   0.812   3.430  15.747 -0.2092 -0.3253  0.1559
  270TMC3    C6 4083   0.706   3.413  15.654 -0.4914 -0.0178 -0.0489
  270TMC3     C 4084   0.924   3.760  15.655  0.6182  0.4174 -0.3585
  270TMC3     O 4085   0.854   3.860  15.640  0.1312  0.4074 -0.0062
  270TMC3     H 4086   0.732   3.699  15.478 -0.6409  0.4884  0.0103
  270TMC3    H1 4087   0.979   3.539  15.803 -1.1751  1.1549 -0.2689
  270TMC3    H2 4088   0.635   3.331  15.659  0.0515 -0.5765 -1.7129
  270TMC3    C7 4089   0.898   3.315  15.752 -0.7603  0.2873 -0.7422
  270TMC3    C8 4090   0.664   3.453  15.430 -0.1328  0.0934 -0.3026
  270TMC3    O1 4091   1.011   3.326  15.711  0.2150  0.0673  0.8714
  270TMC3    O2 4092   0.632   3.519  15.331 -0.4870  0.3577  0.4099
  271MPD2     C 4093   0.465   4.020  14.005 -0.0011  0.2269  0.0475
  271MPD2    C1 4094   0.350   3.943  14.014 -0.1040 -0.6111 -0.3888
  271MPD2    C2 4095   0.237   3.989  13.949 -0.3858  0.4131  0.1501
  271MPD2    C3 4096   0.241   4.088  13.861  0.0831 -0.4432  0.4446
  271MPD2    C4 4097   0.358   4.152  13.844  1.0646 -0.5346  0.2384
  271MPD2    C5 4098   0.469   4.119  13.913 -0.2442 -0.0058 -0.4361
  271MPD2     H 4099   0.138   3.946  13.963 -0.3990 -0.1880 -1.7299
  271MPD2    H1 4100   0.377   4.226  13.768 -0.3621 -0.6228 -0.1930
  271MPD2    H2 4101   0.552   3.990  14.063 -1.1078 -1.7852  0.6934
  271MPD2    H3 4102   0.564   4.168  13.892 -0.7861  1.1980 -0.1199
  271MPD2     N 4103   0.133   4.137  13.781 -0.2237  0.3079  0.2202
  271MPD2    H5 4104   0.144   4.232  13.748 -1.4884  0.1418 -0.6788
  271MPD2    N1 4105   0.348   3.822  14.092 -0.1757  0.1062 -0.0665
  271MPD2    H7 4106   0.256   3.785  14.110  0.6286 -3.6971 -3.6686
  272TMC3    C1 4107   0.433   3.637  14.220 -0.5924 -0.1501 -0.2625
  272TMC3    C2 4108   0.534   3.545  14.224  0.4427 -0.0247 -0.1791
  272TMC3    C3 4109   0.567   3.499  14.350  0.2202  0.3522  0.4255
  272TMC3    C4 4110   0.354   3.667  14.331 -0.4593 -0.8757  0.4011
  272TMC3    C5 4111   0.387   3.613  14.449  0.9142  0.3055 -0.0418
  272TMC3    C6 4112   0.499   3.535  14.463  0.3911 -0.3029  0.1528
  272TMC3     C 4113   0.461   3.746  14.121  0.1016 -0.2394  0.0702
  272TMC3     O 4114   0.572   3.756  14.068 -0.2383 -0.1409 -0.4849
  272TMC3     H 4115   0.595   3.514  14.139 -2.1066 -0.5349 -1.8431
  272TMC3    H1 4116   0.278   3.745  14.325 -0.1141 -0.5276  0.5135
  272TMC3    H2 4117   0.522   3.499  14.563  0.6653  1.3331  0.6783
  272TMC3    C7 4118   0.331   3.678  14.567  0.1121 -0.0821  0.2004
  272TMC3    C8 4119   0.700   3.445  14.369  0.1686  0.4216 -0.2719
  272TMC3    O1 4120   0.244   3.762  14.540 -0.1826  0.1666 -0.4941
  272TMC3    O2 4121   0.779   3.489  14.284 -0.3346  0.5735  0.3872
  273MPD2     C 4122   2.547   2.070  12.264 -0.3142  0.1334 -0.1478
  273MPD2    C1 4123   2.665   2.128  12.219 -0.0767 -0.0297 -0.0956
  273MPD2    C2 4124   2.665   2.186  12.089 -0.8923  0.7035 -0.2689
  273MPD2    C3 4125   2.548   2.196  12.011  0.5150 -0.3130  0.0751
  273MPD2    C4 4126   2.431   2.132  12.060 -0.2006 -0.2783  0.5202
  273MPD2    C5 4127   2.437   2.079  12.183  0.5441 -0.4143  0.1646
  273MPD2     H 4128   2.759   2.227  12.052  0.5059 -0.3932  2.0548
  273MPD2    H1 4129   2.339   2.137  12.004 -0.6261 -5.0353  0.8084
  273MPD2    H2 4130   2.540   2.018  12.359  1.2721 -1.9824 -1.1740
  273MPD2    H3 4131   2.348   2.036  12.227  0.3294 -0.0505  0.0933
  273MPD2     N 4132   2.544   2.243  11.874 -0.1621 -1.0652  0.6663
  273MPD2    H5 4133   2.452   2.248  11.832 -0.1221  1.1234  0.8529
  273MPD2    N1 4134   2.784   2.114  12.296 -0.7043 -0.5558  0.0707
  273MPD2    H7 4135   2.763   2.065  12.382 -0.5074 -3.8323 -1.7327
  274TMC3    C1 4136   2.619   2.390  11.717  0.4674  0.6032  0.8721
  274TMC3    C2 4137   2.517   2.358  11.634 -0.1501 -0.6944  0.0532
  274TMC3    C3 4138   2.465   2.465  11.565 -0.3071  0.6810  0.1152
  274TMC3    C4 4139   2.672   2.513  11.723  0.1819 -0.1677  0.1944
  274TMC3    C5 4140   2.608   2.617  11.673  0.6917  0.2848 -0.3697
  274TMC3    C6 4141   2.497   2.597  11.591 -0.5241  0.2206  0.4071
  274TMC3     C 4142   2.659   2.287  11.808 -0.0734 -0.2052 -0.3685
  274TMC3     O 4143   2.778   2.295  11.833 -0.1449  0.4708  0.0474
  274TMC3     H 4144   2.467   2.262  11.629 -1.7788 -0.0035  3.1747
  274TMC3    H1 4145   2.759   2.534  11.785 -0.5257 -2.8334  2.0984
  274TMC3    H2 4146   2.465   2.678  11.525  0.8600  2.1899  2.1703
  274TMC3    C7 4147   2.603   2.737  11.753  0.8038 -0.1112 -0.1442
  274TMC3    C8 4148   2.377   2.431  11.464  0.7232  0.2486 -0.3508
  274TMC3    O1 4149   2.497   2.797  11.735  0.0567  0.2159 -0.2385
  274TMC3    O2 4150   2.279   2.506  11.451  0.5263  0.5992  0.2256
  275MPD2     C 4151   1.747   4.491  14.418 -0.6717  0.1412 -0.3489
  275MPD2    C1 4152   1.679   4.540  14.527 -0.1031  0.2271 -0.0039
  275MPD2    C2 4153   1.542   4.539  14.533 -0.1853 -0.2654 -0.1525
  275MPD2    C3 4154   1.471   4.482  14.426 -0.2638  0.7221  0.0856
  275MPD2    C4 4155   1.540   4.443  14.312  0.6979  0.2124  0.0329
  275MPD2    C5 4156   1.677   4.440  14.308  0.0293 -0.0674  0.3187
  275MPD2     H 4157   1.493   4.574  14.624 -0.5759  0.5889 -0.6991
  275MPD2    H1 4158   1.486   4.424  14.220 -1.9912  0.4674  1.5491
  275MPD2    H2 4159   1.855   4.487  14.412 -0.7654 -1.0774 -1.1991
  275MPD2    H3 4160   1.734   4.404  14.223  0.4541  1.0797  0.1197
  275MPD2     N 4161   1.327   4.494  14.415 -0.5329 -0.2649  0.2431
  275MPD2    H5 4162   1.279   4.449  14.338 -0.2628 -2.2784  1.2352
  275MPD2    N1 4163   1.743   4.582  14.647 -0.0940  0.3443  0.5033
  275MPD2    H7 4164   1.680   4.615  14.719 -2.0070 -1.1643 -0.4899
  276TMC3    C1 4165   1.886   4.568  14.821 -0.1926 -0.5101  0.1507
  276TMC3    C2 4166   1.787   4.506  14.893 -0.0520  0.0653  0.7288
  276TMC3    C3 4167   1.812   4.484  15.028 -0.0496  0.0319 -0.9956
  276TMC3    C4 4168   2.008   4.608  14.873  0.0121  0.5708  0.4101
  276TMC3    C5 4169   2.020   4.585  15.007  0.0219 -0.1218  0.0698
  276TMC3    C6 4170   1.924   4.527  15.091 -0.2441  0.5092  0.2493
  276TMC3     C 4171   1.873   4.577  14.676 -0.1044  0.0713  0.0545
  276TMC3     O 4172   1.974   4.562  14.610 -0.2152  0.0955 -0.1371
  276TMC3     H 4173   1.690   4.483  14.852 -0.4294  0.7825  1.2222
  276TMC3    H1 4174   2.088   4.655  14.817 -1.7278  1.1158 -1.6223
  276TMC3    H2 4175   1.954   4.489  15.188 -0.2926 -3.0047 -1.0905
  276TMC3    C7 4176   2.143   4.617  15.075 -0.5370 -0.1453 -0.1465
  276TMC3    C8 4177   1.731   4.389  15.092 -0.2063  0.4913  0.9392
  276TMC3    O1 4178   2.143   4.654  15.189 -0.2024 -0.9987 -0.2697
  276TMC3    O2 4179   1.704   4.394  15.212  0.2023  0.1542  0.0001
  277MPD2     C 4180   3.834   3.532  13.589 -0.0252 -0.2331 -0.2718
  277MPD2    C1 4181   3.714   3.562  13.531 -0.1481  0.1750 -0.0575
  277MPD2    C2 4182   3.601   3.533  13.596  0.3354  0.6230  0.4372
  277MPD2    C3 4183   3.599   3.475  13.719  0.2045  0.2681  1.0292
  277MPD2    C4 4184   3.716   3.432  13.775  0.3675 -0.2610  0.4985
  277MPD2    C5 4185   3.832   3.477  13.715  0.0295 -0.5436  0.1138
  277MPD2     H 4186   3.506   3.550  13.546  0.7287 -0.1462 -0.5735
  277MPD2    H1 4187   3.735   3.392  13.874 -1.5576  1.1444  1.4546
  277MPD2    H2 4188   3.930   3.566  13.551 -0.9233  0.2567 -2.1095
  277MPD2    H3 4189   3.924   3.453  13.767  0.8270  0.1116 -0.9787
  277MPD2     N 4190   3.472   3.463  13.779  0.6051  0.0049 -0.2867
  277MPD2    H5 4191   3.391   3.483  13.722 -0.3617 -1.5597  0.5442
  277MPD2    N1 4192   3.704   3.621  13.407 -0.2673 -0.3191  0.5020
  277MPD2    H7 4193   3.611   3.650  13.378 -0.8787 -2.6260  0.1330
  278TMC3    C1 4194   3.309   3.405  13.946  0.7779  0.1699 -0.7574
  278TMC3    C2 4195   3.282   3.329  14.051  0.3667 -0.3653  0.9914
  278TMC3    C3 4196   3.154   3.292  14.081  0.0192 -0.6497  0.2802
  278TMC3    C4 4197   3.203   3.455  13.873  0.6866 -0.4124 -0.4132
  278TMC3    C5 4198   3.075   3.434  13.918 -1.1394  0.0292  0.0424
  278TMC3    C6 4199   3.047   3.350  14.017 -0.2672 -0.6004 -0.1788
  278TMC3     C 4200   3.450   3.408  13.903 -0.0033  0.0927  0.7067
  278TMC3     O 4201   3.529   3.345  13.972  0.3877 -0.3691 -0.3283
  278TMC3     H 4202   3.363   3.283  14.107  1.2467 -0.5427 -0.4033
  278TMC3    H1 4203   3.218   3.524  13.790 -1.3573  1.0098  0.3980
  278TMC3    H2 4204   2.943   3.325  14.036  0.0278 -0.3541  1.7592
  278TMC3    C7 4205   2.968   3.489  13.842 -0.3499 -0.2807 -0.0402
  278TMC3    C8 4206   3.143   3.154  14.121 -0.2896 -0.4781  0.1074
  278TMC3    O1 4207   2.995   3.573  13.760 -0.0714 -0.4240 -0.1393
  278TMC3    O2 4208   3.199   3.122  14.227  0.6199  0.5983  0.2556
  279MPD2     C 4209   3.187   3.534   0.198 -0.3939 -0.1361 -0.3558
  279MPD2    C1 4210   3.064   3.520   0.140 -0.3197  0.3181  0.3394
  279MPD2    C2 4211   3.055   3.521   0.003  1.0048 -0.3982  0.0702
  279MPD2    C3 4212   3.165   3.560  17.626 -0.8752 -0.4940 -0.6683
  279MPD2    C4 4213   3.291   3.581  17.687  0.2639  0.3371  0.4346
  279MPD2    C5 4214   3.294   3.567   0.124 -0.3833 -0.1797  0.0960
  279MPD2     H 4215   2.961   3.507  17.651  0.1357  2.0171  1.0520
  279MPD2    H1 4216   3.377   3.601  17.625 -0.4430 -0.5525 -0.8364
  279MPD2    H2 4217   3.200   3.518   0.304  0.3396  1.0991 -0.2558
  279MPD2    H3 4218   3.391   3.574   0.171  0.2040  1.2138 -1.3267
  279MPD2     N 4219   3.154   3.610  17.494 -0.3297  0.4901  0.0932
  279MPD2    H5 4220   3.237   3.658  17.459 -1.0578  0.5575 -1.5192
  279MPD2    N1 4221   2.954   3.501   0.222 -0.4098  0.3868 -0.9122
  279MPD2    H7 4222   2.968   3.520   0.320  2.7199 -0.8459 -1.0947
  280TMC3    C1 4223   2.743   3.416   0.276  0.0194  1.2344  0.3548
  280TMC3    C2 4224   2.642   3.341   0.227  0.1863 -0.0334 -0.3257
  280TMC3    C3 4225   2.512   3.392   0.246  0.3689  0.0184 -0.2031
  280TMC3    C4 4226   2.724   3.525   0.351 -0.8120 -0.7602  0.7285
  280TMC3    C5 4227   2.594   3.577   0.364 -0.1424  0.0622 -0.1820
  280TMC3    C6 4228   2.485   3.508   0.314  0.5289 -0.3483 -0.3209
  280TMC3     C 4229   2.853   3.419   0.179 -0.2146 -0.1205 -0.2667
  280TMC3     O 4230   2.839   3.351   0.078  1.2701  0.1502 -0.0728
  280TMC3     H 4231   2.657   3.249   0.170 -2.9324 -1.3944  1.0199
  280TMC3    H1 4232   2.805   3.583   0.393 -0.6298 -0.0231 -0.6194
  280TMC3    H2 4233   2.385   3.549   0.320  1.3718  1.3771  1.9649
  280TMC3    C7 4234   2.576   3.718   0.398 -0.3802 -0.2937  0.6704
  280TMC3    C8 4235   2.398   3.320   0.207  0.3765 -0.2510 -0.4548
  280TMC3    O1 4236   2.667   3.765   0.465  0.1570  1.0941 -0.1165
  280TMC3    O2 4237   2.286   3.363   0.243  0.5548  0.5405 -0.7999
  281TMC3    C1 4238   1.181   3.816  13.184  0.8727 -0.3619  0.1966
  281TMC3    C2 4239   1.236   3.872  13.078  0.2950  0.0529 -0.7846
  281TMC3    C3 4240   1.219   3.804  12.962  0.5444  0.7056  0.7712
  281TMC3    C4 4241   1.114   3.697  13.179  0.1145 -0.3193 -0.6711
  281TMC3    C5 4242   1.096   3.633  13.064  0.4439 -0.3734 -0.0113
  281TMC3    C6 4243   1.154   3.681  12.947  0.0994  0.0267  1.1936
  281TMC3     C 4244   1.143   3.910  13.287 -0.3997  0.3436 -0.0207
  281TMC3     O 4245   1.084   3.864  13.382 -0.0919 -0.2605  0.2857
  281TMC3     H 4246   1.298   3.960  13.073  0.2396  0.0571 -1.4215
  281TMC3    H1 4247   1.073   3.660  13.273  0.3129 -1.6084 -1.0892
  281TMC3    H2 4248   1.167   3.634  12.850  1.5572  1.2944  0.7662
  281TMC3    C7 4249   1.063   3.489  13.062  0.1053  0.1967  0.1842
  281TMC3    C8 4250   1.237   3.892  12.845  0.6656 -0.1874 -0.3555
  281TMC3    O1 4251   1.084   3.436  12.954  0.0207  0.1404 -0.4594
  281TMC3    O2 4252   1.243   4.011  12.878  0.4570 -0.7398 -0.0354
  282MPD2     C 4253   3.607   0.489  15.271  0.1319 -0.0717  0.2211
  282MPD2    C1 4254   3.476   0.537  15.293 -0.0273 -0.0352 -0.6504
  282MPD2    C2 4255   3.394   0.546  15.180 -0.1788  0.0273 -0.4872
  282MPD2    C3 4256   3.440   0.508  15.060  0.6529  0.0920 -0.4212
  282MPD2    C4 4257   3.574   0.458  15.043 -0.1543  0.5276 -0.8105
  282MPD2    C5 4258   3.659   0.456  15.150  0.0603 -0.1449  0.1392
  282MPD2     H 4259   3.301   0.602  15.175 -0.3603 -0.1991  0.3266
  282MPD2    H1 4260   3.612   0.447  14.942 -1.1730  0.5161 -1.1860
  282MPD2    H2 4261   3.682   0.491  15.350  0.6028 -0.2772 -0.2232
  282MPD2    H3 4262   3.763   0.433  15.130  0.7066  0.4141  2.7803
  282MPD2     N 4263   3.347   0.531  14.949 -0.6859  0.1367 -0.0387
  282MPD2    H5 4264   3.258   0.574  14.976 -1.5879 -0.1452 -2.5334
  282MPD2    N1 4265   3.427   0.571  15.419  0.4983 -0.6717 -0.0607
  282MPD2    H7 4266   3.327   0.589  15.424  0.1769 -2.2619 -0.8371
  283TMC3    C1 4267   3.418   0.589  15.651  0.7383  0.4621  0.0250
  283TMC3    C2 4268   3.429   0.706  15.716  0.3496 -0.6924  0.2772
  283TMC3    C3 4269   3.318   0.735  15.784  0.0739 -0.5400 -0.1772
  283TMC3    C4 4270   3.303   0.511  15.648  0.1554  0.3115 -0.6281
  283TMC3    C5 4271   3.191   0.552  15.720  0.1778 -0.1372 -0.6560
  283TMC3    C6 4272   3.196   0.672  15.789 -0.1641 -0.3088  0.0527
  283TMC3     C 4273   3.501   0.572  15.533 -0.3939 -0.8120  0.7094
  283TMC3     O 4274   3.619   0.597  15.550 -0.0105 -0.2558 -0.1252
  283TMC3     H 4275   3.519   0.766  15.710 -1.1714  1.1708 -3.8894
  283TMC3    H1 4276   3.290   0.420  15.590 -0.5124  0.4716 -0.7250
  283TMC3    H2 4277   3.107   0.712  15.836  0.0553  0.8922 -0.5670
  283TMC3    C7 4278   3.118   0.447  15.790  0.3223 -0.5846  0.3515
  283TMC3    C8 4279   3.307   0.873  15.829 -0.4336  0.1550 -0.6104
  283TMC3    O1 4280   3.093   0.478  15.905 -0.1703 -0.0516 -0.2636
  283TMC3    O2 4281   3.239   0.892  15.929 -0.1665  0.7898 -0.3723
  284MPD2     C 4282   2.203   0.348  11.806 -0.0659 -0.8037 -0.8475
  284MPD2    C1 4283   2.306   0.362  11.717  0.0198 -0.1043 -0.4832
  284MPD2    C2 4284   2.407   0.263  11.713  0.9082  1.3426 -0.4940
  284MPD2    C3 4285   2.393   0.150  11.793  0.2272  0.5565 -0.4472
  284MPD2    C4 4286   2.272   0.137  11.859  0.4204 -0.6981  0.7210
  284MPD2    C5 4287   2.191   0.238  11.881 -0.4561  0.0548  0.4910
  284MPD2     H 4288   2.489   0.283  11.645  0.7811  0.1328 -1.0092
  284MPD2    H1 4289   2.241   0.046  11.909  0.6934 -0.8314  0.6468
  284MPD2    H2 4290   2.119   0.416  11.800  0.5199 -0.0961 -1.0840
  284MPD2    H3 4291   2.092   0.215  11.920 -0.5606  2.3222  1.5628
  284MPD2     N 4292   2.485   0.037  11.796  0.0771  0.2308  0.4752
  284MPD2    H5 4293   2.452   4.676  11.839 -0.8480 -2.0210 -4.7369
  284MPD2    N1 4294   2.299   0.456  11.611  0.0735 -0.1815  0.1327
  284MPD2    H7 4295   2.354   0.437  11.528 -0.6658 -1.4860 -0.0492
  285TMC3    C1 4296   2.247   0.645  11.477  0.3878  0.3408 -0.8583
  285TMC3    C2 4297   2.259   0.571  11.361 -0.4464  0.1357  0.4120
  285TMC3    C3 4298   2.299   0.630  11.248 -0.2873  0.1766  0.1946
  285TMC3    C4 4299   2.260   0.784  11.484 -0.2522  0.2545 -0.0411
  285TMC3    C5 4300   2.299   0.837  11.361  0.4672 -0.2274 -0.5317
  285TMC3    C6 4301   2.322   0.765  11.243  0.8212  0.2434 -0.1378
  285TMC3     C 4302   2.233   0.575  11.609  0.4210  0.1676 -0.3962
  285TMC3     O 4303   2.177   0.631  11.698 -0.5391 -0.0339  0.2787
  285TMC3     H 4304   2.232   0.466  11.360  0.1288 -0.0050 -0.3131
  285TMC3    H1 4305   2.246   0.845  11.572 -1.9600  0.9663 -0.8119
  285TMC3    H2 4306   2.363   0.817  11.157  1.8837  0.1618  0.3198
  285TMC3    C7 4307   2.328   0.979  11.355 -0.4628 -0.1849  0.4526
  285TMC3    C8 4308   2.339   0.545  11.136  0.3788  1.0194 -1.0801
  285TMC3    O1 4309   2.301   1.033  11.247  0.6413  0.1835 -0.1079
  285TMC3    O2 4310   2.273   0.447  11.126  0.5378 -0.3938  0.3229
  286MPD2     C 4311   1.838   3.176   1.315  0.5100 -0.1163 -0.6885
  286MPD2    C1 4312   1.857   3.156   1.180  0.1130 -0.4695  0.3822
  286MPD2    C2 4313   1.959   3.068   1.143  0.2689  1.1048  0.2519
  286MPD2    C3 4314   2.040   3.009   1.239 -0.1193 -0.1908  0.2618
  286MPD2    C4 4315   2.017   3.034   1.370 -0.1604 -0.0798 -0.4329
  286MPD2    C5 4316   1.919   3.113   1.409 -0.0634  0.2810  0.2929
  286MPD2     H 4317   1.971   3.044   1.038 -1.1879 -2.2425  0.8402
  286MPD2    H1 4318   2.094   2.995   1.436  1.5095 -0.2755 -2.5153
  286MPD2    H2 4319   1.764   3.243   1.359 -0.0431 -1.6385  0.7079
  286MPD2    H3 4320   1.899   3.134   1.513  1.9589 -1.0721  0.9502
  286MPD2     N 4321   2.139   2.911   1.214  0.1466 -0.7486  0.0717
  286MPD2    H5 4322   2.155   2.855   1.297 -1.2649 -1.4992 -0.1652
  286MPD2    N1 4323   1.771   3.228   1.094 -0.5856 -0.3341 -0.2020
  286MPD2    H7 4324   1.705   3.287   1.143  0.4080  1.1921 -0.7085
  287TMC3    C1 4325   2.259   2.751   1.087 -0.3645  0.6624 -0.4835
  287TMC3    C2 4326   2.260   2.673   0.977 -0.1040 -0.7728 -1.3041
  287TMC3    C3 4327   2.314   2.546   0.990  0.0227 -0.3871 -0.4541
  287TMC3    C4 4328   2.333   2.731   1.197  0.7529  0.4759 -0.2965
  287TMC3    C5 4329   2.391   2.605   1.203  0.0971  0.1534 -0.3940
  287TMC3    C6 4330   2.386   2.507   1.103 -0.2413 -0.0729 -0.1431
  287TMC3     C 4331   2.172   2.869   1.087 -0.5078 -0.4257  0.2071
  287TMC3     O 4332   2.148   2.921   0.979  0.1412 -0.6202 -0.2037
  287TMC3     H 4333   2.201   2.702   0.891  1.0532  0.8311 -1.5509
  287TMC3    H1 4334   2.346   2.809   1.271 -1.1166  2.0337 -1.6100
  287TMC3    H2 4335   2.401   2.400   1.110  3.3628  0.4906  0.4935
  287TMC3    C7 4336   2.429   2.561   1.339  0.2147  0.1146 -0.1622
  287TMC3    C8 4337   2.318   2.453   0.877 -0.2116  0.0330 -0.0533
  287TMC3    O1 4338   2.376   2.613   1.438  0.2459 -0.0583 -0.4312
  287TMC3    O2 4339   2.400   2.362   0.872 -0.6885 -0.5652 -0.5657
  288TMC3    C1 4340   3.257   2.828  14.544 -0.0146 -0.1867 -0.4209
  288TMC3    C2 4341   3.215   2.753  14.664 -1.0153  0.5243  0.3138
  288TMC3    C3 4342   3.228   2.817  14.777 -1.5072  0.8878  0.5328
  288TMC3    C4 4343   3.300   2.960  14.557 -0.5133 -0.7557  0.7951
  288TMC3    C5 4344   3.289   3.026  14.676  0.1655 -0.1058 -0.0690
  288TMC3    C6 4345   3.248   2.952  14.783 -0.0352 -0.2496  0.1047
  288TMC3     C 4346   3.320   2.742  14.442 -1.3290  0.1091 -0.1734
  288TMC3     O 4347   3.280   2.628  14.445  0.5575  0.3733 -0.6701
  288TMC3     H 4348   3.203   2.646  14.658  0.1334  0.4538 -0.7831
  288TMC3    H1 4349   3.311   3.016  14.464 -0.7273 -0.4502  0.9546
  288TMC3    H2 4350   3.242   3.007  14.876 -1.6681 -2.7094  1.4560
  288TMC3    C7 4351   3.323   3.166  14.695 -0.0814 -0.0707  0.0424
  288TMC3    C8 4352   3.211   2.754  14.910  0.0569  0.0809  0.7996
  288TMC3    O1 4353   3.332   3.198  14.812 -0.9126  0.1492  0.2353
  288TMC3    O2 4354   3.224   2.828  15.006  0.5947 -0.3322 -0.0354
  289MPD2     C 4355   3.534   1.963  13.950 -0.4815  0.0391  0.6234
  289MPD2    C1 4356   3.492   2.085  13.911 -0.0696 -0.2741 -0.2539
  289MPD2    C2 4357   3.390   2.151  13.976  0.1848 -0.0720  0.1079
  289MPD2    C3 4358   3.317   2.078  14.070 -0.1846 -0.1005 -0.4577
  289MPD2    C4 4359   3.348   1.946  14.096  0.6714  0.4667 -0.7249
  289MPD2    C5 4360   3.451   1.892  14.038  0.3956 -0.4656  0.5883
  289MPD2     H 4361   3.359   2.253  13.954 -0.2910 -0.0746  0.7617
  289MPD2    H1 4362   3.301   1.904  14.184  1.2149 -0.4529 -0.8769
  289MPD2    H2 4363   3.620   1.909  13.911  0.2698  2.9837 -1.7328
  289MPD2    H3 4364   3.487   1.796  14.072 -0.1839 -1.0001 -0.3126
  289MPD2     N 4365   3.215   2.133  14.153  0.1644  0.1034 -1.0454
  289MPD2    H5 4366   3.159   2.072  14.211  0.4571  2.0125  1.2324
  289MPD2    N1 4367   3.579   2.143  13.820  0.8433  0.1907 -0.2180
  289MPD2    H7 4368   3.663   2.092  13.792  0.1163 -0.9260 -0.3602
  290TMC3    C1 4369   3.048   2.284  14.217 -0.3059  0.7907 -0.7024
  290TMC3    C2 4370   2.979   2.394  14.174 -1.0524 -0.4380  0.0225
  290TMC3    C3 4371   2.846   2.395  14.188  0.3605 -0.2135 -0.3234
  290TMC3    C4 4372   2.987   2.180  14.284  0.1532  0.2175 -0.0243
  290TMC3    C5 4373   2.852   2.194  14.302 -0.0219  0.1138 -0.6117
  290TMC3    C6 4374   2.774   2.294  14.248 -0.0846 -0.2552  0.2025
  290TMC3     C 4375   3.181   2.263  14.170  0.1724 -0.0652 -1.4140
  290TMC3     O 4376   3.247   2.362  14.141  0.3629  0.4401  0.2481
  290TMC3     H 4377   3.029   2.468  14.113 -1.8583 -0.9251 -1.2302
  290TMC3    H1 4378   3.045   2.108  14.341 -0.4905 -1.1024 -1.0503
  290TMC3    H2 4379   2.670   2.312  14.274 -0.9587 -1.2905 -2.5546
  290TMC3    C7 4380   2.777   2.100  14.389  0.0351 -0.6385 -0.1640
  290TMC3    C8 4381   2.774   2.517  14.178 -0.3030 -0.7759  0.0186
  290TMC3    O1 4382   2.678   2.145  14.440 -0.2486 -0.0052  0.1502
  290TMC3    O2 4383   2.657   2.500  14.148  0.0114  0.3967  0.0925
  291MPD2     C 4384   3.312   1.791   0.685 -0.1833 -0.4359  0.4368
  291MPD2    C1 4385   3.261   1.695   0.598 -0.5135  0.3290 -0.6546
  291MPD2    C2 4386   3.352   1.621   0.533  0.2092 -0.2203 -0.0792
  291MPD2    C3 4387   3.486   1.648   0.538 -1.1577  0.5534  0.3136
  291MPD2    C4 4388   3.535   1.750   0.621  0.2301 -0.6229 -0.7246
  291MPD2    C5 4389   3.446   1.821   0.692 -0.6862 -0.3124  0.3149
  291MPD2     H 4390   3.308   1.540   0.477 -1.2639  0.4722  0.0710
  291MPD2    H1 4391   3.642   1.770   0.624  0.1151 -0.2632  1.1626
  291MPD2    H2 4392   3.249   1.844   0.756 -0.1863 -0.0090  0.1130
  291MPD2    H3 4393   3.484   1.890   0.767  2.1112 -1.4529 -0.0634
  291MPD2     N 4394   3.582   1.565   0.467  0.2246 -0.3226  0.8413
  291MPD2    H5 4395   3.676   1.603   0.462  0.9415 -2.2356 -0.1805
  291MPD2    N1 4396   3.125   1.651   0.578 -0.1857 -0.3784  0.4145
  291MPD2    H7 4397   3.102   1.570   0.522  1.4459  0.2115 -1.0736
  292TMC3    C1 4398   2.894   1.630   0.631  0.0407 -0.1068 -0.1522
  292TMC3    C2 4399   2.783   1.678   0.703  0.2906  0.3287 -0.7689
  292TMC3    C3 4400   2.671   1.598   0.716  0.5410  0.0178 -0.2158
  292TMC3    C4 4401   2.890   1.515   0.562 -0.0983 -0.2517  0.3969
  292TMC3    C5 4402   2.770   1.448   0.568 -0.2920 -0.4517  0.2695
  292TMC3    C6 4403   2.663   1.487   0.641  0.6567 -0.5476 -0.4119
  292TMC3     C 4404   3.016   1.696   0.653  0.7415  0.2344  0.6165
  292TMC3     O 4405   3.017   1.782   0.737  0.5817 -0.2693  0.7294
  292TMC3     H 4406   2.803   1.766   0.763 -1.0796 -0.9645  1.5530
  292TMC3    H1 4407   2.971   1.477   0.502  0.4485  0.0088  0.9665
  292TMC3    H2 4408   2.578   1.421   0.657 -0.2880  0.7687  0.0296
  292TMC3    C7 4409   2.778   1.320   0.501 -0.2924 -0.0835  1.2449
  292TMC3    C8 4410   2.550   1.654   0.764  0.1559  0.3257  0.5795
  292TMC3    O1 4411   2.887   1.273   0.477 -0.7520 -0.0233 -0.0413
  292TMC3    O2 4412   2.544   1.765   0.806  0.0282  0.3834 -0.0733
  293MPD2     C 4413   0.048   3.739  12.289 -0.2629  0.2043 -0.3989
  293MPD2    C1 4414   0.022   3.620  12.356 -0.7159  0.1145  0.0545
  293MPD2    C2 4415   0.017   3.627  12.496  0.1529 -0.0131 -0.5119
  293MPD2    C3 4416   0.042   3.745  12.566  0.1879 -0.4427 -0.6583
  293MPD2    C4 4417   0.072   3.857  12.491 -0.2287  0.0108  0.9147
  293MPD2    C5 4418   0.072   3.853  12.354  0.0416 -0.0190 -0.1454
  293MPD2     H 4419   4.720   3.545  12.564  2.3398  0.0032  0.2029
  293MPD2    H1 4420   0.087   3.955  12.534  0.2898  0.3483 -0.0404
  293MPD2    H2 4421   0.050   3.729  12.181 -2.0680 -1.1344 -0.3272
  293MPD2    H3 4422   0.091   3.940  12.291  0.1503 -0.1305 -0.2653
  293MPD2     N 4423   0.029   3.747  12.703  0.8588  0.0019  0.2786
  293MPD2    H5 4424   4.717   3.664  12.749  0.8876 -1.4501 -2.3043
  293MPD2    N1 4425   4.718   3.503  12.284  0.4917 -0.0843 -0.1447
  293MPD2    H7 4426   0.012   3.501  12.184  3.1090  1.3714  0.3185
  294TMC3    C1 4427   4.598   3.297  12.235 -0.3281  0.1753 -0.4375
  294TMC3    C2 4428   4.469   3.247  12.263  0.2756  0.2003 -0.6010
  294TMC3    C3 4429   4.402   3.191  12.154 -0.0891 -0.4338 -0.4570
  294TMC3    C4 4430   4.649   3.310  12.106 -0.9903  0.1459  0.3777
  294TMC3    C5 4431   4.575   3.255  12.004 -0.0533 -0.1518  1.0916
  294TMC3    C6 4432   4.456   3.191  12.031  0.9353 -0.0358  0.6257
  294TMC3     C 4433   4.647   3.391  12.337  0.2485 -0.6706 -0.5573
  294TMC3     O 4434   4.606   3.373  12.453  0.5495  0.8229  0.1719
  294TMC3     H 4435   4.427   3.261  12.361  0.8172  1.5852 -0.5748
  294TMC3    H1 4436   0.024   3.349  12.088 -1.8291  1.6985 -0.9029
  294TMC3    H2 4437   4.409   3.148  11.943  2.0608 -1.5072  0.7434
  294TMC3    C7 4438   4.624   3.232  11.868  0.0023  0.5267 -0.3978
  294TMC3    C8 4439   4.280   3.116  12.192 -0.3671  0.1046  0.4141
  294TMC3    O1 4440   4.604   3.123  11.813 -0.5248 -0.3064  0.5853
  294TMC3    O2 4441   4.254   3.119  12.312 -0.4831  0.1564 -0.3483
  295MPD2     C 4442   4.593   2.135   1.059  0.7015  0.1116 -0.0471
  295MPD2    C1 4443   4.717   2.114   1.096 -0.3740  0.0512  0.0909
  295MPD2    C2 4444   0.023   2.069   1.222 -0.8564 -0.1106  0.4462
  295MPD2    C3 4445   4.643   2.034   1.309 -0.0115  0.6017 -0.2884
  295MPD2    C4 4446   4.516   2.050   1.268 -0.6627  0.7599  0.0401
  295MPD2    C5 4447   4.490   2.114   1.146 -0.8021  0.0479  0.0345
  295MPD2     H 4448   0.126   2.049   1.248 -0.5710  0.1430 -0.5169
  295MPD2    H1 4449   4.442   2.024   1.342 -0.3207  2.5812  1.0295
  295MPD2    H2 4450   4.559   2.168   0.961  1.1377 -0.5853 -0.4283
  295MPD2    H3 4451   4.389   2.122   1.107 -0.8253  0.8137  0.2552
  295MPD2     N 4452   4.662   1.984   1.440 -0.5910 -0.1574  0.7279
  295MPD2    H5 4453   4.579   1.964   1.494  0.0340 -0.7738  1.4459
  295MPD2    N1 4454   0.100   2.139   1.010 -0.7563  0.2019 -0.3849
  295MPD2    H7 4455   0.187   2.104   1.049 -1.1490 -1.0292 -0.6222
  296TMC3    C1 4456   0.044   1.907   1.643  0.4572 -0.1925  0.3084
  296TMC3    C2 4457   0.145   1.827   1.682  0.1803 -0.4586  0.0527
  296TMC3    C3 4458   0.117   1.730   1.774  0.3187 -0.5448  0.4161
  296TMC3    C4 4459   4.641   1.903   1.700 -0.1048 -0.1312 -0.6532
  296TMC3    C5 4460   4.615   1.808   1.790  0.7882  0.2850 -0.2095
  296TMC3    C6 4461   4.716   1.719   1.827  0.5868  0.1083 -0.0260
  296TMC3     C 4462   0.052   1.947   1.501 -0.1628 -0.4069 -0.5261
  296TMC3     O 4463   0.167   1.936   1.461 -0.1165 -0.2605  0.5725
  296TMC3     H 4464   0.245   1.841   1.642 -0.4790 -1.1730 -1.8893
  296TMC3    H1 4465   4.569   1.982   1.677  0.9005  1.3545  1.3024
  296TMC3    H2 4466   4.690   1.634   1.889 -0.1322  0.4595  0.1485
  296TMC3    C7 4467   4.489   1.816   1.852 -0.2581  0.5730 -1.0229
  296TMC3    C8 4468   0.185   1.602   1.764  0.0485 -0.4994 -0.4492
  296TMC3    O1 4469   4.411   1.901   1.819  0.4453 -0.0745  0.5513
  296TMC3    O2 4470   0.113   1.506   1.781  0.0564  0.1108 -0.2100
  297MPD2     C 4471   2.526   3.978  16.292  0.7472  0.0734  0.2519
  297MPD2    C1 4472   2.480   4.050  16.193  0.2136 -0.0340  0.6881
  297MPD2    C2 4473   2.529   4.180  16.174 -0.1117 -0.2075 -0.8213
  297MPD2    C3 4474   2.634   4.235  16.248 -0.3203 -0.2439 -0.8370
  297MPD2    C4 4475   2.680   4.158  16.350 -0.3710  0.1597  0.1796
  297MPD2    C5 4476   2.625   4.033  16.367  0.8220 -0.1494  0.0513
  297MPD2     H 4477   2.488   4.227  16.086  0.2034  1.3653 -0.1228
  297MPD2    H1 4478   2.760   4.188  16.417 -1.2340  1.1077  0.7913
  297MPD2    H2 4479   2.492   3.878  16.320 -2.1767  1.3832  1.3536
  297MPD2    H3 4480   2.662   3.981  16.455  4.5898  1.8139 -0.3578
  297MPD2     N 4481   2.682   4.367  16.220 -0.3970  0.0413 -0.1988
  297MPD2    H5 4482   2.625   4.413  16.151 -0.9178 -1.7181 -0.9377
  297MPD2    N1 4483   2.377   3.999  16.111 -0.1438 -0.0713  0.1771
  297MPD2    H7 4484   2.367   4.044  16.021 -0.7451  1.1521  0.8541
  298TMC3    C1 4485   2.175   3.894  16.038  0.5229 -0.2116  0.5566
  298TMC3    C2 4486   2.185   3.955  15.919  0.5016 -0.4594  0.3581
  298TMC3    C3 4487   2.073   3.992  15.860  1.0800 -0.1448  0.4439
  298TMC3    C4 4488   2.048   3.890  16.105 -0.0943 -0.0931 -0.2493
  298TMC3    C5 4489   1.940   3.937  16.045 -0.3071  0.6709  0.5145
  298TMC3    C6 4490   1.951   3.988  15.920  0.4096 -0.4613  0.5424
  298TMC3     C 4491   2.292   3.892  16.129 -0.2156  0.1797 -0.5084
  298TMC3     O 4492   2.273   3.816  16.223 -0.0020  0.2575  0.0579
  298TMC3     H 4493   2.272   3.934  15.857 -0.4140 -1.5175 -0.5570
  298TMC3    H1 4494   2.038   3.841  16.202  1.2376  1.2952  0.5857
  298TMC3    H2 4495   1.861   4.023  15.873  1.3862  1.3347  0.0270
  298TMC3    C7 4496   1.839   3.998  16.131  0.1634 -0.4094 -0.0712
  298TMC3    C8 4497   2.070   4.018  15.716 -0.0609  0.0421  0.5085
  298TMC3    O1 4498   1.878   4.035  16.243  0.0048 -0.4339 -0.4703
  298TMC3    O2 4499   2.175   4.021  15.658  0.7924  0.1409  0.3972
  299MPD2     C 4500   3.760   4.686  10.073 -0.4965 -0.3893  0.0298
  299MPD2    C1 4501   3.713   4.596  10.165 -0.1826 -0.1366 -0.2659
  299MPD2    C2 4502   3.591   4.533  10.146 -0.6235 -0.0243  0.7836
  299MPD2    C3 4503   3.526   4.547  10.028 -0.5379 -0.0201 -0.9504
  299MPD2    C4 4504   3.584   4.621   9.931  0.1770  0.1221 -0.3776
  299MPD2    C5 4505   3.696   4.698   9.949 -0.1960 -0.0786 -0.3162
  299MPD2     H 4506   3.555   4.461  10.218  0.6770 -1.5953 -0.1549
  299MPD2    H1 4507   3.543   4.630   9.831  0.0038 -1.7823 -0.4784
  299MPD2    H2 4508   3.850   0.020  10.082 -1.1703  0.6342  0.1341
  299MPD2    H3 4509   3.742   0.046   9.883  1.2997 -1.1920 -0.4686
  299MPD2     N 4510   3.419   4.463   9.987 -0.1998  0.4036 -0.4649
  299MPD2    H5 4511   3.406   4.466   9.886 -0.4730 -1.5305 -0.4862
  299MPD2    N1 4512   3.797   4.568  10.276  0.1729  0.0989 -0.1183
  299MPD2    H7 4513   3.884   4.620  10.272  0.0595  0.1269 -2.2825
  300TMC3    C1 4514   3.208   4.351  10.010 -0.0801  0.1328  0.1794
  300TMC3    C2 4515   3.146   4.454   9.940 -0.0075 -0.0096 -0.3112
  300TMC3    C3 4516   3.005   4.461   9.938  0.3258 -0.3035  0.2829
  300TMC3    C4 4517   3.135   4.260  10.086  0.5965 -0.0892 -0.7515
  300TMC3    C5 4518   2.997   4.286  10.096  0.2013 -0.7012 -0.1059
  300TMC3    C6 4519   2.927   4.383  10.021  0.1247  0.2601 -0.3504
  300TMC3     C 4520   3.331   4.397  10.070  0.4803 -0.1652 -0.0031
  300TMC3     O 4521   3.331   4.388  10.187  0.2176 -0.1466  0.3984
  300TMC3     H 4522   3.197   4.540   9.900 -1.2351 -0.2718 -2.4542
  300TMC3    H1 4523   3.184   4.188  10.151 -1.1592  0.0955  0.7840
  300TMC3    H2 4524   2.819   4.395  10.022  0.2577  1.6365 -2.4477
  300TMC3    C7 4525   2.917   4.193  10.167 -0.3890  0.0717 -0.4199
  300TMC3    C8 4526   2.960   4.589   9.880 -0.2720 -0.3062  0.2259
  300TMC3    O1 4527   2.946   4.073  10.165 -0.4782  0.7256  0.4403
  300TMC3    O2 4528   2.881   4.650   9.952  0.7944  0.2570  0.3424
  301MPD2     C 4529   0.023   4.361   1.298  0.4109  0.2250  0.4462
  301MPD2    C1 4530   4.701   4.382   1.168  0.2415  0.4629 -1.1720
  301MPD2    C2 4531   0.027   4.304   1.063  0.1416 -0.3369  0.2476
  301MPD2    C3 4532   0.102   4.195   1.090 -0.3545 -0.2208  0.3214
  301MPD2    C4 4533   0.136   4.162   1.228 -0.1298  0.0173  0.0692
  301MPD2    C5 4534   0.098   4.245   1.331 -0.2066 -0.0536 -0.3423
  301MPD2     H 4535   4.723   4.332   0.962 -2.0585 -0.4082  0.8531
  301MPD2    H1 4536   0.195   4.074   1.254 -0.0311  0.1044  0.1400
  301MPD2    H2 4537   4.717   4.407   1.391 -0.7208  0.7442 -0.1831
  301MPD2    H3 4538   0.112   4.220   1.435  1.8303 -0.7147 -0.7693
  301MPD2     N 4539   0.162   4.101   0.993  0.6078  0.9150 -0.0454
  301MPD2    H5 4540   0.228   4.034   1.032  0.0699  0.3643 -0.0857
  301MPD2    N1 4541   4.625   4.492   1.134  0.1363  0.2186 -0.2319
  301MPD2    H7 4542   4.600   4.502   1.036  3.2013  1.1040 -0.9254
  302TMC3    C1 4543   0.225   4.003   0.789  0.2572  0.3802  0.1147
  302TMC3    C2 4544   0.353   3.969   0.836 -0.5271 -0.3336 -0.3447
  302TMC3    C3 4545   0.424   3.883   0.749  0.1867 -0.1277 -0.7412
  302TMC3    C4 4546   0.178   3.954   0.668  0.7521  0.2966  0.0378
  302TMC3    C5 4547   0.257   3.878   0.591  0.0350  0.9619 -0.0764
  302TMC3    C6 4548   0.384   3.836   0.631  0.7231  0.3153 -0.2255
  302TMC3     C 4549   0.138   4.094   0.863 -0.3985 -0.1703  0.1109
  302TMC3     O 4550   0.059   4.154   0.792 -0.3724 -0.0678 -0.1383
  302TMC3     H 4551   0.396   4.004   0.929 -2.8104  0.2246  0.4996
  302TMC3    H1 4552   0.071   3.961   0.654  1.1266  1.5265 -2.1266
  302TMC3    H2 4553   0.441   3.763   0.575 -1.4701 -2.0262  0.5775
  302TMC3    C7 4554   0.238   3.884   0.446  0.3855  0.3318 -0.5594
  302TMC3    C8 4555   0.556   3.848   0.794 -0.2833  0.2320  0.2502
  302TMC3    O1 4556   0.317   3.824   0.376  0.1159 -0.1733 -0.1025
  302TMC3    O2 4557   0.633   3.822   0.702  0.2023 -0.5020 -0.9689
  303MPD2     C 4558   0.542   4.331  10.287 -0.3461  0.0544  0.5900
  303MPD2    C1 4559   0.657   4.250  10.269 -0.1456 -0.8049  0.2687
  303MPD2    C2 4560   0.705   4.240  10.142 -0.4704 -0.2424  0.3487
  303MPD2    C3 4561   0.635   4.299  10.036 -0.1386  0.0836  0.4074
  303MPD2    C4 4562   0.524   4.385  10.050 -0.0421  0.0745  0.0956
  303MPD2    C5 4563   0.485   4.401  10.182  0.0820 -0.2380 -0.1199
  303MPD2     H 4564   0.794   4.179  10.135 -1.3362 -1.1783 -2.5980
  303MPD2    H1 4565   0.473   4.434   9.968  1.2077  1.6202  0.2590
  303MPD2    H2 4566   0.512   4.352  10.389 -1.6663 -0.1386  0.2454
  303MPD2    H3 4567   0.394   4.456  10.208  1.0137  2.2113 -2.0928
  303MPD2     N 4568   0.665   4.274   9.901  0.0449  0.1443  0.2543
  303MPD2    H5 4569   0.604   4.323   9.837 -0.5804 -0.5620  0.3128
  303MPD2    N1 4570   0.724   4.191  10.382  0.0058 -0.4391 -0.6118
  303MPD2    H7 4571   0.676   4.185  10.471 -0.2676  1.2591 -0.6396
  304TMC3    C1 4572   0.846   4.038  10.514  0.1550  0.2552  0.7527
  304TMC3    C2 4573   0.743   3.965  10.552 -0.0761  0.0518 -0.7548
  304TMC3    C3 4574   0.767   3.837  10.599 -1.0374  0.1095 -0.1633
  304TMC3    C4 4575   0.970   3.990  10.537 -0.0157  0.4780 -0.4114
  304TMC3    C5 4576   0.999   3.870  10.605  0.3936 -0.3997 -0.0056
  304TMC3    C6 4577   0.893   3.792  10.643 -0.1122  0.0102  0.3987
  304TMC3     C 4578   0.834   4.116  10.389 -0.6872  0.0887  0.3796
  304TMC3     O 4579   0.928   4.120  10.316 -0.2185  0.3469 -0.7551
  304TMC3     H 4580   0.647   3.994  10.511  0.1038  0.6136 -0.7796
  304TMC3    H1 4581   1.049   4.051  10.495  0.8771  0.0589  0.6613
  304TMC3    H2 4582   0.905   3.693  10.684  2.3528  0.1728  0.0293
  304TMC3    C7 4583   1.095   3.783  10.530  0.0496  0.3298 -0.4793
  304TMC3    C8 4584   0.687   3.729  10.537 -0.1210  0.1928 -0.2707
  304TMC3    O1 4585   1.063   3.669  10.513 -0.2657 -0.0403 -0.2779
  304TMC3    O2 4586   0.571   3.759  10.511 -0.0799  0.2898  0.3095
  305MPD2     C 4587   3.085   0.705  14.130 -0.4443 -0.0428  0.0978
  305MPD2    C1 4588   3.220   0.736  14.116  1.4149 -0.0359 -0.5314
  305MPD2    C2 4589   3.271   0.735  13.987 -0.4452  0.1511 -0.6664
  305MPD2    C3 4590   3.192   0.697  13.881  0.5604  0.6341 -0.6870
  305MPD2    C4 4591   3.061   0.668  13.897  0.3843 -0.0920 -0.0177
  305MPD2    C5 4592   3.006   0.672  14.021 -0.3409  0.6973  0.3283
  305MPD2     H 4593   3.377   0.754  13.974 -0.5098  0.8187 -0.1883
  305MPD2    H1 4594   2.993   0.633  13.819 -0.3161 -0.8276  0.9273
  305MPD2    H2 4595   3.043   0.699  14.230  2.1983 -0.6169  1.1847
  305MPD2    H3 4596   2.905   0.635  14.033 -0.8885  2.0193 -0.2351
  305MPD2     N 4597   3.236   0.689  13.746  0.0406 -0.0245 -1.1923
  305MPD2    H5 4598   3.163   0.656  13.683 -2.2196  0.1859  1.3276
  305MPD2    N1 4599   3.310   0.747  14.228  0.3142  0.1845 -0.2866
  305MPD2    H7 4600   3.408   0.751  14.202  0.1230 -0.1689 -1.0792
  306TMC3    C1 4601   3.393   0.764  14.445 -0.3294  0.7271  0.1581
  306TMC3    C2 4602   3.501   0.681  14.409 -0.1524  0.1522 -0.5485
  306TMC3    C3 4603   3.596   0.661  14.504  0.3693  0.5381 -0.0265
  306TMC3    C4 4604   3.378   0.810  14.576 -0.0441  0.4668 -0.1330
  306TMC3    C5 4605   3.484   0.799  14.657  0.4717 -0.0992 -0.8820
  306TMC3    C6 4606   3.583   0.713  14.634 -0.3223  0.1547  0.9600
  306TMC3     C 4607   3.282   0.774  14.358  0.1888 -0.1374  0.4394
  306TMC3     O 4608   3.171   0.814  14.394 -0.7109 -0.1144  0.1074
  306TMC3     H 4609   3.506   0.624  14.317 -1.7730 -2.2207  0.8125
  306TMC3    H1 4610   3.290   0.864  14.606 -0.7522 -1.4546  1.2587
  306TMC3    H2 4611   3.664   0.697  14.705 -1.4223 -0.1475  2.1367
  306TMC3    C7 4612   3.468   0.854  14.793 -0.1634  0.8032  0.0648
  306TMC3    C8 4613   3.711   0.578  14.473  0.1519  0.7036  0.5567
  306TMC3    O1 4614   3.353   0.872  14.835  0.4950  0.1283  0.0699
  306TMC3    O2 4615   3.767   0.535  14.571 -0.2534 -0.2112 -0.4367
  307MPD2     C 4616   1.462   2.684  17.455  0.3910  0.1782 -0.2619
  307MPD2    C1 4617   1.406   2.802  17.416 -0.0763 -0.1506 -0.4832
  307MPD2    C2 4618   1.353   2.896  17.506  0.5720  0.3074 -0.1047
  307MPD2    C3 4619   1.364   2.866  17.639  0.6907 -0.7539 -0.0053
  307MPD2    C4 4620   1.430   2.755  17.675  0.2289 -0.1351 -0.5107
  307MPD2    C5 4621   1.472   2.662  17.589  0.7178  0.2393 -0.3022
  307MPD2     H 4622   1.298   2.982  17.470  0.4697  0.9050  1.4768
  307MPD2    H1 4623   1.449   2.727   0.078 -1.6096 -2.8635 -0.9143
  307MPD2    H2 4624   1.492   2.610  17.382  1.0343 -0.7918  0.9706
  307MPD2    H3 4625   1.522   2.570  17.617 -1.9080 -1.7375 -1.9981
  307MPD2     N 4626   1.284   2.943   0.032 -0.0267 -0.8909  0.0557
  307MPD2    H5 4627   1.242   3.023  17.687 -1.2595 -0.7507  1.4465
  307MPD2    N1 4628   1.389   2.838  17.283  0.2503 -0.4178  0.2299
  307MPD2    H7 4629   1.343   2.926  17.260 -0.5282 -0.8140  0.2838
  308TMC3    C1 4630   1.028   3.038   0.411 -0.4043 -0.1193 -0.3827
  308TMC3    C2 4631   0.989   3.159   0.359 -0.5855  0.6589  0.3783
  308TMC3    C3 4632   1.046   3.191   0.239  0.6847  0.8013  0.1910
  308TMC3    C4 4633   1.116   2.957   0.348  0.3740  0.2511 -0.0261
  308TMC3    C5 4634   1.167   2.996   0.225 -0.5200  0.1674  0.0819
  308TMC3    C6 4635   1.133   3.115   0.167  0.2102 -0.1506 -0.4196
  308TMC3     C 4636   0.948   2.973   0.519 -0.0703 -0.1846 -0.1017
  308TMC3     O 4637   0.971   2.856   0.534 -1.0050  0.2401  0.1035
  308TMC3     H 4638   0.942   3.238   0.416  0.2619  1.9575 -0.7306
  308TMC3    H1 4639   1.140   2.862   0.395 -0.1417  0.0673 -0.1315
  308TMC3    H2 4640   1.198   3.156   0.090  1.9830 -2.8327 -0.3381
  308TMC3    C7 4641   1.273   2.921   0.166  0.2446 -0.5169  0.5292
  308TMC3    C8 4642   1.056   3.335   0.209  0.7703  0.0745 -0.5699
  308TMC3    O1 4643   1.343   2.853   0.240 -0.0327 -0.1588 -0.5962
  308TMC3    O2 4644   1.046   3.417   0.297  0.1133  0.2913 -0.1368
  309MPD2     C 4645   0.077   3.261  16.956 -0.6822 -0.0759 -0.5880
  309MPD2    C1 4646   0.092   3.398  16.952 -0.2188  0.0115 -0.1800
  309MPD2    C2 4647   0.073   3.476  17.062  0.1999  0.1448 -0.0590
  309MPD2    C3 4648   0.025   3.420  17.175 -0.4538 -0.4158 -0.5790
  309MPD2    C4 4649   0.022   3.285  17.184 -0.0404  0.6400 -0.4004
  309MPD2    C5 4650   0.052   3.201  17.078  0.2752  0.1544  0.2917
  309MPD2     H 4651   0.104   3.580  17.051 -0.8131  0.4337 -0.2160
  309MPD2    H1 4652   4.713   3.234  17.273  0.7880 -1.3873 -1.2358
  309MPD2    H2 4653   0.093   3.197  16.870  0.0632 -1.2401  0.4247
  309MPD2    H3 4654   0.036   3.094  17.072  0.0681  0.1856  0.2887
  309MPD2     N 4655   0.001   3.488  17.293  0.3342  0.8587  1.0660
  309MPD2    H5 4656   4.724   3.425  17.373  1.8002  0.2353  0.6043
  309MPD2    N1 4657   0.133   3.467  16.834  0.2825  0.3927 -0.0222
  309MPD2    H7 4658   0.126   3.568  16.834 -2.0396  0.2409 -1.1266
  310TMC3    C1 4659   0.203   3.501  16.617 -0.3897  0.3981 -0.7283
  310TMC3    C2 4660   0.138   3.624  16.610 -0.2151 -0.0801  0.0321
  310TMC3    C3 4661   0.157   3.685  16.489  0.4645 -0.0285 -0.0727
  310TMC3    C4 4662   0.300   3.470  16.531  0.2901 -0.3908 -0.2243
  310TMC3    C5 4663   0.335   3.556  16.435  0.3592  0.3991  0.2429
  310TMC3    C6 4664   0.253   3.662  16.396 -0.1061 -0.2527 -0.4314
  310TMC3     C 4665   0.183   3.405  16.728 -0.4152 -0.0971  0.9418
  310TMC3     O 4666   0.227   3.295  16.711  0.1240  0.6587 -0.2210
  310TMC3     H 4667   0.043   3.637  16.661  0.9300 -0.9277  2.4273
  310TMC3    H1 4668   0.352   3.375  16.542 -0.7505 -1.3340 -3.6862
  310TMC3    H2 4669   0.268   3.718  16.305  0.0914  0.3905 -0.0107
  310TMC3    C7 4670   0.424   3.497  16.342 -0.6383 -0.0376  0.2030
  310TMC3    C8 4671   0.086   3.812  16.479  0.7051  0.2623  1.1792
  310TMC3    O1 4672   0.442   3.375  16.342  0.1731  0.4335 -0.1534
  310TMC3    O2 4673   0.032   3.851  16.581  0.0746  0.1402  0.3139
  311MPD2     C 4674   2.720   0.476  12.855 -0.4985 -0.2944 -0.2900
  311MPD2    C1 4675   2.720   0.593  12.929 -0.3329  0.7879 -0.6090
  311MPD2    C2 4676   2.600   0.650  12.960  0.2342  0.5814  0.3718
  311MPD2    C3 4677   2.477   0.592  12.919 -0.3570  0.0017 -0.8473
  311MPD2    C4 4678   2.484   0.484  12.833 -0.0965 -0.2872  0.2852
  311MPD2    C5 4679   2.602   0.427  12.805 -0.8687  0.1648 -1.2628
  311MPD2     H 4680   2.597   0.746  13.011 -2.1560  1.0714 -0.6771
  311MPD2    H1 4681   2.399   0.429  12.796 -0.7432  0.6025  0.4562
  311MPD2    H2 4682   2.804   0.410  12.840  3.0038  3.9246  0.5615
  311MPD2    H3 4683   2.606   0.343  12.736  0.2625 -2.8664  2.4870
  311MPD2     N 4684   2.354   0.654  12.958 -0.8319  0.0371  0.5356
  311MPD2    H5 4685   2.354   0.716  13.039 -0.0205  0.2726  0.3556
  311MPD2    N1 4686   2.840   0.665  12.957  0.0951  0.4525  0.3022
  311MPD2    H7 4687   2.824   0.756  12.999  1.6973  1.4258 -1.2065
  312TMC3    C1 4688   2.127   0.644  13.005 -0.5907  0.1988  0.3485
  312TMC3    C2 4689   2.008   0.640  12.943 -0.0159 -0.3873  0.3114
  312TMC3    C3 4690   1.900   0.585  13.012  0.0964 -0.3944 -0.3514
  312TMC3    C4 4691   2.141   0.589  13.133  0.6520  0.5197  1.0276
  312TMC3    C5 4692   2.030   0.518  13.188 -0.4075 -0.4531 -0.5328
  312TMC3    C6 4693   1.905   0.521  13.128 -0.0081  0.1703  0.1289
  312TMC3     C 4694   2.233   0.616  12.910 -0.5421  0.8299  0.3751
  312TMC3     O 4695   2.199   0.591  12.794  0.0831  0.1866 -0.5538
  312TMC3     H 4696   1.998   0.679  12.842 -0.9605 -0.9682  0.1794
  312TMC3    H1 4697   2.235   0.598  13.188  1.3721 -2.0075  0.2124
  312TMC3    H2 4698   1.823   0.484  13.188 -0.0937  1.3588  0.7498
  312TMC3    C7 4699   2.038   0.468  13.327 -0.7903 -0.5805  0.1791
  312TMC3    C8 4700   1.772   0.585  12.955  0.1590 -0.1946  0.7000
  312TMC3    O1 4701   2.097   0.550  13.402  0.3702 -0.4578  0.1743
  312TMC3    O2 4702   1.691   0.495  12.984 -0.1308  0.6391 -0.3277
  313MPD2     C 4703   2.416   4.480  10.296 -0.2965  0.7812 -0.0829
  313MPD2    C1 4704   2.310   4.538  10.358 -1.1006 -0.4712  0.1033
  313MPD2    C2 4705   2.205   4.455  10.401 -1.6629 -1.3911  0.1527
  313MPD2    C3 4706   2.210   4.313  10.364  0.0020  0.3377 -0.6245
  313MPD2    C4 4707   2.314   4.265  10.292 -0.2142  0.4595  0.6254
  313MPD2    C5 4708   2.421   4.345  10.266  0.6113  0.1581  0.1405
  313MPD2     H 4709   2.128   4.493  10.467 -1.0946  0.2381 -0.1187
  313MPD2    H1 4710   2.334   4.164  10.256  0.6820  0.0337  2.2746
  313MPD2    H2 4711   2.500   4.538  10.260  1.6639 -0.2510  2.8708
  313MPD2    H3 4712   2.507   4.300  10.217  0.7612  1.0457 -0.4055
  313MPD2     N 4713   2.105   4.235  10.405 -0.1816  0.2021 -0.3549
  313MPD2    H5 4714   2.046   4.280  10.474  1.1798  0.9372  0.3447
  313MPD2    N1 4715   2.297   4.677  10.400 -0.0036  0.4340 -0.0116
  313MPD2    H7 4716   2.204   4.715  10.411  0.1831  1.3726 -1.6760
  314TMC3    C1 4717   2.365   0.169  10.410 -0.6428  0.7825 -0.3299
  314TMC3    C2 4718   2.455   0.258  10.469  0.3123 -0.4112  0.0689
  314TMC3    C3 4719   2.434   0.391  10.435  0.2493 -0.3966  0.3392
  314TMC3    C4 4720   2.267   0.211  10.330 -0.2591 -0.7154 -0.4452
  314TMC3    C5 4721   2.263   0.340  10.300  0.1171  0.2241  0.3951
  314TMC3    C6 4722   2.338   0.440  10.347  0.4160  0.2668 -0.5606
  314TMC3     C 4723   2.409   0.032  10.401  0.5359 -0.7544  0.0225
  314TMC3     O 4724   2.527   0.006  10.413  0.2058  0.2275 -0.7495
  314TMC3     H 4725   2.532   0.222  10.535  1.1262 -0.2628 -0.7996
  314TMC3    H1 4726   2.212   0.136  10.273 -0.7541 -1.3035  0.7835
  314TMC3    H2 4727   2.332   0.546  10.326 -2.0466  0.0489 -0.9610
  314TMC3    C7 4728   2.200   0.361  10.167 -0.1606 -0.1929  0.4904
  314TMC3    C8 4729   2.514   0.498  10.498 -0.0259  0.4640  0.3966
  314TMC3    O1 4730   2.104   0.289  10.140 -0.4105  0.4849  0.5306
  314TMC3    O2 4731   2.476   0.610  10.494 -0.4222 -0.3964 -0.0640
  315MPD2     C 4732   1.474   3.743   0.002 -0.1251  0.3466 -0.0457
  315MPD2    C1 4733   1.592   3.720   0.063 -0.4504 -0.0127  0.0577
  315MPD2    C2 4734   1.700   3.796   0.028 -0.2850 -0.0535  0.1543
  315MPD2    C3 4735   1.698   3.889  17.634 -0.3954 -0.0231 -0.0901
  315MPD2    C4 4736   1.576   3.909  17.570 -0.3749  0.2321 -0.1393
  315MPD2    C5 4737   1.469   3.829  17.594 -0.3623 -0.2561  0.4899
  315MPD2     H 4738   1.795   3.778   0.077 -0.7828  0.1925  1.2144
  315MPD2    H1 4739   1.569   3.972  17.482  2.0326  0.6372 -0.0184
  315MPD2    H2 4740   1.384   3.688   0.028 -2.2653  2.8018 -2.3076
  315MPD2    H3 4741   1.375   3.840  17.541 -0.4649  1.4508  1.0249
  315MPD2     N 4742   1.816   3.962  17.606 -0.4467 -0.0143  0.5362
  315MPD2    H5 4743   1.892   3.945  17.670  0.2281 -1.9246 -0.7616
  315MPD2    N1 4744   1.620   3.614   0.154  0.6130 -0.1384 -0.2302
  315MPD2    H7 4745   1.718   3.602   0.179 -0.4295 -1.3635  3.1445
  316TMC3    C1 4746   1.965   4.121  17.511 -0.5433 -0.3346 -0.0945
  316TMC3    C2 4747   2.042   4.135  17.629  0.1233 -0.1232  0.5190
  316TMC3    C3 4748   2.150   4.218  17.625 -0.7047  0.5152 -0.2565
  316TMC3    C4 4749   1.990   4.194  17.399  0.3884  0.0312  0.6660
  316TMC3    C5 4750   2.100   4.273  17.396 -0.2366 -0.1963 -0.2113
  316TMC3    C6 4751   2.185   4.275  17.506  0.3499 -0.2470 -0.4265
  316TMC3     C 4752   1.832   4.057  17.507 -0.2669  0.0559 -0.2629
  316TMC3     O 4753   1.753   4.081  17.417  0.0902  0.0992 -0.6993
  316TMC3     H 4754   1.995   4.098   0.019 -0.2257  0.6850  0.6637
  316TMC3    H1 4755   1.924   4.181  17.314 -2.0242 -1.3214  2.7370
  316TMC3    H2 4756   2.271   4.341  17.503  0.3235 -0.1645  0.5574
  316TMC3    C7 4757   2.124   4.373  17.295  1.0140 -0.3840  1.2463
  316TMC3    C8 4758   2.239   4.229   0.036  0.0999 -0.3352  0.0455
  316TMC3    O1 4759   2.233   4.423  17.298 -0.2639 -0.0287  0.2151
  316TMC3    O2 4760   2.349   4.277   0.015 -0.5700  0.6613  0.2031
  317MPD2     C 4761   3.938   1.942  12.384  0.6971  0.0289  0.2298
  317MPD2    C1 4762   4.072   1.905  12.383  0.1120  0.5028 -0.3114
  317MPD2    C2 4763   4.137   1.874  12.501 -0.1509  0.1781  0.3902
  317MPD2    C3 4764   4.063   1.862  12.618  0.4287  0.2897 -0.2658
  317MPD2    C4 4765   3.926   1.901  12.622  1.1958 -0.3303 -0.3675
  317MPD2    C5 4766   3.869   1.939  12.500  1.3187 -0.6407  0.1443
  317MPD2     H 4767   4.241   1.849  12.487 -0.2897  0.4109 -1.0636
  317MPD2    H1 4768   3.860   1.902  12.708  1.2146  0.1817 -0.3583
  317MPD2    H2 4769   3.892   1.986  12.297 -0.0789  1.1870  1.2104
  317MPD2    H3 4770   3.764   1.965  12.506  1.5572  0.2161  0.5767
  317MPD2     N 4771   4.147   1.835  12.730 -0.5099  0.0976 -0.5996
  317MPD2    H5 4772   4.247   1.825  12.714 -0.2985  0.5008  0.4928
  317MPD2    N1 4773   4.146   1.898  12.262  0.2849  0.0212 -0.4578
  317MPD2    H7 4774   4.245   1.877  12.271  0.0405 -0.0557  1.9349
  318TMC3    C1 4775   4.203   1.793  12.962 -0.7521 -0.0757  0.2426
  318TMC3    C2 4776   4.174   1.687  13.052  0.2276 -0.1117  0.5071
  318TMC3    C3 4777   4.271   1.653  13.133  0.1703 -0.0050  0.1436
  318TMC3    C4 4778   4.311   1.875  12.972 -0.6855 -0.5404  0.1963
  318TMC3    C5 4779   4.406   1.840  13.063 -0.3723  0.5284  0.4823
  318TMC3    C6 4780   4.391   1.731  13.145 -0.5340  0.1942 -0.5169
  318TMC3     C 4781   4.098   1.811  12.861  0.3337  0.2521 -0.2035
  318TMC3     O 4782   3.989   1.806  12.910  0.5856 -0.2197 -0.6011
  318TMC3     H 4783   4.077   1.639  13.045  1.9114 -3.7091  1.6788
  318TMC3    H1 4784   4.320   1.967  12.916 -0.7601 -0.3215  0.5495
  318TMC3    H2 4785   4.461   1.715  13.226 -2.5678 -1.1334  0.9422
  318TMC3    C7 4786   4.517   1.935  13.086  0.4122 -0.2270  0.1760
  318TMC3    C8 4787   4.255   1.548  13.233  0.4872 -0.6110 -0.2842
  318TMC3    O1 4788   4.512   2.036  13.023 -0.0558 -0.8323  0.1958
  318TMC3    O2 4789   4.353   1.503  13.288 -0.7650  0.0087 -0.4341
  319MPD2     C 4790   4.463   3.548  16.721 -0.5747  0.0780  0.2255
  319MPD2    C1 4791   4.347   3.474  16.743 -0.2597  0.0027 -0.7564
  319MPD2    C2 4792   4.264   3.450  16.639 -0.7387  0.3899  0.3502
  319MPD2    C3 4793   4.293   3.506  16.513 -0.1995  0.1776 -0.1957
  319MPD2    C4 4794   4.406   3.593  16.500 -0.4259 -0.1523 -0.2790
  319MPD2    C5 4795   4.479   3.621  16.608  0.3473  0.8122 -0.1371
  319MPD2     H 4796   4.173   3.393  16.657  0.6845 -2.2388 -0.9182
  319MPD2    H1 4797   4.435   3.628  16.401 -1.2958  0.4934 -0.3094
  319MPD2    H2 4798   4.532   3.563  16.803  1.2916  1.2234 -1.5489
  319MPD2    H3 4799   4.569   3.679  16.590  0.4787  0.7379  0.2819
  319MPD2     N 4800   4.215   3.481  16.402  0.1028  0.5501  0.6000
  319MPD2    H5 4801   4.252   3.524  16.317 -1.7341  0.0715 -0.4339
  319MPD2    N1 4802   4.309   3.415  16.867 -0.4929  0.1856  0.0665
  319MPD2    H7 4803   4.225   3.358  16.871 -0.6432  0.6829  3.8788
  320TMC3    C1 4804   4.005   3.436  16.280 -0.6507 -0.1339  0.0710
  320TMC3    C2 4805   4.057   3.500  16.171 -0.2653 -0.0882 -0.5985
  320TMC3    C3 4806   3.967   3.529  16.067 -0.5043  0.0299  0.1014
  320TMC3    C4 4807   3.878   3.386  16.281 -1.0521  0.6515 -0.5307
  320TMC3    C5 4808   3.801   3.403  16.172 -0.3221 -0.2179 -0.4320
  320TMC3    C6 4809   3.840   3.479  16.062 -0.0094  0.1441 -0.3739
  320TMC3     C 4810   4.080   3.436  16.404 -0.1507 -0.5046  0.8522
  320TMC3     O 4811   4.012   3.401  16.500  0.2189  0.0874  0.4242
  320TMC3     H 4812   4.160   3.533  16.163  0.2406 -1.2818  1.0761
  320TMC3    H1 4813   3.852   3.309  16.353 -0.0046  1.0740  0.3058
  320TMC3    H2 4814   3.771   3.490  15.979  0.7343  2.1765 -0.7189
  320TMC3    C7 4815   3.689   3.318  16.154 -0.5026  0.1024  0.5286
  320TMC3    C8 4816   3.998   3.643  15.979  0.0245 -0.2322 -0.0058
  320TMC3    O1 4817   3.673   3.245  16.250  0.3783  0.5126 -0.9438
  320TMC3    O2 4818   4.089   3.722  16.014  0.0085 -0.2014  0.1131
  321TMC3    C1 4819   4.345   3.310  17.070 -0.8103  0.3816  0.7161
  321TMC3    C2 4820   4.336   3.185  17.008 -0.8382 -0.2000 -0.3801
  321TMC3    C3 4821   4.299   3.075  17.078 -0.9120  0.0649 -0.5353
  321TMC3    C4 4822   4.330   3.328  17.206  0.0112 -0.2057  0.0938
  321TMC3    C5 4823   4.303   3.214  17.273 -0.2739 -0.6492  0.7007
  321TMC3    C6 4824   4.288   3.093  17.211 -0.4253 -0.0184 -0.1190
  321TMC3     C 4825   4.364   3.431  16.989  0.0756 -0.2207  0.5128
  321TMC3     O 4826   4.438   3.514  17.030  0.2536  0.2569  0.0250
  321TMC3     H 4827   4.335   3.180  16.900  0.5173 -0.8308 -0.3638
  321TMC3    H1 4828   4.336   3.422  17.261 -0.1271  0.2024 -0.5949
  321TMC3    H2 4829   4.272   3.005  17.272 -1.9726 -0.0865 -0.6335
  321TMC3    C7 4830   4.362   3.200  17.402  0.2157  0.1832 -0.4117
  321TMC3    C8 4831   4.372   2.950  17.057 -0.0080 -0.2714 -0.1037
  321TMC3    O1 4832   4.450   3.278  17.443 -0.1158 -0.0719 -0.4367
  321TMC3    O2 4833   4.365   2.850  17.128  0.6202  0.3443  0.2726
  322MPD2     C 4834   3.131   0.125  13.522 -0.6131  0.1954 -0.5419
  322MPD2    C1 4835   3.181   0.068  13.637  0.2562 -0.8308 -0.1943
  322MPD2    C2 4836   3.195   4.656  13.628  0.6892 -0.7351 -0.4637
  322MPD2    C3 4837   3.184   4.579  13.510 -0.4591  0.6329 -0.0444
  322MPD2    C4 4838   3.140   4.646  13.402 -0.3644 -0.3004 -0.4192
  322MPD2    C5 4839   3.110   0.052  13.409  0.0995  0.4910  0.2670
  322MPD2     H 4840   3.200   4.596  13.718  0.1928 -1.4590 -0.9159
  322MPD2    H1 4841   3.119   4.602  13.305 -0.1699  0.6022 -0.8674
  322MPD2    H2 4842   3.109   0.231  13.512 -0.1655  0.1117 -2.3485
  322MPD2    H3 4843   3.069   0.100  13.321  0.9363 -1.4000 -1.1681
  322MPD2     N 4844   3.224   4.446  13.520  0.4202  0.2458  0.4509
  322MPD2    H5 4845   3.253   4.413  13.612 -0.8026  0.0512  0.7722
  322MPD2    N1 4846   3.176   0.144  13.754  0.4741 -0.1333  0.0614
  322MPD2    H7 4847   3.158   0.244  13.746 -0.7958 -0.2139  1.7887
  323TMC3    C1 4848   3.245   0.189  13.984 -0.8194  0.0313 -0.8680
  323TMC3    C2 4849   3.312   0.300  13.952  0.5971  0.2016  0.5785
  323TMC3    C3 4850   3.387   0.366  14.040 -0.3616  0.1282 -0.1761
  323TMC3    C4 4851   3.270   0.133  14.109  0.4009 -0.4372  0.1576
  323TMC3    C5 4852   3.351   0.201  14.200  0.2304  0.1292 -0.1439
  323TMC3    C6 4853   3.411   0.323  14.171 -1.1959 -0.2922 -0.4819
  323TMC3     C 4854   3.217   0.092  13.876  0.3498  0.3579 -0.1835
  323TMC3     O 4855   3.242   4.706  13.914 -0.6787  0.6808  0.2948
  323TMC3     H 4856   3.291   0.348  13.857 -0.8812 -0.1740  0.7119
  323TMC3    H1 4857   3.225   0.038  14.137 -0.0689 -0.8501 -2.0098
  323TMC3    H2 4858   3.492   0.360  14.232 -0.5950  0.8505 -1.9817
  323TMC3    C7 4859   3.425   0.117  14.294 -0.2360  0.5100 -0.1279
  323TMC3    C8 4860   3.506   0.439  13.988  0.0524  0.3852 -0.1550
  323TMC3    O1 4861   3.411   4.719  14.277  0.0251  0.4699  1.0871
  323TMC3    O2 4862   3.557   0.522  14.061 -0.0354 -0.6818  0.4434
  324MPD2     C 4863   0.692   1.512  14.453  0.4293 -0.6704 -0.2382
  324MPD2    C1 4864   0.758   1.633  14.450  0.2195  0.0134  0.2988
  324MPD2    C2 4865   0.685   1.744  14.423 -0.3782  0.5897  0.2210
  324MPD2    C3 4866   0.542   1.731  14.392  0.0708 -0.4386 -0.1561
  324MPD2    C4 4867   0.490   1.606  14.371 -0.3223 -0.0889 -0.1388
  324MPD2    C5 4868   0.561   1.497  14.409 -0.6877 -0.5265  0.2139
  324MPD2     H 4869   0.734   1.840  14.434  0.3275  0.4212 -1.4711
  324MPD2    H1 4870   0.385   1.589  14.349  0.2718 -1.1961 -2.1703
  324MPD2    H2 4871   0.737   1.418  14.483 -1.4321 -1.2235  0.7992
  324MPD2    H3 4872   0.524   1.395  14.410 -1.9928 -0.0637 -1.7633
  324MPD2     N 4873   0.453   1.826  14.344  0.0331 -0.0960 -0.0459
  324MPD2    H5 4874   0.368   1.795  14.298 -0.3074  0.9776 -0.1545
  324MPD2    N1 4875   0.895   1.646  14.484  0.0951 -0.2922 -0.3518
  324MPD2    H7 4876   0.946   1.734  14.483  2.1204 -1.4643 -0.2084
  325TMC3    C1 4877   0.358   2.010  14.248 -0.3027  0.2438 -0.0433
  325TMC3    C2 4878   0.300   1.905  14.185 -0.1184  0.2814 -0.7379
  325TMC3    C3 4879   0.160   1.892  14.190 -0.2879 -1.2500  0.6447
  325TMC3    C4 4880   0.283   2.097  14.314  0.1194 -0.5100 -0.6300
  325TMC3    C5 4881   0.145   2.094  14.309  0.3104 -0.0313 -0.0058
  325TMC3    C6 4882   0.082   1.993  14.246  0.2360 -0.0820  0.3172
  325TMC3     C 4883   0.464   1.959  14.338  0.1489  0.1182 -0.4372
  325TMC3     O 4884   0.530   2.036  14.409 -0.1803  0.3772 -0.2996
  325TMC3     H 4885   0.354   1.830  14.127  0.9699  0.5675 -0.0898
  325TMC3    H1 4886   0.333   2.163  14.384 -1.2226  1.0826 -1.1566
  325TMC3    H2 4887   4.703   1.962  14.259  0.6346 -0.7932  1.7746
  325TMC3    C7 4888   0.076   2.211  14.364 -0.0878  0.6093  0.1096
  325TMC3    C8 4889   0.107   1.764  14.147 -0.3425 -0.0329 -0.0603
  325TMC3    O1 4890   0.128   2.276  14.452  0.6523 -0.2146 -0.3139
  325TMC3    O2 4891   0.174   1.665  14.172 -0.4229  0.1447 -0.1191
  326MPD2     C 4892   1.647   2.858  11.323 -0.5110 -0.1062  0.4406
  326MPD2    C1 4893   1.770   2.799  11.299  0.6625  0.0626 -0.0846
  326MPD2    C2 4894   1.881   2.846  11.371  0.5432 -0.2573  0.0462
  326MPD2    C3 4895   1.881   2.958  11.455  0.3590  0.2046 -0.0484
  326MPD2    C4 4896   1.761   3.016  11.466 -0.8313 -0.4199  0.2620
  326MPD2    C5 4897   1.647   2.969  11.407 -0.0536 -0.2567  0.4842
  326MPD2     H 4898   1.976   2.799  11.347  1.1885  0.0224  2.0284
  326MPD2    H1 4899   1.760   3.102  11.533  1.1077  0.0923 -0.3847
  326MPD2    H2 4900   1.555   2.842  11.268  0.8946 -2.2083 -1.3072
  326MPD2    H3 4901   1.552   3.016  11.431  0.2120  0.2212  0.5972
  326MPD2     N 4902   1.990   3.003  11.529 -0.7346  0.4302 -0.2832
  326MPD2    H5 4903   1.976   3.081  11.593 -0.0151 -0.1777  0.6244
  326MPD2    N1 4904   1.786   2.705  11.202  0.0862  0.0412 -0.3607
  326MPD2    H7 4905   1.868   2.646  11.211  0.3742  0.2723 -1.5286
  327TMC3    C1 4906   1.738   2.586  11.003  0.2605 -0.6103 -0.0609
  327TMC3    C2 4907   1.682   2.586  10.882 -0.3221 -0.1671  0.2291
  327TMC3    C3 4908   1.736   2.524  10.776 -0.5636 -0.3965  0.7200
  327TMC3    C4 4909   1.844   2.505  11.023 -0.4978 -0.3315  0.2708
  327TMC3    C5 4910   1.898   2.432  10.911 -0.2834  0.1226 -0.1646
  327TMC3    C6 4911   1.850   2.458  10.786 -0.2293  0.2804 -0.2215
  327TMC3     C 4912   1.716   2.703  11.086  0.3748  0.2124 -0.4966
  327TMC3     O 4913   1.623   2.776  11.051  0.0279  0.0563  0.0440
  327TMC3     H 4914   1.590   2.641  10.862 -1.1745 -1.5121  0.4620
  327TMC3    H1 4915   1.879   2.483  11.123  2.4373  4.2662  0.2940
  327TMC3    H2 4916   1.900   2.410  10.702 -0.3906  0.1215 -0.2288
  327TMC3    C7 4917   2.025   2.371  10.922 -0.0791  0.2744 -0.3493
  327TMC3    C8 4918   1.689   2.563  10.645  0.6232 -0.0078  0.5143
  327TMC3    O1 4919   2.078   2.339  10.819  0.2413 -0.4792 -0.0916
  327TMC3    O2 4920   1.776   2.592  10.566 -0.0426 -0.2955  0.9197
  328MPD2     C 4921   3.625   1.058  16.626 -0.3156  0.4570 -0.5810
  328MPD2    C1 4922   3.582   1.020  16.756 -0.0827 -0.5429  0.6564
  328MPD2    C2 4923   3.509   1.115  16.830  0.1237 -0.0406  0.3690
  328MPD2    C3 4924   3.475   1.239  16.768  0.5415  0.6015 -0.1330
  328MPD2    C4 4925   3.534   1.267  16.643  0.3036  0.2701  0.1613
  328MPD2    C5 4926   3.615   1.184  16.574  0.2378 -0.8874 -0.4315
  328MPD2     H 4927   3.474   1.078  16.926 -0.6267  1.7483  0.7831
  328MPD2    H1 4928   3.507   1.347  16.575  2.9971  1.1401  0.1462
  328MPD2    H2 4929   3.688   0.992  16.568  0.7166  0.1665  0.8985
  328MPD2    H3 4930   3.644   1.223  16.477 -0.5500  1.4777  0.2773
  328MPD2     N 4931   3.384   1.332  16.821 -0.4123  0.8200 -0.0748
  328MPD2    H5 4932   3.380   1.414  16.761  4.4053  0.6836 -0.5773
  328MPD2    N1 4933   3.632   0.900  16.807 -0.1661 -0.0864  0.0014
  328MPD2    H7 4934   3.702   0.845  16.757 -0.1801  0.5674 -0.7456
  329TMC3    C1 4935   3.704   0.763  16.996 -0.1148 -0.6860  0.2271
  329TMC3    C2 4936   3.692   0.732  17.127 -0.6953 -0.5214  0.9078
  329TMC3    C3 4937   3.777   0.636  17.175  0.0661  0.1970 -0.3107
  329TMC3    C4 4938   3.804   0.710  16.914  0.0801  0.2824 -0.2011
  329TMC3    C5 4939   3.877   0.620  16.976  0.7401  0.0610 -0.3256
  329TMC3    C6 4940   3.864   0.574  17.097 -0.1031  0.5922  0.6634
  329TMC3     C 4941   3.603   0.847  16.932  0.4255 -0.7177 -0.1127
  329TMC3     O 4942   3.506   0.879  17.003  0.7162 -0.1452 -0.6838
  329TMC3     H 4943   3.603   0.768  17.177 -1.9463 -2.1268 -0.1754
  329TMC3    H1 4944   3.822   0.741  16.812 -0.9537 -0.3828 -0.5819
  329TMC3    H2 4945   3.913   0.489  17.143 -1.1961  0.5026  1.6688
  329TMC3    C7 4946   3.986   0.565  16.893  0.1129 -0.8494  1.0726
  329TMC3    C8 4947   3.796   0.626  17.316 -0.2843  0.9515 -0.0836
  329TMC3    O1 4948   4.083   0.522  16.953  0.3103  0.2529 -0.5247
  329TMC3    O2 4949   3.854   0.523  17.353 -0.0029  0.3435  0.1570
  330TMC3    C1 4950   1.731   1.241   9.622 -0.3511 -0.2705 -0.1997
  330TMC3    C2 4951   1.629   1.171   9.562 -0.2018 -0.0294  0.2606
  330TMC3    C3 4952   1.635   1.037   9.547 -0.2581 -0.2083 -0.8118
  330TMC3    C4 4953   1.837   1.177   9.675 -0.2555  0.0716 -0.0294
  330TMC3    C5 4954   1.835   1.039   9.657 -0.4844  0.8358 -0.0118
  330TMC3    C6 4955   1.743   0.965   9.587 -0.2395  0.2545 -0.7006
  330TMC3     C 4956   1.737   1.390   9.611  0.7768  0.2886 -0.0894
  330TMC3     O 4957   1.815   1.447   9.686  0.0698 -0.3538  0.8288
  330TMC3     H 4958   1.535   1.218   9.538 -0.6876  0.0363  2.2468
  330TMC3    H1 4959   1.898   1.227   9.750 -1.8759  3.2969 -0.8355
  330TMC3    H2 4960   1.746   0.857   9.579  2.4458  0.3618 -1.1095
  330TMC3    C7 4961   1.904   0.955   9.758  0.1556 -0.6344 -0.4119
  330TMC3    C8 4962   1.554   0.979   9.440  0.9183 -0.0293  1.0250
  330TMC3    O1 4963   1.855   0.846   9.789 -0.2050 -0.3777  0.5154
  330TMC3    O2 4964   1.436   1.007   9.443  0.5230 -0.4790  0.1002
  331MPD2     C 4965   4.250   0.599  12.746  0.1655  0.3453  0.4122
  331MPD2    C1 4966   4.368   0.660  12.708  0.4778  0.4578 -0.1495
  331MPD2    C2 4967   4.448   0.592  12.615 -0.1532  0.9575 -0.6488
  331MPD2    C3 4968   4.417   0.472  12.557  1.2065  0.5284 -0.0063
  331MPD2    C4 4969   4.302   0.407  12.602 -0.3789 -0.2084  0.3436
  331MPD2    C5 4970   4.221   0.476  12.692  0.4709 -0.5810  0.2165
  331MPD2     H 4971   4.537   0.641  12.575  1.5721  0.4050  2.5019
  331MPD2    H1 4972   4.269   0.315  12.556  1.0665 -0.0335 -1.0446
  331MPD2    H2 4973   4.185   0.649  12.816 -0.2729 -0.5532  0.6482
  331MPD2    H3 4974   4.126   0.430  12.717 -0.5001  0.6144 -1.2533
  331MPD2     N 4975   4.504   0.412  12.460 -0.2937 -0.2065  0.3103
  331MPD2    H5 4976   4.578   0.469  12.421 -1.4151 -0.0254 -1.5785
  331MPD2    N1 4977   4.399   0.789  12.765  0.4431  0.2919  0.5026
  331MPD2    H7 4978   4.319   0.830  12.811  0.4659  1.5226 -0.5424
  332TMC3    C1 4979   4.630   0.255  12.346 -0.0501  0.7857  0.2286
  332TMC3    C2 4980   4.670   0.364  12.272  0.0828 -0.5429 -0.0481
  332TMC3    C3 4981   0.077   0.375  12.236 -0.0065 -0.2834 -0.1338
  332TMC3    C4 4982   4.721   0.165  12.396 -1.0487  0.0031  0.0414
  332TMC3    C5 4983   0.132   0.185  12.365 -0.7520 -0.4016 -0.1425
  332TMC3    C6 4984   0.174   0.290  12.282  0.5759 -0.6513 -0.5022
  332TMC3     C 4985   4.518   0.279  12.434 -0.2609  0.1534  0.5141
  332TMC3     O 4986   4.466   0.180  12.487  0.2411  0.2642 -0.3062
  332TMC3     H 4987   4.599   0.436  12.233  2.2155  2.3990  1.4633
  332TMC3    H1 4988   4.691   0.086  12.464  1.0248 -2.3336 -1.7468
  332TMC3    H2 4989   0.277   0.316  12.263  0.3011  2.1478  1.7816
  332TMC3    C7 4990   0.234   0.096  12.408 -0.2014  0.3264 -0.3068
  332TMC3    C8 4991   0.126   0.488  12.156 -0.7014 -0.0402  0.3313
  332TMC3    O1 4992   0.191   4.708  12.437  0.1829 -0.0371 -0.3639
  332TMC3    O2 4993   0.244   0.518  12.168 -0.0155 -0.0295  0.1267
  333MPD2     C 4994   0.492   0.954  11.316 -0.2467 -0.3184 -0.0565
  333MPD2    C1 4995   0.463   0.917  11.185  0.2646 -0.2010 -0.3509
  333MPD2    C2 4996   0.347   0.846  11.162  0.2176 -0.4923 -0.1397
  333MPD2    C3 4997   0.254   0.817  11.265 -0.1200  0.3724  0.3460
  333MPD2    C4 4998   0.282   0.865  11.385 -0.8392 -0.2707 -0.2295
  333MPD2    C5 4999   0.399   0.926  11.415 -0.2183  0.3125 -0.1319
  333MPD2     H 5000   0.319   0.811  11.063  0.4529  0.1576 -0.4354
  333MPD2    H1 5001   0.215   0.850  11.469 -2.1180  1.1180 -1.0016
  333MPD2    H2 5002   0.585   1.006  11.333 -0.6168  0.7888 -1.3698
  333MPD2    H3 5003   0.405   0.948  11.521 -1.1087  1.8412 -0.4027
  333MPD2     N 5004   0.137   0.731  11.244  0.1204  0.1090  0.1743
  333MPD2    H5 5005   0.134   0.672  11.161 -0.4762  2.5396 -1.5388
  333MPD2    N1 5006   0.544   0.972  11.082  0.3691 -0.3997  0.3834
  333MPD2    H7 5007   0.615   1.037  11.113  0.1748  0.0670 -0.1628
  334TMC3    C1 5008   0.644   1.001  10.871  0.6725  0.2103 -1.1715
  334TMC3    C2 5009   0.698   0.936  10.765 -0.3767  0.3665  0.4065
  334TMC3    C3 5010   0.802   0.989  10.697  0.1240  0.0454  0.6090
  334TMC3    C4 5011   0.681   1.126  10.902 -0.1626 -0.2602  0.3100
  334TMC3    C5 5012   0.779   1.188  10.828 -0.0268  0.0691 -0.0835
  334TMC3    C6 5013   0.844   1.116  10.729  0.3855  0.6697  0.2564
  334TMC3     C 5014   0.546   0.939  10.949  0.5326  0.1724 -0.7436
  334TMC3     O 5015   0.468   0.865  10.890  0.6758  1.1756 -0.1336
  334TMC3     H 5016   0.673   0.831  10.756 -0.6418  0.6135 -1.7520
  334TMC3    H1 5017   0.619   1.181  10.972  1.6532  1.7501  0.3113
  334TMC3    H2 5018   0.907   1.174  10.664  0.8024 -0.9060 -0.7596
  334TMC3    C7 5019   0.828   1.318  10.876 -0.2551 -0.1012 -0.2134
  334TMC3    C8 5020   0.899   0.893  10.630 -0.5971 -0.1255 -0.1611
  334TMC3    O1 5021   0.768   1.368  10.971 -0.2289  0.2513  0.5707
  334TMC3    O2 5022   0.850   0.797  10.579  0.0963 -0.3227 -0.1507
  335TMC3    C1 5023   4.095   2.460  17.313  0.2190  0.1789 -0.4376
  335TMC3    C2 5024   4.002   2.419  17.219  0.5002  0.7409  0.4345
  335TMC3    C3 5025   4.056   2.349  17.115 -0.6322  0.9550 -0.3715
  335TMC3    C4 5026   4.230   2.434  17.301 -0.6112 -0.0173 -0.3851
  335TMC3    C5 5027   4.272   2.363  17.192 -0.0532 -0.0508  0.6363
  335TMC3    C6 5028   4.186   2.319  17.101 -0.4834  0.3839 -0.6049
  335TMC3     C 5029   4.054   2.531  17.432  0.0287  0.4358  0.1691
  335TMC3     O 5030   4.144   2.532  17.518  0.1344 -0.0872 -0.1467
  335TMC3     H 5031   3.896   2.432  17.236  0.0890  2.0618 -3.0652
  335TMC3    H1 5032   4.296   2.476  17.375  0.1347 -1.7011 -0.0907
  335TMC3    H2 5033   4.218   2.252  17.021  0.0670 -2.2330  1.7828
  335TMC3    C7 5034   4.386   2.271  17.214 -0.6148  0.0671  0.4740
  335TMC3    C8 5035   3.963   2.266  17.047 -0.3847 -0.0629 -0.4285
  335TMC3    O1 5036   4.430   2.199  17.129  0.6017  0.0825  0.0831
  335TMC3    O2 5037   3.857   2.311  17.008  0.1968 -0.3855 -0.1558
  336MPD2     C 5038   4.348   4.683  16.049  0.5915 -0.4562  0.4927
  336MPD2    C1 5039   4.325   4.625  15.926 -0.5619 -0.3940 -0.3201
  336MPD2    C2 5040   4.333   4.487  15.912  0.4267 -0.1358 -0.3785
  336MPD2    C3 5041   4.353   4.407  16.020 -0.8681 -0.2005 -0.0148
  336MPD2    C4 5042   4.377   4.464  16.143 -0.1606  0.8550  0.3917
  336MPD2    C5 5043   4.377   4.602  16.158  0.1122  0.2978 -0.5717
  336MPD2     H 5044   4.324   4.440  15.815  0.6136 -0.1889 -0.3694
  336MPD2    H1 5045   4.380   4.415  16.240  0.5594  1.0453  0.4657
  336MPD2    H2 5046   4.333   0.064  16.064  1.2505 -0.5632  1.8799
  336MPD2    H3 5047   4.395   4.652  16.253  2.7109 -3.2688  0.8042
  336MPD2     N 5048   4.348   4.271  16.016 -0.5193  0.2692  0.5311
  336MPD2    H5 5049   4.375   4.227  16.103  1.7553  0.5638 -0.0205
  336MPD2    N1 5050   4.293   4.699  15.809  0.2438  0.7255  0.1832
  336MPD2    H7 5051   4.258   4.641  15.733 -1.1854 -0.8001  2.0082
  337TMC3    C1 5052   4.214   0.158  15.696 -0.0565  0.3071  0.0556
  337TMC3    C2 5053   4.087   0.108  15.693  1.1045 -0.4877 -0.1954
  337TMC3    C3 5054   3.997   0.155  15.601 -0.3446 -0.3580 -0.3046
  337TMC3    C4 5055   4.245   0.269  15.626  1.0652 -1.3965 -0.0400
  337TMC3    C5 5056   4.149   0.331  15.550  0.0446  0.6355  0.3676
  337TMC3    C6 5057   4.028   0.266  15.531 -0.3949 -0.6341 -0.1300
  337TMC3     C 5058   4.299   0.114  15.800 -0.1243 -0.2482 -0.3751
  337TMC3     O 5059   4.364   0.197  15.863  0.0852  0.0076 -0.2890
  337TMC3     H 5060   4.055   0.022  15.750 -0.3955 -0.0173 -0.3167
  337TMC3    H1 5061   4.348   0.303  15.622  1.0186 -1.2991 -0.4807
  337TMC3    H2 5062   3.950   0.318  15.476  0.4008  0.0929 -0.5753
  337TMC3    C7 5063   4.193   0.422  15.450 -1.0827  0.7301 -0.5840
  337TMC3    C8 5064   3.852   0.130  15.621 -0.9200  0.4253 -0.0058
  337TMC3    O1 5065   4.311   0.436  15.424  0.4943 -0.0026 -0.7165
  337TMC3    O2 5066   3.826   0.078  15.728  0.5176  0.2694  0.3704
  338MPD2     C 5067   4.449   3.349   1.323  0.0870 -0.3688 -0.4393
  338MPD2    C1 5068   4.437   3.320   1.193 -0.0475  0.3321 -0.1501
  338MPD2    C2 5069   4.315   3.299   1.133  0.6557 -1.0866  0.2739
  338MPD2    C3 5070   4.200   3.324   1.207  0.2341  0.4723 -0.0592
  338MPD2    C4 5071   4.210   3.350   1.338 -0.5700  0.1310 -0.3662
  338MPD2    C5 5072   4.337   3.355   1.404 -0.6279 -0.2784  0.0748
  338MPD2     H 5073   4.298   3.272   1.029  0.3053  1.3961 -0.3320
  338MPD2    H1 5074   4.131   3.363   1.411  0.8604  1.0864  1.0099
  338MPD2    H2 5075   4.546   3.354   1.373  0.7358 -4.1854 -1.3677
  338MPD2    H3 5076   4.344   3.361   1.512 -4.2944 -0.4084  0.3157
  338MPD2     N 5077   4.073   3.310   1.143  0.1459  0.1220  0.5575
  338MPD2    H5 5078   4.067   3.291   1.043 -0.2272  0.8145  0.4432
  338MPD2    N1 5079   4.554   3.299   1.111  0.4346  0.5561 -0.4792
  338MPD2    H7 5080   4.537   3.285   1.012  0.6348 -0.3888 -0.3770
  339TMC3    C1 5081   3.839   3.274   1.121  0.6163 -0.4332 -0.5109
  339TMC3    C2 5082   3.741   3.231   1.203 -0.6496  0.9522  0.4377
  339TMC3    C3 5083   3.612   3.262   1.174  0.7148  0.7132  0.9997
  339TMC3    C4 5084   3.812   3.340   1.001  0.3727  0.7625  0.3786
  339TMC3    C5 5085   3.684   3.352   0.966  0.1403 -0.1279  0.0791
  339TMC3    C6 5086   3.579   3.318   1.052  0.4061  0.6406  0.4946
  339TMC3     C 5087   3.954   3.307   1.208  0.4774 -0.2055  0.5916
  339TMC3     O 5088   3.930   3.324   1.328  0.0687 -0.1777 -0.7632
  339TMC3     H 5089   3.767   3.185   1.298 -0.3054  0.8142  0.2774
  339TMC3    H1 5090   3.896   3.375   0.941  0.1611  1.6412  0.5978
  339TMC3    H2 5091   3.479   3.336   1.014 -0.8095 -0.3091  3.2153
  339TMC3    C7 5092   3.666   3.442   0.852  0.4040  0.3899  0.4738
  339TMC3    C8 5093   3.499   3.225   1.256 -0.2666 -0.8389  0.6398
  339TMC3    O1 5094   3.770   3.468   0.797 -0.7289  0.1135  0.8709
  339TMC3    O2 5095   3.379   3.238   1.216 -0.4515 -0.0072 -0.3479
  340MPD2     C 5096   0.803   2.506  10.421  0.2204  0.4402 -0.4662
  340MPD2    C1 5097   0.719   2.393  10.402 -0.3699  0.5524 -0.0919
  340MPD2    C2 5098   0.736   2.287  10.486  0.4310  0.0306 -0.5927
  340MPD2    C3 5099   0.846   2.275  10.567  0.4905  0.7765 -0.0468
  340MPD2    C4 5100   0.922   2.387  10.588  0.0955 -0.5910  0.0287
  340MPD2    C5 5101   0.895   2.505  10.528  0.1575 -0.4072  0.1772
  340MPD2     H 5102   0.676   2.198  10.472  0.5289 -0.2209  0.5385
  340MPD2    H1 5103   1.009   2.380  10.652  0.6960  3.1087 -0.3703
  340MPD2    H2 5104   0.798   2.593  10.356 -1.2023 -0.4184 -1.5030
  340MPD2    H3 5105   0.962   2.588  10.547  1.6773 -1.5566 -0.1137
  340MPD2     N 5106   0.884   2.153  10.626 -0.0637  0.4367 -0.8328
  340MPD2    H5 5107   0.973   2.155  10.675 -0.7524  0.1099  0.4158
  340MPD2    N1 5108   0.628   2.388  10.288  0.0576  0.2466  0.4982
  340MPD2    H7 5109   0.642   2.457  10.215 -2.8973 -0.7898 -1.0497
  341TMC3    C1 5110   0.532   2.224  10.134  0.0321 -0.4197 -0.9522
  341TMC3    C2 5111   0.464   2.105  10.133 -1.0986 -0.1857 -0.0545
  341TMC3    C3 5112   0.511   2.006  10.056 -1.0727  0.3653 -0.4674
  341TMC3    C4 5113   0.645   2.247  10.048 -0.1055 -0.2185  0.5285
  341TMC3    C5 5114   0.685   2.143   9.966  0.1662 -0.4810 -0.1952
  341TMC3    C6 5115   0.625   2.018   9.977 -0.1507  0.3943  0.7124
  341TMC3     C 5116   0.537   2.284  10.269 -0.7490 -0.4326  0.2394
  341TMC3     O 5117   0.477   2.227  10.363 -0.4092  0.2827  0.2003
  341TMC3     H 5118   0.396   2.083  10.215 -1.7343 -0.4140 -0.6367
  341TMC3    H1 5119   0.703   2.339  10.043  0.5240 -0.8511 -3.2433
  341TMC3    H2 5120   0.651   1.941   9.906 -3.8001  0.5962 -0.8534
  341TMC3    C7 5121   0.805   2.144   9.876 -0.5727  0.8262 -0.1567
  341TMC3    C8 5122   0.448   1.875  10.063 -0.4897 -0.1154  1.0276
  341TMC3    O1 5123   0.848   2.036   9.846 -0.0898  0.1025  0.2520
  341TMC3    O2 5124   0.328   1.876  10.054 -0.1108  0.1819 -0.5464
  342MPD2     C 5125   3.278   4.658  17.689 -0.3301 -0.1631 -0.2885
  342MPD2    C1 5126   3.169   4.707  17.615 -0.7878 -0.3318  0.0301
  342MPD2    C2 5127   3.129   0.110  17.633  0.7121  0.4986 -0.0020
  342MPD2    C3 5128   3.191   0.193   0.021  0.5411 -0.6111  0.2932
  342MPD2    C4 5129   3.299   0.144   0.096 -0.1254 -0.0544  0.3735
  342MPD2    C5 5130   3.339   0.017   0.075 -0.5817  0.9079 -0.6146
  342MPD2     H 5131   3.054   0.151  17.566  1.5951 -0.1829 -1.4127
  342MPD2    H1 5132   3.349   0.210   0.166 -1.8010  1.3666  0.2442
  342MPD2    H2 5133   3.314   4.557  17.678 -1.6119 -0.8264  1.6376
  342MPD2    H3 5134   3.426   4.703   0.127 -1.5577 -1.0331 -0.4084
  342MPD2     N 5135   3.164   0.333   0.028  0.4240  0.4706 -0.6668
  342MPD2    H5 5136   3.236   0.388   0.073  0.3442  0.1099 -0.0986
  342MPD2    N1 5137   3.116   4.633  17.507  0.1374 -0.6369 -0.5689
  342MPD2    H7 5138   3.072   4.680  17.430 -0.3271  1.4354  0.9706
  343TMC3    C1 5139   3.059   4.431  17.397  0.2310 -1.1624  0.1061
  343TMC3    C2 5140   3.088   4.472  17.267 -0.0518 -0.2559  0.2828
  343TMC3    C3 5141   3.053   4.387  17.166  0.0882 -0.1593 -0.6832
  343TMC3    C4 5142   2.983   4.322  17.426  0.2920  0.8377 -0.0689
  343TMC3    C5 5143   2.945   4.244  17.320  0.4245 -0.3814  0.2390
  343TMC3    C6 5144   2.979   4.272  17.192  0.0091 -0.0361 -0.2356
  343TMC3     C 5145   3.121   4.494  17.508  0.1337  0.2163 -0.2820
  343TMC3     O 5146   3.117   4.428  17.611 -0.5310 -0.2219  0.5653
  343TMC3     H 5147   3.159   4.552  17.249  0.3415 -0.5919  0.3439
  343TMC3    H1 5148   2.955   4.303  17.529 -2.1247  1.1900 -0.6582
  343TMC3    H2 5149   2.954   4.216  17.102 -0.5280 -1.5630  0.8776
  343TMC3    C7 5150   2.861   4.129  17.332  0.6704  0.3110 -0.1353
  343TMC3    C8 5151   3.106   4.418  17.031  0.5136 -0.1203  0.6012
  343TMC3    O1 5152   2.804   4.110  17.227 -0.0842  0.1764 -0.2459
  343TMC3    O2 5153   3.154   4.531  17.017 -0.5375  0.6623 -0.2585
  344MPD2     C 5154   4.468   0.016  10.494 -0.5029 -0.6122  1.0864
  344MPD2    C1 5155   4.352   0.032  10.427  0.0591  0.3091  0.8692
  344MPD2    C2 5156   4.338   0.148  10.357 -0.2787  0.0762 -0.6212
  344MPD2    C3 5157   4.438   0.243  10.345  0.5573 -0.1583 -0.5373
  344MPD2    C4 5158   4.562   0.218  10.403  0.8927 -0.4746  0.1618
  344MPD2    C5 5159   4.576   0.105  10.484 -0.1803  0.8819 -0.3080
  344MPD2     H 5160   4.240   0.177  10.321  0.1064  2.0106 -0.0839
  344MPD2    H1 5161   4.640   0.292  10.408  0.7847 -0.4690  1.9484
  344MPD2    H2 5162   4.490   4.652  10.552 -1.0305 -1.3219  0.1876
  344MPD2    H3 5163   4.660   0.076  10.545 -0.0873  2.7193  0.4502
  344MPD2     N 5164   4.422   0.375  10.287 -0.2350 -0.1643 -0.0026
  344MPD2    H5 5165   4.499   0.440  10.295 -2.5834  2.2930  2.9697
  344MPD2    N1 5166   4.240   4.668  10.442 -0.0973  0.5761 -0.1192
  344MPD2    H7 5167   4.157   4.701  10.394 -0.1361 -0.6405 -0.8751
  345TMC3    C1 5168   4.325   0.535  10.142 -0.0991  0.8382 -0.1456
  345TMC3    C2 5169   4.389   0.641  10.210  0.6997 -0.5747  0.0372
  345TMC3    C3 5170   4.363   0.769  10.166  0.4580  0.8278 -0.0829
  345TMC3    C4 5171   4.237   0.552  10.040 -0.0023 -0.1133 -0.1874
  345TMC3    C5 5172   4.215   0.685   9.999 -0.3081  0.0465 -0.0477
  345TMC3    C6 5173   4.281   0.795  10.057 -0.3499  0.1800 -0.0558
  345TMC3     C 5174   4.315   0.415  10.210 -0.1063 -0.2822  0.0296
  345TMC3     O 5175   4.216   0.352  10.179 -0.4046 -0.0997  0.2655
  345TMC3     H 5176   4.444   0.616  10.300  1.0484  2.5884  0.6929
  345TMC3    H1 5177   4.186   0.470   9.991  0.7057 -0.2085 -0.7710
  345TMC3    H2 5178   4.249   0.896  10.032 -1.6265 -0.1404  0.2654
  345TMC3    C7 5179   4.193   0.701   9.857  0.2744 -0.1670  0.5557
  345TMC3    C8 5180   4.446   0.884  10.203 -0.1640 -0.1081  0.2384
  345TMC3    O1 5181   4.114   0.627   9.804  0.0224  0.3229 -0.1625
  345TMC3    O2 5182   4.422   0.983  10.133  0.3363 -0.0132  0.5500
  346MPD2     C 5183   3.912   1.430  13.918 -0.7107  0.5576 -0.1673
  346MPD2    C1 5184   4.026   1.505  13.927  0.1756  0.0929 -0.2400
  346MPD2    C2 5185   4.022   1.630  13.996  0.0587  0.0232 -0.1429
  346MPD2    C3 5186   3.910   1.667  14.071  0.0232 -0.0309 -0.0807
  346MPD2    C4 5187   3.804   1.584  14.077 -0.7818  0.4437 -0.6485
  346MPD2    C5 5188   3.803   1.473  13.990  0.1601  0.0426  0.0076
  346MPD2     H 5189   4.114   1.687  14.006  0.0465  0.1149 -0.5704
  346MPD2    H1 5190   3.711   1.612  14.126 -1.8145 -1.0656 -1.7434
  346MPD2    H2 5191   3.904   1.334  13.868 -2.2913 -1.1110  3.2919
  346MPD2    H3 5192   3.713   1.414  13.972 -0.1528  0.8950 -1.2253
  346MPD2     N 5193   3.913   1.787  14.144  0.7844  0.2339 -0.3986
  346MPD2    H5 5194   4.002   1.835  14.136  1.8013 -1.5120  0.4825
  346MPD2    N1 5195   4.153   1.465  13.875  0.2198 -0.5261 -0.4630
  346MPD2    H7 5196   4.226   1.536  13.872 -0.4385  0.2338  1.2570
  347TMC3    C1 5197   3.878   1.940  14.315 -0.1246  0.0067 -0.3485
  347TMC3    C2 5198   3.963   2.030  14.264 -1.0806 -1.0106 -0.2268
  347TMC3    C3 5199   4.018   2.126  14.342 -0.1165  0.3104 -0.0075
  347TMC3    C4 5200   3.841   1.935  14.444  0.3186  0.0913 -0.5013
  347TMC3    C5 5201   3.908   2.019  14.524  0.3285  0.6594 -0.7091
  347TMC3    C6 5202   3.988   2.118  14.475 -1.0327  0.8069  0.1961
  347TMC3     C 5203   3.823   1.831  14.235 -0.2427 -0.0364 -0.2325
  347TMC3     O 5204   3.714   1.784  14.267 -0.2803 -0.3237 -0.1223
  347TMC3     H 5205   3.973   2.040  14.157 -0.4302 -0.0468 -0.0731
  347TMC3    H1 5206   3.771   1.860  14.478  1.7674  0.6265  3.5941
  347TMC3    H2 5207   4.046   2.176  14.546  4.0230 -1.4539 -2.0923
  347TMC3    C7 5208   3.912   2.002  14.665  0.0101 -0.3231 -0.1796
  347TMC3    C8 5209   4.146   2.178  14.300  0.2646 -0.5752 -0.7753
  347TMC3    O1 5210   3.960   2.098  14.730  0.0256 -0.3540  0.1480
  347TMC3    O2 5211   4.202   2.099  14.223  0.0263  0.4194  0.0199
  348MPD2     C 5212   2.436   1.505  12.517  0.2138 -0.4724 -0.6576
  348MPD2    C1 5213   2.563   1.480  12.479 -0.0838  0.2429  0.0187
  348MPD2    C2 5214   2.620   1.527  12.356  0.1825 -0.3302 -0.4669
  348MPD2    C3 5215   2.547   1.613  12.271  0.3461  0.3105  0.0418
  348MPD2    C4 5216   2.417   1.649  12.322 -0.0242  0.1310 -0.0507
  348MPD2    C5 5217   2.368   1.591  12.438  0.2574  0.5352  0.2529
  348MPD2     H 5218   2.721   1.504  12.325  0.7592 -0.5670  1.5910
  348MPD2    H1 5219   2.351   1.710  12.261  2.3000  1.6659 -0.9998
  348MPD2    H2 5220   2.384   1.449  12.593  2.5321  0.6421  1.7644
  348MPD2    H3 5221   2.265   1.610  12.466 -0.2463 -0.7017 -0.7649
  348MPD2     N 5222   2.600   1.678  12.149  0.1565 -0.0180  0.0389
  348MPD2    H5 5223   2.697   1.650  12.133  1.0432  1.4599  2.7434
  348MPD2    N1 5224   2.648   1.403  12.558 -0.0217  0.4772  0.1535
  348MPD2    H7 5225   2.737   1.373  12.519 -1.0785 -0.1434 -1.7621
  349TMC3    C1 5226   2.740   1.266  12.723 -0.6682  0.5302  0.4167
  349TMC3    C2 5227   2.744   1.126  12.712  0.2079  0.6014  0.3298
  349TMC3    C3 5228   2.867   1.069  12.709 -0.5406 -0.8428  0.5522
  349TMC3    C4 5229   2.853   1.342  12.736 -0.0700 -0.1302  0.1200
  349TMC3    C5 5230   2.972   1.274  12.731  0.3411 -0.2848  0.7461
  349TMC3    C6 5231   2.983   1.143  12.714  0.2909  0.5958  0.2814
  349TMC3     C 5232   2.623   1.339  12.680 -0.1460  0.4278 -0.0709
  349TMC3     O 5233   2.521   1.312  12.741 -0.0449 -0.3318 -0.7271
  349TMC3     H 5234   2.659   1.065  12.684  0.7060 -1.1939  2.7242
  349TMC3    H1 5235   2.830   1.448  12.743 -1.7172 -0.4398 -0.6900
  349TMC3    H2 5236   3.080   1.097  12.725  1.2570  3.0266  1.8641
  349TMC3    C7 5237   3.090   1.356  12.711 -0.2156  0.4844 -0.0754
  349TMC3    C8 5238   2.867   0.938  12.660  0.1190  0.0650 -0.5984
  349TMC3    O1 5239   3.181   1.291  12.661  0.2058 -0.8940 -0.3596
  349TMC3    O2 5240   2.765   0.871  12.661 -0.1880 -0.1504 -0.3564
  350MPD2     C 5241   1.958   3.188  10.417  0.1059  0.2434 -0.4713
  350MPD2    C1 5242   2.046   3.263  10.342 -1.1434  0.5613 -0.6000
  350MPD2    C2 5243   2.044   3.402  10.354 -0.0386 -0.2354  0.1690
  350MPD2    C3 5244   1.959   3.471  10.438 -0.3467  0.2180  0.8390
  350MPD2    C4 5245   1.876   3.392  10.511  0.4637  0.6435 -0.0982
  350MPD2    C5 5246   1.886   3.256  10.509  0.0659  0.2994 -0.0951
  350MPD2     H 5247   2.108   3.461  10.289 -0.4125 -0.3027 -0.2574
  350MPD2    H1 5248   1.814   3.438  10.587 -0.2605 -0.2327 -0.1545
  350MPD2    H2 5249   1.962   3.080  10.416 -0.1945  0.2128  0.9664
  350MPD2    H3 5250   1.831   3.190  10.576 -0.3716 -2.0690 -2.7747
  350MPD2     N 5251   1.955   3.617  10.437 -0.5015 -1.2090 -0.1281
  350MPD2    H5 5252   2.030   3.661  10.385 -1.8363  0.9880 -0.1703
  350MPD2    N1 5253   2.134   3.199  10.246 -0.2192 -0.0760 -0.1880
  350MPD2    H7 5254   2.200   3.259  10.197  0.4923 -0.0809  0.7605
  351TMC3    C1 5255   2.222   3.029  10.105  0.2538  0.3903  0.4602
  351TMC3    C2 5256   2.292   2.909  10.118  0.0459  0.2645  0.2268
  351TMC3    C3 5257   2.401   2.894  10.034  1.1028 -0.8048  0.3712
  351TMC3    C4 5258   2.248   3.114  10.004 -0.8547 -0.7314 -0.0163
  351TMC3    C5 5259   2.360   3.090   9.924 -0.0695 -0.1349  1.2076
  351TMC3    C6 5260   2.441   2.979   9.935 -0.2813  0.9368 -0.5423
  351TMC3     C 5261   2.130   3.064  10.206 -0.2834  0.3921  0.4194
  351TMC3     O 5262   2.068   2.971  10.258 -0.2436  0.0632  0.2248
  351TMC3     H 5263   2.272   2.850  10.207  0.7892 -0.8828 -0.3740
  351TMC3    H1 5264   2.186   3.202   9.994 -1.4764 -1.2026 -0.3118
  351TMC3    H2 5265   2.521   2.971   9.862  0.1488  0.6728 -0.0448
  351TMC3    C7 5266   2.394   3.184   9.820 -0.0066 -0.5624  0.1451
  351TMC3    C8 5267   2.484   2.780  10.048 -0.0226 -0.4387  0.2243
  351TMC3    O1 5268   2.490   3.161   9.749  0.2683 -0.2282  0.2663
  351TMC3    O2 5269   2.594   2.780   9.989  0.1147  0.1150 -0.3046
  352MPD2     C 5270   4.394   0.716   1.418  0.0653 -0.5610 -0.0684
  352MPD2    C1 5271   4.366   0.697   1.290 -0.0848  0.0887 -0.2752
  352MPD2    C2 5272   4.373   0.570   1.222 -0.3328  0.3991 -0.3565
  352MPD2    C3 5273   4.413   0.464   1.306  0.6255  0.4439 -0.3794
  352MPD2    C4 5274   4.446   0.483   1.435 -0.4235  0.0796 -0.2103
  352MPD2    C5 5275   4.433   0.607   1.492  0.4584  1.6169 -0.1500
  352MPD2     H 5276   4.346   0.545   1.121 -1.0937 -1.4662  0.3136
  352MPD2    H1 5277   4.467   0.394   1.493  1.5907  1.1882  0.7524
  352MPD2    H2 5278   4.389   0.818   1.453 -2.8580 -1.0478  0.9351
  352MPD2    H3 5279   4.446   0.612   1.600 -0.8201  0.7889  0.0350
  352MPD2     N 5280   4.435   0.341   1.254  0.4052 -0.3582  0.0936
  352MPD2    H5 5281   4.456   0.276   1.329  1.0544  0.3980  0.5624
  352MPD2    N1 5282   4.317   0.811   1.226  0.7453 -0.1650 -0.0407
  352MPD2    H7 5283   4.311   0.892   1.285 -0.5169 -0.8082  0.6975
  353TMC3    C1 5284   4.411   0.163   1.105 -0.1308 -0.2325  0.8581
  353TMC3    C2 5285   4.491   0.079   1.185  0.2825 -0.1376  0.0462
  353TMC3    C3 5286   4.494   4.669   1.147 -0.9445 -0.0579 -0.3200
  353TMC3    C4 5287   4.343   0.110   0.995 -0.1087 -0.8551 -0.6127
  353TMC3    C5 5288   4.345   4.704   0.969  0.7973 -0.3451 -0.2378
  353TMC3    C6 5289   4.426   4.613   1.038  0.0824  0.4177  0.5015
  353TMC3     C 5290   4.411   0.301   1.125 -0.2671 -0.3088 -0.1741
  353TMC3     O 5291   4.406   0.357   1.016  0.3847  0.5131 -0.1627
  353TMC3     H 5292   4.550   0.119   1.266 -0.9711 -1.0893  1.4511
  353TMC3    H1 5293   4.273   0.173   0.942  2.8280 -0.0914 -3.5957
  353TMC3    H2 5294   4.429   4.509   1.007  0.4311  0.8130 -0.8195
  353TMC3    C7 5295   4.271   4.649   0.849  0.2817  0.5740  0.5205
  353TMC3    C8 5296   4.586   4.594   1.216  0.5932 -0.8887  1.1133
  353TMC3    O1 5297   4.245   4.718   0.749  0.3269  0.7920 -0.0361
  353TMC3    O2 5298   4.646   4.642   1.315  0.0369 -0.4019  0.4955
  354TMC3    C1 5299   1.505   2.523  13.587 -0.4728 -0.3650 -0.3066
  354TMC3    C2 5300   1.452   2.639  13.532 -0.2568 -0.9110  0.8913
  354TMC3    C3 5301   1.493   2.666  13.405 -0.5025 -0.5648  0.1638
  354TMC3    C4 5302   1.568   2.428  13.514  0.3244  0.3632  0.8058
  354TMC3    C5 5303   1.602   2.460  13.385 -0.3730 -0.1924  0.2106
  354TMC3    C6 5304   1.574   2.581  13.331  1.2843 -0.4894  0.7013
  354TMC3     C 5305   1.487   2.493  13.729  0.8809  0.3080  0.1196
  354TMC3     O 5306   1.506   2.372  13.766  0.0101  0.3034  0.2018
  354TMC3     H 5307   1.388   2.702  13.592  0.3205  1.6738 -1.1965
  354TMC3    H1 5308   1.630   2.357  13.567  0.3064 -0.2646 -0.0103
  354TMC3    H2 5309   1.617   2.612  13.237 -1.1509 -0.2502 -0.3396
  354TMC3    C7 5310   1.710   2.379  13.332  0.2348  0.0568 -0.3111
  354TMC3    C8 5311   1.441   2.780  13.332  0.6493 -0.4922  0.5503
  354TMC3    O1 5312   1.705   2.256  13.353  0.5768 -0.5849 -0.2144
  354TMC3    O2 5313   1.459   2.779  13.212 -0.0577 -0.8503 -0.9401
  355MPD2     C 5314   2.226   3.876  11.688 -0.6332  0.1333 -0.1692
  355MPD2    C1 5315   2.281   3.906  11.567  0.4118 -0.1144 -0.6055
  355MPD2    C2 5316   2.402   3.842  11.525 -0.3006  0.1347 -0.6885
  355MPD2    C3 5317   2.475   3.772  11.623 -0.2829  0.3993 -0.8378
  355MPD2    C4 5318   2.418   3.748  11.743 -0.1451 -0.3025  0.4020
  355MPD2    C5 5319   2.291   3.800  11.771  0.5569  0.2500 -0.1615
  355MPD2     H 5320   2.452   3.845  11.429  1.8133 -0.3625  0.3922
  355MPD2    H1 5321   2.476   3.693  11.816  0.5328 -1.0642 -0.7160
  355MPD2    H2 5322   2.133   3.921  11.722 -0.1705  1.3274 -0.4856
  355MPD2    H3 5323   2.249   3.780  11.869  1.8272  0.1826  0.3655
  355MPD2     N 5324   2.601   3.722  11.595 -0.5653 -0.1988 -0.2787
  355MPD2    H5 5325   2.626   3.642  11.651 -0.4421 -0.4470 -0.6926
  355MPD2    N1 5326   2.210   3.975  11.465  0.4517  0.6292  0.7806
  355MPD2    H7 5327   2.257   3.988  11.376 -1.2622 -0.0774 -0.2312
  356TMC3    C1 5328   2.817   3.687  11.506  0.6592  0.2735 -0.1114
  356TMC3    C2 5329   2.910   3.737  11.411 -0.1769 -0.0754  0.3479
  356TMC3    C3 5330   3.041   3.773  11.452  0.2701  0.0784 -0.1564
  356TMC3    C4 5331   2.857   3.658  11.633 -0.7539 -0.0878  0.4361
  356TMC3    C5 5332   2.983   3.699  11.665 -0.0805  0.2404 -0.2705
  356TMC3    C6 5333   3.078   3.750  11.585  0.1961 -0.2759  0.3564
  356TMC3     C 5334   2.688   3.757  11.488  0.1905 -0.2434 -0.6600
  356TMC3     O 5335   2.675   3.832  11.391  0.0896 -0.1726 -0.2607
  356TMC3     H 5336   2.884   3.737  11.306 -0.3325 -1.2552  0.3893
  356TMC3    H1 5337   2.790   3.638  11.716 -1.1752 -5.0254 -1.1276
  356TMC3    H2 5338   3.177   3.771  11.624 -0.2011 -2.7846  2.6780
  356TMC3    C7 5339   2.998   3.726  11.809  0.2588 -0.2945 -0.2384
  356TMC3    C8 5340   3.145   3.811  11.353  0.2046 -0.3981  0.2254
  356TMC3    O1 5341   2.966   3.638  11.886  0.2919  0.1406  0.7996
  356TMC3    O2 5342   3.254   3.831  11.401 -0.3864 -0.0177  0.0705
  357MPD2     C 5343   1.411   3.170   0.436 -0.6973  0.2251 -1.0838
  357MPD2    C1 5344   1.422   3.089   0.542 -0.1486  0.6102  0.4101
  357MPD2    C2 5345   1.331   3.104   0.649 -1.1172 -0.5410  0.2265
  357MPD2    C3 5346   1.233   3.198   0.641 -0.0213  0.1229  0.4863
  357MPD2    C4 5347   1.237   3.288   0.539 -0.4294 -1.2436 -0.2414
  357MPD2    C5 5348   1.329   3.277   0.435 -0.8285 -0.3595 -0.1963
  357MPD2     H 5349   1.341   3.039   0.736 -2.5489 -0.9862  0.0610
  357MPD2    H1 5350   1.167   3.370   0.546 -0.5471 -1.2162 -1.7490
  357MPD2    H2 5351   1.482   3.174   0.354  0.8938  2.8097  0.4168
  357MPD2    H3 5352   1.335   3.352   0.357  0.2133 -0.5337 -0.2878
  357MPD2     N 5353   1.127   3.204   0.731 -0.3092  0.6112  0.7047
  357MPD2    H5 5354   1.051   3.270   0.715 -1.2369 -0.9971 -1.4430
  357MPD2    N1 5355   1.536   3.003   0.552  0.3564  0.3475  0.4311
  357MPD2    H7 5356   1.587   2.984   0.466 -0.9892  2.6037 -0.8725
  358TMC3    C1 5357   1.664   2.842   0.686  0.0192 -0.0018  0.5975
  358TMC3    C2 5358   1.665   2.762   0.579 -0.6920 -0.1733 -0.5357
  358TMC3    C3 5359   1.739   2.646   0.576  0.0748  0.6547 -0.0116
  358TMC3    C4 5360   1.732   2.812   0.799 -0.1729 -0.6616  0.4022
  358TMC3    C5 5361   1.808   2.702   0.793 -0.1871 -0.4229 -0.9715
  358TMC3    C6 5362   1.806   2.607   0.690 -0.1116 -0.0262  0.3402
  358TMC3     C 5363   1.581   2.964   0.679 -0.1904 -0.3392 -0.9958
  358TMC3     O 5364   1.556   3.005   0.791 -0.0245  0.0590 -0.2670
  358TMC3     H 5365   1.609   2.783   0.489  0.7588 -1.6680 -1.7789
  358TMC3    H1 5366   1.728   2.884   0.880 -1.0796 -0.3327  0.0688
  358TMC3    H2 5367   1.878   2.526   0.692  0.1579  0.1789 -1.0408
  358TMC3    C7 5368   1.876   2.667   0.918 -0.6405  0.4868  0.4750
  358TMC3    C8 5369   1.739   2.566   0.455  0.1021 -0.8954 -0.0807
  358TMC3    O1 5370   1.966   2.585   0.909 -0.0923  0.0212 -0.8423
  358TMC3    O2 5371   1.702   2.617   0.350 -0.3927 -0.6956  0.9625
  359MPD2     C 5372   2.976   2.053  13.011  0.1734 -0.5387  0.3031
  359MPD2    C1 5373   2.900   2.043  12.893 -0.0764  0.3297 -0.7761
  359MPD2    C2 5374   2.770   1.995  12.909  0.1708  0.3590  0.7024
  359MPD2    C3 5375   2.721   1.965  13.034 -0.2060 -0.2921  0.5362
  359MPD2    C4 5376   2.802   1.971  13.144  0.1933  0.7966 -0.8375
  359MPD2    C5 5377   2.930   2.013  13.133  0.2030  0.6348 -0.2945
  359MPD2     H 5378   2.717   1.975  12.816  2.4906 -2.7199  0.0388
  359MPD2    H1 5379   2.768   1.928  13.238 -0.7229  2.7513 -0.2856
  359MPD2    H2 5380   3.082   2.074  13.002 -0.0108 -1.5133 -4.1736
  359MPD2    H3 5381   2.988   2.008  13.225  1.8609  0.8993 -1.3197
  359MPD2     N 5382   2.587   1.927  13.048  0.4368  0.5599 -0.6728
  359MPD2    H5 5383   2.556   1.904  13.142 -0.2564 -0.2673 -1.0931
  359MPD2    N1 5384   2.941   2.068  12.759  0.0772  0.1498 -0.2729
  359MPD2    H7 5385   2.876   2.051  12.683  0.8151  0.0947 -0.8951
  360TMC3    C1 5386   3.093   2.086  12.575  0.1631  0.1966  0.3157
  360TMC3    C2 5387   3.219   2.043  12.531  0.1002 -0.1463  0.5190
  360TMC3    C3 5388   3.222   2.005  12.405 -0.3736 -0.7388  0.3495
  360TMC3    C4 5389   2.987   2.112  12.500  0.2719 -0.5520 -0.3983
  360TMC3    C5 5390   3.009   2.089  12.365  0.4840  0.6559  1.1471
  360TMC3    C6 5391   3.118   2.026  12.319  0.1840  0.2382  0.0729
  360TMC3     C 5392   3.075   2.084  12.725 -0.3755  0.1408  0.7529
  360TMC3     O 5393   3.174   2.078  12.797 -0.1401 -0.2048  0.6116
  360TMC3     H 5394   3.292   2.022  12.608  1.9515 -1.7245 -1.6636
  360TMC3    H1 5395   2.899   2.155  12.547  0.1850 -2.1102  0.8880
  360TMC3    H2 5396   3.125   2.016  12.211 -0.1777 -1.2482  0.1869
  360TMC3    C7 5397   2.917   2.136  12.263 -0.5587 -0.0164  0.6235
  360TMC3    C8 5398   3.356   1.970  12.335 -0.1371  0.0885  0.3485
  360TMC3    O1 5399   2.957   2.144  12.148 -1.1339 -0.6950 -0.1488
  360TMC3    O2 5400   3.457   1.976  12.402 -0.0230 -0.2893  0.2223
  361MPD2     C 5401   3.736   0.291  16.840  0.3970  0.3317 -0.1156
  361MPD2    C1 5402   3.698   0.275  16.974  0.3014 -0.2236 -0.5139
  361MPD2    C2 5403   3.776   0.205  17.068 -0.3056  0.2797 -0.3297
  361MPD2    C3 5404   3.888   0.136  17.016  0.0146  0.2370  0.1554
  361MPD2    C4 5405   3.925   0.157  16.884  0.5205  0.4344 -0.6331
  361MPD2    C5 5406   3.854   0.233  16.798  0.2276  0.3738  0.4197
  361MPD2     H 5407   3.736   0.200  17.169  1.1660 -0.1981  0.2371
  361MPD2    H1 5408   4.016   0.111  16.848 -0.4750 -0.6594 -1.7643
  361MPD2    H2 5409   3.682   0.350  16.767  0.2646 -1.9541 -1.8937
  361MPD2    H3 5410   3.896   0.258  16.701 -0.1308  1.5518  0.5754
  361MPD2     N 5411   3.975   0.065  17.105  0.4540  0.3719 -0.3295
  361MPD2    H5 5412   4.046   0.006  17.064  0.8946  1.2763 -0.8892
  361MPD2    N1 5413   3.590   0.358  17.022  0.6499 -0.0469 -0.3162
  361MPD2    H7 5414   3.583   0.353  17.123 -0.3889 -2.0663 -0.4889
  362TMC3    C1 5415   3.407   0.518  17.022 -0.2216 -0.2819 -0.3721
  362TMC3    C2 5416   3.405   0.521  17.160  0.1185 -0.1863 -0.5395
  362TMC3    C3 5417   3.292   0.584  17.212 -0.0444  0.1480 -0.9195
  362TMC3    C4 5418   3.307   0.573  16.941  0.5188 -0.0288  0.3838
  362TMC3    C5 5419   3.197   0.621  17.005  0.3131 -0.4622 -0.1764
  362TMC3    C6 5420   3.189   0.636  17.142 -0.0532  0.7319 -0.3890
  362TMC3     C 5421   3.514   0.446  16.953 -0.2935 -0.4177 -1.0409
  362TMC3     O 5422   3.502   0.448  16.833 -0.2507  0.2427 -0.0546
  362TMC3     H 5423   3.485   0.491  17.227  0.6241  2.9378  0.2703
  362TMC3    H1 5424   3.323   0.591  16.836  0.0214  2.9554  0.8271
  362TMC3    H2 5425   3.101   0.688  17.179 -1.4462 -1.6928 -0.2503
  362TMC3    C7 5426   3.070   0.630  16.922 -0.2705  0.1099 -0.2615
  362TMC3    C8 5427   3.312   0.630  17.349 -0.0983 -0.3075  0.0560
  362TMC3    O1 5428   2.974   0.699  16.955 -0.0510 -0.5004  0.1607
  362TMC3    O2 5429   3.417   0.601  17.401  0.0787  0.6314 -0.5100
  363TMC3    C1 5430   2.587   3.635   9.883  0.3966 -0.4831  0.6591
  363TMC3    C2 5431   2.594   3.521   9.967  0.4921  0.5792  0.3061
  363TMC3    C3 5432   2.476   3.485  10.027  0.4930  0.1238 -0.6862
  363TMC3    C4 5433   2.475   3.711   9.862  0.0200 -0.4391  0.2838
  363TMC3    C5 5434   2.362   3.674   9.927  0.0780  0.3127  0.1547
  363TMC3    C6 5435   2.363   3.562  10.016 -0.0664 -0.3913  0.2804
  363TMC3     C 5436   2.704   3.666   9.809  0.1416  0.7557  0.0001
  363TMC3     O 5437   2.718   3.783   9.768 -0.4933  0.6262  0.2733
  363TMC3     H 5438   2.686   3.467   9.990 -0.4128 -0.8841  0.5118
  363TMC3    H1 5439   2.474   3.795   9.794  1.9140  1.3516  2.5077
  363TMC3    H2 5440   2.281   3.528  10.077 -0.6300 -1.3440 -1.0206
  363TMC3    C7 5441   2.258   3.774   9.943  0.3169 -0.0598  0.5035
  363TMC3    C8 5442   2.463   3.379  10.126  0.7367 -0.2915 -0.3435
  363TMC3    O1 5443   2.279   3.878   9.881  0.2764 -0.2056  0.2676
  363TMC3    O2 5444   2.359   3.370  10.191  0.2946 -0.5967 -0.2178
  364MPD2     C 5445   1.349   2.754  10.325  0.2180  0.2906 -0.4089
  364MPD2    C1 5446   1.478   2.707  10.303  0.3092 -0.6161  0.2085
  364MPD2    C2 5447   1.543   2.635  10.404 -0.2239  0.1104  0.2237
  364MPD2    C3 5448   1.483   2.624  10.531 -0.2651  0.0328  0.7279
  364MPD2    C4 5449   1.351   2.659  10.551  1.3022 -0.4770 -0.4196
  364MPD2    C5 5450   1.286   2.737  10.450 -0.0091 -0.2960  0.2458
  364MPD2     H 5451   1.645   2.599  10.397 -0.6969 -1.0762 -0.5374
  364MPD2    H1 5452   1.294   2.649  10.643  1.8107  1.3752  0.1036
  364MPD2    H2 5453   1.291   2.805  10.249 -0.0576  0.1800 -0.2728
  364MPD2    H3 5454   1.186   2.775  10.468  0.5930  0.8954  1.0546
  364MPD2     N 5455   1.554   2.575  10.640 -0.7193 -0.4242  0.2614
  364MPD2    H5 5456   1.502   2.556  10.725 -0.0339 -2.5054  0.2063
  364MPD2    N1 5457   1.532   2.740  10.176 -0.1385 -0.5801 -0.4961
  364MPD2    H7 5458   1.491   2.813  10.117  0.3355  0.1141  0.0389
  365TMC3    C1 5459   1.707   2.743  10.013 -0.2513  0.5227  0.5562
  365TMC3    C2 5460   1.821   2.688   9.974 -0.1438 -0.0474 -0.3906
  365TMC3    C3 5461   1.912   2.769   9.915 -0.0970 -0.1468  0.3780
  365TMC3    C4 5462   1.683   2.876   9.992  0.3890  0.3481  0.2974
  365TMC3    C5 5463   1.780   2.960   9.946 -0.4749 -0.2263  0.2129
  365TMC3    C6 5464   1.901   2.911   9.902 -0.1075  0.0065  0.2560
  365TMC3     C 5465   1.649   2.681  10.131  0.0697  0.4929 -1.0224
  365TMC3     O 5466   1.720   2.600  10.188 -1.0970  0.4940 -0.2133
  365TMC3     H 5467   1.835   2.581   9.981  0.8429  0.1058  0.0028
  365TMC3    H1 5468   1.589   2.918  10.027  0.8729  1.9206 -0.3062
  365TMC3    H2 5469   1.981   2.980   9.877 -0.9034  1.3097  1.3192
  365TMC3    C7 5470   1.793   3.092   9.999 -0.0476  0.2787 -1.5028
  365TMC3    C8 5471   2.040   2.710   9.872  0.1623 -0.4986  0.1667
  365TMC3    O1 5472   1.870   3.171   9.948  0.1764 -1.0374 -0.6200
  365TMC3    O2 5473   2.126   2.781   9.820 -0.3291 -0.0928  0.4813
  366MPD2     C 5474   4.064   3.764  14.826 -0.3283  0.2618 -0.7078
  366MPD2    C1 5475   4.118   3.760  14.949 -0.3483  0.3480 -0.2561
  366MPD2    C2 5476   4.249   3.721  14.971  1.0340  0.3843 -0.3718
  366MPD2    C3 5477   4.331   3.695  14.863  0.5825 -0.2554  0.1876
  366MPD2    C4 5478   4.278   3.710  14.737  0.5461 -0.2385 -0.1865
  366MPD2    C5 5479   4.147   3.742  14.719  0.0232  0.0941  0.7416
  366MPD2     H 5480   4.284   3.724  15.073 -0.2682  0.6546  0.0553
  366MPD2    H1 5481   4.342   3.697  14.651 -0.3967  2.2395 -1.2809
  366MPD2    H2 5482   3.962   3.795  14.804  0.2626  2.8147  0.1260
  366MPD2    H3 5483   4.104   3.745  14.619  3.3533 -1.3681 -0.7216
  366MPD2     N 5484   4.464   3.675  14.883  0.0749 -0.7076 -0.1527
  366MPD2    H5 5485   4.501   3.686  14.977  2.6702  1.6955 -1.4528
  366MPD2    N1 5486   4.056   3.816  15.061 -0.2664  0.5012  0.1916
  366MPD2    H7 5487   4.115   3.852  15.134 -1.0751 -0.7928  1.4868
  367TMC3    C1 5488   3.894   3.970  15.138  0.3205 -0.3137  0.7300
  367TMC3    C2 5489   3.971   4.017  15.243 -0.0321  0.0185 -0.0862
  367TMC3    C3 5490   3.935   4.135  15.300 -0.2003  0.5804 -1.0864
  367TMC3    C4 5491   3.785   4.045  15.093 -0.4566  0.2667 -0.3192
  367TMC3    C5 5492   3.748   4.157  15.157  0.1788  0.3411 -0.3112
  367TMC3    C6 5493   3.827   4.210  15.262  0.0638  0.9308  0.4780
  367TMC3     C 5494   3.925   3.860  15.052  0.5783 -0.5781 -0.2798
  367TMC3     O 5495   3.833   3.825  14.977  0.1520  0.1071 -0.0003
  367TMC3     H 5496   4.058   3.963  15.279 -0.5800 -0.8195 -0.0308
  367TMC3    H1 5497   3.727   4.007  15.009 -1.3173  2.6485 -0.8132
  367TMC3    H2 5498   3.784   4.291  15.320  1.6952  1.5187  0.8703
  367TMC3    C7 5499   3.641   4.242  15.112 -0.3431 -0.2129  0.1413
  367TMC3    C8 5500   4.032   4.200  15.391 -0.4114  0.0500 -0.2207
  367TMC3    O1 5501   3.660   4.356  15.143 -0.4175 -0.1975  0.2275
  367TMC3    O2 5502   4.118   4.128  15.447 -0.6408 -0.3953  0.7208
  368MPD2     C 5503   1.121   0.723  13.428 -0.0056 -0.4394 -0.4363
  368MPD2    C1 5504   1.133   0.821  13.331 -0.1105  0.1357 -0.2718
  368MPD2    C2 5505   1.255   0.881  13.310 -0.3439 -0.3454 -0.5229
  368MPD2    C3 5506   1.364   0.845  13.389  0.9397  1.4746 -0.2387
  368MPD2    C4 5507   1.342   0.762  13.488 -0.4322 -0.1025  0.0874
  368MPD2    C5 5508   1.225   0.699  13.513  0.1032 -0.5204  0.0526
  368MPD2     H 5509   1.274   0.953  13.232  0.1908  0.2168  0.1217
  368MPD2    H1 5510   1.423   0.744  13.557 -0.4725 -3.0001 -0.6311
  368MPD2    H2 5511   1.025   0.676  13.447 -0.4264  0.6175  0.0832
  368MPD2    H3 5512   1.209   0.623  13.588 -0.2562  1.4932  2.0211
  368MPD2     N 5513   1.496   0.884  13.367  0.2204  0.1455  0.6617
  368MPD2    H5 5514   1.570   0.875  13.435  0.2113 -3.3736  0.2077
  368MPD2    N1 5515   1.017   0.860  13.255  0.0216  0.2430  0.4095
  368MPD2    H7 5516   0.939   0.795  13.257 -0.3509  0.7193  1.3722
  369TMC3    C1 5517   0.876   0.978  13.113  0.2101  0.7284 -0.0179
  369TMC3    C2 5518   0.867   1.091  13.035  0.2367  0.4233  0.0135
  369TMC3    C3 5519   0.748   1.158  13.037 -0.6056 -0.1469  0.7648
  369TMC3    C4 5520   0.772   0.941  13.204  0.3913 -0.3069 -0.1509
  369TMC3    C5 5521   0.660   1.009  13.203 -0.3463 -0.9740  0.0968
  369TMC3    C6 5522   0.646   1.120  13.118  0.2412  0.2913 -0.0190
  369TMC3     C 5523   1.011   0.959  13.163 -0.3681 -0.0590  0.0953
  369TMC3     O 5524   1.101   1.036  13.140 -0.2727  0.1166 -0.0487
  369TMC3     H 5525   0.953   1.126  12.978  0.6949 -0.9329 -0.1432
  369TMC3    H1 5526   0.774   0.854  13.269  1.6322 -0.1095  0.0838
  369TMC3    H2 5527   0.545   1.158  13.105 -0.4714 -1.0060  1.7085
  369TMC3    C7 5528   0.539   0.968  13.274  0.0220 -0.2849  0.4424
  369TMC3    C8 5529   0.719   1.263  12.940 -0.1214  0.2313 -0.5040
  369TMC3    O1 5530   0.556   0.889  13.368 -0.3830  0.0566  0.2205
  369TMC3    O2 5531   0.627   1.342  12.972 -0.3145 -0.1696  0.5111
  370TMC3    C1 5532   4.582   1.791  15.966 -0.7465  0.8490 -0.3374
  370TMC3    C2 5533   4.490   1.721  16.026  0.0696 -0.1551 -0.1071
  370TMC3    C3 5534   4.491   1.578  16.014  0.5050 -1.2290  0.6967
  370TMC3    C4 5535   4.677   1.730  15.884  0.0600 -0.1261 -0.4295
  370TMC3    C5 5536   4.672   1.590  15.864 -0.9992 -0.2900  1.0012
  370TMC3    C6 5537   4.580   1.514  15.930  0.4083 -0.5363 -0.2786
  370TMC3     C 5538   4.644   1.872  16.068 -0.6572  0.1185 -0.2966
  370TMC3     O 5539   4.642   1.817  16.177 -0.5772 -0.0818 -0.0250
  370TMC3     H 5540   4.429   1.772  16.099  0.4796 -1.6015  1.2460
  370TMC3    H1 5541   0.042   1.784  15.855  0.9889 -1.9646 -0.9957
  370TMC3    H2 5542   4.575   1.406  15.917 -1.9174 -0.7980  2.7228
  370TMC3    C7 5543   0.019   1.525  15.757  0.1314 -0.1613  0.5850
  370TMC3    C8 5544   4.438   1.497  16.118  0.1115  0.3721 -0.4399
  370TMC3    O1 5545   0.061   1.605  15.673  0.1306 -0.1523  0.0946
  370TMC3    O2 5546   4.432   1.373  16.107 -0.1568  0.4358  0.3366
  371TMC3    C1 5547   1.232   4.447  15.699 -0.2931  0.1846 -0.2876
  371TMC3    C2 5548   1.097   4.464  15.711  0.3818  0.9972  0.5228
  371TMC3    C3 5549   1.045   4.592  15.683 -0.3396 -0.0752  0.3390
  371TMC3    C4 5550   1.314   4.559  15.674 -0.4403  0.3379 -0.7491
  371TMC3    C5 5551   1.256   4.674  15.640  1.0083  0.2995  0.2490
  371TMC3    C6 5552   1.123   4.698  15.646 -0.3769  0.1386  0.6535
  371TMC3     C 5553   1.291   4.311  15.704 -0.5585 -0.3436 -0.9569
  371TMC3     O 5554   1.407   4.291  15.674 -0.1477  0.5765  0.0016
  371TMC3     H 5555   1.027   4.381  15.720  0.2041  1.3037  1.9621
  371TMC3    H1 5556   1.422   4.550  15.679 -0.4008  0.3550 -1.5201
  371TMC3    H2 5557   1.075   0.057  15.598  0.1342 -0.1344 -0.3395
  371TMC3    C7 5558   1.328   0.044  15.562 -0.0454 -0.1408  0.0978
  371TMC3    C8 5559   0.904   4.605  15.634  0.2984  0.1311  0.0495
  371TMC3    O1 5560   1.286   0.161  15.569  0.6051  0.1682 -0.5411
  371TMC3    O2 5561   0.857   4.504  15.592 -0.1657  0.0618 -0.2554
  372MPD2     C 5562   0.651   1.320  13.373 -0.1204 -0.3396 -0.5937
  372MPD2    C1 5563   0.762   1.263  13.433 -0.4598 -0.2723 -0.3098
  372MPD2    C2 5564   0.742   1.157  13.528 -0.3369 -0.1967 -0.5779
  372MPD2    C3 5565   0.615   1.129  13.573 -0.2681 -0.9069 -0.0709
  372MPD2    C4 5566   0.513   1.205  13.521  0.0387 -0.7188  0.4050
  372MPD2    C5 5567   0.531   1.301  13.429 -0.0855 -0.0384 -0.3744
  372MPD2     H 5568   0.827   1.099  13.561 -1.1870 -0.3254  1.4330
  372MPD2    H1 5569   0.414   1.186  13.561  0.5891 -3.0161  0.6813
  372MPD2    H2 5570   0.655   1.379  13.283  2.7495 -2.2424 -1.6951
  372MPD2    H3 5571   0.451   1.366  13.397  1.6690  2.0361 -0.5245
  372MPD2     N 5572   0.599   1.029  13.668  0.1641  0.1901 -0.3747
  372MPD2    H5 5573   0.685   0.980  13.691  0.1279  0.1911 -0.2363
  372MPD2    N1 5574   0.899   1.289  13.398  0.4138  0.2975 -0.0756
  372MPD2    H7 5575   0.967   1.229  13.444 -2.1824 -1.9734  0.8381
  373TMC3    C1 5576   0.514   0.857  13.791  0.2617  0.2474  0.3047
  373TMC3    C2 5577   0.524   0.881  13.928  0.1192  0.3115  0.4810
  373TMC3    C3 5578   0.604   0.790  13.996  0.2191  0.2588  0.4327
  373TMC3    C4 5579   0.580   0.767  13.713  0.1185  0.3480  0.3732
  373TMC3    C5 5580   0.655   0.679  13.789  0.0849 -0.4779 -0.1271
  373TMC3    C6 5581   0.670   0.692  13.925 -0.1850 -0.8881 -0.0121
  373TMC3     C 5582   0.484   0.983  13.728  0.1790 -0.1815 -0.8641
  373TMC3     O 5583   0.370   1.023  13.734 -0.1956 -0.4442 -0.3373
  373TMC3     H 5584   0.476   0.966  13.975  0.8548  0.5252  0.8549
  373TMC3    H1 5585   0.571   0.763  13.605 -2.2831 -0.4207  0.6089
  373TMC3    H2 5586   0.711   0.610  13.982  0.9739 -0.3024 -0.0124
  373TMC3    C7 5587   0.752   0.603  13.716  0.4861 -0.0483  0.3481
  373TMC3    C8 5588   0.668   0.847  14.118 -0.5983  0.4922  0.1887
  373TMC3    O1 5589   0.736   0.577  13.597 -0.0498 -0.0278  0.5524
  373TMC3    O2 5590   0.788   0.858  14.094  0.2602  0.0812 -0.1883
  374TMC3    C1 5591   1.918   0.944  10.244 -0.1225 -0.1584 -0.9395
  374TMC3    C2 5592   1.972   1.065  10.243 -0.0196  0.3046  1.1175
  374TMC3    C3 5593   1.924   1.152  10.147  0.4398 -0.5030 -0.7661
  374TMC3    C4 5594   1.820   0.912  10.158 -0.5039 -0.1067  0.2407
  374TMC3    C5 5595   1.756   1.004  10.080  0.7269 -0.4697 -0.1640
  374TMC3    C6 5596   1.808   1.126  10.074  0.7725 -0.1162 -0.1893
  374TMC3     C 5597   1.963   0.852  10.354  0.5611 -0.0977 -0.1528
  374TMC3     O 5598   2.010   0.908  10.453 -0.1967 -0.2312  0.6410
  374TMC3     H 5599   2.064   1.082  10.298  0.3366 -2.1888  1.3287
  374TMC3    H1 5600   1.782   0.810  10.161  0.6022 -0.5179  0.5262
  374TMC3    H2 5601   1.773   1.196   9.999  1.0425 -0.3696 -0.5533
  374TMC3    C7 5602   1.630   0.977   9.997  0.7131  0.1046  0.4008
  374TMC3    C8 5603   2.002   1.262  10.106  0.4760 -0.6487  0.2395
  374TMC3    O1 5604   1.598   1.056   9.909 -0.3509 -0.2625  0.1844
  374TMC3    O2 5605   1.997   1.299   9.992  0.2374 -0.2935 -0.6441
  375MPD2     C 5606   0.945   1.755  17.086 -0.0963  0.1469 -0.0848
  375MPD2    C1 5607   0.868   1.783  16.974  0.0574  0.0022  0.2192
  375MPD2    C2 5608   0.924   1.786  16.848 -0.2643 -0.3502 -0.0310
  375MPD2    C3 5609   1.062   1.758  16.826 -1.0707  0.6655  0.0501
  375MPD2    C4 5610   1.138   1.743  16.944 -0.0312 -0.2895  0.5904
  375MPD2    C5 5611   1.083   1.737  17.073  0.3678  0.6701 -0.4963
  375MPD2     H 5612   0.862   1.820  16.766  1.2892  1.1631 -0.5953
  375MPD2    H1 5613   1.240   1.707  16.933 -0.0154 -0.1467  0.2554
  375MPD2    H2 5614   0.904   1.740  17.185 -2.7288  2.7232 -0.7960
  375MPD2    H3 5615   1.127   1.701  17.165 -1.0604 -0.9198 -0.4130
  375MPD2     N 5616   1.122   1.732  16.704 -0.2687 -0.1832  0.2122
  375MPD2    H5 5617   1.221   1.711  16.708  0.1845  1.7415 -0.6910
  375MPD2    N1 5618   0.725   1.801  16.978  0.2387  0.3451 -0.3074
  375MPD2    H7 5619   0.669   1.795  16.893  1.1412  0.1068 -0.8876
  376TMC3    C1 5620   1.130   1.660  16.475 -0.1880  0.1199 -0.6315
  376TMC3    C2 5621   1.264   1.673  16.478  0.1207 -0.3048 -0.7772
  376TMC3    C3 5622   1.333   1.636  16.369  0.0161  0.2388  0.3081
  376TMC3    C4 5623   1.062   1.616  16.367  0.0880 -0.5426  0.0814
  376TMC3    C5 5624   1.135   1.596  16.250 -1.4700  0.4605 -0.1967
  376TMC3    C6 5625   1.270   1.602  16.248  0.4764 -0.1600  0.4033
  376TMC3     C 5626   1.052   1.720  16.583  0.9939 -0.3222  0.1007
  376TMC3     O 5627   0.933   1.736  16.562  0.3612 -0.6084 -0.2988
  376TMC3     H 5628   1.305   1.738  16.554  1.3707 -0.7016 -1.1175
  376TMC3    H1 5629   0.953   1.612  16.367  0.0609  0.1175 -1.5132
  376TMC3    H2 5630   1.329   1.550  16.173 -1.2500 -1.0393 -0.3520
  376TMC3    C7 5631   1.054   1.555  16.140 -0.4760 -0.1002  0.5519
  376TMC3    C8 5632   1.480   1.657  16.357 -0.0488 -0.0812 -0.2516
  376TMC3    O1 5633   0.945   1.502  16.156  0.1683  0.0313 -0.6069
  376TMC3    O2 5634   1.503   1.669  16.236 -0.0406  0.0434  0.2098
  377MPD2     C 5635   3.858   1.618  12.260 -0.9145  0.3096  0.7181
  377MPD2    C1 5636   3.957   1.565  12.343 -0.3862  0.2198  0.3542
  377MPD2    C2 5637   3.936   1.555  12.476  0.5943 -0.3375 -0.4969
  377MPD2    C3 5638   3.814   1.593  12.536  0.1249 -0.2006  0.2520
  377MPD2    C4 5639   3.715   1.629  12.453 -0.9278  0.1444 -0.2106
  377MPD2    C5 5640   3.729   1.646  12.315  0.0017  0.1674 -0.5018
  377MPD2     H 5641   4.020   1.512  12.530  1.5767  1.7291 -0.3611
  377MPD2    H1 5642   3.613   1.644  12.488 -0.6320  0.4078  0.5367
  377MPD2    H2 5643   3.875   1.621  12.153 -3.2011  0.0311  0.3512
  377MPD2    H3 5644   3.651   1.671  12.244 -0.3628 -0.8246 -0.4500
  377MPD2     N 5645   3.781   1.589  12.674  0.0166 -0.2464 -0.1054
  377MPD2    H5 5646   3.705   1.649  12.705 -0.0442 -0.4779  0.1992
  377MPD2    N1 5647   4.085   1.546  12.280 -0.1820  0.2292 -0.1795
  377MPD2    H7 5648   4.085   1.539  12.179 -0.3068 -1.8238 -0.0466
  378TMC3    C1 5649   4.440   1.510  12.076 -0.4240  0.6313 -0.0958
  378TMC3    C2 5650   4.318   1.520  12.139  0.0735  0.2231  0.7800
  378TMC3    C3 5651   4.320   1.525  12.278 -0.2906  0.3398 -0.3607
  378TMC3    C4 5652   4.559   1.495  12.147  0.6686 -0.5079 -0.0958
  378TMC3    C5 5653   4.554   1.500  12.278 -0.6211  0.5559 -0.2651
  378TMC3    C6 5654   4.436   1.511  12.347  1.1073 -0.3595  0.6901
  378TMC3     C 5655   4.434   1.505  11.930  0.1055 -0.0375  0.3118
  378TMC3     O 5656   4.322   1.487  11.881  0.2186  0.2798  0.2645
  378TMC3     H 5657   4.227   1.524  12.080  1.0630 -2.8569 -0.9362
  378TMC3    H1 5658   4.651   1.472  12.094  0.0516  2.2245 -2.3904
  378TMC3    H2 5659   4.436   1.530  12.454 -1.7827  1.6853  0.3399
  378TMC3    C7 5660   4.669   1.498  12.369 -0.4610 -0.4517  0.6171
  378TMC3    C8 5661   4.200   1.553  12.355 -0.1570 -0.1985  0.3028
  378TMC3    O1 5662   4.655   1.493  12.490 -0.1402  0.5473 -0.6375
  378TMC3    O2 5663   4.215   1.570  12.472 -0.3740  0.4110 -0.2536
  379MPD2     C 5664   4.655   4.249  16.252  0.8790  0.0421  1.0105
  379MPD2    C1 5665   4.695   4.160  16.151  0.1907  0.4064 -0.0501
  379MPD2    C2 5666   0.015   4.029  16.190  0.8198  0.2134  0.1716
  379MPD2    C3 5667   0.030   3.997  16.323 -0.6177 -0.1052 -0.3478
  379MPD2    C4 5668   4.707   4.086  16.419  0.8524  0.6038  0.4778
  379MPD2    C5 5669   4.654   4.207  16.380  0.8398  0.2490  0.4384
  379MPD2     H 5670   0.049   3.959  16.115  0.6114 -0.1278  0.3987
  379MPD2    H1 5671   4.716   4.072  16.526  0.4114  0.1459  0.4557
  379MPD2    H2 5672   4.614   4.349  16.242 -0.3474 -0.8591 -3.1671
  379MPD2    H3 5673   4.605   4.264  16.459  3.2451  2.4731  0.3161
  379MPD2     N 5674   0.084   3.867  16.354  0.9132 -0.2137 -0.2224
  379MPD2    H5 5675   0.099   3.811  16.270  2.3388  1.2985 -0.9634
  379MPD2    N1 5676   4.705   4.210  16.022 -0.1759  0.1738  0.4460
  379MPD2    H7 5677   4.676   4.306  16.007 -0.7766 -0.2603 -1.2606
  380TMC3    C1 5678   0.023   4.219  15.783  0.4533  0.5524 -0.0739
  380TMC3    C2 5679   0.138   4.218  15.710  0.1731  0.1349  0.0692
  380TMC3    C3 5680   0.179   4.331  15.642  0.1773 -0.6069 -0.6771
  380TMC3    C4 5681   4.646   4.314  15.756  0.2016 -0.3355  0.2552
  380TMC3    C5 5682   4.678   4.404  15.656 -0.5378 -0.0757  0.3077
  380TMC3    C6 5683   0.082   4.425  15.613 -0.7327  0.7093 -0.1768
  380TMC3     C 5684   0.047   4.152  15.914 -0.1637 -0.4622 -0.0619
  380TMC3     O 5685   0.128   4.058  15.917  0.1105  0.1338 -0.9228
  380TMC3     H 5686   0.213   4.144  15.738  0.1990 -1.0218 -3.1210
  380TMC3    H1 5687   4.545   4.311  15.797 -0.6123 -4.0996 -2.0543
  380TMC3    H2 5688   0.109   4.511  15.554  2.6286  0.6147  1.1974
  380TMC3    C7 5689   4.573   4.489  15.598  0.0712 -0.2215  0.2624
  380TMC3    C8 5690   0.303   4.331  15.560 -0.0480  0.0567 -0.3222
  380TMC3    O1 5691   4.612   4.590  15.540 -0.1227  0.1344 -0.2001
  380TMC3    O2 5692   0.286   4.392  15.457 -0.0928  0.1993  0.0566
  381TMC3    C1 5693   4.294   1.038  15.973 -0.4984 -0.1050  0.4587
  381TMC3    C2 5694   4.429   1.001  15.951 -0.1101 -0.0080  0.0210
  381TMC3    C3 5695   4.502   0.984  16.060 -0.8411 -0.0400  0.4032
  381TMC3    C4 5696   4.243   1.059  16.096 -0.0178 -0.1949  0.7097
  381TMC3    C5 5697   4.328   1.030  16.200 -0.2433 -0.8000  0.0763
  381TMC3    C6 5698   4.459   0.996  16.183  0.1261 -0.2915  0.7159
  381TMC3     C 5699   4.202   1.065  15.864  0.3384 -0.1533 -0.2438
  381TMC3     O 5700   4.091   1.108  15.899 -0.3716  0.0606  0.6584
  381TMC3     H 5701   4.478   0.985  15.856  0.7431  0.9753  0.2898
  381TMC3    H1 5702   4.139   1.083  16.114 -0.0060 -0.6196  1.3203
  381TMC3    H2 5703   4.519   0.996  16.273 -0.6967 -2.2067  1.2753
  381TMC3    C7 5704   4.273   1.050  16.335 -0.0729  0.0451 -0.0185
  381TMC3    C8 5705   4.639   1.017  16.033 -1.1339 -0.0133 -0.1816
  381TMC3    O1 5706   4.198   1.140  16.364  0.3893  0.3839  0.3610
  381TMC3    O2 5707   4.696   0.962  15.936 -0.3362  0.5210 -0.2077
  382MPD2     C 5708   3.700   2.830  16.960  0.2055 -0.2613  0.1190
  382MPD2    C1 5709   3.622   2.835  17.077 -0.1330 -0.1502 -0.3216
  382MPD2    C2 5710   3.589   2.723  17.141  0.3300 -0.6772  0.8174
  382MPD2    C3 5711   3.622   2.596  17.077 -0.5101  0.1052 -0.2513
  382MPD2    C4 5712   3.679   2.596  16.951 -0.1840  0.6489 -0.1809
  382MPD2    C5 5713   3.720   2.712  16.899  0.3493 -0.4602 -0.0584
  382MPD2     H 5714   3.534   2.725  17.235  2.9023 -0.3574  2.3035
  382MPD2    H1 5715   3.689   2.510  16.885  0.7079  0.0693  0.7138
  382MPD2    H2 5716   3.753   2.918  16.924 -2.4569  1.1706 -0.3033
  382MPD2    H3 5717   3.757   2.708  16.797  0.0214  1.8061 -0.2676
  382MPD2     N 5718   3.606   2.470  17.135 -0.2166 -0.4179  0.2928
  382MPD2    H5 5719   3.643   2.391  17.082 -1.3390 -1.6513  1.3550
  382MPD2    N1 5720   3.595   2.956  17.146  0.3201 -0.3593 -0.3982
  382MPD2    H7 5721   3.554   2.945  17.238 -0.0515 -0.4269 -0.5754
  383TMC3    C1 5722   3.607   2.312  17.306 -0.2865  0.2518  0.5382
  383TMC3    C2 5723   3.549   2.210  17.234 -0.2082 -0.6599 -0.4423
  383TMC3    C3 5724   3.519   2.093  17.302 -0.1817  0.0139 -0.8860
  383TMC3    C4 5725   3.635   2.309  17.436  0.8401 -0.4311 -0.1085
  383TMC3    C5 5726   3.601   2.194  17.500 -0.1628 -0.2093 -0.5405
  383TMC3    C6 5727   3.543   2.085  17.436 -0.2854  0.4262  0.2629
  383TMC3     C 5728   3.578   2.448  17.266 -0.3579  0.2935 -0.4744
  383TMC3     O 5729   3.534   2.527  17.350  0.3118 -0.7773  0.8308
  383TMC3     H 5730   3.543   2.219  17.126  1.7693  0.4637 -0.4633
  383TMC3    H1 5731   3.697   2.383  17.487 -0.5302  0.3545  0.4057
  383TMC3    H2 5732   3.498   2.008  17.498  0.0744 -1.3057 -1.6309
  383TMC3    C7 5733   3.636   2.192  17.642 -0.6118  0.2698  0.1953
  383TMC3    C8 5734   3.397   2.031  17.258 -0.3890  0.6798 -0.5275
  383TMC3    O1 5735   3.685   2.292  17.694  0.0383 -0.1498  0.0904
  383TMC3    O2 5736   3.317   2.116  17.227 -0.0786 -0.4002  0.1209
  384MPD2     C 5737   0.686   4.452  11.600  0.1013 -0.3783 -0.3256
  384MPD2    C1 5738   0.719   4.363  11.700 -0.6432  0.3103  0.2237
  384MPD2    C2 5739   0.798   4.257  11.669 -0.1536 -0.0575 -0.7333
  384MPD2    C3 5740   0.850   4.245  11.544 -0.2686  0.3253  0.5478
  384MPD2    C4 5741   0.808   4.327  11.444 -0.6009  0.0959 -1.1289
  384MPD2    C5 5742   0.718   4.427  11.469  0.2303 -0.7376  0.0439
  384MPD2     H 5743   0.821   4.187  11.749  1.4895  2.0304  0.6045
  384MPD2    H1 5744   0.837   4.319  11.339 -0.8857 -1.7699 -1.0631
  384MPD2    H2 5745   0.625   4.536  11.631  1.6018  1.0130 -1.1509
  384MPD2    H3 5746   0.689   4.497  11.391  1.1598 -0.6182 -0.1912
  384MPD2     N 5747   0.933   4.132  11.521 -0.1858  0.7244 -0.7850
  384MPD2    H5 5748   0.954   4.076  11.603  0.1868  0.4717 -1.0504
  384MPD2    N1 5749   0.670   4.373  11.833  0.2801  0.5968  0.0136
  384MPD2    H7 5750   0.711   4.306  11.897 -0.4698  0.5069  0.3983
  385TMC3    C1 5751   1.041   3.949  11.421  0.4918  0.3347 -0.1217
  385TMC3    C2 5752   0.979   3.873  11.331  0.7273 -0.2465 -0.2165
  385TMC3    C3 5753   0.907   3.777  11.384  0.2866  0.1110 -0.6006
  385TMC3    C4 5754   1.078   3.921  11.545 -0.0346 -0.4020 -0.1216
  385TMC3    C5 5755   1.003   3.817  11.600  0.3196 -0.3872  0.1670
  385TMC3    C6 5756   0.909   3.756  11.515 -0.1645  0.7907  0.4514
  385TMC3     C 5757   0.993   4.090  11.401 -0.1715  0.1619  0.4292
  385TMC3     O 5758   0.980   4.139  11.291 -0.2897  0.4464 -0.4186
  385TMC3     H 5759   0.961   3.915  11.233  2.2054 -2.3630 -1.4087
  385TMC3    H1 5760   1.136   3.988  11.608  1.3341 -0.3872 -1.3815
  385TMC3    H2 5761   0.848   3.682  11.565 -0.3637 -0.6024 -1.8677
  385TMC3    C7 5762   0.957   3.856  11.727  0.3413 -0.3086  0.1486
  385TMC3    C8 5763   0.835   3.679  11.307 -0.3095  0.1064  0.8836
  385TMC3    O1 5764   0.948   3.977  11.752 -0.1282  0.1906 -0.4915
  385TMC3    O2 5765   0.749   3.613  11.361  0.2968  0.2514  0.3649
  386TMC3    C1 5766   1.587   1.780  12.294 -0.3174 -0.5406  0.0734
  386TMC3    C2 5767   1.499   1.737  12.195  0.0059  0.6682 -0.6728
  386TMC3    C3 5768   1.373   1.785  12.211 -0.0364  0.3376  0.6955
  386TMC3    C4 5769   1.550   1.863  12.400 -0.0551 -0.2824 -0.0495
  386TMC3    C5 5770   1.421   1.908  12.408 -0.4696  0.3168 -0.1982
  386TMC3    C6 5771   1.332   1.872  12.307 -0.0730 -0.5028 -0.4885
  386TMC3     C 5772   1.733   1.741  12.292 -0.1006  0.1141 -1.0731
  386TMC3     O 5773   1.816   1.808  12.349  0.0241 -0.4229  0.4040
  386TMC3     H 5774   1.533   1.673  12.114 -2.5957 -0.7468 -0.6664
  386TMC3    H1 5775   1.622   1.910  12.465  0.3921 -1.4010  0.2633
  386TMC3    H2 5776   1.234   1.917  12.314  0.3932  0.4709 -0.2079
  386TMC3    C7 5777   1.361   1.972  12.525  0.0116  0.1607 -0.4802
  386TMC3    C8 5778   1.288   1.783  12.103 -0.2820  0.3236 -0.3852
  386TMC3    O1 5779   1.268   2.049  12.502  0.2942 -0.1242  0.9252
  386TMC3    O2 5780   1.234   1.885  12.069 -0.2314 -0.2736 -0.1595
  387MPD2     C 5781   4.062   2.268   9.416 -0.3354  0.3095 -0.2665
  387MPD2    C1 5782   4.184   2.227   9.458  1.0429 -0.2115 -0.2642
  387MPD2    C2 5783   4.203   2.089   9.474 -0.0482 -0.0975  0.7293
  387MPD2    C3 5784   4.099   2.004   9.457  0.1381 -0.1002  0.1158
  387MPD2    C4 5785   3.970   2.046   9.414  0.1128  0.0943 -0.3735
  387MPD2    C5 5786   3.958   2.179   9.390  0.5955  0.6326 -0.4960
  387MPD2     H 5787   4.302   2.059   9.507 -0.3462 -0.0059  1.6936
  387MPD2    H1 5788   3.888   1.977   9.394  0.0723 -0.6950  2.5096
  387MPD2    H2 5789   4.042   2.368   9.380  1.0556  0.9879  0.8543
  387MPD2    H3 5790   3.869   2.215   9.339 -1.2761 -0.3642  2.0162
  387MPD2     N 5791   4.141   1.870   9.469 -0.5060  0.1591  0.4316
  387MPD2    H5 5792   4.230   1.862   9.517  0.0396  0.3003 -0.5627
  387MPD2    N1 5793   4.294   2.311   9.476  0.5118  0.4647 -0.0636
  387MPD2    H7 5794   4.375   2.269   9.522  0.8098  0.6071 -0.4602
  388TMC3    C1 5795   4.451   2.481   9.443  0.0648 -0.3116 -0.2759
  388TMC3    C2 5796   4.478   2.607   9.482  0.4150 -0.2907  1.2023
  388TMC3    C3 5797   4.614   2.628   9.491 -0.8972 -0.3779  0.1741
  388TMC3    C4 5798   4.540   2.382   9.423  0.1683  0.1787 -0.3571
  388TMC3    C5 5799   4.673   2.412   9.430 -0.2938  0.1021 -0.6863
  388TMC3    C6 5800   4.714   2.538   9.463  0.2597  0.4092 -0.3636
  388TMC3     C 5801   4.307   2.442   9.444 -0.0191 -0.2320 -0.2901
  388TMC3     O 5802   4.222   2.523   9.409 -0.0486  0.3997  0.0904
  388TMC3     H 5803   4.400   2.682   9.488 -1.5592 -2.0197 -2.3348
  388TMC3    H1 5804   4.501   2.296   9.369  0.1252  1.9564 -3.1366
  388TMC3    H2 5805   0.094   2.553   9.485  0.4675 -2.5492  0.7731
  388TMC3    C7 5806   0.043   2.307   9.432 -0.3636  0.2065 -0.8630
  388TMC3    C8 5807   4.637   2.771   9.511 -0.6024  0.1621 -0.2094
  388TMC3    O1 5808   0.153   2.321   9.381  0.6674  0.4745 -0.3295
  388TMC3    O2 5809   4.545   2.839   9.552  0.1130 -0.2491 -0.0332
  389MPD2     C 5810   3.364   0.418  10.586  0.5369  0.2021  0.7480
  389MPD2    C1 5811   3.267   0.365  10.505 -0.0596 -0.2549  0.2922
  389MPD2    C2 5812   3.214   0.239  10.544 -0.2201  0.4524 -0.4686
  389MPD2    C3 5813   3.265   0.167  10.653 -0.2869 -0.0566 -0.4772
  389MPD2    C4 5814   3.368   0.225  10.724  0.2077  0.7289 -0.1293
  389MPD2    C5 5815   3.411   0.354  10.693  0.5533  0.1722  0.0572
  389MPD2     H 5816   3.126   0.202  10.493 -0.5356  3.0208 -1.7552
  389MPD2    H1 5817   3.412   0.173  10.808 -0.1070  1.5493  0.5455
  389MPD2    H2 5818   3.404   0.515  10.558 -1.6500 -0.2639 -3.8730
  389MPD2    H3 5819   3.488   0.402  10.752  1.4469 -1.7992  0.4929
  389MPD2     N 5820   3.212   0.041  10.690  0.4232  0.4433  0.5408
  389MPD2    H5 5821   3.262   0.001  10.768 -1.2375  1.8563  2.3220
  389MPD2    N1 5822   3.226   0.437  10.394 -0.4784  0.2815  0.0746
  389MPD2    H7 5823   3.271   0.527  10.377  0.1787  0.0379  0.5141
  390TMC3    C1 5824   3.084   4.568  10.706 -0.4110  0.9299 -0.3048
  390TMC3    C2 5825   2.959   4.535  10.729  0.1535 -0.2916 -0.4690
  390TMC3    C3 5826   2.946   4.428  10.819  0.4626  0.3459  0.2246
  390TMC3    C4 5827   3.190   4.517  10.772 -0.1963  0.0750 -0.5572
  390TMC3    C5 5828   3.169   4.421  10.868  0.5341 -0.7754  0.2872
  390TMC3    C6 5829   3.043   4.377  10.895 -0.4961 -0.5411 -0.5722
  390TMC3     C 5830   3.099   4.701  10.642 -0.7024 -0.0688  0.5529
  390TMC3     O 5831   3.005   0.025  10.577 -0.1068 -0.4269  0.4829
  390TMC3     H 5832   2.880   4.575  10.666  0.0909 -1.0069 -0.8437
  390TMC3    H1 5833   3.291   4.547  10.747 -0.8389  0.7020 -2.3240
  390TMC3    H2 5834   3.026   4.295  10.965  1.3919 -0.2966  0.1847
  390TMC3    C7 5835   3.247   4.454  10.989  0.2807 -0.5070  0.2024
  390TMC3    C8 5836   2.817   4.417  10.880 -0.1402  0.9419  0.4691
  390TMC3    O1 5837   3.358   4.509  10.973  0.0043 -0.2398 -0.2897
  390TMC3    O2 5838   2.798   4.308  10.932  0.4337 -0.0356 -0.8577
  391MPD2     C 5839   2.123   1.820  11.532 -0.1029 -0.0655 -0.1744
  391MPD2    C1 5840   2.265   1.832  11.510 -0.1393 -1.2302 -0.0213
  391MPD2    C2 5841   2.314   1.818  11.374  0.1697 -0.3109 -0.0724
  391MPD2    C3 5842   2.222   1.780  11.274  0.0678 -0.1428  0.2023
  391MPD2    C4 5843   2.088   1.753  11.303  0.5477 -0.1699 -0.5978
  391MPD2    C5 5844   2.037   1.774  11.433  0.3315  0.2528 -0.4346
  391MPD2     H 5845   2.418   1.833  11.350 -0.2844  1.0419 -1.1642
  391MPD2    H1 5846   2.009   1.717  11.238 -0.9057  1.9684 -0.0129
  391MPD2    H2 5847   2.098   1.828  11.637  2.2375  0.2849  0.3722
  391MPD2    H3 5848   1.935   1.745  11.455  1.1152 -2.9088 -1.0923
  391MPD2     N 5849   2.286   1.764  11.144 -0.4845 -0.0528 -0.8995
  391MPD2    H5 5850   2.387   1.753  11.142 -0.2252  1.8842  2.2302
  391MPD2    N1 5851   2.343   1.866  11.620  0.3199  0.0619 -0.0300
  391MPD2    H7 5852   2.302   1.839  11.709 -1.0622 -0.2026 -0.7459
  392TMC3    C1 5853   2.298   1.725  10.918  0.1106 -0.2079 -0.3760
  392TMC3    C2 5854   2.255   1.661  10.806  0.0482  0.0795 -0.2864
  392TMC3    C3 5855   2.337   1.665  10.692  0.6430 -0.5603 -0.1308
  392TMC3    C4 5856   2.425   1.776  10.923 -0.3725 -0.5833  0.4283
  392TMC3    C5 5857   2.500   1.778  10.812 -0.7158 -0.2983  0.5624
  392TMC3    C6 5858   2.460   1.718  10.689  0.3979  0.4043 -0.4785
  392TMC3     C 5859   2.215   1.730  11.036 -0.7782  0.3686  0.2313
  392TMC3     O 5860   2.094   1.735  11.012  0.6150 -0.1437 -0.4312
  392TMC3     H 5861   2.159   1.611  10.812  0.3047 -0.6110 -1.8272
  392TMC3    H1 5862   2.473   1.813  11.012 -0.2020  1.3099 -0.4340
  392TMC3    H2 5863   2.510   1.735  10.595 -0.6860 -0.4760 -1.2173
  392TMC3    C7 5864   2.635   1.837  10.833  0.3886  0.2155 -0.0809
  392TMC3    C8 5865   2.273   1.613  10.569  0.4253 -0.1153 -0.6575
  392TMC3    O1 5866   2.653   1.906  10.933 -0.1610 -0.1398 -0.0849
  392TMC3    O2 5867   2.152   1.587  10.582  0.5903 -0.5120 -0.0711
  393TMC3    C1 5868   0.891   4.489  10.254 -0.1880 -0.7469  0.1499
  393TMC3    C2 5869   0.778   4.550  10.293  0.1012  0.8161  0.0405
  393TMC3    C3 5870   0.766   4.568  10.433  0.0868  0.2144  0.1692
  393TMC3    C4 5871   0.973   4.429  10.345 -0.0153  0.3812 -0.4450
  393TMC3    C5 5872   0.956   4.440  10.478 -0.0054  0.6763 -0.1276
  393TMC3    C6 5873   0.848   4.509  10.519 -1.0263 -1.0355 -0.1780
  393TMC3     C 5874   0.923   4.499  10.115 -0.0424 -0.1523 -0.2498
  393TMC3     O 5875   0.887   4.604  10.061  0.7138 -0.3239  0.5423
  393TMC3     H 5876   0.702   4.591  10.228 -0.1627  1.3386  0.6844
  393TMC3    H1 5877   1.055   4.369  10.305  0.6153  1.3759 -0.6422
  393TMC3    H2 5878   0.833   4.522  10.625  0.7627 -1.2185  0.1095
  393TMC3    C7 5879   1.013   4.342  10.567 -0.2654 -0.0160 -0.2783
  393TMC3    C8 5880   0.638   4.608  10.481 -0.5081 -0.2773  0.0035
  393TMC3    O1 5881   0.936   4.306  10.659 -0.2037  0.4074  0.6204
  393TMC3    O2 5882   0.614   4.583  10.605 -0.1574 -0.0050  0.1699
  394TMC3    C1 5883   3.118   0.493  10.186 -0.2493  0.5875 -0.1219
  394TMC3    C2 5884   3.012   0.470  10.106  0.2754 -0.0350  0.3102
  394TMC3    C3 5885   3.029   0.470   9.967  0.0973  0.2272 -0.1930
  394TMC3    C4 5886   3.234   0.538  10.138  0.3821  0.1318 -0.4655
  394TMC3    C5 5887   3.243   0.554  10.000 -1.2108  0.0812  0.2784
  394TMC3    C6 5888   3.147   0.517   9.912  0.1181  0.1655 -0.4801
  394TMC3     C 5889   3.133   0.401  10.302  0.5463  0.3658 -0.1824
  394TMC3     O 5890   3.065   0.301  10.304 -0.1720 -0.2783  0.3431
  394TMC3     H 5891   2.922   0.421  10.140 -0.0322  0.6504  0.4769
  394TMC3    H1 5892   3.315   0.579  10.197 -0.6046 -2.0468  2.3953
  394TMC3    H2 5893   3.172   0.548   9.811 -0.7975  0.5462 -0.5879
  394TMC3    C7 5894   3.358   0.613   9.939  0.3896 -0.1755 -0.1420
  394TMC3    C8 5895   2.939   0.376   9.895  0.1132 -0.0916 -0.2779
  394TMC3    O1 5896   3.340   0.680   9.837 -0.2219  0.5540 -0.0694
  394TMC3    O2 5897   2.850   0.326   9.963  0.1774 -0.3863 -0.6576
  395TMC3    C1 5898   1.714   1.716  14.715 -0.1140 -0.4947  0.4305
  395TMC3    C2 5899   1.675   1.610  14.798 -1.0388 -0.7229  0.4146
  395TMC3    C3 5900   1.661   1.641  14.931 -0.5622  0.8221 -0.1006
  395TMC3    C4 5901   1.726   1.850  14.755  0.8060  0.1122  0.4476
  395TMC3    C5 5902   1.710   1.873  14.893 -0.0023 -0.8000  1.2005
  395TMC3    C6 5903   1.677   1.773  14.977 -0.0390 -0.4482  0.2834
  395TMC3     C 5904   1.760   1.684  14.583 -0.2192  0.2145 -0.4175
  395TMC3     O 5905   1.726   1.772  14.507  0.8083  0.1596 -0.2865
  395TMC3     H 5906   1.647   1.516  14.752  0.4326 -1.9460  2.0364
  395TMC3    H1 5907   1.767   1.923  14.685  1.8914 -0.9001  0.0346
  395TMC3    H2 5908   1.680   1.790  15.084  0.4768 -2.4306  0.5818
  395TMC3    C7 5909   1.815   1.960  14.959  0.1439 -0.0094 -0.5172
  395TMC3    C8 5910   1.666   1.542  15.029  0.3517 -0.3545 -0.2113
  395TMC3    O1 5911   1.896   1.903  15.038  0.6785 -0.5006 -0.0392
  395TMC3    O2 5912   1.661   1.575  15.145 -0.1448  0.0599  0.1804
  396MPD2     C 5913   2.227   2.533  16.787  0.2314 -0.1310  0.3770
  396MPD2    C1 5914   2.309   2.618  16.864 -0.7224  0.0482  0.1988
  396MPD2    C2 5915   2.357   2.739  16.818 -0.0955 -0.3170  0.6930
  396MPD2    C3 5916   2.338   2.762  16.681  0.3859 -0.3279 -0.2594
  396MPD2    C4 5917   2.250   2.684  16.606  0.3315 -0.2615 -0.0736
  396MPD2    C5 5918   2.189   2.576  16.665 -0.6754  0.5532 -0.3008
  396MPD2     H 5919   2.415   2.800  16.887  4.0533 -0.3620 -2.7882
  396MPD2    H1 5920   2.204   2.707  16.510 -1.0671 -0.6743  0.5063
  396MPD2    H2 5921   2.185   2.441  16.826  0.3755 -0.6644 -0.7391
  396MPD2    H3 5922   2.101   2.526  16.625 -0.1576  0.2474 -1.0643
  396MPD2     N 5923   2.390   2.882  16.631 -0.2305 -0.3243  0.5564
  396MPD2    H5 5924   2.444   2.942  16.692 -0.0793  1.9564 -1.8430
  396MPD2    N1 5925   2.336   2.563  16.995  0.7068 -0.4150 -0.0868
  396MPD2    H7 5926   2.282   2.480  17.019 -0.5198 -0.2181 -2.2195
  397TMC3    C1 5927   2.417   2.543  17.213  0.6828 -0.1481 -0.8724
  397TMC3    C2 5928   2.531   2.459  17.238 -0.5019 -0.3195 -0.3218
  397TMC3    C3 5929   2.517   2.327  17.270  0.1711 -0.0395  0.4025
  397TMC3    C4 5930   2.296   2.486  17.250 -0.5302 -0.2282  0.4693
  397TMC3    C5 5931   2.299   2.362  17.306  0.4089  0.0547  0.8574
  397TMC3    C6 5932   2.407   2.284  17.328 -0.7246 -0.3239  0.0379
  397TMC3     C 5933   2.428   2.610  17.085 -0.1806 -1.1865 -0.0888
  397TMC3     O 5934   2.525   2.684  17.066 -0.3689 -0.4597  0.6240
  397TMC3     H 5935   2.627   2.480  17.194 -0.4007 -0.3345 -0.1089
  397TMC3    H1 5936   2.201   2.533  17.230  0.3849  1.0166 -1.0075
  397TMC3    H2 5937   2.402   2.182  17.363  2.3289 -1.1191 -1.7684
  397TMC3    C7 5938   2.169   2.293  17.339 -0.5967 -0.2945 -0.2858
  397TMC3    C8 5939   2.545   2.232  17.168  0.1287 -0.3230  0.2560
  397TMC3    O1 5940   2.070   2.324  17.275  0.4340  0.0797 -0.4029
  397TMC3    O2 5941   2.471   2.133  17.163  0.7337 -0.1358 -0.2977
  398MPD2     C 5942   0.346   3.429   0.163 -0.1696  0.0130 -0.3534
  398MPD2    C1 5943   0.383   3.337   0.071 -0.3340 -0.2923  0.7840
  398MPD2    C2 5944   0.409   3.381  17.643 -0.5354  0.1508 -0.4377
  398MPD2    C3 5945   0.383   3.510  17.604 -0.7006  0.1702 -0.0863
  398MPD2    C4 5946   0.335   3.603  17.699 -0.1410 -0.5082 -0.1031
  398MPD2    C5 5947   0.306   3.552   0.121 -0.1600 -0.4552  0.6118
  398MPD2     H 5948   0.443   3.307  17.572  3.4724  0.8943  0.7205
  398MPD2    H1 5949   0.305   3.705  17.677 -1.5026 -1.0178 -0.5783
  398MPD2    H2 5950   0.317   3.406   0.265  0.4504 -1.4934 -0.5118
  398MPD2    H3 5951   0.274   3.626   0.193  0.7050 -0.2076  0.7453
  398MPD2     N 5952   0.406   3.547  17.469 -0.1248 -0.0715 -0.1419
  398MPD2    H5 5953   0.445   3.479  17.405  1.5163  2.4162 -1.8065
  398MPD2    N1 5954   0.408   3.201   0.102 -0.0320 -0.0577  0.0662
  398MPD2    H7 5955   0.418   3.139   0.022 -1.1613  1.2711 -1.1046
  399TMC3    C1 5956   0.422   2.999   0.221 -0.2125 -0.4090 -0.3995
  399TMC3    C2 5957   0.525   2.953   0.144 -0.0781  0.1984 -0.6887
  399TMC3    C3 5958   0.591   2.843   0.189 -0.0388 -0.8091  0.1455
  399TMC3    C4 5959   0.384   2.931   0.335  0.2727 -0.7457  0.1693
  399TMC3    C5 5960   0.444   2.818   0.377  0.0917  0.0566  0.0719
  399TMC3    C6 5961   0.548   2.764   0.303 -0.9214 -0.1160  0.3362
  399TMC3     C 5962   0.417   3.143   0.220 -0.5173  0.3695  1.3286
  399TMC3     O 5963   0.392   3.196   0.327 -0.4540  0.1567  0.1365
  399TMC3     H 5964   0.568   3.008   0.061 -0.6539 -1.7152 -2.2399
  399TMC3    H1 5965   0.294   2.969   0.381  0.2170  1.1967 -1.5177
  399TMC3    H2 5966   0.594   2.670   0.331  0.5400 -0.1145 -2.0420
  399TMC3    C7 5967   0.387   2.744   0.496 -0.1799 -0.1124  0.0135
  399TMC3    C8 5968   0.727   2.829   0.131 -0.4764 -0.3149 -0.2724
  399TMC3    O1 5969   0.266   2.752   0.507  0.2770  0.4413 -0.0970
  399TMC3    O2 5970   0.748   2.881   0.020  0.1877 -0.3301 -0.0485
  400TMC3    C1 5971   3.226   1.452  16.940 -0.2449 -0.9222 -0.1513
  400TMC3    C2 5972   3.093   1.455  16.918 -0.5287  0.2612  0.1028
  400TMC3    C3 5973   3.033   1.572  16.878  0.5930  0.4581  0.9661
  400TMC3    C4 5974   3.302   1.566  16.930  0.1077  0.3438 -0.5329
  400TMC3    C5 5975   3.238   1.678  16.884  0.1504 -0.0613 -0.3544
  400TMC3    C6 5976   3.101   1.689  16.863  0.3816 -0.2053 -0.4866
  400TMC3     C 5977   3.296   1.325  16.922  0.1140  0.3286 -0.1404
  400TMC3     O 5978   3.272   1.225  16.993 -0.1787  0.3503  0.1826
  400TMC3     H 5979   3.028   1.369  16.916 -0.0755 -0.1100  1.1885
  400TMC3    H1 5980   3.410   1.557  16.935 -0.1128 -2.7694 -1.6590
  400TMC3    H2 5981   3.040   1.775  16.840  0.1358 -0.2713 -0.0870
  400TMC3    C7 5982   3.329   1.789  16.869  0.0407  0.1776  0.0771
  400TMC3    C8 5983   2.897   1.567  16.840 -0.9190  0.6623  0.4015
  400TMC3    O1 5984   3.449   1.758  16.856 -0.3184  0.1190  0.2579
  400TMC3    O2 5985   2.841   1.678  16.849 -0.2519 -0.4262 -0.4143
  401MPD2     C 5986   2.165   1.025   0.076 -0.2459  0.0369 -0.1843
  401MPD2    C1 5987   2.137   0.979   0.205 -0.3635  0.3961 -0.0387
  401MPD2    C2 5988   2.199   0.860   0.243  0.7544 -0.6061 -0.2124
  401MPD2    C3 5989   2.280   0.790   0.155  0.4643  0.0359  0.4605
  401MPD2    C4 5990   2.303   0.836   0.033  0.7596 -0.3839 -0.0618
  401MPD2    C5 5991   2.240   0.946  17.689 -0.2032 -0.6953 -0.2837
  401MPD2     H 5992   2.186   0.833   0.347 -2.2919  0.4145 -0.3452
  401MPD2    H1 5993   2.363   0.794  17.653 -0.1125 -2.6978  0.5013
  401MPD2    H2 5994   2.117   1.111   0.031 -2.0368 -0.7593  0.1849
  401MPD2    H3 5995   2.258   0.972  17.585 -0.4560  0.1318 -0.1250
  401MPD2     N 5996   2.350   0.669   0.196  0.3327 -0.4727  0.4977
  401MPD2    H5 5997   2.353   0.646   0.295 -3.6614  0.8023  0.9259
  401MPD2    N1 5998   2.048   1.053   0.290  0.9665  0.4375 -0.0196
  401MPD2    H7 5999   2.012   1.138   0.250  0.3992  0.8474  1.3632
  402TMC3    C1 6000   2.468   0.477   0.196  0.1907  0.8824  0.1627
  402TMC3    C2 6001   2.382   0.422   0.287  0.0107 -0.5501 -0.1928
  402TMC3    C3 6002   2.418   0.297   0.330 -0.1157  0.2386  0.5392
  402TMC3    C4 6003   2.583   0.417   0.147  0.6070 -0.1433 -0.4479
  402TMC3    C5 6004   2.608   0.287   0.190 -0.0714 -0.1045  0.4061
  402TMC3    C6 6005   2.519   0.230   0.278 -0.6602 -0.3880 -0.7496
  402TMC3     C 6006   2.424   0.588   0.116  0.3908  0.3602 -0.5718
  402TMC3     O 6007   2.438   0.582  17.695 -0.3194  0.2743  0.3691
  402TMC3     H 6008   2.280   0.458   0.298 -0.2331 -1.0682 -0.7295
  402TMC3    H1 6009   2.653   0.462   0.078  0.5178 -0.2341 -0.5958
  402TMC3    H2 6010   2.539   0.134   0.325  0.3341 -0.4325 -1.2760
  402TMC3    C7 6011   2.744   0.259   0.236 -0.2330  0.1693 -0.4655
  402TMC3    C8 6012   2.401   0.265   0.475 -0.1281 -0.0384  0.4751
  402TMC3    O1 6013   2.762   0.144   0.277 -0.1762 -0.0356 -0.4148
  402TMC3    O2 6014   2.442   0.156   0.510 -0.1139  0.6227  0.3419
  403MPD2     C 6015   0.281   4.336  13.170  0.2726 -0.4049 -0.5694
  403MPD2    C1 6016   0.274   4.215  13.219 -0.2145 -0.3161 -0.1857
  403MPD2    C2 6017   0.369   4.182  13.322  0.2669 -0.4857 -0.6750
  403MPD2    C3 6018   0.454   4.276  13.369  0.0375 -0.1662  0.2526
  403MPD2    C4 6019   0.447   4.408  13.323 -0.4165  0.3785 -0.2412
  403MPD2    C5 6020   0.359   4.429  13.228 -0.6662 -0.0940  0.1731
  403MPD2     H 6021   0.371   4.083  13.366 -0.9840 -0.6410 -0.9967
  403MPD2    H1 6022   0.506   4.493  13.356 -0.8970  0.5004  0.3048
  403MPD2    H2 6023   0.209   4.370  13.097 -0.6538  1.2487  1.0895
  403MPD2    H3 6024   0.368   4.518  13.166 -0.3117 -0.4319 -0.2533
  403MPD2     N 6025   0.552   4.250  13.466  0.3237  0.1266 -0.7068
  403MPD2    H5 6026   0.596   4.326  13.516 -1.0533  0.6816 -0.3433
  403MPD2    N1 6027   0.186   4.129  13.155 -0.0110  0.4024 -0.3101
  403MPD2    H7 6028   0.130   4.167  13.079  2.7983  0.1152 -2.5579
  404TMC3    C1 6029   0.064   3.923  13.119  0.4462 -0.6205  0.1516
  404TMC3    C2 6030   0.008   3.811  13.177  0.4068 -0.0771 -0.5203
  404TMC3    C3 6031   4.687   3.715  13.092 -0.1103  0.2158  0.0131
  404TMC3    C4 6032   0.084   3.933  12.987  0.0507 -0.3877 -0.2930
  404TMC3    C5 6033   0.033   3.834  12.910 -0.3918 -0.2357 -0.2291
  404TMC3    C6 6034   4.698   3.721  12.956 -0.4325 -0.4526  0.4935
  404TMC3     C 6035   0.146   4.002  13.203 -0.2269 -0.6097  0.5830
  404TMC3     O 6036   0.174   3.956  13.315 -0.0668  0.5641  0.1312
  404TMC3     H 6037   0.004   3.809  13.286 -1.0894  0.1098 -0.5755
  404TMC3    H1 6038   0.137   4.017  12.946  1.5627 -0.8566  0.7030
  404TMC3    H2 6039   4.646   3.649  12.894  1.7301  0.4759 -2.3998
  404TMC3    C7 6040   0.041   3.862  12.774 -0.0162 -0.1938  1.0233
  404TMC3    C8 6041   4.673   3.587  13.157 -0.0329  0.0707  0.7666
  404TMC3    O1 6042   0.051   3.979  12.746 -0.4590 -0.2553 -0.1531
  404TMC3    O2 6043   4.657   3.487  13.081  0.7645  0.4740  0.4012
  405MPD2     C 6044   0.438   4.479  14.615 -0.1473  0.3347  0.5170
  405MPD2    C1 6045   0.498   4.504  14.492 -0.5774  0.2311 -0.6697
  405MPD2    C2 6046   0.556   4.631  14.466  0.8009 -0.7662 -0.3794
  405MPD2    C3 6047   0.553   0.009  14.561 -0.1897  0.1951  0.1823
  405MPD2    C4 6048   0.509   4.701  14.686 -0.0127 -0.5866  0.0259
  405MPD2    C5 6049   0.444   4.582  14.709  0.2945 -0.0055 -0.1248
  405MPD2     H 6050   0.583   4.651  14.363  0.0988 -1.8596 -0.7694
  405MPD2    H1 6051   0.510   0.043  14.771 -2.3256  0.2509 -0.6127
  405MPD2    H2 6052   0.381   4.389  14.633  1.3145 -0.1105  2.8905
  405MPD2    H3 6053   0.394   4.574  14.804 -0.9688  0.0540 -0.7846
  405MPD2     N 6054   0.596   0.133  14.520 -0.3803 -0.0558 -0.5587
  405MPD2    H5 6055   0.602   0.140  14.419 -0.0555 -1.1509 -0.6169
  405MPD2    N1 6056   0.468   4.415  14.399  0.1087  0.5875 -0.4114
  405MPD2    H7 6057   0.393   4.347  14.408  0.6733  0.1176  0.8326
  406TMC3    C1 6058   0.501   0.546  14.428  0.3626  0.5374  0.0665
  406TMC3    C2 6059   0.565   0.536  14.303  0.1930  0.7664  0.2101
  406TMC3    C3 6060   0.662   0.440  14.298  0.6870  0.0497  0.5387
  406TMC3    C4 6061   0.522   0.455  14.530  0.8560  0.4222  0.5397
  406TMC3    C5 6062   0.619   0.368  14.522 -0.0540 -0.3464  0.3251
  406TMC3    C6 6063   0.687   0.358  14.400 -0.4380 -0.0756  0.7274
  406TMC3     C 6064   0.388   0.636  14.433 -0.2247  0.0397 -0.2071
  406TMC3     O 6065   0.399   0.739  14.370  0.3009 -0.2601  0.3313
  406TMC3     H 6066   0.541   0.593  14.214 -0.2417  1.7333  0.9415
  406TMC3    H1 6067   0.479   0.450  14.629  0.8110 -0.7452  0.4626
  406TMC3    H2 6068   0.766   0.285  14.389 -0.2481  0.2839 -0.3340
  406TMC3    C7 6069   0.602   0.245  14.605  0.1180  0.1861  0.8258
  406TMC3    C8 6070   0.720   0.402  14.171 -0.1706  0.2061 -0.1923
  406TMC3    O1 6071   0.587   0.251  14.728 -0.3237 -0.1653  0.4566
  406TMC3    O2 6072   0.818   0.454  14.120 -0.7232 -0.2001  0.0319
  407MPD2     C 6073   3.527   1.817   9.189  0.3068  0.2667 -0.1374
  407MPD2    C1 6074   3.637   1.770   9.260 -0.4529 -0.3518  0.1577
  407MPD2    C2 6075   3.619   1.761   9.401  0.4501  0.5884  0.5341
  407MPD2    C3 6076   3.491   1.768   9.458 -0.6449  0.4803  0.6244
  407MPD2    C4 6077   3.390   1.800   9.376  0.3899  0.3399 -0.1054
  407MPD2    C5 6078   3.403   1.816   9.244  0.4919 -0.4921  0.2412
  407MPD2     H 6079   3.708   1.753   9.463 -0.6198  0.0105  1.9780
  407MPD2    H1 6080   3.290   1.819   9.412  0.6946  0.6539  0.5632
  407MPD2    H2 6081   3.537   1.827   9.081 -1.7733  1.2072 -0.2456
  407MPD2    H3 6082   3.314   1.846   9.190  0.9269  1.5524  0.6464
  407MPD2     N 6083   3.474   1.759   9.599  0.1467  0.3589  0.0379
  407MPD2    H5 6084   3.384   1.793   9.632  0.1364  0.4649 -0.0987
  407MPD2    N1 6085   3.766   1.761   9.213  0.1969 -0.0656 -0.1809
  407MPD2    H7 6086   3.838   1.735   9.279 -1.1852 -2.0250  0.5421
  408TMC3    C1 6087   3.958   1.801   9.101  0.8050 -0.2886  0.1845
  408TMC3    C2 6088   3.997   1.669   9.084  0.4750  0.5541 -0.1595
  408TMC3    C3 6089   4.123   1.644   9.047  0.1585 -0.9209 -0.2176
  408TMC3    C4 6090   4.030   1.909   9.080 -0.2123  0.3524 -0.9838
  408TMC3    C5 6091   4.166   1.886   9.049  0.6939  0.6128 -1.1426
  408TMC3    C6 6092   4.212   1.757   9.034 -0.2773 -0.1004  0.0989
  408TMC3     C 6093   3.813   1.817   9.098  0.2861  0.2832 -0.5813
  408TMC3     O 6094   3.764   1.888   9.013 -0.1140 -0.1569  0.0305
  408TMC3     H 6095   3.920   1.594   9.094 -0.5354  1.4184 -1.4652
  408TMC3    H1 6096   3.976   2.003   9.086  3.2125  2.3936 -2.1498
  408TMC3    H2 6097   4.315   1.736   9.010 -0.5090 -0.8990 -0.1721
  408TMC3    C7 6098   4.250   2.004   9.066 -1.0049  0.0110  0.2840
  408TMC3    C8 6099   4.164   1.508   9.056  0.8899  0.4115 -0.3115
  408TMC3    O1 6100   4.200   2.112   9.052  0.1167  0.3124 -0.6265
  408TMC3    O2 6101   4.075   1.427   9.077  0.4674  0.6173  0.0069
  409MPD2     C 6102   2.310   1.333  17.263  0.2978 -0.3746  0.3201
  409MPD2    C1 6103   2.426   1.398  17.302 -0.9589  0.5325 -0.7072
  409MPD2    C2 6104   2.465   1.516  17.242 -0.4129 -0.7284  0.8480
  409MPD2    C3 6105   2.411   1.569  17.128 -0.3375  0.4554  0.4214
  409MPD2    C4 6106   2.299   1.502  17.079 -0.7292  0.1786  0.3113
  409MPD2    C5 6107   2.248   1.393  17.152 -0.2554 -0.2851 -0.3560
  409MPD2     H 6108   2.558   1.559  17.278  0.7568 -2.1200 -0.5532
  409MPD2    H1 6109   2.247   1.538  16.991 -0.3033  1.4941  0.5974
  409MPD2    H2 6110   2.269   1.246  17.311  0.4651  0.3911  1.8358
  409MPD2    H3 6111   2.163   1.348  17.102 -1.3783  0.9094  0.5056
  409MPD2     N 6112   2.453   1.689  17.066  0.2943  0.8278 -0.3679
  409MPD2    H5 6113   2.390   1.731  16.999  1.5191  1.2888 -1.2463
  409MPD2    N1 6114   2.497   1.354  17.410  0.4188  0.3409 -0.2209
  409MPD2    H7 6115   2.558   1.424  17.452 -2.6411  1.6057  2.1006
  410TMC3    C1 6116   2.590   1.872  17.010  0.3455  0.3033  0.8075
  410TMC3    C2 6117   2.706   1.931  17.056 -0.8884  0.6351 -0.6262
  410TMC3    C3 6118   2.792   1.984  16.973 -0.7083  0.9154 -0.0226
  410TMC3    C4 6119   2.561   1.862  16.878  0.1161 -0.3331  0.3244
  410TMC3    C5 6120   2.642   1.933  16.795 -0.2611  0.2127 -0.3148
  410TMC3    C6 6121   2.762   1.992  16.839 -0.3990 -0.0910  0.0696
  410TMC3     C 6122   2.570   1.756  17.093  0.0350  0.2304 -0.6400
  410TMC3     O 6123   2.656   1.721  17.169  0.1219  0.0965 -0.1977
  410TMC3     H 6124   2.729   1.931  17.162 -1.6766 -0.8270 -0.4619
  410TMC3    H1 6125   2.472   1.814  16.841  1.8193 -1.7071 -1.9731
  410TMC3    H2 6126   2.823   2.043  16.765 -0.2902 -0.9349 -0.4180
  410TMC3    C7 6127   2.623   1.924  16.654  0.2154  0.3447  0.1287
  410TMC3    C8 6128   2.925   1.953  17.005 -0.0068 -0.6260 -0.3457
  410TMC3    O1 6129   2.567   1.820  16.614  0.3184 -0.0206  0.0144
  410TMC3    O2 6130   3.017   2.007  16.944  0.0266 -0.5333  0.0307
  411MPD2     C 6131   2.671   2.104  14.868  0.3127 -0.3257 -0.7875
  411MPD2    C1 6132   2.591   2.168  14.778 -0.5385  0.0462 -0.4003
  411MPD2    C2 6133   2.462   2.116  14.745 -0.0635 -0.7474 -0.5309
  411MPD2    C3 6134   2.416   1.999  14.793  0.3981 -0.4662 -0.3017
  411MPD2    C4 6135   2.496   1.936  14.881  0.0019 -0.6561  0.8474
  411MPD2    C5 6136   2.624   1.984  14.912 -0.0857  0.8344  0.2931
  411MPD2     H 6137   2.409   2.172  14.670 -1.0701 -0.4671  0.3951
  411MPD2    H1 6138   2.471   1.835  14.912  0.6909 -0.7093  1.2187
  411MPD2    H2 6139   2.772   2.139  14.886  0.5286  1.0802 -4.7043
  411MPD2    H3 6140   2.690   1.918  14.968  0.1704  0.3586 -0.5595
  411MPD2     N 6141   2.305   1.934  14.733  0.3805 -0.0197 -0.3935
  411MPD2    H5 6142   2.297   1.833  14.745 -1.3166  0.1962  0.4026
  411MPD2    N1 6143   2.622   2.294  14.727 -0.2014  0.5838  0.2914
  411MPD2    H7 6144   2.565   2.326  14.649  1.9696  2.5963 -0.4539
  412TMC3    C1 6145   2.112   1.922  14.599  0.2904  0.7070 -0.3272
  412TMC3    C2 6146   2.023   2.003  14.532  0.3172 -0.4001  0.4695
  412TMC3    C3 6147   1.979   1.958  14.403  0.5084  0.4198  0.6718
  412TMC3    C4 6148   2.154   1.798  14.552 -0.2266  0.1055  0.5556
  412TMC3    C5 6149   2.123   1.766  14.426 -0.0446 -0.5147 -0.7430
  412TMC3    C6 6150   2.029   1.838  14.356  0.5946 -0.1082 -0.8599
  412TMC3     C 6151   2.202   2.001  14.676 -0.8748  0.1373  0.3874
  412TMC3     O 6152   2.184   2.124  14.664 -0.1857 -0.0228  0.2554
  412TMC3     H 6153   2.001   2.103  14.567  1.1640 -0.5502  1.4165
  412TMC3    H1 6154   2.245   1.750  14.588  0.0747  0.6531  0.5369
  412TMC3    H2 6155   2.019   1.809  14.252  1.4723  0.4167 -1.0878
  412TMC3    C7 6156   2.241   1.724  14.354  0.3768  0.2917 -0.5248
  412TMC3    C8 6157   2.004   2.054  14.302 -0.3350 -0.4155  0.4243
  412TMC3    O1 6158   2.293   1.624  14.395  0.4050 -0.0664 -0.0222
  412TMC3    O2 6159   2.107   2.113  14.319 -0.7632 -0.1636  0.0849
  413MPD2     C 6160   0.031   1.410  15.169 -0.7021 -0.4670  0.0247
  413MPD2    C1 6161   4.674   1.300  15.160 -0.8254  0.2882  0.0927
  413MPD2    C2 6162   0.020   1.182  15.168 -0.6363  0.2491 -0.4357
  413MPD2    C3 6163   0.159   1.172  15.173 -0.0264 -0.6049 -0.5744
  413MPD2    C4 6164   0.235   1.289  15.173 -0.1351 -0.1452 -0.4339
  413MPD2    C5 6165   0.165   1.400  15.178 -0.0691 -0.3349 -0.6474
  413MPD2     H 6166   4.689   1.089  15.168  1.8023 -1.2063 -2.2865
  413MPD2    H1 6167   0.343   1.295  15.183 -0.2029 -0.6251  0.5548
  413MPD2    H2 6168   4.719   1.512  15.162  0.2920 -0.1567 -0.7194
  413MPD2    H3 6169   0.218   1.495  15.177 -1.7288  0.6000  0.1288
  413MPD2     N 6170   0.216   1.042  15.166 -0.1327  0.2615 -0.1021
  413MPD2    H5 6171   0.153   0.966  15.143  0.3716 -0.2860  0.3533
  413MPD2    N1 6172   4.534   1.311  15.160  0.3166 -0.2562  0.0127
  413MPD2    H7 6173   4.496   1.405  15.156  0.9080 -0.0863 -1.7144
  414TMC3    C1 6174   0.364   0.880  15.150  0.3824 -0.0509 -0.3738
  414TMC3    C2 6175   0.372   0.783  15.252 -0.1671  0.3465 -0.0234
  414TMC3    C3 6176   0.316   0.662  15.221  0.8225  0.8217  0.3549
  414TMC3    C4 6177   0.318   0.844  15.027 -0.1377  0.6572 -0.5411
  414TMC3    C5 6178   0.286   0.717  14.999 -0.4042  0.3231  0.3762
  414TMC3    C6 6179   0.265   0.632  15.102 -0.3883  0.7420  0.2151
  414TMC3     C 6180   0.347   1.014  15.181 -0.1086  0.6461  0.4611
  414TMC3     O 6181   0.434   1.066  15.254 -0.4859  0.4456 -0.2024
  414TMC3     H 6182   0.396   0.806  15.355  0.2251 -0.1485 -0.0023
  414TMC3    H1 6183   0.320   0.923  14.953 -1.4002  1.5721  0.4047
  414TMC3    H2 6184   0.239   0.528  15.082 -0.6315  0.8303  0.0735
  414TMC3    C7 6185   0.378   0.657  14.905 -0.5230 -0.6544  0.3020
  414TMC3    C8 6186   0.360   0.539  15.286  0.1272  0.3529  0.7659
  414TMC3    O1 6187   0.396   0.539  14.922 -0.3327 -0.1565 -0.1511
  414TMC3    O2 6188   0.333   0.426  15.244  0.4286  0.0802  0.3210
  415TMC3    C1 6189   0.753   4.175   9.709  0.1887  0.3864  0.4928
  415TMC3    C2 6190   0.721   4.291   9.644  0.5039 -0.3236  0.0460
  415TMC3    C3 6191   0.720   4.281   9.508  0.4758  0.5960 -0.4317
  415TMC3    C4 6192   0.811   4.070   9.651  0.0443  0.1963 -0.5578
  415TMC3    C5 6193   0.813   4.075   9.512  0.5334  0.2897  0.0599
  415TMC3    C6 6194   0.768   4.176   9.439  0.7062 -0.1643  0.1316
  415TMC3     C 6195   0.748   4.173   9.853  0.3460  0.1839  0.0558
  415TMC3     O 6196   0.805   4.081   9.911 -0.0556  0.3608 -0.3811
  415TMC3     H 6197   0.676   4.378   9.689  1.0182 -1.2642  2.3463
  415TMC3    H1 6198   0.826   3.978   9.707  0.2685  0.3510 -0.3657
  415TMC3    H2 6199   0.762   4.163   9.332  1.8875  0.6574 -0.0316
  415TMC3    C7 6200   0.838   3.954   9.438  0.3559 -0.9059  0.4378
  415TMC3    C8 6201   0.643   4.386   9.436 -0.3671  0.2035 -0.0494
  415TMC3    O1 6202   0.790   3.936   9.323  0.3517  0.1999  0.1634
  415TMC3    O2 6203   0.537   4.423   9.483  0.0375 -0.1761 -0.9905
  416MPD2     C 6204   2.710   3.064  12.129  0.7304 -0.0587  0.0403
  416MPD2    C1 6205   2.622   3.082  12.028 -0.1093  0.7792 -0.3817
  416MPD2    C2 6206   2.603   2.973  11.935 -0.0653 -0.6654  0.0996
  416MPD2    C3 6207   2.703   2.871  11.933 -0.4824  0.7595 -0.7196
  416MPD2    C4 6208   2.811   2.875  12.021  0.4782  0.0953  0.0887
  416MPD2    C5 6209   2.799   2.962  12.133 -0.3945  0.9803  0.2792
  416MPD2     H 6210   2.534   2.993  11.854 -0.0645 -0.5933  0.1170
  416MPD2    H1 6211   2.880   2.792  12.032 -1.0525 -1.1127  0.5052
  416MPD2    H2 6212   2.726   3.142  12.202 -2.4940  0.0562  0.6433
  416MPD2    H3 6213   2.887   2.954  12.196  0.6642  0.3814 -1.2834
  416MPD2     N 6214   2.706   2.759  11.842  0.0295  0.4643 -0.4989
  416MPD2    H5 6215   2.780   2.689  11.842  0.4041  0.8605 -1.3349
  416MPD2    N1 6216   2.536   3.197  12.039  0.1334 -0.0828  0.2150
  416MPD2    H7 6217   2.519   3.232  12.133  1.0947  0.1773  0.2943
  417TMC3    C1 6218   2.325   3.274  11.985 -0.4660  0.3410 -0.5818
  417TMC3    C2 6219   2.274   3.232  12.108 -0.1872  0.8491  0.3925
  417TMC3    C3 6220   2.147   3.274  12.136  0.6834  0.7837 -0.6935
  417TMC3    C4 6221   2.250   3.345  11.895 -0.5448 -0.6183  0.0913
  417TMC3    C5 6222   2.119   3.384  11.938 -0.7816  0.0242  0.6066
  417TMC3    C6 6223   2.070   3.352  12.061  0.5100  0.8595  0.1291
  417TMC3     C 6224   2.456   3.244  11.939 -0.0765 -0.3339 -0.0182
  417TMC3     O 6225   2.484   3.249  11.819  0.2492 -0.5586  0.5241
  417TMC3     H 6226   2.334   3.180  12.182  2.5316 -1.0069 -3.0775
  417TMC3    H1 6227   2.291   3.370  11.798  0.7044  0.4496  0.9038
  417TMC3    H2 6228   1.966   3.361  12.091  0.8523 -0.7278  1.8114
  417TMC3    C7 6229   2.039   3.467  11.854 -0.4722  0.5517  0.0727
  417TMC3    C8 6230   2.069   3.233  12.250  0.9639  0.0642  0.5168
  417TMC3    O1 6231   2.067   3.463  11.737  0.6651 -0.2069  0.4048
  417TMC3    O2 6232   2.028   3.323  12.328 -0.3520 -0.1648  0.6552
  418TMC3    C1 6233   0.583   3.499  17.191 -0.4449 -0.0309 -0.3272
  418TMC3    C2 6234   0.465   3.556  17.230 -0.1484 -0.8023 -0.1946
  418TMC3    C3 6235   0.463   3.684  17.290  0.0852 -0.3914 -0.0990
  418TMC3    C4 6236   0.701   3.558  17.226 -0.0311 -0.4103 -0.2181
  418TMC3    C5 6237   0.699   3.686  17.283  0.0131 -0.6211 -0.2533
  418TMC3    C6 6238   0.580   3.746  17.319  0.6627 -0.3933 -0.0070
  418TMC3     C 6239   0.581   3.359  17.134 -0.6494 -0.9874 -0.5719
  418TMC3     O 6240   0.467   3.327  17.121 -0.2500  0.6219  0.0316
  418TMC3     H 6241   0.369   3.510  17.211 -0.3762 -0.9563  1.3267
  418TMC3    H1 6242   0.792   3.499  17.230  2.0574  2.6651 -2.2608
  418TMC3    H2 6243   0.577   3.843  17.368 -1.0768 -0.0450 -0.7970
  418TMC3    C7 6244   0.815   3.724  17.363 -0.6003 -0.1830 -0.2586
  418TMC3    C8 6245   0.387   3.673  17.414  0.8442 -0.3741  0.2109
  418TMC3    O1 6246   0.842   3.841  17.377 -0.4404 -0.3352 -0.3795
  418TMC3    O2 6247   0.339   3.772  17.463 -0.0729 -0.2444  0.2863
  419MPD2     C 6248   4.496   2.233  12.089 -0.0986 -0.6668  0.0576
  419MPD2    C1 6249   4.362   2.261  12.068  1.3266  0.4160  0.4635
  419MPD2    C2 6250   4.274   2.267  12.176  0.2184 -0.8649 -0.3491
  419MPD2    C3 6251   4.314   2.231  12.304  0.0791 -0.2969 -0.2990
  419MPD2    C4 6252   4.450   2.203  12.319 -0.1688 -0.2488 -0.1826
  419MPD2    C5 6253   4.545   2.205  12.214 -0.1446  0.4199  0.2250
  419MPD2     H 6254   4.169   2.287  12.158  0.0507 -1.5314 -0.1088
  419MPD2    H1 6255   4.490   2.178  12.417 -2.3688  1.4239  1.1211
  419MPD2    H2 6256   4.569   2.236  12.009 -0.9343  0.1650 -0.6646
  419MPD2    H3 6257   4.651   2.191  12.234 -0.5246  0.1330  2.0658
  419MPD2     N 6258   4.225   2.232  12.416 -0.1936  1.3546  0.1438
  419MPD2    H5 6259   4.130   2.259  12.394  0.4035  1.4282 -2.4298
  419MPD2    N1 6260   4.306   2.298  11.947 -0.4261 -0.4436  0.9042
  419MPD2    H7 6261   4.206   2.317  11.941 -0.2517  0.3692  0.5507
  420TMC3    C1 6262   4.146   2.222  12.633  0.5764 -0.4019 -0.4332
  420TMC3    C2 6263   4.024   2.218  12.581 -0.3208  0.0716  0.5668
  420TMC3    C3 6264   3.911   2.234  12.660  0.2333  0.0364  0.6938
  420TMC3    C4 6265   4.162   2.248  12.771 -0.5221 -0.1230  0.5996
  420TMC3    C5 6266   4.047   2.263  12.844 -0.5682 -0.2489 -0.3248
  420TMC3    C6 6267   3.919   2.257  12.796  0.0896  0.4485 -0.3830
  420TMC3     C 6268   4.262   2.230  12.549 -0.2194  0.5994 -0.8422
  420TMC3     O 6269   4.373   2.221  12.600  0.5273 -0.1563  0.2708
  420TMC3     H 6270   3.993   2.182  12.483  0.2647  2.6836 -0.6010
  420TMC3    H1 6271   4.263   2.267  12.806  0.0038 -1.1309 -0.3644
  420TMC3    H2 6272   3.838   2.277  12.865  0.8508  1.4721  0.2027
  420TMC3    C7 6273   4.076   2.315  12.970 -0.2497 -0.5649 -0.3955
  420TMC3    C8 6274   3.793   2.270  12.587 -0.2674 -0.9215 -0.0469
  420TMC3    O1 6275   4.002   2.281  13.067  0.5443  0.7149 -0.1743
  420TMC3    O2 6276   3.795   2.254  12.468  0.1374  0.2193 -0.4166
  421TMC3    C1 6277   0.690   4.153  13.625  0.4563 -0.1237 -0.0086
  421TMC3    C2 6278   0.734   4.275  13.653  0.2993 -0.5107  0.8427
  421TMC3    C3 6279   0.824   4.279  13.761 -0.0052  0.2297 -0.1873
  421TMC3    C4 6280   0.722   4.044  13.695 -0.2095 -0.0039 -0.1861
  421TMC3    C5 6281   0.823   4.055  13.787 -0.3834 -0.5159 -0.2496
  421TMC3    C6 6282   0.865   4.174  13.835 -0.8170 -0.3349 -0.0753
  421TMC3     C 6283   0.591   4.129  13.520  0.9899 -0.2157 -0.5736
  421TMC3     O 6284   0.564   4.014  13.490  0.1865 -0.6823 -0.3104
  421TMC3     H 6285   0.689   4.368  13.617  0.6399 -0.3827  0.7469
  421TMC3    H1 6286   0.697   3.948  13.652 -2.7654 -0.1373  1.6255
  421TMC3    H2 6287   0.934   4.168  13.919  0.2472  0.5612 -0.8858
  421TMC3    C7 6288   0.896   3.938  13.829 -0.6617  0.3391 -0.4270
  421TMC3    C8 6289   0.838   4.406  13.819  0.0321  0.1210 -1.1528
  421TMC3    O1 6290   1.008   3.959  13.872 -0.3589 -0.2801  0.1549
  421TMC3    O2 6291   0.735   4.473  13.819  0.6530  0.0069  0.0346
  422TMC3    C1 6292   3.242   0.847  12.869  0.2019 -0.6675 -0.6143
  422TMC3    C2 6293   3.204   0.961  12.933  0.2335 -0.3804  0.3236
  422TMC3    C3 6294   3.107   0.946  13.030 -0.3995 -0.3870 -0.1492
  422TMC3    C4 6295   3.179   0.726  12.877  0.0586  0.0196 -0.2158
  422TMC3    C5 6296   3.071   0.721  12.968  0.1346 -0.0624 -0.3598
  422TMC3    C6 6297   3.034   0.834  13.043  0.3559  0.0473 -0.0730
  422TMC3     C 6298   3.354   0.852  12.773 -0.8352 -0.4775 -0.1565
  422TMC3     O 6299   3.380   0.963  12.721  0.2503 -0.3339  0.7132
  422TMC3     H 6300   3.272   1.045  12.942  2.7755 -2.5460  1.0768
  422TMC3    H1 6301   3.189   0.657  12.794  0.0784 -0.0304 -0.1714
  422TMC3    H2 6302   2.957   0.815  13.118 -0.2428 -0.5646 -0.8523
  422TMC3    C7 6303   2.968   0.624  12.931  0.0369 -0.7411  0.0791
  422TMC3    C8 6304   3.109   1.050  13.132 -0.1421 -0.3892  0.1590
  422TMC3    O1 6305   3.005   0.534  12.855 -0.1878 -0.7307 -0.1535
  422TMC3    O2 6306   3.188   1.147  13.116 -0.2560  0.3238 -0.1915
  423MPD2     C 6307   4.272   1.149   0.461  0.4696 -0.1141 -0.6908
  423MPD2    C1 6308   4.291   1.023   0.520 -0.6645  0.1575 -0.1208
  423MPD2    C2 6309   4.354   0.925   0.440 -0.4613 -0.2339 -0.3397
  423MPD2    C3 6310   4.414   0.962   0.316  0.5064 -0.0322  0.1106
  423MPD2    C4 6311   4.403   1.090   0.262 -0.3201  0.4835 -0.1441
  423MPD2    C5 6312   4.333   1.176   0.338 -0.1045 -0.2095  0.2170
  423MPD2     H 6313   4.373   0.827   0.482  1.4884  0.4128  0.2913
  423MPD2    H1 6314   4.462   1.121   0.176 -0.2754 -1.0504 -0.6690
  423MPD2    H2 6315   4.236   1.237   0.513 -0.7208 -0.6358 -0.6391
  423MPD2    H3 6316   4.333   1.276   0.298  3.8897 -0.0748  0.5418
  423MPD2     N 6317   4.486   0.875   0.235 -0.5102  1.0894 -0.3817
  423MPD2    H5 6318   4.528   0.914   0.151  1.5663  0.4844  0.3764
  423MPD2    N1 6319   4.238   0.989   0.649  0.7509  0.5339 -0.2953
  423MPD2    H7 6320   4.263   0.901   0.693 -1.4710  0.3788  0.6428
  424TMC3    C1 6321   4.133   1.018   0.859 -0.2098  1.0311  0.4356
  424TMC3    C2 6322   4.239   0.966   0.923 -0.4226  0.9832 -1.0624
  424TMC3    C3 6323   4.230   0.943   1.056  0.2331  0.0840  0.1955
  424TMC3    C4 6324   4.027   1.070   0.924 -0.9911 -0.3661  0.0923
  424TMC3    C5 6325   4.016   1.045   1.059 -0.0223  0.1840  0.7497
  424TMC3    C6 6326   4.116   0.977   1.127  0.4745 -0.6830 -0.1298
  424TMC3     C 6327   4.155   1.072   0.722 -0.6722  0.5243 -0.7410
  424TMC3     O 6328   4.104   1.178   0.698 -0.9280 -0.0624 -0.4542
  424TMC3     H 6329   4.321   0.918   0.870  1.1828  0.8341  1.5223
  424TMC3    H1 6330   3.950   1.129   0.876  0.2927 -0.7509 -2.4542
  424TMC3    H2 6331   4.100   0.942   1.229  0.3826 -0.1343  0.0450
  424TMC3    C7 6332   3.880   1.071   1.118  0.7196  0.5632 -0.6062
  424TMC3    C8 6333   4.294   0.817   1.091  0.2535  0.0750  0.7294
  424TMC3    O1 6334   3.794   1.112   1.039  0.1887 -0.0762 -0.3158
  424TMC3    O2 6335   4.328   0.744   1.000 -0.2912 -0.5538 -0.1489
  425MPD2     C 6336   3.730   0.482   0.419  0.5895  0.7124  0.1707
  425MPD2    C1 6337   3.690   0.427   0.295  0.0276 -0.5241  0.3610
  425MPD2    C2 6338   3.577   0.472   0.234 -0.6702 -0.6406 -0.1179
  425MPD2    C3 6339   3.509   0.576   0.292  0.6874 -0.1981 -0.1196
  425MPD2    C4 6340   3.555   0.645   0.401 -0.0823 -0.9604 -0.2964
  425MPD2    C5 6341   3.662   0.595   0.468  0.0226 -0.1015 -0.1120
  425MPD2     H 6342   3.542   0.423   0.144 -0.8116  1.0742 -0.9966
  425MPD2    H1 6343   3.509   0.734   0.442  0.6572 -1.0628  0.7673
  425MPD2    H2 6344   3.808   0.444   0.484 -1.3012 -3.2883  0.1761
  425MPD2    H3 6345   3.697   0.638   0.561  0.6499  1.9744 -1.3224
  425MPD2     N 6346   3.400   0.605   0.214  0.1937  0.0128  0.5404
  425MPD2    H5 6347   3.391   0.562   0.122  1.3853 -2.2744  1.4993
  425MPD2    N1 6348   3.768   0.320   0.236 -0.2305 -0.1342  0.1025
  425MPD2    H7 6349   3.830   0.280   0.306 -1.0443 -0.3847  0.6879
  426TMC3    C1 6350   3.809   0.132   0.098 -0.6012  0.0734 -0.3051
  426TMC3    C2 6351   3.795   0.091  17.666  0.6290  0.1214  0.7644
  426TMC3    C3 6352   3.776   4.688  17.636  0.3176 -0.5746  0.6092
  426TMC3    C4 6353   3.802   0.041   0.197  0.4853 -0.2642  0.3755
  426TMC3    C5 6354   3.807   4.626   0.155  0.7672  0.2188 -0.3246
  426TMC3    C6 6355   3.802   4.587   0.027 -0.0027  0.3851  0.0037
  426TMC3     C 6356   3.749   0.258   0.112 -0.3972 -0.6872 -0.1810
  426TMC3     O 6357   3.682   0.282   0.018  0.5788  0.0309  0.2936
  426TMC3     H 6358   3.818   0.166  17.591 -1.0242  0.9604  1.0889
  426TMC3    H1 6359   3.812   0.062   0.303  2.2624 -1.7561  0.5109
  426TMC3    H2 6360   3.778   4.485   0.000 -0.0942  0.9589 -2.0923
  426TMC3    C7 6361   3.786   4.519   0.259 -0.2047 -0.5236  0.2204
  426TMC3    C8 6362   3.690   4.653  17.525  0.4536 -0.6560  0.0363
  426TMC3    O1 6363   3.822   4.409   0.224 -0.1799  0.2555 -0.0370
  426TMC3    O2 6364   3.672   4.537  17.498 -0.1413  0.4406  0.3083
  427MPD2     C 6365   1.810   2.857  14.905 -0.2711  0.0496 -0.3119
  427MPD2    C1 6366   1.762   2.776  15.016 -0.1119 -0.0460 -0.5326
  427MPD2    C2 6367   1.621   2.785  15.029 -0.5736  0.2394  0.6894
  427MPD2    C3 6368   1.545   2.860  14.939  0.1218 -0.5371  0.1635
  427MPD2    C4 6369   1.600   2.922  14.831  0.4872  0.2666 -0.1742
  427MPD2    C5 6370   1.730   2.928  14.823  1.3883 -0.6494 -0.2841
  427MPD2     H 6371   1.571   2.735  15.111  0.6024 -0.3587  1.0581
  427MPD2    H1 6372   1.538   2.958  14.749 -1.1059 -1.4747  0.2613
  427MPD2    H2 6373   1.914   2.861  14.874  0.4435  0.0196  2.0321
  427MPD2    H3 6374   1.768   2.980  14.736 -1.3390  0.8043 -0.6011
  427MPD2     N 6375   1.402   2.875  14.951 -0.1761  0.0091  0.1181
  427MPD2    H5 6376   1.360   2.920  14.870  0.1004  1.3442  0.7164
  427MPD2    N1 6377   1.841   2.702  15.111 -0.1012 -0.5276 -0.1161
  427MPD2    H7 6378   1.788   2.661  15.187 -3.3340  1.2938 -1.3778
  428TMC3    C1 6379   2.040   2.610  15.221 -0.2530  0.3135  0.1199
  428TMC3    C2 6380   1.979   2.493  15.263  0.3101 -0.1563  0.0935
  428TMC3    C3 6381   2.051   2.408  15.346 -0.0232  0.3822  0.0677
  428TMC3    C4 6382   2.171   2.635  15.254 -0.6216 -0.6406 -0.4066
  428TMC3    C5 6383   2.238   2.542  15.338 -1.0721  0.2178 -0.3852
  428TMC3    C6 6384   2.184   2.431  15.380  0.3282 -0.0096  0.0162
  428TMC3     C 6385   1.983   2.685  15.106  0.6586  0.3146  0.3935
  428TMC3     O 6386   2.062   2.729  15.022 -0.1036 -0.3137 -0.2321
  428TMC3     H 6387   1.884   2.458  15.223 -0.1127 -1.1167  1.8822
  428TMC3    H1 6388   2.218   2.727  15.221 -1.0242 -0.0539  0.6453
  428TMC3    H2 6389   2.243   2.365  15.443 -0.2130  0.2301  0.7672
  428TMC3    C7 6390   2.379   2.560  15.369  0.4240 -0.5301  0.2317
  428TMC3    C8 6391   2.022   2.264  15.358  0.1283 -0.3016 -0.5040
  428TMC3    O1 6392   2.404   2.552  15.486  0.4349  0.0382  0.1722
  428TMC3    O2 6393   2.124   2.192  15.366 -1.0505  0.1416  0.0033
  429MPD2     C 6394   2.919   2.650   0.127  0.7148 -0.5580 -0.5026
  429MPD2    C1 6395   2.984   2.536   0.085 -0.3041  0.2485 -0.4658
  429MPD2    C2 6396   3.033   2.538  17.657 -0.0711 -0.3293  0.3082
  429MPD2    C3 6397   3.044   2.650  17.587 -0.0829  0.2325  0.6696
  429MPD2    C4 6398   2.988   2.767  17.635 -0.2864 -0.0600  0.5762
  429MPD2    C5 6399   2.920   2.759   0.050 -0.3152 -0.8398  0.3866
  429MPD2     H 6400   3.072   2.443  17.620  2.0704  0.0249  1.6426
  429MPD2    H1 6401   2.977   2.849  17.565  1.7604  0.6825  1.1281
  429MPD2    H2 6402   2.867   2.659   0.221  1.0268  1.3123 -0.5023
  429MPD2    H3 6403   2.853   2.839   0.080  0.7836  0.7000 -1.3042
  429MPD2     N 6404   3.110   2.631  17.459  0.1388 -0.5370 -0.3353
  429MPD2    H5 6405   3.102   2.532  17.436  0.6983 -0.7876  0.5386
  429MPD2    N1 6406   2.981   2.410   0.162  0.4240 -0.2885 -0.0262
  429MPD2    H7 6407   3.015   2.326   0.116 -1.0623 -0.0398 -1.6165
  430TMC3    C1 6408   3.175   2.704  17.247 -0.3412  0.3811  0.1903
  430TMC3    C2 6409   3.192   2.812  17.161 -0.2038 -0.0496 -0.0115
  430TMC3    C3 6410   3.230   2.785  17.035  0.4749 -0.0267 -0.1591
  430TMC3    C4 6411   3.178   2.571  17.201 -0.1733  0.1905  0.4789
  430TMC3    C5 6412   3.195   2.556  17.068  0.0101 -0.1801 -0.3030
  430TMC3    C6 6413   3.234   2.657  16.986  0.3388 -0.6349 -0.0779
  430TMC3     C 6414   3.132   2.737  17.372  0.1007  0.1008  0.1207
  430TMC3     O 6415   3.149   2.858  17.399 -0.1768 -0.2813  0.2008
  430TMC3     H 6416   3.198   2.917  17.191  0.3216  0.0585 -0.4934
  430TMC3    H1 6417   3.156   2.485  17.264  0.6497 -1.6172 -1.7046
  430TMC3    H2 6418   3.265   2.648  16.883 -1.8631  1.2976 -0.9069
  430TMC3    C7 6419   3.199   2.414  17.024 -0.2745  0.5024 -0.3140
  430TMC3    C8 6420   3.194   2.882  16.934  0.0367 -0.0505 -0.2322
  430TMC3    O1 6421   3.125   2.339  17.084  0.1579  0.0491  0.5208
  430TMC3    O2 6422   3.215   3.000  16.965 -0.3777  0.0085  0.1787
  431MPD2     C 6423   4.081   2.896  12.216 -0.2182 -0.2003  0.2489
  431MPD2    C1 6424   4.150   2.929  12.101 -0.1345 -0.3624  0.4213
  431MPD2    C2 6425   4.127   2.853  11.986  0.0877  0.5512  0.2323
  431MPD2    C3 6426   4.037   2.752  11.983  0.0389  0.6076  0.0758
  431MPD2    C4 6427   3.963   2.719  12.098 -1.0980 -0.7904 -0.9887
  431MPD2    C5 6428   3.981   2.798  12.209 -0.7503 -0.3235  0.4104
  431MPD2     H 6429   4.180   2.877  11.895 -0.8147 -1.1080 -0.7381
  431MPD2    H1 6430   3.883   2.645  12.102 -2.8044  1.1961  1.7249
  431MPD2    H2 6431   4.075   2.961  12.302 -0.5954  0.4087 -0.2279
  431MPD2    H3 6432   3.924   2.778  12.299 -0.1311 -1.5616  0.5288
  431MPD2     N 6433   4.040   2.655  11.877  0.0555 -0.7400 -1.1686
  431MPD2    H5 6434   4.001   2.562  11.886  0.1962 -0.7558 -0.6884
  431MPD2    N1 6435   4.239   3.033  12.089  0.5992  0.1982  0.5303
  431MPD2    H7 6436   4.287   3.041  12.000 -2.2718  0.3580 -0.9955
  432TMC3    C1 6437   4.160   2.562  11.689  0.6346  0.3300  0.3313
  432TMC3    C2 6438   4.213   2.577  11.557  0.4138  0.6965 -0.6419
  432TMC3    C3 6439   4.304   2.486  11.523  0.0950 -0.1041  0.0462
  432TMC3    C4 6440   4.203   2.464  11.780  0.6070 -0.3983  0.4069
  432TMC3    C5 6441   4.299   2.378  11.735 -0.2449 -0.0932 -1.0069
  432TMC3    C6 6442   4.343   2.387  11.606 -0.4679 -0.3400 -0.0552
  432TMC3     C 6443   4.102   2.682  11.754 -0.5761 -0.7168  0.4786
  432TMC3     O 6444   4.116   2.791  11.698  0.0119 -0.5616 -0.1501
  432TMC3     H 6445   4.160   2.644  11.491 -1.4502 -0.9362 -0.7858
  432TMC3    H1 6446   4.172   2.464  11.884  0.4949  0.9730  0.3727
  432TMC3    H2 6447   4.422   2.319  11.578  0.7669  0.4429  1.5578
  432TMC3    C7 6448   4.376   2.305  11.833 -0.3140  0.0965  0.6702
  432TMC3    C8 6449   4.393   2.519  11.413  0.3334 -0.3773  0.5127
  432TMC3    O1 6450   4.488   2.271  11.799  0.3247 -0.1766  0.5972
  432TMC3    O2 6451   4.357   2.537  11.296 -0.1825 -0.0137 -0.2149
  433MPD2     C 6452   3.360   1.638  10.777  0.3839  0.1598  0.2521
  433MPD2    C1 6453   3.249   1.566  10.803 -0.4440 -0.5120  0.1663
  433MPD2    C2 6454   3.199   1.567  10.936  0.6931 -0.0506  0.3240
  433MPD2    C3 6455   3.265   1.641  11.032 -0.2767 -0.1297  0.7395
  433MPD2    C4 6456   3.382   1.701  11.001 -0.3197 -0.4550  0.8063
  433MPD2    C5 6457   3.433   1.694  10.880  0.7794 -0.0453 -0.2460
  433MPD2     H 6458   3.112   1.518  10.977 -0.0262  1.5027  0.6682
  433MPD2    H1 6459   3.449   1.755  11.067  1.1313 -0.5286 -0.6079
  433MPD2    H2 6460   3.396   1.663  10.679 -0.1111  0.2266  0.0853
  433MPD2    H3 6461   3.525   1.745  10.856  1.2695 -0.4370  0.7792
  433MPD2     N 6462   3.222   1.631  11.168 -0.3226 -0.3172  0.5557
  433MPD2    H5 6463   3.134   1.587  11.191 -0.1641 -0.3580  1.1076
  433MPD2    N1 6464   3.200   1.492  10.695 -0.5711 -0.2429 -0.0229
  433MPD2    H7 6465   3.250   1.488  10.607  0.9140  1.3427  0.7402
  434TMC3    C1 6466   3.054   1.328  10.591  0.5234  1.1716  0.0708
  434TMC3    C2 6467   3.038   1.205  10.641  0.0630 -0.1635 -0.4060
  434TMC3    C3 6468   3.113   1.107  10.587 -0.5598 -0.1282  0.6318
  434TMC3    C4 6469   3.116   1.353  10.472 -0.5051  0.2675 -0.3387
  434TMC3    C5 6470   3.157   1.248  10.406 -0.0469 -0.1105 -0.1892
  434TMC3    C6 6471   3.163   1.123  10.460  0.0421  1.0415 -0.0237
  434TMC3     C 6472   3.081   1.422  10.697  0.4274  0.2959 -0.3834
  434TMC3     O 6473   2.997   1.413  10.786  0.7432 -0.2187  0.1710
  434TMC3     H 6474   3.011   1.186  10.745 -1.9708  1.5526 -0.6234
  434TMC3    H1 6475   3.134   1.455  10.440 -1.0778  0.5162  0.1102
  434TMC3    H2 6476   3.220   1.049  10.405  0.0382 -0.1309  1.5589
  434TMC3    C7 6477   3.222   1.263  10.284 -0.5418 -0.9570  0.3086
  434TMC3    C8 6478   3.173   1.011  10.676  0.0393  0.3891 -0.3548
  434TMC3    O1 6479   3.327   1.206  10.262  0.2490 -0.2123 -0.5093
  434TMC3    O2 6480   3.112   0.973  10.774  0.3670 -0.2141 -0.2211
  435MPD2     C 6481   0.306   1.732  15.240  0.1858 -0.3689 -0.0694
  435MPD2    C1 6482   0.259   1.718  15.371 -0.1295 -0.3432  0.0268
  435MPD2    C2 6483   0.330   1.642  15.463  0.4501  0.5802 -0.6430
  435MPD2    C3 6484   0.442   1.576  15.426  0.0706 -0.1953 -0.2433
  435MPD2    C4 6485   0.482   1.582  15.289  0.6459  0.4913  0.0490
  435MPD2    C5 6486   0.420   1.666  15.201 -1.0222 -0.1912 -0.3381
  435MPD2     H 6487   0.294   1.633  15.564 -0.4083 -0.5493 -1.0526
  435MPD2    H1 6488   0.571   1.531  15.254 -0.4806 -0.6120 -1.2202
  435MPD2    H2 6489   0.249   1.797  15.173 -0.3178  1.5741  2.2591
  435MPD2    H3 6490   0.456   1.683  15.100 -1.6719 -0.9464 -0.6970
  435MPD2     N 6491   0.509   1.499  15.522 -0.1110 -0.1970 -0.1923
  435MPD2    H5 6492   0.466   1.487  15.613 -0.4296  1.2437 -0.1479
  435MPD2    N1 6493   0.132   1.773  15.405 -0.1927  0.6009  0.4493
  435MPD2    H7 6494   0.090   1.739  15.491  2.7215  0.2097  1.7180
  436TMC3    C1 6495   4.481   1.783  15.501  0.5006 -1.2388  0.0453
  436TMC3    C2 6496   4.604   1.763  15.452 -0.2571  0.3664  0.4202
  436TMC3    C3 6497   4.647   1.867  15.380  0.7026 -0.2392  0.5424
  436TMC3    C4 6498   4.409   1.895  15.482 -0.0081  0.8256  0.2412
  436TMC3    C5 6499   4.457   1.998  15.403 -0.0607 -0.2840  0.1580
  436TMC3    C6 6500   4.584   1.984  15.358 -0.0393 -1.1383 -0.2624
  436TMC3     C 6501   4.413   1.670  15.556 -0.1950 -0.6878  0.3559
  436TMC3     O 6502   4.439   1.561  15.507  0.0551  0.1512  0.5767
  436TMC3     H 6503   4.650   1.665  15.456 -0.0114  0.4241 -1.1462
  436TMC3    H1 6504   4.305   1.907  15.511 -0.9472 -2.2365 -1.9184
  436TMC3    H2 6505   4.626   2.053  15.286 -0.0058  0.9746  1.7739
  436TMC3    C7 6506   4.361   2.096  15.347  0.4642  0.3926 -0.6687
  436TMC3    C8 6507   0.052   1.851  15.327 -0.6643  0.8255  0.6025
  436TMC3    O1 6508   4.241   2.076  15.362 -0.2490  0.3415  0.3712
  436TMC3    O2 6509   0.081   1.914  15.225  0.3162  0.0143  0.4305
  437TMC3    C1 6510   3.764   2.848  11.777  0.2278  0.8372  0.1462
  437TMC3    C2 6511   3.723   2.870  11.910  0.0682  0.2939 -1.1836
  437TMC3    C3 6512   3.759   2.985  11.981 -0.0950 -0.1891 -1.1599
  437TMC3    C4 6513   3.845   2.944  11.725  0.6759  0.7827 -0.8288
  437TMC3    C5 6514   3.887   3.056  11.795 -0.1575 -0.5536  0.4103
  437TMC3    C6 6515   3.838   3.083  11.920  0.6943 -0.5033 -0.2708
  437TMC3     C 6516   3.754   2.717  11.712  0.1909 -0.3641  0.6234
  437TMC3     O 6517   3.811   2.697  11.606 -0.8973  0.3540 -0.6488
  437TMC3     H 6518   3.668   2.795  11.966  0.5661  2.0160  1.5734
  437TMC3    H1 6519   3.898   2.929  11.632  0.1156 -0.0873 -1.0110
  437TMC3    H2 6520   3.850   3.173  11.978 -1.1078  0.0673 -0.7659
  437TMC3    C7 6521   3.989   3.135  11.741 -0.2832 -0.1199 -0.7367
  437TMC3    C8 6522   3.726   2.996  12.119  0.0052 -0.3629  0.5066
  437TMC3    O1 6523   4.015   3.123  11.622  0.0782  0.5400 -0.6878
  437TMC3    O2 6524   3.798   3.068  12.191 -0.6186  0.3857  0.6054
  438MPD2     C 6525   1.038   4.261  16.658 -0.2556  0.3336 -0.2068
  438MPD2    C1 6526   1.061   4.143  16.594  0.4574 -0.0116  0.1331
  438MPD2    C2 6527   0.962   4.053  16.578 -0.7324  0.7295 -0.6313
  438MPD2    C3 6528   0.842   4.076  16.641  0.4055  0.0931 -0.1244
  438MPD2    C4 6529   0.816   4.199  16.693 -0.4389  0.3302 -0.8611
  438MPD2    C5 6530   0.910   4.296  16.704  0.4516  0.1577 -0.2495
  438MPD2     H 6531   0.992   3.966  16.521 -1.2783  1.3700 -1.8930
  438MPD2    H1 6532   0.714   4.214  16.729  0.2813  0.4850  1.1152
  438MPD2    H2 6533   1.117   4.335  16.667 -2.2083  2.2084  1.5470
  438MPD2    H3 6534   0.892   4.394  16.747 -0.0457  0.5177 -1.2739
  438MPD2     N 6535   0.731   3.986  16.645  0.0401 -0.1148 -0.1057
  438MPD2    H5 6536   0.651   4.016  16.700  0.2421  0.9166 -0.3914
  438MPD2    N1 6537   1.190   4.101  16.551  0.0884  0.2272 -0.2395
  438MPD2    H7 6538   1.199   4.013  16.501  0.6888  0.9468 -1.4045
  439TMC3    C1 6539   1.412   4.051  16.551 -0.2119 -0.6660 -0.6498
  439TMC3    C2 6540   1.396   3.973  16.444  0.1188  0.4450 -1.0471
  439TMC3    C3 6541   1.508   3.907  16.395 -0.0387  0.0588 -1.0177
  439TMC3    C4 6542   1.536   4.071  16.610 -0.0858 -0.2999 -1.2176
  439TMC3    C5 6543   1.642   4.009  16.557 -0.2053 -0.1285 -0.0808
  439TMC3    C6 6544   1.633   3.932  16.447 -0.3292  0.3862 -0.3823
  439TMC3     C 6545   1.312   4.147  16.588  0.4434 -0.0037  0.7536
  439TMC3     O 6546   1.345   4.238  16.664  0.7736 -0.2014  0.1929
  439TMC3     H 6547   1.298   3.958  16.399  0.8217 -3.2007 -1.3500
  439TMC3    H1 6548   1.549   4.129  16.701 -2.0709 -0.8355 -0.5812
  439TMC3    H2 6549   1.724   3.886  16.409 -1.8082 -1.4126 -1.7472
  439TMC3    C7 6550   1.762   4.000  16.638 -0.2278 -0.4089  0.2882
  439TMC3    C8 6551   1.508   3.827  16.281  0.7501  0.9977  0.7316
  439TMC3    O1 6552   1.729   3.962  16.747 -0.1816  0.3478 -0.3784
  439TMC3    O2 6553   1.608   3.764  16.248  0.3314  0.3660 -0.2863
  440MPD2     C 6554   0.116   4.718  15.267 -0.2497 -0.1962 -0.0511
  440MPD2    C1 6555   0.183   0.109  15.245  0.1566 -0.5824 -0.7034
  440MPD2    C2 6556   0.303   0.109  15.177  0.1885 -0.1873 -0.5521
  440MPD2    C3 6557   0.357   4.713  15.129 -0.2975 -0.0615 -0.0009
  440MPD2    C4 6558   0.283   4.598  15.155  0.4209 -0.0750  0.4401
  440MPD2    C5 6559   0.169   4.598  15.230 -0.0910 -0.7543  0.1155
  440MPD2     H 6560   0.361   0.201  15.168  3.7359 -2.3684  0.1201
  440MPD2    H1 6561   0.326   4.504  15.122  1.4770  0.3450  0.6050
  440MPD2    H2 6562   0.028   4.707  15.329 -1.7971  3.0504 -1.7125
  440MPD2    H3 6563   0.120   4.508  15.266 -3.1202  0.9405  0.2185
  440MPD2     N 6564   0.475   4.699  15.061  0.5749 -0.2045 -1.0103
  440MPD2    H5 6565   0.496   4.599  15.063 -0.2212 -0.3417  1.0179
  440MPD2    N1 6566   0.135   0.231  15.292 -0.2480 -0.0630 -0.6497
  440MPD2    H7 6567   0.192   0.315  15.286 -0.5393  0.1919  0.0501
  441TMC3    C1 6568   0.710   0.012  15.030  0.1229 -0.0914 -0.4899
  441TMC3    C2 6569   0.794   0.094  15.094 -0.2529 -0.6758 -0.2964
  441TMC3    C3 6570   0.868   0.049  15.202 -0.0759  0.2248 -1.0153
  441TMC3    C4 6571   0.712   4.605  15.058  0.3307 -0.0717  0.4177
  441TMC3    C5 6572   0.782   4.557  15.161 -0.7387  0.5431 -0.3224
  441TMC3    C6 6573   0.863   4.641  15.244  0.1222 -0.3915 -0.3391
  441TMC3     C 6574   0.571   0.070  15.037  0.3142  0.0916  0.3531
  441TMC3     O 6575   0.570   0.195  15.046  0.8791  0.4735 -0.5128
  441TMC3     H 6576   0.799   0.196  15.059  0.3038 -0.8724 -0.7771
  441TMC3    H1 6577   0.648   4.538  15.001  0.2250  1.0494 -0.7673
  441TMC3    H2 6578   0.920   4.618  15.333  0.6516 -0.8522 -0.7961
  441TMC3    C7 6579   0.704   4.452  15.224 -0.1451  0.3965 -0.2902
  441TMC3    C8 6580   0.869   0.142  15.312 -0.9786 -0.5565 -0.1101
  441TMC3    O1 6581   0.591   4.426  15.179 -0.3334  0.3083 -0.2621
  441TMC3    O2 6582   0.962   0.132  15.388 -0.1937 -0.0897  0.2350
  442MPD2     C 6583   3.176   0.224  16.923  0.5120 -0.7017 -0.4049
  442MPD2    C1 6584   3.035   0.247  16.892  0.1132 -0.3767  0.3161
  442MPD2    C2 6585   2.989   0.223  16.761 -0.2073 -0.0682  0.4462
  442MPD2    C3 6586   3.077   0.168  16.668  0.1950 -0.1575  0.3549
  442MPD2    C4 6587   3.211   0.152  16.702  0.6830  0.5027  0.6271
  442MPD2    C5 6588   3.259   0.173  16.824  0.5475 -0.2385 -0.4223
  442MPD2     H 6589   2.887   0.253  16.737  0.2604 -1.2000 -3.0009
  442MPD2    H1 6590   3.284   0.108  16.635 -1.3832 -1.1093 -0.6017
  442MPD2    H2 6591   3.210   0.246  17.024 -0.0862 -0.8879 -0.1649
  442MPD2    H3 6592   3.362   0.142  16.839  0.4307 -0.8753 -0.9615
  442MPD2     N 6593   3.036   0.118  16.542 -0.9999 -0.3431 -0.0729
  442MPD2    H5 6594   3.102   0.081  16.474  0.9768  1.7473  0.7316
  442MPD2    N1 6595   2.945   0.309  16.988  0.1584  0.3898  0.2224
  442MPD2    H7 6596   2.854   0.338  16.955 -0.3076 -2.7993 -1.2516
  443TMC3    C1 6597   2.851   0.395  17.181  0.1567  0.3513 -0.3283
  443TMC3    C2 6598   2.762   0.456  17.104 -0.3578  0.0371 -0.2540
  443TMC3    C3 6599   2.648   0.505  17.161  0.1794 -0.0430  0.7549
  443TMC3    C4 6600   2.837   0.369  17.314  0.2465  0.6576  0.1909
  443TMC3    C5 6601   2.716   0.409  17.369 -0.3654  0.3828  0.0550
  443TMC3    C6 6602   2.624   0.475  17.295 -0.6808  0.2650 -0.2325
  443TMC3     C 6603   2.971   0.341  17.118 -0.0919  0.0681  0.0120
  443TMC3     O 6604   3.069   0.315  17.188 -0.3244  0.4215  0.1501
  443TMC3     H 6605   2.787   0.510  17.014  1.3579 -2.3106 -1.1821
  443TMC3    H1 6606   2.916   0.325  17.373  0.2618  0.9198  0.3684
  443TMC3    H2 6607   2.527   0.496  17.338 -1.8879  0.5478 -3.0624
  443TMC3    C7 6608   2.648   0.304  17.442 -0.3168 -0.2204 -0.8554
  443TMC3    C8 6609   2.540   0.573  17.080  0.4776  0.1762  0.1816
  443TMC3    O1 6610   2.534   0.281  17.399  0.3365  0.3309 -0.2250
  443TMC3    O2 6611   2.481   0.664  17.128  0.2739  0.0220  0.3331
  444MPD2     C 6612   3.111   4.420  16.744  0.0443 -0.1390 -0.4117
  444MPD2    C1 6613   3.126   4.308  16.810  0.2335 -0.6356 -0.1671
  444MPD2    C2 6614   3.166   4.190  16.752 -0.1149 -0.4044 -0.3027
  444MPD2    C3 6615   3.178   4.182  16.613 -0.4680 -0.0999 -0.3083
  444MPD2    C4 6616   3.144   4.294  16.541 -0.1473 -0.4769 -0.3575
  444MPD2    C5 6617   3.123   4.412  16.608 -0.6419  0.4159 -0.4327
  444MPD2     H 6618   3.199   4.114  16.822  1.7614 -0.2530 -1.0392
  444MPD2    H1 6619   3.143   4.304  16.433  1.7157  1.3761 -0.1870
  444MPD2    H2 6620   3.090   4.517  16.789  0.3945  0.3304 -1.2590
  444MPD2    H3 6621   3.106   4.504  16.553 -0.1856  0.5701 -0.3218
  444MPD2     N 6622   3.250   4.076  16.554  0.6440 -0.4053 -0.5055
  444MPD2    H5 6623   3.279   4.002  16.617  1.4140  0.7464  0.4902
  444MPD2    N1 6624   3.111   4.307  16.951 -0.3449  0.3925 -0.4559
  444MPD2    H7 6625   3.105   4.214  16.990  0.4989  0.2141 -0.7507
  445TMC3    C1 6626   3.337   3.939  16.387  0.2964 -0.1756 -0.3428
  445TMC3    C2 6627   3.313   3.902  16.261  0.1426  0.3041 -0.1476
  445TMC3    C3 6628   3.393   3.803  16.209 -0.2469  0.5399 -0.0090
  445TMC3    C4 6629   3.441   3.893  16.467 -0.2787 -0.2333  0.2236
  445TMC3    C5 6630   3.523   3.805  16.400 -0.2516  0.8285  0.3405
  445TMC3    C6 6631   3.499   3.755  16.276  0.5560 -0.1589 -0.0759
  445TMC3     C 6632   3.258   4.055  16.424  0.0586 -0.3788  0.2369
  445TMC3     O 6633   3.194   4.111  16.339 -0.2542 -0.0257  0.1762
  445TMC3     H 6634   3.237   3.956  16.205 -0.9957 -0.8519  0.2766
  445TMC3    H1 6635   3.449   3.924  16.571  2.8862 -0.9771  0.1956
  445TMC3    H2 6636   3.560   3.672  16.241  0.7553  0.2278 -0.6430
  445TMC3    C7 6637   3.647   3.786  16.464  0.6443 -0.2584  0.0721
  445TMC3    C8 6638   3.361   3.741  16.081 -0.3811  0.0616 -0.0640
  445TMC3    O1 6639   3.654   3.833  16.578  0.5934 -0.0813  0.2630
  445TMC3    O2 6640   3.443   3.666  16.035  0.1534 -0.6535 -0.0096
  446MPD2     C 6641   3.269   1.255  11.152 -0.2891  0.6980  0.0866
  446MPD2    C1 6642   3.235   1.160  11.054 -0.3368 -0.5628  0.4487
  446MPD2    C2 6643   3.329   1.098  10.988  1.2128 -0.0979  0.3046
  446MPD2    C3 6644   3.460   1.139  11.000 -0.9990 -0.4221 -0.0445
  446MPD2    C4 6645   3.499   1.240  11.094 -0.4415  0.4129  0.3393
  446MPD2    C5 6646   3.402   1.289  11.170 -1.2506  0.5227 -0.6877
  446MPD2     H 6647   3.303   1.033  10.905  1.9604 -0.7745  0.5903
  446MPD2    H1 6648   3.600   1.278  11.103 -0.0087 -1.1690  2.2579
  446MPD2    H2 6649   3.203   1.305  11.223 -1.2093 -1.4987  0.7849
  446MPD2    H3 6650   3.433   1.359  11.246  1.0456 -0.5946 -0.6025
  446MPD2     N 6651   3.558   1.081  10.917 -0.0144 -0.1590  0.2861
  446MPD2    H5 6652   3.522   1.012  10.852  0.2111  1.5226 -1.6200
  446MPD2    N1 6653   3.101   1.134  11.024 -0.0952 -0.1372 -0.0802
  446MPD2    H7 6654   3.077   1.057  10.962  2.0364 -0.4777 -0.5040
  447TMC3    C1 6655   3.757   1.042  10.814 -0.5418  0.3193 -0.1123
  447TMC3    C2 6656   3.736   1.119  10.705  0.6098 -0.3329  0.4175
  447TMC3    C3 6657   3.844   1.154  10.624  0.2555  0.0811  0.0881
  447TMC3    C4 6658   3.882   1.003  10.850 -0.5530  0.0052 -0.3986
  447TMC3    C5 6659   3.980   1.026  10.765  0.5159  0.5319  0.3118
  447TMC3    C6 6660   3.969   1.107  10.656 -0.1310 -0.3066 -0.7138
  447TMC3     C 6661   3.691   1.095  10.930 -0.1808  0.2578 -0.0111
  447TMC3     O 6662   3.764   1.162  10.999 -0.4567  0.2365 -0.1693
  447TMC3     H 6663   3.637   1.160  10.687  1.3992  1.3184 -0.1570
  447TMC3    H1 6664   3.901   0.948  10.941 -1.9063  0.1351 -0.0499
  447TMC3    H2 6665   4.053   1.139  10.595 -1.2440 -0.3182 -2.2586
  447TMC3    C7 6666   4.114   0.992  10.803 -0.8650  0.0220  0.7180
  447TMC3    C8 6667   3.820   1.247  10.511 -0.8278 -0.0858  0.8059
  447TMC3    O1 6668   4.198   1.083  10.803 -0.5466 -0.2663 -0.1362
  447TMC3    O2 6669   3.708   1.256  10.474  0.0691  0.0584  0.6525
  448TMC3    C1 6670   1.314   0.998  16.796 -0.4709 -0.0113 -0.3594
  448TMC3    C2 6671   1.295   0.875  16.752 -0.5185 -0.0691 -0.1697
  448TMC3    C3 6672   1.393   0.784  16.747 -0.4840  0.3899  0.4244
  448TMC3    C4 6673   1.434   1.031  16.851 -0.6192  0.0556 -0.4292
  448TMC3    C5 6674   1.536   0.942  16.844  0.0913  0.1002 -0.6024
  448TMC3    C6 6675   1.520   0.824  16.786 -0.1469 -0.0348 -1.0126
  448TMC3     C 6676   1.201   1.057  16.866 -0.0233  0.0255 -0.3534
  448TMC3     O 6677   1.098   1.064  16.800  0.4822 -0.7137 -0.1409
  448TMC3     H 6678   1.197   0.853  16.710 -0.3408 -0.3048 -0.4567
  448TMC3    H1 6679   1.458   1.129  16.892  0.0222  0.2550 -1.2709
  448TMC3    H2 6680   1.610   0.775  16.751 -1.1537 -3.1435  0.7261
  448TMC3    C7 6681   1.669   0.976  16.886 -0.5365  0.2262 -0.8660
  448TMC3    C8 6682   1.371   0.647  16.737 -0.0417  1.1925  0.3985
  448TMC3    O1 6683   1.697   1.093  16.894 -0.1281  0.0720 -0.1140
  448TMC3    O2 6684   1.467   0.574  16.744  0.5930  0.4999 -0.4435
  449MPD2     C 6685   2.981   3.922  13.936  0.7584 -1.0596  0.4842
  449MPD2    C1 6686   2.859   3.965  13.883 -0.1473  0.1182 -0.3027
  449MPD2    C2 6687   2.745   3.927  13.941  0.5884 -0.0584 -0.0484
  449MPD2    C3 6688   2.735   3.835  14.039  0.4928 -0.1616  0.6882
  449MPD2    C4 6689   2.850   3.778  14.085  0.2530  0.0886  0.0557
  449MPD2    C5 6690   2.973   3.819  14.035 -0.5261 -0.5551  0.0645
  449MPD2     H 6691   2.654   3.972  13.902  0.0579 -0.7884  0.3451
  449MPD2    H1 6692   2.853   3.694  14.154 -0.9023  1.2906  1.5621
  449MPD2    H2 6693   3.078   3.963  13.914  0.5043 -0.4815  0.4493
  449MPD2    H3 6694   3.068   3.780  14.070  1.0215  0.8659 -2.6142
  449MPD2     N 6695   2.603   3.791  14.078  0.4389 -0.1874  0.1404
  449MPD2    H5 6696   2.530   3.843  14.031  0.6433  1.3366  1.4997
  449MPD2    N1 6697   2.843   4.069  13.788 -0.0015  0.2385 -0.3774
  449MPD2    H7 6698   2.747   4.080  13.756  0.4236 -2.0208 -2.4052
  450TMC3    C1 6699   2.898   4.190  13.602  1.0069  0.0809  0.1274
  450TMC3    C2 6700   2.945   4.171  13.476  1.1585  0.6478  0.2252
  450TMC3    C3 6701   2.847   4.159  13.378  0.0153  0.7449 -0.1569
  450TMC3    C4 6702   2.771   4.224  13.627 -0.1543  0.4899  0.3955
  450TMC3    C5 6703   2.677   4.211  13.527 -0.4620 -0.0613  0.3323
  450TMC3    C6 6704   2.717   4.181  13.402 -0.6791  0.4313  0.3165
  450TMC3     C 6705   2.948   4.117  13.717  0.6150  0.2519 -0.0472
  450TMC3     O 6706   3.066   4.085  13.714 -0.5314 -0.4716 -0.5225
  450TMC3     H 6707   3.050   4.151  13.458  1.4821  1.6791  0.9363
  450TMC3    H1 6708   2.728   4.253  13.722 -2.7017  1.8447 -1.1725
  450TMC3    H2 6709   2.652   4.190  13.316 -2.6668 -1.5875  1.6177
  450TMC3    C7 6710   2.569   4.125  13.569  0.1812 -0.7273  0.6935
  450TMC3    C8 6711   2.889   4.169  13.238 -0.7226  0.6752  0.3710
  450TMC3    O1 6712   2.590   4.076  13.681 -0.3775  0.2480 -0.4241
  450TMC3    O2 6713   2.824   4.247  13.167  0.1931  0.1784  0.5242
  451MPD2     C 6714   3.406   2.391   2.018  0.2101  0.2299  0.5388
  451MPD2    C1 6715   3.477   2.442   1.909  0.5138  0.1774  0.1884
  451MPD2    C2 6716   3.608   2.410   1.899  0.0504 -0.1115  0.7108
  451MPD2    C3 6717   3.676   2.339   1.996 -0.3580 -0.7258  0.1266
  451MPD2    C4 6718   3.602   2.278   2.092  0.1119 -0.4938  0.2344
  451MPD2    C5 6719   3.469   2.307   2.107  0.3499  0.2901  0.3642
  451MPD2     H 6720   3.670   2.450   1.819 -0.9514  0.9641  0.4735
  451MPD2    H1 6721   3.639   2.200   2.157  0.0322 -1.3961 -0.8099
  451MPD2    H2 6722   3.303   2.413   2.041  0.5833 -0.3705  2.7732
  451MPD2    H3 6723   3.413   2.266   2.191 -0.7484 -0.4285 -0.7231
  451MPD2     N 6724   3.813   2.304   1.984 -0.5138  0.0632 -0.9300
  451MPD2    H5 6725   3.842   2.231   2.048  2.4437  0.1490 -2.1563
  451MPD2    N1 6726   3.415   2.532   1.818  0.1740  0.4352  0.1317
  451MPD2    H7 6727   3.316   2.552   1.825 -0.1373 -0.3219 -1.9447
  452TMC3    C1 6728   4.042   2.315   1.920 -0.1047 -0.0764  1.4877
  452TMC3    C2 6729   4.068   2.246   2.039 -0.2214  0.8060 -0.1948
  452TMC3    C3 6730   4.198   2.197   2.047  0.4265 -0.6269 -0.3352
  452TMC3    C4 6731   4.126   2.330   1.813  0.6847 -0.1974  0.1072
  452TMC3    C5 6732   4.239   2.261   1.823 -0.6884 -0.0158 -0.0084
  452TMC3    C6 6733   4.283   2.199   1.939  0.8632  0.3370  0.2913
  452TMC3     C 6734   3.909   2.371   1.909  0.2397 -0.2649 -0.4570
  452TMC3     O 6735   3.894   2.473   1.841  0.4845 -0.9651 -0.1955
  452TMC3     H 6736   4.009   2.243   2.130  0.5983  3.1847  0.4185
  452TMC3    H1 6737   4.097   2.395   1.731  2.4137  2.2755  1.4345
  452TMC3    H2 6738   4.369   2.135   1.929 -1.0060 -1.9336 -1.2809
  452TMC3    C7 6739   4.322   2.280   1.705 -0.0391 -0.0766  0.5117
  452TMC3    C8 6740   4.227   2.117   2.167 -0.3934  0.2236 -0.3590
  452TMC3    O1 6741   4.268   2.324   1.602 -0.1236 -0.8644  0.1715
  452TMC3    O2 6742   4.141   2.097   2.251  0.0791  0.0903  0.7963
  453TMC3    C1 6743   0.373   0.536  11.834 -0.2413  0.6926 -0.1125
  453TMC3    C2 6744   0.360   0.411  11.885 -0.0680 -0.0454 -0.4966
  453TMC3    C3 6745   0.322   0.320  11.791  0.1525 -0.1097  0.2610
  453TMC3    C4 6746   0.358   0.568  11.698  0.5172  0.0344  0.5835
  453TMC3    C5 6747   0.317   0.466  11.613 -0.2750 -0.9905 -0.5228
  453TMC3    C6 6748   0.306   0.334  11.656 -0.0802  0.5630 -0.7328
  453TMC3     C 6749   0.475   0.617  11.899  0.4227 -0.1360 -0.1853
  453TMC3     O 6750   0.537   0.695  11.831 -0.1214 -0.5685  0.4178
  453TMC3     H 6751   0.384   0.381  11.987  0.2797 -1.0903 -0.8801
  453TMC3    H1 6752   0.380   0.667  11.660  2.1605 -0.5590 -0.0483
  453TMC3    H2 6753   0.282   0.261  11.580  0.2008 -0.6442  0.3405
  453TMC3    C7 6754   0.360   0.484  11.471  0.5706 -0.0855 -0.3092
  453TMC3    C8 6755   0.243   0.211  11.849  0.3419  0.0551  0.4263
  453TMC3    O1 6756   0.308   0.415  11.384  0.9851  0.5597 -0.5597
  453TMC3    O2 6757   0.205   0.227  11.964  0.3334 -0.5630 -0.7884
  454MPD2     C 6758   4.063   4.437  16.369 -0.0513  0.4997 -0.0879
  454MPD2    C1 6759   3.967   4.513  16.318  0.6131 -0.5032  0.3305
  454MPD2    C2 6760   3.885   4.592  16.401  1.0887 -0.0277 -0.8878
  454MPD2    C3 6761   3.898   4.582  16.540  0.2491  0.1984 -0.1697
  454MPD2    C4 6762   3.997   4.507  16.589  0.6208 -0.3670  0.5217
  454MPD2    C5 6763   4.081   4.439  16.507 -0.5782 -0.2620  0.4012
  454MPD2     H 6764   3.810   4.655  16.356  1.6581  1.0031 -0.4040
  454MPD2    H1 6765   4.019   4.487  16.693 -0.3290  0.9007  0.9797
  454MPD2    H2 6766   4.143   4.388  16.314 -0.5635  0.5021 -0.8297
  454MPD2    H3 6767   4.149   4.371  16.556 -0.2549 -0.4568 -0.3084
  454MPD2     N 6768   3.798   4.624  16.633 -0.3196 -0.0347  0.3004
  454MPD2    H5 6769   3.799   4.581  16.725  0.7147  0.2080  0.4011
  454MPD2    N1 6770   3.933   4.519  16.180 -0.4977  0.0580 -0.1596
  454MPD2    H7 6771   3.866   4.587  16.144  1.9218  1.4891 -2.0086
  455TMC3    C1 6772   3.578   4.667  16.675 -0.3392  0.1347 -0.3582
  455TMC3    C2 6773   3.583   4.666  16.808  0.2894  0.8450  0.1470
  455TMC3    C3 6774   3.507   4.582  16.878 -0.1483  0.3502  0.5348
  455TMC3    C4 6775   3.507   4.573  16.609  0.0852 -0.1257 -0.9521
  455TMC3    C5 6776   3.437   4.477  16.674  0.5473  0.7462  0.1606
  455TMC3    C6 6777   3.435   4.490  16.814  0.2271 -0.7462 -0.1252
  455TMC3     C 6778   3.694   4.702  16.599 -0.2096  0.0444 -0.4557
  455TMC3     O 6779   3.686   0.048  16.505 -0.0655 -0.6763  0.1176
  455TMC3     H 6780   3.655   0.004  16.861  1.2219 -1.0150  1.0725
  455TMC3    H1 6781   3.521   4.555  16.503  1.1648 -3.3320 -0.2947
  455TMC3    H2 6782   3.381   4.426  16.882 -2.0477 -1.3968 -2.4999
  455TMC3    C7 6783   3.487   4.348  16.643 -0.1319 -0.5268  0.1395
  455TMC3    C8 6784   3.518   4.577  17.024 -0.1269 -0.1738 -0.0787
  455TMC3    O1 6785   3.528   4.293  16.741 -0.0017  0.0288 -0.4356
  455TMC3    O2 6786   3.631   4.577  17.065 -0.3598 -0.4594 -0.8062
  456MPD2     C 6787   1.516   4.110  16.007 -0.4949 -0.5045 -0.2020
  456MPD2    C1 6788   1.617   4.098  16.101 -0.5300 -0.0095  0.5273
  456MPD2    C2 6789   1.613   4.170  16.224  0.3618 -0.1540 -0.5359
  456MPD2    C3 6790   1.503   4.248  16.250 -0.2590  0.6650  0.4817
  456MPD2    C4 6791   1.397   4.252  16.161  0.3976  0.0592  0.2818
  456MPD2    C5 6792   1.408   4.188  16.039 -0.1278  0.5896  0.1701
  456MPD2     H 6793   1.693   4.161  16.296 -0.1145 -0.0073  0.0085
  456MPD2    H1 6794   1.308   4.314  16.172  0.1047 -0.0842 -1.2174
  456MPD2    H2 6795   1.522   4.063  15.909 -0.0674  0.1546 -0.4974
  456MPD2    H3 6796   1.323   4.194  15.971  0.0701  0.5637 -0.0797
  456MPD2     N 6797   1.517   4.335  16.369  0.5300 -0.5223  0.2813
  456MPD2    H5 6798   1.604   4.330  16.422 -0.0879 -1.3286  1.2109
  456MPD2    N1 6799   1.726   4.020  16.059 -0.5954 -0.0700  0.2607
  456MPD2    H7 6800   1.720   3.970  15.970  0.3776 -0.3395  0.3501
  457TMC3    C1 6801   1.444   4.495  16.541  0.4034 -0.7730 -0.7989
  457TMC3    C2 6802   1.405   4.627  16.546 -0.3608  0.5377 -0.3686
  457TMC3    C3 6803   1.467   4.707  16.634  0.0116 -0.5400  0.8411
  457TMC3    C4 6804   1.549   4.450  16.614  0.2943 -0.6514 -0.0685
  457TMC3    C5 6805   1.607   4.539  16.703  0.1501  0.1505 -0.1447
  457TMC3    C6 6806   1.571   4.670  16.715 -0.0710 -0.6568  0.8877
  457TMC3     C 6807   1.420   4.428  16.407  0.2768  0.2677  0.2897
  457TMC3     O 6808   1.321   4.472  16.347 -0.8102 -0.4055  0.3377
  457TMC3     H 6809   1.331   4.665  16.476 -3.0594 -0.4716  1.8957
  457TMC3    H1 6810   1.574   4.344  16.613  0.5541 -0.5719 -1.4483
  457TMC3    H2 6811   1.621   0.018  16.778  0.7165 -0.5543  0.1403
  457TMC3    C7 6812   1.721   4.498  16.789 -0.2183 -0.2632 -0.5617
  457TMC3    C8 6813   1.419   0.121  16.656 -0.0232  0.1130  0.1654
  457TMC3    O1 6814   1.719   4.382  16.822  0.0007  0.4349 -0.0133
  457TMC3    O2 6815   1.490   0.204  16.712 -0.3502 -0.0817 -0.0566
  458MPD2     C 6816   4.348   3.503  11.771  0.1156 -0.0758 -0.7987
  458MPD2    C1 6817   4.301   3.480  11.899 -0.2808 -0.7938  0.3245
  458MPD2    C2 6818   4.204   3.383  11.921  0.1476  0.4402 -0.3377
  458MPD2    C3 6819   4.156   3.305  11.815  0.4270 -0.3046 -0.7670
  458MPD2    C4 6820   4.208   3.329  11.682 -0.4815 -0.0192  0.4959
  458MPD2    C5 6821   4.316   3.413  11.672  0.4128  0.1803 -0.2903
  458MPD2     H 6822   4.158   3.359  12.016 -0.1110 -0.5517 -0.7137
  458MPD2    H1 6823   4.170   3.287  11.590  1.2376 -0.3869 -0.0536
  458MPD2    H2 6824   4.413   3.589  11.754 -3.0992  2.0229 -2.6328
  458MPD2    H3 6825   4.349   3.439  11.572  1.1366 -0.6579 -0.2680
  458MPD2     N 6826   4.052   3.209  11.838 -0.0645 -0.1780  0.0683
  458MPD2    H5 6827   4.028   3.198  11.936  1.1241 -1.0704  0.2590
  458MPD2    N1 6828   4.345   3.571  12.002 -0.0172  0.1384  0.9276
  458MPD2    H7 6829   4.410   3.646  11.978  0.0954 -0.6581 -1.2581
  459TMC3    C1 6830   4.361   3.662  12.210  0.2826 -0.2129  0.4496
  459TMC3    C2 6831   4.397   3.785  12.165 -0.1837  0.4687  0.4256
  459TMC3    C3 6832   4.409   3.891  12.255  0.1003 -0.0521  0.3367
  459TMC3    C4 6833   4.364   3.639  12.347 -1.0436  0.2825 -0.0435
  459TMC3    C5 6834   4.374   3.741  12.431  0.2848  0.5995 -0.5175
  459TMC3    C6 6835   4.395   3.872  12.386 -0.3083 -0.1431 -0.3031
  459TMC3     C 6836   4.306   3.566  12.130  0.1144 -0.2451  0.1251
  459TMC3     O 6837   4.222   3.493  12.183  0.1188  0.0596 -0.4809
  459TMC3     H 6838   4.416   3.805  12.060 -0.7685 -0.6626  0.0979
  459TMC3    H1 6839   4.326   3.545  12.384 -0.7602  0.1149 -0.1813
  459TMC3    H2 6840   4.414   3.951  12.457 -1.9757 -1.6656  1.8366
  459TMC3    C7 6841   4.384   3.713  12.578  0.2256 -0.5843 -0.0982
  459TMC3    C8 6842   4.487   3.999  12.202  0.1747 -0.0056 -0.3875
  459TMC3    O1 6843   4.398   3.599  12.613 -0.0675  0.0402  0.3392
  459TMC3    O2 6844   4.563   3.968  12.108  0.4937  0.3931  0.2883
  460MPD2     C 6845   4.069   1.499  10.401 -0.2110 -0.2357  0.2279
  460MPD2    C1 6846   3.948   1.425  10.408  0.0582 -0.1441  0.3619
  460MPD2    C2 6847   3.843   1.474  10.331 -0.1280 -0.4696 -0.3699
  460MPD2    C3 6848   3.864   1.571  10.229  0.3001  0.1950  0.6346
  460MPD2    C4 6849   3.985   1.636  10.217  0.2290  0.0371  0.0167
  460MPD2    C5 6850   4.080   1.611  10.314 -0.1730 -0.2030  0.3249
  460MPD2     H 6851   3.746   1.426  10.335 -0.5843  0.5604  0.9150
  460MPD2    H1 6852   4.007   1.720  10.154  0.4036 -1.4562 -1.9108
  460MPD2    H2 6853   4.156   1.478  10.462 -0.0871  0.1939  0.2017
  460MPD2    H3 6854   4.163   1.680  10.311 -0.4317 -0.0796 -3.0612
  460MPD2     N 6855   3.764   1.615  10.136  0.3753  0.1489 -0.1410
  460MPD2    H5 6856   3.781   1.696  10.076  3.0949  0.3711  0.9172
  460MPD2    N1 6857   3.933   1.316  10.489 -0.2908 -0.5838  0.0502
  460MPD2    H7 6858   4.011   1.287  10.548  2.4463 -0.6695 -3.6222
  461TMC3    C1 6859   3.553   1.651  10.049 -0.0160  0.7006  0.4480
  461TMC3    C2 6860   3.601   1.649   9.915 -0.7008 -0.1739  0.2541
  461TMC3    C3 6861   3.536   1.736   9.830  0.2567 -0.2547 -0.0482
  461TMC3    C4 6862   3.452   1.733  10.093  0.3841  0.1344 -0.2945
  461TMC3    C5 6863   3.398   1.816  10.001 -0.0094  0.5714  0.5937
  461TMC3    C6 6864   3.438   1.827   9.869 -0.4580 -0.3740 -0.4956
  461TMC3     C 6865   3.627   1.584  10.150  0.1501 -0.1558  0.6530
  461TMC3     O 6866   3.567   1.506  10.222 -0.5746 -0.4094 -0.0254
  461TMC3     H 6867   3.683   1.586   9.882 -0.2753  0.8074 -0.5568
  461TMC3    H1 6868   3.420   1.739  10.197  1.2724  0.1716 -0.0217
  461TMC3    H2 6869   3.407   1.901   9.797  1.9025 -1.3788 -2.5480
  461TMC3    C7 6870   3.328   1.930  10.059 -0.3153 -0.3991  0.0720
  461TMC3    C8 6871   3.565   1.711   9.688  0.4331 -0.3954  0.3890
  461TMC3    O1 6872   3.349   2.035  10.004  0.3701 -0.4977  0.4861
  461TMC3    O2 6873   3.658   1.630   9.667 -0.5615 -0.3886  0.3018
  462TMC3    C1 6874   3.696   1.414   0.120 -0.7163  0.2295  0.3134
  462TMC3    C2 6875   3.723   1.279   0.107 -0.6417 -0.0490 -0.3897
  462TMC3    C3 6876   3.709   1.196   0.221 -0.5818  0.0733 -0.0154
  462TMC3    C4 6877   3.681   1.470   0.239 -0.0613 -0.1858  0.4234
  462TMC3    C5 6878   3.656   1.390   0.348  0.1639 -0.3925 -1.0642
  462TMC3    C6 6879   3.658   1.257   0.337 -0.0288  0.3561 -0.2426
  462TMC3     C 6880   3.706   1.491   0.001 -0.4952 -0.1084  0.7082
  462TMC3     O 6881   3.741   1.608   0.019 -0.3507 -0.1279 -0.1964
  462TMC3     H 6882   3.769   1.235   0.020  1.9926  0.2737  0.8427
  462TMC3    H1 6883   3.669   1.578   0.241 -1.9856 -0.3783 -0.2109
  462TMC3    H2 6884   3.652   1.210   0.434  1.1814 -0.3007 -0.4861
  462TMC3    C7 6885   3.559   1.437   0.432  0.4424 -0.4931 -0.4470
  462TMC3    C8 6886   3.704   1.045   0.215 -0.2807 -0.2661  0.5035
  462TMC3    O1 6887   3.466   1.361   0.467  0.2875 -0.4477  0.6545
  462TMC3    O2 6888   3.717   0.979   0.316  0.4576 -0.6333  0.1153
  463MPD2     C 6889   3.902   0.512   2.804  0.0275  0.2119  0.5920
  463MPD2    C1 6890   3.869   0.559   2.675 -0.0815 -0.3067 -0.3012
  463MPD2    C2 6891   3.917   0.676   2.632 -0.0289 -0.2674 -0.8588
  463MPD2    C3 6892   4.007   0.749   2.701  0.5822  0.7509 -0.0653
  463MPD2    C4 6893   4.050   0.703   2.823  0.5210  0.0147  0.0254
  463MPD2    C5 6894   4.000   0.580   2.871 -0.1116 -0.6441 -0.1506
  463MPD2     H 6895   3.884   0.714   2.535 -0.8949 -1.2741 -0.9681
  463MPD2    H1 6896   4.104   0.770   2.889 -0.8283  1.2873 -0.1827
  463MPD2    H2 6897   3.862   0.422   2.849 -0.9482  0.5872  0.4877
  463MPD2    H3 6898   4.027   0.562   2.974  0.0116  1.9278  0.2492
  463MPD2     N 6899   4.067   0.869   2.662  0.2935  0.3583 -0.1755
  463MPD2    H5 6900   4.150   0.906   2.708 -1.3640 -0.3231  3.2844
  463MPD2    N1 6901   3.778   0.497   2.581 -0.0712  0.6842 -0.7523
  463MPD2    H7 6902   3.738   0.555   2.508  1.4860  0.9839 -1.3492
  464TMC3    C1 6903   3.650   0.321   2.488  0.2531  0.1295  0.0116
  464TMC3    C2 6904   3.648   0.372   2.362  0.9179 -0.5929  0.5786
  464TMC3    C3 6905   3.571   0.307   2.261 -0.7361  0.0087  0.0937
  464TMC3    C4 6906   3.580   0.202   2.516 -0.4779  0.6212  0.0625
  464TMC3    C5 6907   3.514   0.133   2.419  0.7362 -0.8033 -0.2322
  464TMC3    C6 6908   3.504   0.185   2.290 -0.9513 -0.2457 -0.0958
  464TMC3     C 6909   3.735   0.368   2.598 -0.5356  0.0236  0.2813
  464TMC3     O 6910   3.749   0.298   2.699 -0.0275  0.2117  0.6092
  464TMC3     H 6911   3.694   0.468   2.342 -1.8572  1.0735  2.2060
  464TMC3    H1 6912   3.587   0.160   2.616 -1.1676  1.7017  0.5615
  464TMC3    H2 6913   3.454   0.131   2.211 -0.7187 -0.4749 -0.0873
  464TMC3    C7 6914   3.421   0.033   2.464  0.1447  0.3990  0.1507
  464TMC3    C8 6915   3.587   0.352   2.122 -0.1414  0.1369  0.2553
  464TMC3    O1 6916   3.407   0.016   2.585 -0.1297  0.5432  0.2196
  464TMC3    O2 6917   3.690   0.412   2.094  0.2548 -0.0369 -0.0672
  465MPD2     C 6918   0.658   4.645  16.511 -0.5296 -0.3734  0.1477
  465MPD2    C1 6919   0.578   4.691  16.610  0.4654  0.5864  0.2519
  465MPD2    C2 6920   0.443   4.667  16.594 -0.7654  0.5379 -0.1699
  465MPD2    C3 6921   0.382   4.597  16.490  0.1579  0.4353 -0.2868
  465MPD2    C4 6922   0.465   4.544  16.394 -0.0978 -0.0843  0.2628
  465MPD2    C5 6923   0.600   4.572  16.406 -0.0210  0.5543 -0.3713
  465MPD2     H 6924   0.371   4.700  16.668  0.6847 -0.1251  1.5249
  465MPD2    H1 6925   0.428   4.498  16.303  2.8446  1.1536 -1.5973
  465MPD2    H2 6926   0.766   4.651  16.503 -0.2485 -1.8112  3.1309
  465MPD2    H3 6927   0.653   4.530  16.321  1.2061  2.0897 -0.3573
  465MPD2     N 6928   0.247   4.579  16.495  0.0403  0.1182  0.2169
  465MPD2    H5 6929   0.208   4.615  16.582 -1.8151 -0.9450 -0.1674
  465MPD2    N1 6930   0.634   0.039  16.723 -0.4200 -0.2805 -0.4051
  465MPD2    H7 6931   0.571   0.082  16.790  0.6984  0.4289  0.1848
  466TMC3    C1 6932   4.611   4.649  16.556  0.3851 -0.9392  0.5584
  466TMC3    C2 6933   4.560   0.023  16.471  0.3578 -0.0206  0.6770
  466TMC3    C3 6934   4.629   0.017  16.350 -0.3371  1.1337 -0.2195
  466TMC3    C4 6935   4.713   4.564  16.531 -0.1746  0.1515  1.3107
  466TMC3    C5 6936   0.030   4.558  16.404  0.1379 -0.2783 -0.2768
  466TMC3    C6 6937   4.710   4.647  16.310  0.1014  0.1060 -0.1778
  466TMC3     C 6938   4.563   4.649  16.700  0.3067  0.3923 -0.3687
  466TMC3     O 6939   4.639   4.598  16.782  0.1365 -0.2977 -0.1350
  466TMC3     H 6940   4.488   0.102  16.488  0.8013  0.3819  0.6748
  466TMC3    H1 6941   0.010   4.476  16.590 -1.1177 -0.5350  0.6504
  466TMC3    H2 6942   0.034   4.650  16.213 -1.7011  0.8383 -1.0480
  466TMC3    C7 6943   0.170   4.539  16.389  0.5535 -0.2487  0.1846
  466TMC3    C8 6944   4.634   0.130  16.267  0.1494 -0.3182 -0.5350
  466TMC3    O1 6945   0.199   4.497  16.276  0.0162  0.1416 -0.7976
  466TMC3    O2 6946   4.656   0.124  16.149  0.0720  0.0619  0.0633
  467TMC3    C1 6947   1.115   3.164  13.839 -0.5544  0.0673  0.1208
  467TMC3    C2 6948   1.038   3.173  13.727 -0.0963  0.4820 -0.4393
  467TMC3    C3 6949   0.903   3.150  13.733 -0.3450 -0.3762 -0.6558
  467TMC3    C4 6950   1.059   3.135  13.958 -0.4559 -0.0080 -0.1626
  467TMC3    C5 6951   0.924   3.117  13.961 -0.0511  0.5477 -0.2515
  467TMC3    C6 6952   0.839   3.118  13.850 -0.2519 -0.6949  0.5756
  467TMC3     C 6953   1.253   3.210  13.837  0.0476 -0.0453  0.4432
  467TMC3     O 6954   1.336   3.153  13.907  0.9088 -0.1803 -0.1325
  467TMC3     H 6955   1.093   3.184  13.634 -1.3963 -0.8771 -1.3803
  467TMC3    H1 6956   1.123   3.116  14.043 -0.4806 -0.2943 -0.2050
  467TMC3    H2 6957   0.733   3.105  13.867 -0.5510 -1.7597 -2.1717
  467TMC3    C7 6958   0.877   3.057  14.085  0.1241 -0.0281 -0.2371
  467TMC3    C8 6959   0.830   3.194  13.619  0.2082  0.3106 -0.0797
  467TMC3    O1 6960   0.965   2.997  14.141 -0.0321 -0.0365 -0.0668
  467TMC3    O2 6961   0.798   3.318  13.614  0.7751  0.3245  0.4652
  468MPD2     C 6962   1.148   1.724  10.860 -0.2282  0.3780  0.1274
  468MPD2    C1 6963   1.028   1.712  10.922  0.3187  0.8043  0.5142
  468MPD2    C2 6964   0.955   1.589  10.912  0.5032  0.0898  0.0182
  468MPD2    C3 6965   1.012   1.489  10.840  0.2675 -0.1155  0.4824
  468MPD2    C4 6966   1.132   1.499  10.775  0.0781  0.3168 -0.1492
  468MPD2    C5 6967   1.190   1.618  10.785  0.0445 -0.8473 -0.0891
  468MPD2     H 6968   0.853   1.581  10.950  0.7203 -2.9604 -0.0579
  468MPD2    H1 6969   1.169   1.422  10.709  0.9760 -0.8492  1.7117
  468MPD2    H2 6970   1.208   1.814  10.860  0.7753 -0.2855  2.6390
  468MPD2    H3 6971   1.282   1.638  10.732  0.0301 -1.3835 -0.3179
  468MPD2     N 6972   0.946   1.364  10.814 -0.4840  0.0484 -0.0254
  468MPD2    H5 6973   0.995   1.296  10.756  0.9295 -1.1916  2.6257
  468MPD2    N1 6974   0.969   1.809  11.009 -0.3014 -0.2775 -0.0031
  468MPD2    H7 6975   0.879   1.780  11.046 -0.7596 -0.3062 -1.1338
  469TMC3    C1 6976   0.983   1.948  11.187 -0.1988 -0.5817 -0.1145
  469TMC3    C2 6977   0.980   1.851  11.276  0.2759 -0.4039  0.3307
  469TMC3    C3 6978   1.022   1.867  11.407  0.4417  0.0958  0.6505
  469TMC3    C4 6979   1.035   2.068  11.222 -0.1617  0.0595  0.5322
  469TMC3    C5 6980   1.090   2.081  11.346  0.4701 -0.5135 -0.5244
  469TMC3    C6 6981   1.081   1.987  11.442  0.1299 -0.2584 -0.7482
  469TMC3     C 6982   1.029   1.917  11.055  0.1003  0.0730  0.0843
  469TMC3     O 6983   1.129   1.977  11.018  0.3923  0.4971  0.1797
  469TMC3     H 6984   0.965   1.750  11.241 -0.0289 -0.6831  1.2772
  469TMC3    H1 6985   1.046   2.152  11.155 -0.3007  0.3641  0.8939
  469TMC3    H2 6986   1.105   2.000  11.547  0.4700 -0.5155 -0.7906
  469TMC3    C7 6987   1.145   2.212  11.373  0.2693 -0.4123  0.3055
  469TMC3    C8 6988   1.072   1.747  11.481 -0.4942 -0.0899 -0.2748
  469TMC3    O1 6989   1.135   2.301  11.289 -0.0957 -0.1849 -0.0977
  469TMC3    O2 6990   1.056   1.643  11.426  0.2682 -0.1145 -0.4717
  470TMC3    C1 6991   2.595   2.323   0.375  0.3269 -0.0779  0.3765
  470TMC3    C2 6992   2.567   2.454   0.402 -0.0690 -0.4005  0.1557
  470TMC3    C3 6993   2.553   2.489   0.535  0.1384 -0.3843  0.3311
  470TMC3    C4 6994   2.607   2.237   0.481 -0.5798 -0.7391  0.5797
  470TMC3    C5 6995   2.607   2.279   0.613 -0.2790 -0.1521  0.6418
  470TMC3    C6 6996   2.576   2.408   0.642  0.2343  0.7644  0.0619
  470TMC3     C 6997   2.619   2.272   0.236 -0.5327 -0.4597 -0.4664
  470TMC3     O 6998   2.643   2.152   0.223  0.2388 -1.0729  0.3089
  470TMC3     H 6999   2.542   2.522   0.321 -2.9403 -0.4010  1.0584
  470TMC3    H1 7000   2.618   2.134   0.448  1.3615 -0.4039  0.1444
  470TMC3    H2 7001   2.588   2.451   0.741 -0.8110 -1.6407  1.2198
  470TMC3    C7 7002   2.677   2.191   0.699  0.1242  0.3114  0.4037
  470TMC3    C8 7003   2.530   2.626   0.571  0.1969  0.3189  1.0253
  470TMC3    O1 7004   2.746   2.104   0.656 -0.4457 -0.1845  0.4380
  470TMC3    O2 7005   2.597   2.672   0.665  0.1346 -0.1881  0.3211
  471MPD2     C 7006   3.023   3.052  16.498 -0.2766 -0.0115 -0.4864
  471MPD2    C1 7007   2.962   2.925  16.515  0.2438  1.1451  0.3402
  471MPD2    C2 7008   2.996   2.853  16.631  0.3364  0.2264 -0.6451
  471MPD2    C3 7009   3.095   2.907  16.717  0.2351 -0.5674 -0.5164
  471MPD2    C4 7010   3.154   3.025  16.688  0.4196  0.5771  0.1796
  471MPD2    C5 7011   3.112   3.104  16.584 -0.5094  0.0413 -0.0805
  471MPD2     H 7012   2.952   2.757  16.654 -0.4244  0.3544 -1.5739
  471MPD2    H1 7013   3.232   3.072  16.748  0.0601  0.5904  0.6314
  471MPD2    H2 7014   3.010   3.098  16.400 -1.2927  2.2712  0.7206
  471MPD2    H3 7015   3.161   3.198  16.560 -1.3833  0.1887 -1.2993
  471MPD2     N 7016   3.118   2.828  16.835 -0.1908 -0.3456 -0.1002
  471MPD2    H5 7017   3.078   2.738  16.858 -1.8686  0.3341 -0.3903
  471MPD2    N1 7018   2.871   2.856  16.433 -0.2731  0.4347  0.2594
  471MPD2    H7 7019   2.843   2.768  16.477 -1.1532 -0.0279 -1.2299
  472TMC3    C1 7020   2.754   2.815  16.243  0.5093 -0.2737  0.1525
  472TMC3    C2 7021   2.631   2.827  16.190  0.0276 -0.6182  0.0999
  472TMC3    C3 7022   2.577   2.718  16.135  0.7641 -0.2858  0.6288
  472TMC3    C4 7023   2.804   2.688  16.260  0.5119  0.9319  0.4840
  472TMC3    C5 7024   2.728   2.579  16.224 -0.0620 -0.1839  0.1204
  472TMC3    C6 7025   2.612   2.592  16.153  0.5078  0.6644  0.0337
  472TMC3     C 7026   2.811   2.918  16.328  0.0993 -0.1920  0.1037
  472TMC3     O 7027   2.781   3.035  16.311 -0.5735 -0.0299  0.1174
  472TMC3     H 7028   2.591   2.926  16.169 -1.1411 -1.3247 -0.9913
  472TMC3    H1 7029   2.900   2.662  16.303  0.8556  0.7393 -0.4084
  472TMC3    H2 7030   2.555   2.512  16.108  0.5881  0.4523  0.3093
  472TMC3    C7 7031   2.755   2.449  16.288 -0.1779 -0.5888  0.1758
  472TMC3    C8 7032   2.431   2.733  16.124 -0.0292  0.7123 -0.0593
  472TMC3    O1 7033   2.814   2.454  16.395 -0.5289 -0.2291  0.6997
  472TMC3    O2 7034   2.392   2.827  16.060 -0.1731  0.1313  0.0677
  473MPD2     C 7035   2.630   0.664  14.145  0.0834 -0.3888  0.4156
  473MPD2    C1 7036   2.684   0.751  14.053 -0.0865  0.7025 -0.1789
  473MPD2    C2 7037   2.766   0.857  14.095  0.3237 -0.3618  0.2686
  473MPD2    C3 7038   2.814   0.859  14.227 -0.6146 -0.7371  0.4100
  473MPD2    C4 7039   2.769   0.764  14.311 -1.1081 -0.5333 -0.1771
  473MPD2    C5 7040   2.669   0.678  14.277  0.3480  0.6736  0.5278
  473MPD2     H 7041   2.811   0.926  14.024 -0.7307 -0.0340 -0.0715
  473MPD2    H1 7042   2.793   0.777  14.416  1.0093  1.7184 -0.9406
  473MPD2    H2 7043   2.563   0.582  14.120  0.6769 -0.4998 -0.8354
  473MPD2    H3 7044   2.624   0.624  14.360  2.9216 -0.9384  0.8620
  473MPD2     N 7045   2.903   0.956  14.280  0.3995 -0.7007 -0.4671
  473MPD2    H5 7046   2.949   0.924  14.365 -1.8350 -0.7052  0.7256
  473MPD2    N1 7047   2.656   0.741  13.913  0.2576  0.4933 -0.1275
  473MPD2    H7 7048   2.693   0.819  13.859 -2.1338  0.7448 -1.4290
  474TMC3    C1 7049   3.006   1.160  14.316  0.2268 -0.4367 -0.4501
  474TMC3    C2 7050   2.942   1.270  14.360  0.6177  0.1635 -0.0199
  474TMC3    C3 7051   3.023   1.351  14.433  0.1464 -0.3369 -0.0424
  474TMC3    C4 7052   3.134   1.132  14.343  0.4293  0.0802 -0.0130
  474TMC3    C5 7053   3.206   1.220  14.416 -0.2869  0.0099  0.6376
  474TMC3    C6 7054   3.155   1.330  14.468  0.7748  0.2699  0.4385
  474TMC3     C 7055   2.941   1.075  14.219  0.1846  0.0268  0.5517
  474TMC3     O 7056   2.870   1.136  14.135  0.1423  0.3330  0.1835
  474TMC3     H 7057   2.844   1.296  14.322  1.0351 -0.1113 -1.2651
  474TMC3    H1 7058   3.182   1.044  14.302 -0.5560 -1.2536  1.7061
  474TMC3    H2 7059   3.219   1.407  14.510  2.2160 -0.5470 -0.2785
  474TMC3    C7 7060   3.348   1.191  14.446  0.3141  0.2100 -0.0439
  474TMC3    C8 7061   2.985   1.487  14.439 -0.1720  0.4230  0.2496
  474TMC3    O1 7062   3.414   1.124  14.367 -0.6947 -0.1650  0.6252
  474TMC3    O2 7063   3.081   1.567  14.433  0.1170 -0.9628  0.5194
  475MPD2     C 7064   1.361   4.019  10.745  0.1078  0.5998  0.0811
  475MPD2    C1 7065   1.418   4.090  10.641 -0.1637 -0.0733  0.1082
  475MPD2    C2 7066   1.341   4.175  10.573  0.4278  0.0016 -0.1070
  475MPD2    C3 7067   1.217   4.214  10.618  0.5810  0.1565 -0.3354
  475MPD2    C4 7068   1.167   4.153  10.736 -0.1841 -0.1094 -0.3777
  475MPD2    C5 7069   1.237   4.051  10.797 -0.2051  0.6613 -0.6151
  475MPD2     H 7070   1.375   4.224  10.482 -0.1505 -1.5186 -1.1269
  475MPD2    H1 7071   1.074   4.177  10.787 -0.3134 -1.6523  0.1200
  475MPD2    H2 7072   1.416   3.947  10.803 -0.7052  0.7012  0.9656
  475MPD2    H3 7073   1.201   4.007  10.889  0.3803  0.5926 -0.4227
  475MPD2     N 7074   1.141   4.310  10.542  0.1945 -0.3893 -0.4073
  475MPD2    H5 7075   1.190   4.363  10.470 -1.2588  0.4581 -0.7628
  475MPD2    N1 7076   1.553   4.056  10.614 -0.7512 -0.0225  0.2616
  475MPD2    H7 7077   1.591   3.976  10.664  0.8702 -0.0052 -0.9541
  476TMC3    C1 7078   1.756   4.047  10.508  0.1959 -0.2338  0.4024
  476TMC3    C2 7079   1.740   3.914  10.478 -0.1073  0.5418 -0.0112
  476TMC3    C3 7080   1.853   3.837  10.457  0.3674 -0.5308 -0.8819
  476TMC3    C4 7081   1.876   4.115  10.483  0.0540  0.1466 -0.4455
  476TMC3    C5 7082   1.983   4.036  10.448  0.0199  0.3879 -0.4678
  476TMC3    C6 7083   1.972   3.898  10.440 -0.4267 -0.1945 -0.2321
  476TMC3     C 7084   1.638   4.117  10.526 -0.6084 -0.6044  0.4425
  476TMC3     O 7085   1.615   4.230  10.480  0.0803 -0.4048 -0.4136
  476TMC3     H 7086   1.643   3.865  10.480  0.2706  0.0149  4.2304
  476TMC3    H1 7087   1.877   4.224  10.483  0.2076  0.1421  0.6619
  476TMC3    H2 7088   2.065   3.845  10.421  0.4096  0.6468  1.5226
  476TMC3    C7 7089   2.101   4.095  10.389 -0.1593 -0.7457  0.9461
  476TMC3    C8 7090   1.843   3.693  10.484 -0.5080 -0.8694  0.6964
  476TMC3    O1 7091   2.190   4.019  10.347 -0.0827  0.1115 -0.1092
  476TMC3    O2 7092   1.739   3.655  10.534 -0.7147  0.1089  0.0302
  477MPD2     C 7093   3.675   1.035  11.680 -1.1312  0.3024 -0.3510
  477MPD2    C1 7094   3.685   0.905  11.646  0.3724  0.0577  0.5726
  477MPD2    C2 7095   3.756   0.826  11.734  0.2605  0.2116 -0.7223
  477MPD2    C3 7096   3.825   0.877  11.840 -0.2958 -0.2435  0.8712
  477MPD2    C4 7097   3.824   1.012  11.860  0.3860 -0.5168 -0.7463
  477MPD2    C5 7098   3.754   1.091  11.782  0.1093 -0.6483  0.4743
  477MPD2     H 7099   3.767   0.720  11.713  1.2465  0.3407 -0.8928
  477MPD2    H1 7100   3.880   1.059  11.940  0.3283 -1.9198  0.1079
  477MPD2    H2 7101   3.619   1.103  11.616  0.8102  1.7693 -0.4661
  477MPD2    H3 7102   3.771   1.197  11.790  1.5961 -0.9031  0.5774
  477MPD2     N 7103   3.888   0.793  11.932 -0.1756 -0.2595 -0.2683
  477MPD2    H5 7104   3.871   0.696  11.908 -3.2140  0.0377  0.7185
  477MPD2    N1 7105   3.617   0.855  11.543  0.5740 -0.3252  0.3120
  477MPD2    H7 7106   3.560   0.922  11.492  0.8941 -1.1401 -1.0909
  478TMC3    C1 7107   3.507   0.707  11.398  0.7678 -0.1761  0.2977
  478TMC3    C2 7108   3.387   0.775  11.409 -0.0657  0.3385  0.4897
  478TMC3    C3 7109   3.287   0.727  11.331  0.3171 -0.3250  0.5104
  478TMC3    C4 7110   3.534   0.612  11.307  0.5763  0.2291 -0.0315
  478TMC3    C5 7111   3.432   0.583  11.213  0.3294 -0.9057 -0.1698
  478TMC3    C6 7112   3.307   0.634  11.234 -0.1268  0.1665 -0.3373
  478TMC3     C 7113   3.612   0.726  11.494 -0.2102  0.1783 -0.7467
  478TMC3     O 7114   3.705   0.646  11.506  0.3157 -0.2347  0.1468
  478TMC3     H 7115   3.373   0.839  11.495 -0.6859  0.9789 -0.0784
  478TMC3    H1 7116   3.633   0.568  11.302  1.3878  2.0390 -0.1161
  478TMC3    H2 7117   3.226   0.601  11.170  1.4349 -2.4516 -0.9636
  478TMC3    C7 7118   3.477   0.583  11.076  0.5753 -0.2056  0.6915
  478TMC3    C8 7119   3.150   0.762  11.344 -0.4446 -0.0309  0.1053
  478TMC3    O1 7120   3.592   0.547  11.060 -0.2715 -0.0771 -0.2544
  478TMC3    O2 7121   3.068   0.701  11.280  0.2054 -0.0210 -0.4412
  479MPD2     C 7122   2.665   2.622  15.157  0.4766 -0.4648  0.6242
  479MPD2    C1 7123   2.602   2.599  15.277  0.3994 -0.4212 -0.2866
  479MPD2    C2 7124   2.671   2.619  15.393 -0.8184 -0.3635 -0.8241
  479MPD2    C3 7125   2.807   2.663  15.398 -0.1717 -0.0516 -0.3307
  479MPD2    C4 7126   2.869   2.667  15.277  0.3298  0.2221  0.5046
  479MPD2    C5 7127   2.797   2.653  15.155  0.2060 -1.0956 -0.4013
  479MPD2     H 7128   2.619   2.593  15.485  1.7677 -1.0250  0.4661
  479MPD2    H1 7129   2.973   2.691  15.261  0.6764 -1.0991  0.7370
  479MPD2    H2 7130   2.610   2.605  15.066 -0.0122 -0.7243  0.9678
  479MPD2    H3 7131   2.857   2.651  15.064  1.4339  0.0693  0.3801
  479MPD2     N 7132   2.886   2.702  15.516 -0.2845  0.6317  0.0702
  479MPD2    H5 7133   2.987   2.695  15.521 -0.1522  1.8876 -0.8684
  479MPD2    N1 7134   2.465   2.570  15.262  0.3183 -0.8484  0.5336
  479MPD2    H7 7135   2.430   2.564  15.167 -0.1803 -0.1191  0.6634
  480TMC3    C1 7136   2.486   2.766  15.742 -0.2251  0.6925  0.2834
  480TMC3    C2 7137   2.433   2.840  15.636  0.2974 -0.2529  0.5717
  480TMC3    C3 7138   2.515   2.901  15.540  0.2415 -0.0188  0.2911
  480TMC3    C4 7139   2.619   2.741  15.742  0.3610  0.0503  0.6538
  480TMC3    C5 7140   2.696   2.800  15.644 -0.3798 -0.6471 -1.1064
  480TMC3    C6 7141   2.652   2.879  15.543 -0.9412  0.5422  0.2298
  480TMC3     C 7142   2.409   2.651  15.790  0.2243  0.5297 -0.1457
  480TMC3     O 7143   2.470   2.563  15.848 -0.1923 -0.5214 -0.2422
  480TMC3     H 7144   2.326   2.853  15.624  0.7427  0.1227 -3.1382
  480TMC3    H1 7145   2.664   2.675  15.815  0.9451 -0.0565  0.1977
  480TMC3    H2 7146   2.727   2.911  15.472  0.3789 -1.6692  0.6502
  480TMC3    C7 7147   2.835   2.754  15.635 -0.0890  0.0704 -0.1638
  480TMC3    C8 7148   2.448   2.930  15.415 -0.4914  0.1081 -0.0259
  480TMC3    O1 7149   2.885   2.748  15.747 -0.1183 -0.2852 -0.0870
  480TMC3    O2 7150   2.329   2.954  15.425 -0.6697 -0.1694  0.0866
  481MPD2     C 7151   4.038   2.854  14.087 -0.2564  0.2902 -0.1371
  481MPD2    C1 7152   4.038   2.719  14.100  0.2569 -0.2012  0.3448
  481MPD2    C2 7153   4.028   2.659  14.226 -0.1409 -0.2277 -0.0831
  481MPD2    C3 7154   4.009   2.744  14.342  0.2953  0.3729  0.4999
  481MPD2    C4 7155   3.997   2.879  14.319 -0.1376  0.0851  0.5701
  481MPD2    C5 7156   4.014   2.931  14.194  0.2742 -0.0568  0.0580
  481MPD2     H 7157   4.036   2.551  14.234 -0.2618 -0.2454 -0.2101
  481MPD2    H1 7158   3.969   2.946  14.399 -3.7588  1.0752 -1.4982
  481MPD2    H2 7159   4.066   2.905  13.996 -0.3029  0.7218  0.0887
  481MPD2    H3 7160   3.999   3.039  14.187  0.1571 -0.1122 -0.5104
  481MPD2     N 7161   3.995   2.693  14.469 -0.8212  0.1895  0.5293
  481MPD2    H5 7162   3.986   2.762  14.543 -0.7292  1.4743 -0.6577
  481MPD2    N1 7163   4.081   2.644  13.981 -0.2990 -0.4581 -0.7024
  481MPD2    H7 7164   4.121   2.712  13.918  0.2079 -1.6116 -1.6204
  482TMC3    C1 7165   4.184   2.470  13.863  0.1342  0.9279  0.4074
  482TMC3    C2 7166   4.237   2.348  13.867  0.5555  0.3693  0.2969
  482TMC3    C3 7167   4.311   2.305  13.764  0.0229  0.3160 -0.1725
  482TMC3    C4 7168   4.193   2.550  13.751 -0.2495 -0.0397 -0.2814
  482TMC3    C5 7169   4.267   2.501  13.650  0.3697  0.1721 -0.2265
  482TMC3    C6 7170   4.330   2.377  13.644 -0.6422  0.0517 -0.3047
  482TMC3     C 7171   4.092   2.506  13.973 -0.4242 -0.4315 -0.2198
  482TMC3     O 7172   4.060   2.419  14.052  0.3981  0.0577 -0.4375
  482TMC3     H 7173   4.236   2.290  13.959 -0.6340  1.8654  1.2375
  482TMC3    H1 7174   4.139   2.644  13.748  1.3635  0.8553 -1.5367
  482TMC3    H2 7175   4.393   2.343  13.563  0.5842  4.1831 -1.0782
  482TMC3    C7 7176   4.276   2.583  13.535  0.9882  0.0176 -0.3590
  482TMC3    C8 7177   4.370   2.173  13.767 -0.2777  0.1478  0.5390
  482TMC3    O1 7178   4.286   2.702  13.556  0.6303  0.0750  0.1003
  482TMC3    O2 7179   4.321   2.086  13.834  0.6284  0.6683 -0.2961
  483TMC3    C1 7180   1.920   1.100   0.487 -0.2422  0.1134 -0.3609
  483TMC3    C2 7181   1.920   1.230   0.452  0.3627 -0.2740  0.5210
  483TMC3    C3 7182   1.881   1.323   0.548 -0.1328  0.6472 -0.8505
  483TMC3    C4 7183   1.892   1.055   0.610  0.8383  0.0543  0.0833
  483TMC3    C5 7184   1.851   1.147   0.705 -0.1736 -0.4144 -0.3745
  483TMC3    C6 7185   1.831   1.283   0.672 -0.4282 -0.1962  0.3421
  483TMC3     C 7186   2.008   1.010   0.417 -0.2741  0.0870 -0.0573
  483TMC3     O 7187   2.037   0.910   0.479 -0.2629  0.2398  0.2486
  483TMC3     H 7188   1.967   1.263   0.360  0.4041 -0.4111  0.4929
  483TMC3    H1 7189   1.894   0.948   0.630 -0.6292  0.2998  1.4887
  483TMC3    H2 7190   1.768   1.351   0.726 -0.0845 -1.3325  2.1669
  483TMC3    C7 7191   1.935   1.125   0.826 -0.1547 -0.3894 -0.5998
  483TMC3    C8 7192   1.977   1.434   0.555 -0.2939  0.6516 -0.1438
  483TMC3    O1 7193   2.002   1.025   0.826  0.2100 -0.2082  0.8342
  483TMC3    O2 7194   2.064   1.447   0.468  0.9338  0.8401  0.3024
  484MPD2     C 7195   4.543   4.329  12.351  0.0396  0.8795 -0.4794
  484MPD2    C1 7196   4.579   4.214  12.281 -0.2525 -0.1674  1.0989
  484MPD2    C2 7197   4.700   4.212  12.216 -0.4831 -0.2608  0.4918
  484MPD2    C3 7198   0.066   4.326  12.232  0.1330  0.4932  0.1796
  484MPD2    C4 7199   0.023   4.425  12.316 -0.5149  0.2135 -0.0299
  484MPD2    C5 7200   4.631   4.426  12.373  0.1643 -0.3709  0.1867
  484MPD2     H 7201   4.722   4.131  12.148 -0.8802 -1.5358  1.8791
  484MPD2    H1 7202   0.084   4.514  12.327 -1.4364  1.0738 -1.7238
  484MPD2    H2 7203   4.450   4.328  12.409  0.8496  0.3251  0.8222
  484MPD2    H3 7204   4.604   4.500  12.448  1.6774 -0.5689  0.9221
  484MPD2     N 7205   0.195   4.324  12.171  0.1782  0.4095  0.3053
  484MPD2    H5 7206   0.257   4.403  12.190  0.0968  0.4959  0.2050
  484MPD2    N1 7207   4.481   4.113  12.276 -0.3818  0.2086 -0.2293
  484MPD2    H7 7208   4.401   4.135  12.335 -1.2130 -0.0123 -1.2865
  485TMC3    C1 7209   0.399   4.266  12.081 -0.0936  0.1034  0.5768
  485TMC3    C2 7210   0.498   4.176  12.115  0.5214 -0.0132  0.3257
  485TMC3    C3 7211   0.625   4.224  12.118 -1.2258  0.2339 -0.2175
  485TMC3    C4 7212   0.426   4.390  12.031  0.1265  0.3956 -0.1020
  485TMC3    C5 7213   0.557   4.433  12.024 -0.5210  0.2823  0.2053
  485TMC3    C6 7214   0.656   4.350  12.075 -0.1323  0.5993  0.0076
  485TMC3     C 7215   0.261   4.218  12.112  0.7255  0.4248  0.6387
  485TMC3     O 7216   0.225   4.101  12.106  0.4103 -0.2431 -0.3211
  485TMC3     H 7217   0.467   4.073  12.133  3.8763 -1.0581  0.1827
  485TMC3    H1 7218   0.342   4.438  11.984 -0.5878  1.5598  2.3638
  485TMC3    H2 7219   0.761   4.378  12.068 -0.0714  0.0974 -1.0346
  485TMC3    C7 7220   0.586   4.468  11.886 -0.4143  0.1178 -0.2902
  485TMC3    C8 7221   0.727   4.130  12.111  0.4272 -0.1213  0.0346
  485TMC3    O1 7222   0.519   4.549  11.824 -0.3095  0.0709 -0.6338
  485TMC3    O2 7223   0.830   4.161  12.055  0.4319 -0.1347  0.6421
  486MPD2     C 7224   1.996   3.270  12.814 -0.4670  0.3408 -0.3957
  486MPD2    C1 7225   2.123   3.243  12.763  0.5241 -0.3603 -0.1365
  486MPD2    C2 7226   2.195   3.357  12.738  0.5987 -0.3346 -0.6563
  486MPD2    C3 7227   2.151   3.489  12.743 -0.1264 -0.2353 -0.0439
  486MPD2    C4 7228   2.033   3.503  12.810  0.5499 -0.0847  0.3859
  486MPD2    C5 7229   1.950   3.401  12.842  0.1749  0.1489 -0.9396
  486MPD2     H 7230   2.294   3.335  12.700  0.6304 -3.3839  1.1985
  486MPD2    H1 7231   1.989   3.598  12.837  0.2063 -0.1915  0.1862
  486MPD2    H2 7232   1.929   3.190  12.843  0.2749 -0.3413 -0.5647
  486MPD2    H3 7233   1.849   3.423  12.875 -0.5936 -2.0042 -1.8690
  486MPD2     N 7234   2.223   3.599  12.700  0.0153 -0.9348 -0.1828
  486MPD2    H5 7235   2.309   3.586  12.647  0.0079 -1.5136 -0.0551
  486MPD2    N1 7236   2.166   3.111  12.758 -0.5284  0.6688  0.7497
  486MPD2    H7 7237   2.098   3.042  12.790  1.3454 -0.1068  3.0373
  487TMC3    C1 7238   2.301   2.927  12.758  0.6783 -0.1283 -0.2335
  487TMC3    C2 7239   2.183   2.851  12.769 -0.6835 -0.2315 -0.5065
  487TMC3    C3 7240   2.187   2.716  12.810 -0.3713 -0.6122 -0.1494
  487TMC3    C4 7241   2.414   2.867  12.801  0.1000  0.0814 -0.6643
  487TMC3    C5 7242   2.419   2.731  12.834  0.1760  0.0754 -0.0941
  487TMC3    C6 7243   2.305   2.648  12.847 -0.6788 -0.2913  0.3602
  487TMC3     C 7244   2.297   3.066  12.734  0.6711 -0.0847 -0.2184
  487TMC3     O 7245   2.397   3.139  12.742 -0.3444 -0.3049 -0.1270
  487TMC3     H 7246   2.086   2.886  12.737 -0.3704  1.0048 -0.0779
  487TMC3    H1 7247   2.509   2.920  12.807 -0.0863  0.1963  1.4139
  487TMC3    H2 7248   2.298   2.568  12.921 -1.8601 -1.3893 -0.9321
  487TMC3    C7 7249   2.533   2.689  12.908  0.0886 -0.5823  0.4662
  487TMC3    C8 7250   2.058   2.649  12.856 -0.9213 -0.2074  0.8871
  487TMC3    O1 7251   2.637   2.680  12.848  0.3713  0.0800 -0.3512
  487TMC3    O2 7252   1.957   2.714  12.879 -0.4695 -0.4526  0.1034
  488MPD2     C 7253   2.365   4.386  16.405 -0.1966 -0.6790  0.0770
  488MPD2    C1 7254   2.391   4.501  16.481  0.0368 -0.9767  0.8655
  488MPD2    C2 7255   2.400   4.491  16.624  0.0988  0.2344 -0.2812
  488MPD2    C3 7256   2.403   4.369  16.685  0.2651 -0.1725  0.2195
  488MPD2    C4 7257   2.396   4.253  16.601  0.4050  0.0086 -0.4235
  488MPD2    C5 7258   2.371   4.262  16.462  0.3323 -0.0313 -0.3131
  488MPD2     H 7259   2.400   4.583  16.681 -3.1369 -1.5305  2.5840
  488MPD2    H1 7260   2.401   4.152  16.639 -0.4951 -0.1095 -0.6235
  488MPD2    H2 7261   2.356   4.382  16.298  1.0049  0.1768 -0.0534
  488MPD2    H3 7262   2.348   4.175  16.403 -0.4823  0.8165 -1.2440
  488MPD2     N 7263   2.425   4.358  16.822 -0.1014 -0.9637 -0.0989
  488MPD2    H5 7264   2.445   4.447  16.865  2.1229 -0.9604 -1.1327
  488MPD2    N1 7265   2.389   4.629  16.426  0.0664 -1.0302 -0.8812
  488MPD2    H7 7266   2.385   4.706  16.493 -0.5794 -1.7913 -0.0540
  489TMC3    C1 7267   2.483   4.247  17.026 -0.2895 -0.0183  0.3836
  489TMC3    C2 7268   2.522   4.365  17.090 -0.1708 -0.3924 -0.3911
  489TMC3    C3 7269   2.537   4.373  17.228  0.3655  0.8645 -0.3065
  489TMC3    C4 7270   2.445   4.142  17.105 -0.2191 -0.0001 -0.7265
  489TMC3    C5 7271   2.453   4.158  17.239 -0.6677 -0.3504  0.5652
  489TMC3    C6 7272   2.497   4.264  17.304 -0.2102  0.0927 -0.1890
  489TMC3     C 7273   2.431   4.242  16.890 -0.5893 -0.3777 -0.3906
  489TMC3     O 7274   2.400   4.133  16.851  0.0467 -0.2344 -1.1475
  489TMC3     H 7275   2.540   4.451  17.028  0.2162 -0.2730 -0.1138
  489TMC3    H1 7276   2.408   4.048  17.064  2.1986 -0.9449 -0.7467
  489TMC3    H2 7277   2.491   4.270  17.412 -0.9014  0.3785 -0.2435
  489TMC3    C7 7278   2.395   4.060  17.326  0.0628 -0.3182 -0.3734
  489TMC3    C8 7279   2.564   4.503  17.295 -0.3044 -0.3334  1.0074
  489TMC3    O1 7280   2.440   4.046  17.437 -0.0541 -0.4680 -0.3415
  489TMC3    O2 7281   2.551   4.603  17.219  1.0405 -0.3599  0.4959
  490MPD2     C 7282   3.336   4.173  17.155  0.4633 -0.1227 -0.2201
  490MPD2    C1 7283   3.287   4.125  17.272  0.0550  0.0698  0.0683
  490MPD2    C2 7284   3.329   4.167  17.393 -0.2961 -0.5125  0.1640
  490MPD2    C3 7285   3.427   4.272  17.400 -0.1464 -0.0099 -0.5542
  490MPD2    C4 7286   3.473   4.324  17.279  0.4235  0.3853  0.1569
  490MPD2    C5 7287   3.431   4.273  17.163  0.4533  0.5606 -0.4108
  490MPD2     H 7288   3.298   4.121  17.486  1.4142  0.0285  1.0113
  490MPD2    H1 7289   3.557   4.392  17.269  0.4589  0.0747 -1.7314
  490MPD2    H2 7290   3.325   4.125  17.058  0.3961 -0.5027 -0.0230
  490MPD2    H3 7291   3.488   4.299  17.074  2.3194  2.8138  1.4584
  490MPD2     N 7292   3.491   4.317  17.524 -0.1532 -0.5040  0.1311
  490MPD2    H5 7293   3.569   4.380  17.506 -1.0601  1.0740  1.6929
  490MPD2    N1 7294   3.202   4.012  17.265 -0.4438  0.5767  0.9265
  490MPD2    H7 7295   3.195   3.962  17.353  0.8302 -3.4507 -1.2308
  491TMC3    C1 7296   3.087   3.842  17.163 -0.5387 -0.1669  0.6967
  491TMC3    C2 7297   3.090   3.783  17.290  0.1458  0.2669 -0.2152
  491TMC3    C3 7298   3.045   3.657  17.292  0.2781 -0.3857  0.4522
  491TMC3    C4 7299   3.024   3.796  17.054 -0.7360  0.9681 -0.3204
  491TMC3    C5 7300   2.965   3.670  17.065 -0.5625  0.7852 -0.0388
  491TMC3    C6 7301   2.972   3.604  17.186 -0.1984 -0.0785 -0.5341
  491TMC3     C 7302   3.138   3.968  17.154 -0.6208 -0.0963 -0.6216
  491TMC3     O 7303   3.105   4.031  17.057  0.6898 -0.3025 -0.1880
  491TMC3     H 7304   3.130   3.829  17.380 -1.7096 -0.0882  0.7918
  491TMC3    H1 7305   3.010   3.852  16.962  0.7946  3.0975  0.7480
  491TMC3    H2 7306   2.926   3.506  17.194  1.1889 -0.6996 -0.0802
  491TMC3    C7 7307   2.948   3.579  16.951  0.4177 -0.4235  0.0689
  491TMC3    C8 7308   3.044   3.589  17.416 -0.5009 -1.1777  0.0481
  491TMC3    O1 7309   2.893   3.474  16.979  0.4158 -0.2360  0.5876
  491TMC3    O2 7310   2.966   3.493  17.421  0.1851  0.3290 -0.3873
  492MPD2     C 7311   4.036   4.360  11.152 -0.0429  0.2864 -0.3274
  492MPD2    C1 7312   3.956   4.308  11.054  0.9828  0.5092  0.2946
  492MPD2    C2 7313   3.866   4.206  11.085  0.2051  0.1359 -0.2544
  492MPD2    C3 7314   3.857   4.155  11.215  0.2682  0.2972 -0.5299
  492MPD2    C4 7315   3.939   4.203  11.311 -0.0254 -0.5925 -0.3318
  492MPD2    C5 7316   4.019   4.303  11.275 -0.5913 -0.5293 -0.4882
  492MPD2     H 7317   3.801   4.173  11.005 -0.4377 -1.3912  0.9013
  492MPD2    H1 7318   3.957   4.172  11.414  0.1546  0.0362 -0.1732
  492MPD2    H2 7319   4.112   4.435  11.131 -0.6641  0.7040 -1.1046
  492MPD2    H3 7320   4.083   4.336  11.356  0.0538 -2.1019 -0.3638
  492MPD2     N 7321   3.780   4.042  11.251 -0.2590  0.6841  0.4261
  492MPD2    H5 7322   3.779   4.020  11.350 -1.0616 -1.0580  0.0280
  492MPD2    N1 7323   3.963   4.364  10.921 -0.1188  0.0617 -0.2784
  492MPD2    H7 7324   4.026   4.441  10.902  2.1801 -1.9242 -0.7260
  493TMC3    C1 7325   3.930   4.403  10.695 -0.9559  0.4220 -0.1080
  493TMC3    C2 7326   4.057   4.459  10.672  0.0652  0.5873  0.0171
  493TMC3    C3 7327   4.084   4.521  10.555  0.0899  0.4445  0.0417
  493TMC3    C4 7328   3.833   4.420  10.596 -0.7322  0.3954  0.0247
  493TMC3    C5 7329   3.866   4.482  10.477  0.7121 -0.0553 -0.7484
  493TMC3    C6 7330   3.993   4.533  10.456  0.1450  0.5423 -0.6232
  493TMC3     C 7331   3.887   4.329  10.814  0.1792  0.1045  0.0777
  493TMC3     O 7332   3.780   4.268  10.811  0.0214 -0.5010 -0.8154
  493TMC3     H 7333   4.143   4.430  10.732 -0.2147 -1.0690 -0.3727
  493TMC3    H1 7334   3.730   4.392  10.608 -0.3971 -1.4419 -1.3609
  493TMC3    H2 7335   4.020   4.575  10.360  2.2950  0.8623  0.1081
  493TMC3    C7 7336   3.768   4.476  10.374 -0.2911 -0.3388 -0.4455
  493TMC3    C8 7337   4.229   4.563  10.533 -0.1399 -0.5655 -0.4649
  493TMC3    O1 7338   3.671   4.406  10.387  0.0708 -0.1945 -0.0100
  493TMC3    O2 7339   4.306   4.526  10.618 -0.1531  0.4418  0.7818
  494TMC3    C1 7340   4.017   0.811   0.432 -0.6022  0.1025 -0.4229
  494TMC3    C2 7341   4.069   0.689   0.402  0.7698  0.0581 -0.2277
  494TMC3    C3 7342   4.122   0.666   0.280  0.2305  0.7434 -0.5058
  494TMC3    C4 7343   4.005   0.912   0.341  0.7356  0.3598 -0.1536
  494TMC3    C5 7344   4.059   0.889   0.221  0.0321 -0.2687 -0.0500
  494TMC3    C6 7345   4.114   0.767   0.187  0.1004 -0.1791 -1.1223
  494TMC3     C 7346   3.960   0.825   0.564 -0.8147  0.2468  0.0326
  494TMC3     O 7347   4.031   0.780   0.653 -0.1616  0.1450  0.2343
  494TMC3     H 7348   4.061   0.615   0.480 -0.5092 -1.3243 -1.6627
  494TMC3    H1 7349   3.957   1.003   0.373 -1.1305 -0.7737  0.3096
  494TMC3    H2 7350   4.170   0.756   0.095 -0.6492  1.3927 -1.7646
  494TMC3    C7 7351   4.069   0.989   0.117  0.3140 -0.0170 -0.1150
  494TMC3    C8 7352   4.118   0.524   0.237 -0.1238  0.9312 -1.1217
  494TMC3    O1 7353   4.094   0.959  17.698  0.5563 -0.3251  0.5187
  494TMC3    O2 7354   4.120   0.440   0.323  0.1844 -0.1223 -0.6875
  495TMC3    C1 7355   2.729   2.498  14.698 -0.1462  0.1533  0.6892
  495TMC3    C2 7356   2.664   2.531  14.578  1.1433 -0.4987 -0.4222
  495TMC3    C3 7357   2.654   2.658  14.537  0.2087  0.9009  0.3298
  495TMC3    C4 7358   2.782   2.601  14.765 -0.3147 -0.1443 -0.6787
  495TMC3    C5 7359   2.776   2.733  14.725 -0.0075 -0.2498 -1.0046
  495TMC3    C6 7360   2.706   2.763  14.610  0.0435 -0.2391 -0.0299
  495TMC3     C 7361   2.718   2.375  14.774  0.7324 -0.0955  0.6439
  495TMC3     O 7362   2.776   2.364  14.881 -0.0572 -0.2854 -0.2522
  495TMC3     H 7363   2.609   2.451  14.528 -0.0034 -0.8315  1.3454
  495TMC3    H1 7364   2.837   2.592  14.858 -2.2054  0.5621  0.5076
  495TMC3    H2 7365   2.692   2.868  14.586  1.6799  0.1904  0.8320
  495TMC3    C7 7366   2.744   2.819  14.834 -0.2593 -0.4882  0.0145
  495TMC3    C8 7367   2.525   2.692  14.473  0.2567  0.1030  0.3651
  495TMC3    O1 7368   2.824   2.851  14.917  0.0737 -0.1975  0.6603
  495TMC3    O2 7369   2.452   2.755  14.549 -0.1021 -0.7901 -0.3344
  496MPD2     C 7370   4.099   3.513  15.348 -0.1228  0.2184  0.3701
  496MPD2    C1 7371   4.168   3.471  15.458  0.0607 -0.0585 -0.2687
  496MPD2    C2 7372   4.096   3.390  15.547  0.3346  0.3841 -0.1335
  496MPD2    C3 7373   3.963   3.346  15.537 -0.3112  0.0219  0.3663
  496MPD2    C4 7374   3.902   3.382  15.420  0.0624  0.1490 -0.1159
  496MPD2    C5 7375   3.965   3.475  15.338 -1.0930  0.5665  0.1196
  496MPD2     H 7376   4.158   3.344  15.623 -1.5821  0.5470  1.5247
  496MPD2    H1 7377   3.806   3.348  15.385 -0.3891  1.4369 -0.1499
  496MPD2    H2 7378   4.145   3.568  15.267  1.1769 -1.2890  0.0772
  496MPD2    H3 7379   3.909   3.518  15.256 -0.4113 -1.2003 -1.2616
  496MPD2     N 7380   3.904   3.247  15.618 -0.2936  0.7407  0.4387
  496MPD2    H5 7381   3.836   3.189  15.570 -1.5238  1.1833  1.6678
  496MPD2    N1 7382   4.312   3.476  15.464  0.4208  0.3317 -0.8729
  496MPD2    H7 7383   4.354   3.516  15.381  0.4927  1.3945 -0.3318
  497TMC3    C1 7384   3.860   3.133  15.811 -0.4875  0.6251  0.7500
  497TMC3    C2 7385   3.751   3.070  15.760  0.1126  0.0365 -0.5748
  497TMC3    C3 7386   3.693   2.974  15.841 -0.1038  1.0375  0.0431
  497TMC3    C4 7387   3.901   3.108  15.942  0.0290 -0.1892 -0.7605
  497TMC3    C5 7388   3.838   3.009  16.010  0.0770  0.2152  0.4073
  497TMC3    C6 7389   3.732   2.942  15.963  0.3283 -0.2964  0.6594
  497TMC3     C 7390   3.926   3.238  15.749 -0.3583 -0.1305  0.8216
  497TMC3     O 7391   3.989   3.316  15.819 -0.0004 -0.1044  0.3993
  497TMC3     H 7392   3.719   3.094  15.659  2.7260 -1.3029 -1.7122
  497TMC3    H1 7393   3.995   3.149  15.977 -1.2217  2.2491 -0.2040
  497TMC3    H2 7394   3.673   2.876  16.026 -2.7111  0.5169 -1.2929
  497TMC3    C7 7395   3.857   3.006  16.155 -0.1732 -0.5855 -0.0475
  497TMC3    C8 7396   3.571   2.902  15.793 -0.0502  1.1510  0.5788
  497TMC3    O1 7397   3.771   2.946  16.224 -0.0653  0.0432 -0.2430
  497TMC3    O2 7398   3.509   2.957  15.703  0.6158  0.7018  0.6130
  498MPD2     C 7399   0.644   0.042   9.093 -0.7434 -0.0741 -0.1139
  498MPD2    C1 7400   0.740   4.675   9.066  0.6962 -0.4592  0.4380
  498MPD2    C2 7401   0.752   4.564   9.143  0.1436  0.1409 -0.4887
  498MPD2    C3 7402   0.675   4.537   9.248 -0.0468  1.3544  0.0521
  498MPD2    C4 7403   0.579   4.630   9.278 -0.5834  0.8117 -0.0051
  498MPD2    C5 7404   0.570   0.020   9.206 -0.7709 -0.2258 -0.0807
  498MPD2     H 7405   0.834   4.495   9.126  0.4510  0.4042 -0.0498
  498MPD2    H1 7406   0.501   4.608   9.349 -2.5715  1.2225 -2.0775
  498MPD2    H2 7407   0.636   0.132   9.033 -2.2687 -1.4386 -1.9513
  498MPD2    H3 7408   0.492   0.089   9.234  1.4619  1.5503  1.8055
  498MPD2     N 7409   0.710   4.427   9.328 -0.1280  0.1575 -0.2717
  498MPD2    H5 7410   0.791   4.373   9.299 -0.8145 -1.7020  1.2817
  498MPD2    N1 7411   0.831   4.686   8.956  0.1629 -0.5640 -0.1141
  498MPD2    H7 7412   0.887   4.606   8.928  4.1796  1.3927  2.4183
  499TMC3    C1 7413   0.966   0.071   8.787  0.2388 -0.6105  0.2515
  499TMC3    C2 7414   1.005   4.674   8.742 -0.1248 -0.3080 -0.4024
  499TMC3    C3 7415   1.124   4.668   8.677  0.4647 -0.7310  0.2544
  499TMC3    C4 7416   1.040   0.182   8.762 -0.2069  0.2359 -0.2071
  499TMC3    C5 7417   1.156   0.172   8.687  0.1829 -0.3399  0.5166
  499TMC3    C6 7418   1.209   0.052   8.648  0.2626  0.0407  0.0402
  499TMC3     C 7419   0.855   0.082   8.883 -0.4774  0.3020  0.1424
  499TMC3     O 7420   0.815   0.195   8.905  0.5420  0.0006  1.1264
  499TMC3     H 7421   0.942   4.588   8.762  0.1008 -0.6166 -1.0028
  499TMC3    H1 7422   1.023   0.276   8.813 -2.7516 -0.0705 -0.4741
  499TMC3    H2 7423   1.313   0.041   8.620 -0.1765 -1.2236 -1.0803
  499TMC3    C7 7424   1.243   0.288   8.678  0.4014  0.3621  0.4142
  499TMC3    C8 7425   1.159   4.541   8.621  0.7855  0.2278  0.3621
  499TMC3    O1 7426   1.222   0.366   8.768 -0.1640 -0.3957 -0.4799
  499TMC3    O2 7427   1.117   4.442   8.680 -0.3050  0.3340 -0.4782
  500MPD2     C 7428   3.046   0.863  10.118 -0.1325 -0.2287 -0.2907
  500MPD2    C1 7429   3.100   0.908  10.000 -0.1705  0.3547  0.1940
  500MPD2    C2 7430   3.019   0.909   9.897  0.1232  0.1874  0.4232
  500MPD2    C3 7431   2.885   0.872   9.897  0.1406  0.7257 -0.3638
  500MPD2    C4 7432   2.833   0.834  10.018  0.2528 -0.3685 -0.2655
  500MPD2    C5 7433   2.914   0.820  10.124 -0.0541  0.5047 -0.2871
  500MPD2     H 7434   3.064   0.943   9.805  0.9205  0.1406  0.7975
  500MPD2    H1 7435   2.735   0.790  10.009 -0.1490  0.8413 -1.9781
  500MPD2    H2 7436   3.104   0.858  10.210  0.1631  3.4372 -0.2798
  500MPD2    H3 7437   2.882   0.766  10.213 -0.8095 -0.9405 -1.4313
  500MPD2     N 7438   2.799   0.865   9.787  0.5617 -0.6262  0.9472
  500MPD2    H5 7439   2.704   0.832   9.803 -0.1500 -0.2388 -2.4141
  500MPD2    N1 7440   3.235   0.948   9.989  0.0597 -0.1680 -0.0506
  500MPD2    H7 7441   3.272   0.987   9.903 -0.2147 -0.1302 -0.1534
  501TMC3    C1 7442   3.454   1.005  10.066  0.6548 -0.1121 -0.2389
  501TMC3    C2 7443   3.470   1.114   9.981  0.0525  0.0112  0.9300
  501TMC3    C3 7444   3.578   1.197  10.006  0.1213 -0.8875 -0.2176
  501TMC3    C4 7445   3.549   0.966  10.152 -0.0474 -1.4025 -0.2825
  501TMC3    C5 7446   3.652   1.049  10.181 -0.0052 -0.1493 -0.0771
  501TMC3    C6 7447   3.674   1.165  10.104  0.8593  0.6630  0.0195
  501TMC3     C 7448   3.326   0.941  10.091 -0.4773 -0.0658  0.5445
  501TMC3     O 7449   3.315   0.881  10.196  0.2042  0.1428  0.0096
  501TMC3     H 7450   3.397   1.148   9.908  0.8883 -0.7222 -0.2343
  501TMC3    H1 7451   3.548   0.869  10.200  1.8833 -2.1781 -1.8549
  501TMC3    H2 7452   3.757   1.234  10.119 -1.1497  2.9176  0.9205
  501TMC3    C7 7453   3.766   0.992  10.257  1.1647 -0.5470  0.1849
  501TMC3    C8 7454   3.599   1.315   9.927  0.4532 -0.0441  0.0368
  501TMC3    O1 7455   3.735   0.918  10.349 -0.3077  0.4133  0.0302
  501TMC3    O2 7456   3.720   1.333   9.907  0.2401  0.1083 -0.1698
  502TMC3    C1 7457   1.877   3.555  14.696 -0.0354  0.0986 -0.5004
  502TMC3    C2 7458   1.841   3.669  14.641  0.6085 -0.0744 -0.4558
  502TMC3    C3 7459   1.706   3.704  14.651  0.1595  0.9574  0.5539
  502TMC3    C4 7460   1.782   3.464  14.738  0.1326  0.8320  0.5208
  502TMC3    C5 7461   1.652   3.493  14.746 -0.0009 -0.6928  0.3163
  502TMC3    C6 7462   1.614   3.617  14.717 -0.2557  0.4922 -0.1406
  502TMC3     C 7463   2.009   3.542  14.764 -0.1073  0.3982  0.4474
  502TMC3     O 7464   2.105   3.576  14.700  0.1347 -0.2185 -0.1117
  502TMC3     H 7465   1.915   3.742  14.611  1.1686 -0.1464  0.7450
  502TMC3    H1 7466   1.819   3.365  14.758  0.7993  1.3070  1.6376
  502TMC3    H2 7467   1.510   3.642  14.700  0.1449  1.4916 -1.1228
  502TMC3    C7 7468   1.555   3.408  14.808  0.3893  0.0094  0.0054
  502TMC3    C8 7469   1.694   3.845  14.693 -0.0553  0.2654  0.9724
  502TMC3    O1 7470   1.590   3.290  14.806  0.3116 -0.1609  0.4994
  502TMC3    O2 7471   1.754   3.939  14.636 -0.2401 -0.1420  0.6343
  503MPD2     C 7472   4.082   4.152  17.653 -0.5870 -0.4310 -0.4504
  503MPD2    C1 7473   4.153   4.155  17.531  0.5151 -0.5835 -1.3570
  503MPD2    C2 7474   4.252   4.060  17.515  0.1308 -0.8839  0.3490
  503MPD2    C3 7475   4.285   3.977  17.619  0.1306 -0.1473 -0.1423
  503MPD2    C4 7476   4.213   3.964   0.036 -0.1413  0.0142  0.3120
  503MPD2    C5 7477   4.109   4.056   0.052 -0.0742  0.5612  0.1243
  503MPD2     H 7478   4.308   4.050  17.422 -2.1466  0.3335 -1.1420
  503MPD2    H1 7479   4.239   3.894   0.115  1.3113 -1.6527 -1.6432
  503MPD2    H2 7480   4.006   4.226  17.676  0.0329 -0.1946  0.8356
  503MPD2    H3 7481   4.053   4.067   0.144 -2.4436  0.2143 -1.2535
  503MPD2     N 7482   4.407   3.902  17.594  0.2719  0.1166 -0.2090
  503MPD2    H5 7483   4.449   3.925  17.505 -0.4635  0.6256 -0.4325
  503MPD2    N1 7484   4.139   4.249  17.430 -0.4435 -0.1999 -0.6199
  503MPD2    H7 7485   4.218   4.244  17.366  1.9916  2.3234  2.2072
  504TMC3    C1 7486   4.589   3.749  17.619  0.9786 -0.2125  0.5067
  504TMC3    C2 7487   4.639   3.653   0.004 -0.7513 -0.0408 -0.1010
  504TMC3    C3 7488   0.006   3.567  17.655 -0.2132 -0.2178 -0.7990
  504TMC3    C4 7489   4.632   3.756  17.489  0.0295 -0.5644  0.1396
  504TMC3    C5 7490   0.001   3.667  17.449  0.1048  0.0973  0.6969
  504TMC3    C6 7491   0.052   3.568  17.525  0.6818  1.4522  0.0756
  504TMC3     C 7492   4.466   3.810  17.670  0.6502 -0.7455  0.2803
  504TMC3     O 7493   4.432   3.775   0.080 -0.6241 -0.3368  0.0342
  504TMC3     H 7494   4.607   3.640   0.107  1.5253  0.1584  0.6515
  504TMC3    H1 7495   4.585   3.823  17.417  3.4303  1.9627  0.2633
  504TMC3    H2 7496   0.135   3.502  17.504 -1.1031 -0.6915 -0.1749
  504TMC3    C7 7497   4.715   3.625  17.311 -1.0174  0.1788 -0.1320
  504TMC3    C8 7498   0.011   3.430   0.011 -0.3883  0.2322 -0.6099
  504TMC3    O1 7499   4.686   3.709  17.225 -0.4907  0.3957  0.2687
  504TMC3    O2 7500   0.024   3.337  17.634  0.1398 -0.6808  0.0491
  505MPD2     C 7501   0.672   3.326  10.214 -1.0074 -1.0155 -0.0675
  505MPD2    C1 7502   0.806   3.350  10.250 -1.6635  0.2865 -0.0661
  505MPD2    C2 7503   0.831   3.457  10.340 -0.3793  0.2842  0.4110
  505MPD2    C3 7504   0.732   3.526  10.399  0.1086 -0.2600  0.2343
  505MPD2    C4 7505   0.603   3.499  10.364  0.3637  1.1144 -0.4579
  505MPD2    C5 7506   0.580   3.400  10.277 -0.5220  1.0205 -0.2970
  505MPD2     H 7507   0.932   3.487  10.364 -0.4090  0.6917  0.0274
  505MPD2    H1 7508   0.517   3.559  10.394 -1.2844 -1.1537 -0.6876
  505MPD2    H2 7509   0.645   3.238  10.156  0.0165 -1.1885 -0.2850
  505MPD2    H3 7510   0.478   3.370  10.260 -0.3716  0.5380 -0.3317
  505MPD2     N 7511   0.774   3.638  10.474  0.0103  0.3396  0.1499
  505MPD2    H5 7512   0.873   3.651  10.494  0.5119 -0.5843 -1.6876
  505MPD2    N1 7513   0.903   3.271  10.189  0.1581 -0.7347 -0.0086
  505MPD2    H7 7514   0.878   3.210  10.112  1.4658 -2.7223  1.1760
  506TMC3    C1 7515   1.119   3.252  10.092 -0.0930  0.1266  0.0447
  506TMC3    C2 7516   1.061   3.244   9.972 -0.4527 -0.0632 -0.4866
  506TMC3    C3 7517   1.130   3.291   9.866 -0.5298 -0.4883  0.0414
  506TMC3    C4 7518   1.250   3.284  10.102 -0.4441  0.0906 -0.2410
  506TMC3    C5 7519   1.314   3.350   9.999  0.1396 -0.4278 -0.2386
  506TMC3    C6 7520   1.247   3.357   9.881  0.4906 -0.2235  0.6731
  506TMC3     C 7521   1.040   3.289  10.210 -0.1217  0.6172 -0.9953
  506TMC3     O 7522   1.106   3.356  10.291  0.1673 -0.6001  0.1456
  506TMC3     H 7523   0.962   3.206   9.951 -1.7402  1.6847  2.3917
  506TMC3    H1 7524   1.291   3.282  10.203  1.6670  0.1956 -1.0939
  506TMC3    H2 7525   1.297   3.406   9.799  1.8756 -0.1964  1.5417
  506TMC3    C7 7526   1.371   3.471  10.033  0.7367 -0.5619  0.6083
  506TMC3    C8 7527   1.047   3.327   9.747 -0.1751  0.6160  0.9222
  506TMC3    O1 7528   1.450   3.519   9.947  0.3747 -0.5411  0.2172
  506TMC3    O2 7529   0.958   3.248   9.715  0.0600  0.0929  0.1221
  507TMC3    C1 7530   0.217   4.362  14.110  0.0650  0.1566  0.1387
  507TMC3    C2 7531   0.237   4.448  14.002  0.2555 -0.4032  0.0158
  507TMC3    C3 7532   0.363   4.491  13.984 -0.3800  0.3637  0.3143
  507TMC3    C4 7533   0.319   4.325  14.193 -0.4588  0.0861 -0.0713
  507TMC3    C5 7534   0.441   4.377  14.170 -0.2648  0.4339 -0.3947
  507TMC3    C6 7535   0.466   4.450  14.062  0.0678  0.6061  0.1925
  507TMC3     C 7536   0.091   4.287  14.125  0.3081 -0.3181 -0.2786
  507TMC3     O 7537   0.001   4.330  14.056  0.0834  0.1238 -0.0214
  507TMC3     H 7538   0.155   4.479  13.938  0.3871 -1.3316 -0.5931
  507TMC3    H1 7539   0.316   4.267  14.284 -0.3356 -0.3228 -0.3285
  507TMC3    H2 7540   0.566   4.474  14.027  0.1693 -1.6550 -1.0637
  507TMC3    C7 7541   0.527   4.421  14.282  0.2263 -0.8698 -0.0317
  507TMC3    C8 7542   0.385   4.628  13.931  0.1525  0.2890 -0.3578
  507TMC3    O1 7543   0.634   4.464  14.238 -0.3983  0.6656 -0.3045
  507TMC3    O2 7544   0.310   4.712  13.978  0.1392 -0.1692 -0.2461
  508MPD2     C 7545   1.000   1.442  15.877  0.1136 -0.4698  0.4805
  508MPD2    C1 7546   1.069   1.558  15.889 -0.1508  0.1491 -0.4797
  508MPD2    C2 7547   1.118   1.624  15.780 -0.0198  0.5949  0.3148
  508MPD2    C3 7548   1.088   1.580  15.654 -0.9146  0.6637 -0.4855
  508MPD2    C4 7549   1.015   1.468  15.636  0.6281  0.2472 -0.4126
  508MPD2    C5 7550   0.969   1.400  15.750  0.6895  0.4066  0.4315
  508MPD2     H 7551   1.175   1.716  15.793  3.2423 -1.5157  1.1929
  508MPD2    H1 7552   0.992   1.415  15.545 -2.8692  0.2127  0.5009
  508MPD2    H2 7553   0.956   1.394  15.964 -2.2984  0.8073 -0.0192
  508MPD2    H3 7554   0.914   1.307  15.744  0.2122  0.6438  1.1093
  508MPD2     N 7555   1.127   1.661  15.546 -0.4508  0.3619  0.2224
  508MPD2    H5 7556   1.183   1.744  15.560  1.9597 -2.1169  5.0899
  508MPD2    N1 7557   1.107   1.602  16.019 -0.1043 -0.5247 -0.0385
  508MPD2    H7 7558   1.187   1.664  16.021 -1.8075  1.6442  0.9594
  509TMC3    C1 7559   1.004   1.933  15.283  0.0390  0.2233 -0.3099
  509TMC3    C2 7560   1.099   1.970  15.195  0.0122 -0.2690  0.1428
  509TMC3    C3 7561   1.208   1.888  15.184 -0.7269 -0.2577 -0.2371
  509TMC3    C4 7562   1.000   1.813  15.343  0.4708  0.7921  0.0312
  509TMC3    C5 7563   1.109   1.731  15.316  0.1804 -0.2003  0.0637
  509TMC3    C6 7564   1.216   1.766  15.242 -0.1806  0.6414  0.3394
  509TMC3     C 7565   0.931   2.033  15.357 -0.4643 -0.0850 -0.2538
  509TMC3     O 7566   0.867   1.998  15.457 -0.3412  0.7395  0.3512
  509TMC3     H 7567   1.115   2.065  15.146  0.5332 -0.8740 -0.8542
  509TMC3    H1 7568   0.925   1.784  15.416 -1.0673  0.6540 -1.6267
  509TMC3    H2 7569   1.318   1.729  15.251 -0.6655 -0.1378  2.4598
  509TMC3    C7 7570   1.122   1.622  15.416 -0.2247  0.5779 -0.0105
  509TMC3    C8 7571   1.332   1.949  15.143  0.2353  0.4705 -0.7689
  509TMC3    O1 7572   1.090   1.517  15.367 -0.3350 -0.2866 -0.0059
  509TMC3    O2 7573   1.372   1.923  15.030 -0.0317 -0.7218 -0.4349
  510MPD2     C 7574   3.980   3.665  14.402  0.1767  0.1366  0.1309
  510MPD2    C1 7575   4.035   3.550  14.461 -0.3324  0.4758  0.1710
  510MPD2    C2 7576   4.159   3.503  14.415  0.0536 -0.4021  0.0091
  510MPD2    C3 7577   4.226   3.575  14.323 -0.6081  0.6562 -0.6502
  510MPD2    C4 7578   4.183   3.702  14.275 -0.0572 -0.4208  0.7117
  510MPD2    C5 7579   4.059   3.746  14.320 -0.7907 -0.8108  0.0636
  510MPD2     H 7580   4.201   3.412  14.455 -1.8458 -0.7136  1.2764
  510MPD2    H1 7581   4.238   3.751  14.196  0.8311 -0.4964  1.2845
  510MPD2    H2 7582   3.886   3.707  14.433  0.5930  0.2356  1.2550
  510MPD2    H3 7583   4.022   3.840  14.281  0.4182  0.2124  1.3551
  510MPD2     N 7584   4.355   3.540  14.281  0.9817 -0.0194 -0.4855
  510MPD2    H5 7585   4.411   3.474  14.335 -0.0450  0.5514  1.2778
  510MPD2    N1 7586   3.974   3.485  14.566 -0.5734 -0.1419  0.0855
  510MPD2    H7 7587   4.021   3.400  14.597  1.7090  1.1491  0.1079
  511TMC3    C1 7588   3.837   3.438  14.749 -0.1965  0.4033 -0.2859
  511TMC3    C2 7589   3.764   3.492  14.854  0.6716 -0.4320  0.2397
  511TMC3    C3 7590   3.686   3.410  14.936 -0.4314 -0.5739 -0.5200
  511TMC3    C4 7591   3.825   3.307  14.718 -0.0016  0.6332  0.2608
  511TMC3    C5 7592   3.740   3.232  14.793  0.2379 -0.3443 -0.5055
  511TMC3    C6 7593   3.670   3.279  14.901 -0.4200 -0.4524  0.2218
  511TMC3     C 7594   3.876   3.532  14.646  0.1459  0.1034  0.6392
  511TMC3     O 7595   3.825   3.645  14.648  0.0651  0.2929 -0.2987
  511TMC3     H 7596   3.790   3.590  14.890  0.0711 -0.9972  2.2342
  511TMC3    H1 7597   3.868   3.265  14.628  1.2092  2.7387 -0.1440
  511TMC3    H2 7598   3.595   3.213  14.945  0.8418 -2.4961 -0.6765
  511TMC3    C7 7599   3.696   3.104  14.729 -0.0413 -0.2330  0.4637
  511TMC3    C8 7600   3.635   3.463  15.058 -0.2260  0.4026  0.9347
  511TMC3    O1 7601   3.723   3.104  14.611 -0.0590  0.3662  0.0020
  511TMC3    O2 7602   3.647   3.583  15.070  0.3370  0.1095 -0.1988
  512TMC3    C1 7603   2.805   2.594  13.416 -0.2636 -0.0822 -0.8593
  512TMC3    C2 7604   2.785   2.604  13.552  0.6953 -0.1667 -0.1388
  512TMC3    C3 7605   2.848   2.516  13.632 -0.3820 -0.0919  0.5758
  512TMC3    C4 7606   2.900   2.507  13.359 -0.6538 -0.2609 -0.3526
  512TMC3    C5 7607   2.953   2.415  13.446  0.1257  1.5370 -0.2096
  512TMC3    C6 7608   2.915   2.408  13.579 -0.3152 -0.1974  0.5990
  512TMC3     C 7609   2.770   2.708  13.338  0.0493 -0.4111 -0.2287
  512TMC3     O 7610   2.831   2.723  13.232  0.6058 -0.1729 -0.0257
  512TMC3     H 7611   2.736   2.689  13.597  0.1688 -0.9081  0.6698
  512TMC3    H1 7612   2.941   2.517  13.259  0.6668  1.9747  0.4184
  512TMC3    H2 7613   2.972   2.344  13.646 -1.5549 -0.5483  1.3282
  512TMC3    C7 7614   3.084   2.360  13.407  0.3786  0.2530  0.0111
  512TMC3    C8 7615   2.886   2.547  13.772  0.0487  0.1727 -0.1387
  512TMC3    O1 7616   3.140   2.417  13.313 -0.0985  0.0993 -0.5070
  512TMC3    O2 7617   2.918   2.452  13.846  0.2069 -0.1244  0.1463
  513MPD2     C 7618   4.632   2.381  13.018 -0.1026 -0.2790 -0.6365
  513MPD2    C1 7619   0.006   2.472  12.980  0.5589 -0.1172 -0.7057
  513MPD2    C2 7620   0.042   2.566  13.074 -0.2173  0.2492  0.0745
  513MPD2    C3 7621   4.699   2.580  13.198  0.1258  0.1382  0.3079
  513MPD2    C4 7622   4.600   2.487  13.231  0.0484 -0.2382 -0.0447
  513MPD2    C5 7623   4.576   2.386  13.143 -0.5123  0.7470 -0.1213
  513MPD2     H 7624   0.130   2.626  13.053  0.1644 -0.5538 -0.6182
  513MPD2    H1 7625   4.527   2.504  13.309  1.1489  0.8352  0.7432
  513MPD2    H2 7626   4.603   2.305  12.947  2.7869 -2.4505  0.5060
  513MPD2    H3 7627   4.501   2.315  13.176  1.7512 -0.7800  1.7234
  513MPD2     N 7628   0.008   2.693  13.272  1.1915  0.5927  0.4143
  513MPD2    H5 7629   0.074   2.761  13.237 -1.3118  2.0763 -1.4221
  513MPD2    N1 7630   0.069   2.473  12.854 -0.4393 -0.3672 -0.4057
  513MPD2    H7 7631   0.146   2.539  12.853  0.7811 -1.7713  1.2727
  514TMC3    C1 7632   0.156   2.417  12.644 -0.4148 -0.5661  0.7831
  514TMC3    C2 7633   0.115   2.480  12.531  0.2993 -0.7443  0.0211
  514TMC3    C3 7634   0.189   2.583  12.490  0.6833  0.1341  0.1838
  514TMC3    C4 7635   0.268   2.461  12.706  0.5108  0.0811  0.2756
  514TMC3    C5 7636   0.335   2.577  12.671  0.1169  0.3737  0.2022
  514TMC3    C6 7637   0.295   2.638  12.559  0.1142 -0.7277  1.2245
  514TMC3     C 7638   0.048   2.396  12.746 -0.0084  0.5460 -0.6479
  514TMC3     O 7639   4.682   2.323  12.717 -0.1889  0.4381  0.0904
  514TMC3     H 7640   0.021   2.452  12.485 -1.1196 -0.0111  2.4850
  514TMC3    H1 7641   0.296   2.408  12.796  0.3856  0.6403  0.6428
  514TMC3    H2 7642   0.319   2.741  12.534 -1.1255 -0.3719  1.4900
  514TMC3    C7 7643   0.366   2.656  12.790  0.0678  0.3762 -0.0887
  514TMC3    C8 7644   0.128   2.664  12.384 -0.0128 -0.6024  0.0650
  514TMC3    O1 7645   0.310   2.619  12.890  0.1077 -0.0659 -0.1975
  514TMC3    O2 7646   0.006   2.655  12.390 -0.7541 -0.0387  0.2189
  515MPD2     C 7647   2.895   4.247  15.036  0.1824  0.3103 -0.3620
  515MPD2    C1 7648   2.884   4.297  14.902  0.9071 -0.4381 -0.1926
  515MPD2    C2 7649   2.897   4.440  14.891 -0.4952 -0.2411  0.2035
  515MPD2    C3 7650   2.921   4.518  14.997 -0.4524 -1.2055 -0.0356
  515MPD2    C4 7651   2.936   4.471  15.122  0.2432 -0.1785 -0.8566
  515MPD2    C5 7652   2.925   4.337  15.138 -0.8336 -0.7623 -0.4112
  515MPD2     H 7653   2.891   4.471  14.788  1.2362 -0.8806 -0.0933
  515MPD2    H1 7654   2.966   4.540  15.200  0.8165 -1.8605  0.4161
  515MPD2    H2 7655   2.901   4.143  15.065 -0.0940  1.1373  2.6119
  515MPD2    H3 7656   2.948   4.289  15.233  1.6171  0.4879 -0.3694
  515MPD2     N 7657   2.962   4.655  14.989 -0.4358 -0.0758  0.3807
  515MPD2    H5 7658   2.983   4.698  15.079  1.1340  1.4298 -0.7130
  515MPD2    N1 7659   2.860   4.211  14.797 -0.3116  0.4481 -0.3775
  515MPD2    H7 7660   2.848   4.257  14.707 -1.3178 -0.1653 -0.5596
  516TMC3    C1 7661   2.815   4.013  14.672  0.7320  1.3113  0.3969
  516TMC3    C2 7662   2.731   4.071  14.585  0.2799  0.8697  0.4564
  516TMC3    C3 7663   2.673   4.000  14.483 -0.2773  0.0994  0.2294
  516TMC3    C4 7664   2.851   3.883  14.665  0.5101 -0.0145 -1.2897
  516TMC3    C5 7665   2.780   3.806  14.576 -0.0964 -0.4609 -0.2723
  516TMC3    C6 7666   2.689   3.866  14.479  0.4246  0.3925  0.3033
  516TMC3     C 7667   2.858   4.074  14.802  0.4449  0.6942  0.1982
  516TMC3     O 7668   2.860   3.996  14.891 -0.5741 -0.4079 -0.3776
  516TMC3     H 7669   2.720   4.179  14.594  2.1627  1.2667 -1.8664
  516TMC3    H1 7670   2.924   3.848  14.737  0.3833  0.8882 -0.7310
  516TMC3    H2 7671   2.640   3.814  14.397 -0.9026  2.7892 -0.4084
  516TMC3    C7 7672   2.749   3.672  14.625  0.0455 -0.4718 -0.0359
  516TMC3    C8 7673   2.601   4.059  14.377 -0.3725 -0.0445  0.6515
  516TMC3    O1 7674   2.800   3.636  14.732  0.3824 -0.1207 -0.7180
  516TMC3    O2 7675   2.515   3.995  14.317  0.1101  0.2964 -0.4249
  517MPD2     C 7676   2.606   0.987   0.164 -0.5277  0.5661  0.2001
  517MPD2    C1 7677   2.727   0.990   0.230 -0.2056  0.0909 -0.9910
  517MPD2    C2 7678   2.743   1.079   0.334 -0.1772  0.0552 -0.5018
  517MPD2    C3 7679   2.647   1.177   0.351 -0.7001  0.5350  0.3904
  517MPD2    C4 7680   2.524   1.163   0.295  0.1661 -0.2600 -0.4223
  517MPD2    C5 7681   2.507   1.071   0.198  0.5471  0.4794  0.1577
  517MPD2     H 7682   2.844   1.087   0.374 -1.6147 -1.3391  3.3555
  517MPD2    H1 7683   2.443   1.234   0.313 -0.1502 -0.0949 -2.5329
  517MPD2    H2 7684   2.588   0.911   0.090  0.4751 -1.3916  1.9777
  517MPD2    H3 7685   2.406   1.072   0.159  0.3846  2.4277  0.6044
  517MPD2     N 7686   2.660   1.285   0.445  0.0952 -0.1607 -0.4000
  517MPD2    H5 7687   2.576   1.341   0.457 -0.2140 -0.7519  0.2037
  517MPD2    N1 7688   2.836   0.896   0.207 -0.1234 -0.4287  0.1298
  517MPD2    H7 7689   2.924   0.916   0.255 -1.0906  0.3213  1.5728
  518TMC3    C1 7690   2.958   0.708   0.128  0.0748 -0.4375  0.7749
  518TMC3    C2 7691   2.955   0.603   0.044  0.3773 -0.0788 -0.2505
  518TMC3    C3 7692   3.070   0.543   0.009  0.1163 -0.3327 -0.2794
  518TMC3    C4 7693   3.075   0.755   0.176 -0.0397 -0.2364  0.6276
  518TMC3    C5 7694   3.187   0.691   0.148 -0.3698 -0.5909  0.6018
  518TMC3    C6 7695   3.189   0.586   0.057 -0.2312  0.2640  0.1325
  518TMC3     C 7696   2.832   0.780   0.133 -0.0712 -0.6085  0.7633
  518TMC3     O 7697   2.732   0.727   0.078 -0.1062 -0.4011  0.2480
  518TMC3     H 7698   2.860   0.560   0.015  1.4831 -0.9963 -2.4830
  518TMC3    H1 7699   3.079   0.842   0.241 -0.0421 -0.4789  0.9554
  518TMC3    H2 7700   3.281   0.543   0.017  0.1366 -0.3593  1.6741
  518TMC3    C7 7701   3.305   0.708   0.237  0.6276 -0.2859  0.0621
  518TMC3    C8 7702   3.056   0.403  17.673 -0.6568 -0.0549 -0.2857
  518TMC3    O1 7703   3.290   0.785   0.328 -0.0606 -0.3301 -0.0055
  518TMC3    O2 7704   2.952   0.369  17.623  0.1911 -0.3217 -0.3063
  519MPD2     C 7705   4.215   4.513  14.312  0.2205  0.7269 -0.1411
  519MPD2    C1 7706   4.176   4.556  14.189  0.1182  0.0658 -0.3400
  519MPD2    C2 7707   4.252   4.531  14.078  0.6770 -0.1700 -0.1252
  519MPD2    C3 7708   4.365   4.443  14.083 -0.3566 -0.4303 -0.6563
  519MPD2    C4 7709   4.402   4.404  14.208  0.1826 -0.0015  0.5787
  519MPD2    C5 7710   4.327   4.435  14.319  0.5673 -0.3676 -0.3365
  519MPD2     H 7711   4.212   4.559  13.981 -0.2112 -0.4501  0.1508
  519MPD2    H1 7712   4.491   4.346  14.230 -0.0483 -0.4950  0.2097
  519MPD2    H2 7713   4.150   4.527  14.397  1.4125  0.7480  0.7549
  519MPD2    H3 7714   4.352   4.403  14.419  1.7626  2.6560  0.3308
  519MPD2     N 7715   4.426   4.383  13.970  0.0903  0.3317  0.7325
  519MPD2    H5 7716   4.516   4.340  13.990 -0.4946 -0.6563  1.2137
  519MPD2    N1 7717   4.051   4.619  14.184  0.2674  0.4030  0.6791
  519MPD2    H7 7718   3.996   4.613  14.270 -1.2615  1.9975 -0.1904
  520TMC3    C1 7719   4.461   4.306  13.753  0.1082 -0.6410  0.1725
  520TMC3    C2 7720   4.380   4.245  13.657  0.6181  0.6247 -0.1178
  520TMC3    C3 7721   4.426   4.130  13.601 -0.1074 -0.7024  0.2577
  520TMC3    C4 7722   4.587   4.257  13.787  0.0087 -0.7399  0.2090
  520TMC3    C5 7723   4.636   4.157  13.710 -0.0886  0.6211  0.4883
  520TMC3    C6 7724   4.557   4.083  13.627 -0.5503  1.0533  0.3787
  520TMC3     C 7725   4.384   4.399  13.836 -0.0102  0.1179  1.0133
  520TMC3     O 7726   4.287   4.459  13.793 -0.5029 -0.3812 -0.0863
  520TMC3     H 7727   4.280   4.283  13.641  0.4133  0.6521  1.2415
  520TMC3    H1 7728   4.652   4.314  13.852 -1.2976  0.6867  0.2437
  520TMC3    H2 7729   4.595   3.991  13.583  0.5597  2.3156 -1.3195
  520TMC3    C7 7730   0.011   4.075  13.771  0.0784  0.1953 -0.0111
  520TMC3    C8 7731   4.349   4.079  13.484  0.1462  0.2016  0.1416
  520TMC3    O1 7732   4.702   3.962  13.801  0.1150 -0.2325 -0.1398
  520TMC3    O2 7733   4.419   4.043  13.391  0.3294 -0.3543 -0.1904
  521MPD2     C 7734   4.534   2.140  17.524  0.5019  0.2062 -0.7790
  521MPD2    C1 7735   4.520   2.160  17.393 -0.1746  0.0177 -0.1329
  521MPD2    C2 7736   4.623   2.113  17.317  0.3717 -0.8519  0.0743
  521MPD2    C3 7737   0.009   2.048  17.354 -0.1280 -0.7082  0.1487
  521MPD2    C4 7738   0.012   2.007  17.480  0.4949 -0.1280  0.2705
  521MPD2    C5 7739   4.642   2.063  17.564  0.4625  0.4945 -0.1847
  521MPD2     H 7740   4.628   2.148  17.215  1.3696  0.9075  0.7295
  521MPD2    H1 7741   0.095   1.959  17.530  0.9201  0.0928 -0.2251
  521MPD2    H2 7742   4.477   2.186  17.603  3.6064  2.3158  0.2347
  521MPD2    H3 7743   4.653   2.030  17.667  1.3276  0.7658 -0.1832
  521MPD2     N 7744   0.109   2.020  17.256  0.5560  0.8019  0.1154
  521MPD2    H5 7745   0.090   2.039  17.158 -0.5741  0.4266  0.2585
  521MPD2    N1 7746   4.414   2.247  17.346 -0.4492 -0.1723  0.2971
  521MPD2    H7 7747   4.343   2.275  17.413 -0.7890 -0.0705 -0.1031
  522TMC3    C1 7748   0.307   1.927  17.153  0.2082  0.1040  0.3463
  522TMC3    C2 7749   0.443   1.910  17.171  0.2481  0.2236  0.3582
  522TMC3    C3 7750   0.523   1.880  17.063 -0.1133 -0.6537 -0.5387
  522TMC3    C4 7751   0.257   1.903  17.028  0.2353 -0.1849  0.4499
  522TMC3    C5 7752   0.341   1.881  16.921 -0.6635 -0.4092 -0.3502
  522TMC3    C6 7753   0.475   1.874  16.934  0.7800  0.1056  0.6336
  522TMC3     C 7754   0.227   1.955  17.274 -0.1451  0.0228 -0.0458
  522TMC3     O 7755   0.263   1.895  17.375 -0.4476  0.6460  0.4117
  522TMC3     H 7756   0.487   1.898  17.270  1.4211  0.8054 -0.0944
  522TMC3    H1 7757   0.150   1.900  17.013  0.2027  0.3475  0.5689
  522TMC3    H2 7758   0.533   1.860  16.843  0.6775  1.4595  0.3560
  522TMC3    C7 7759   0.282   1.842  16.794  0.0200  0.5502  0.1969
  522TMC3    C8 7760   0.659   1.847  17.095  0.1911  0.1191  0.2239
  522TMC3    O1 7761   0.333   1.746  16.740 -0.3196  0.0522  0.4615
  522TMC3    O2 7762   0.706   1.874  17.202  0.0900 -0.5033  0.1048
  523MPD2     C 7763   3.063   1.936  10.301 -0.0888 -0.1100 -0.1332
  523MPD2    C1 7764   3.168   1.989  10.236  0.3126  0.6838 -0.7754
  523MPD2    C2 7765   3.182   2.127  10.229  1.0828  1.0854  0.0759
  523MPD2    C3 7766   3.100   2.218  10.298  0.1676 -0.0018  0.4136
  523MPD2    C4 7767   2.998   2.164  10.371 -0.7816  0.3778  0.1165
  523MPD2    C5 7768   2.981   2.025  10.364 -0.6604  0.1901 -0.1948
  523MPD2     H 7769   3.272   2.166  10.181  1.3910  1.1547  0.7126
  523MPD2    H1 7770   2.921   2.228  10.412  0.8161  1.3044  1.6841
  523MPD2    H2 7771   3.035   1.832  10.293  0.2864 -0.2465  0.3193
  523MPD2    H3 7772   2.899   1.972  10.412 -1.1136  0.7172 -0.3950
  523MPD2     N 7773   3.102   2.357  10.300  0.1679  0.3440  0.2102
  523MPD2    H5 7774   3.029   2.402  10.354 -1.6170 -1.3228 -0.7698
  523MPD2    N1 7775   3.244   1.899  10.165 -0.4273  0.8631 -0.4085
  523MPD2    H7 7776   3.228   1.802  10.188  1.2669  0.1207 -2.2507
  524TMC3    C1 7777   3.155   2.583  10.258 -0.2649  0.3932 -0.1044
  524TMC3    C2 7778   3.246   2.666  10.202  0.1691  0.3853 -1.0781
  524TMC3    C3 7779   3.202   2.787  10.155  1.2748 -0.0311 -0.1204
  524TMC3    C4 7780   3.026   2.622  10.287 -0.1831  0.7850  0.0274
  524TMC3    C5 7781   2.996   2.753  10.266  0.6075 -0.3565  0.3024
  524TMC3    C6 7782   3.084   2.840  10.204  0.4949  0.5287 -0.3360
  524TMC3     C 7783   3.189   2.441  10.233 -0.5364 -0.3806 -0.1441
  524TMC3     O 7784   3.290   2.407  10.176  0.0619  0.4701  0.0793
  524TMC3     H 7785   3.325   2.624  10.141 -0.2048 -2.8574  0.6989
  524TMC3    H1 7786   2.962   2.550  10.337  1.5534 -0.8127 -0.0196
  524TMC3    H2 7787   3.051   2.939  10.176  2.3032  0.9830 -0.8629
  524TMC3    C7 7788   2.861   2.790  10.300 -0.0015  0.0259 -0.2669
  524TMC3    C8 7789   3.300   2.889  10.109  1.1163 -0.0899 -0.0409
  524TMC3    O1 7790   2.797   2.736  10.390 -0.4751 -0.0555 -0.2938
  524TMC3    O2 7791   3.257   2.982  10.038 -0.0611  0.2458 -0.3849
  525MPD2     C 7792   0.641   3.865  14.478  0.0254  0.5124 -0.2324
  525MPD2    C1 7793   0.768   3.895  14.508  0.5910 -0.2875 -0.1172
  525MPD2    C2 7794   0.821   4.017  14.472  0.0115  0.5964 -0.2569
  525MPD2    C3 7795   0.736   4.106  14.408 -0.0327  0.0529 -0.9199
  525MPD2    C4 7796   0.610   4.069  14.372 -0.1610 -0.2365  0.0609
  525MPD2    C5 7797   0.566   3.950  14.400  0.3387  0.3706  0.0375
  525MPD2     H 7798   0.923   4.043  14.497  0.1827 -0.3967  0.0834
  525MPD2    H1 7799   0.540   4.132  14.318 -1.8179 -0.5342  1.8873
  525MPD2    H2 7800   0.600   3.765  14.493 -0.6760  0.4347 -2.7537
  525MPD2    H3 7801   0.471   3.920  14.357 -0.9115  0.6323  2.6165
  525MPD2     N 7802   0.783   4.238  14.386 -0.1553 -0.2734 -0.1714
  525MPD2    H5 7803   0.715   4.310  14.362  0.2643  0.2403  0.1824
  525MPD2    N1 7804   0.855   3.798  14.572 -0.0083  0.0919  0.5128
  525MPD2    H7 7805   0.952   3.826  14.582 -0.6938  2.3578  0.7928
  526TMC3    C1 7806   0.938   3.607  14.677  0.0226 -0.2021 -0.5993
  526TMC3    C2 7807   0.911   3.502  14.758 -0.1555 -0.0664 -0.2152
  526TMC3    C3 7808   1.012   3.414  14.775 -0.0519 -0.6054  0.8489
  526TMC3    C4 7809   1.058   3.628  14.614  0.6441 -0.5456  0.4106
  526TMC3    C5 7810   1.148   3.522  14.624 -0.0896 -0.0122  0.1921
  526TMC3    C6 7811   1.132   3.426  14.713 -0.0771  0.3709  0.3981
  526TMC3     C 7812   0.824   3.672  14.619 -0.0598  0.0724 -0.1858
  526TMC3     O 7813   0.711   3.632  14.635 -0.0042 -0.1448 -0.4599
  526TMC3     H 7814   0.815   3.496  14.809  0.3304 -1.7857  0.5217
  526TMC3    H1 7815   1.086   3.705  14.543 -1.5775 -0.3581 -0.2379
  526TMC3    H2 7816   1.210   3.351  14.717  1.6532  1.9996 -2.6772
  526TMC3    C7 7817   1.269   3.532  14.546 -0.6175  0.0567 -0.3641
  526TMC3    C8 7818   1.024   3.323  14.884 -0.5718  0.2128  0.2737
  526TMC3    O1 7819   1.312   3.648  14.538 -0.3150  0.2316 -0.0027
  526TMC3    O2 7820   1.128   3.255  14.897 -0.5021 -0.3558  0.3167
  527MPD2     C 7821   3.493   0.948   1.427 -0.2470 -0.1086  0.6459
  527MPD2    C1 7822   3.607   0.955   1.507  0.2557  0.4371 -0.6697
  527MPD2    C2 7823   3.728   0.986   1.449 -0.8503  0.5587  0.7305
  527MPD2    C3 7824   3.736   1.007   1.311 -0.0046  0.3752  0.4105
  527MPD2    C4 7825   3.618   1.002   1.236 -0.6177  0.2091 -0.3442
  527MPD2    C5 7826   3.504   0.964   1.295  0.0920  0.5013 -0.5368
  527MPD2     H 7827   3.815   0.997   1.512 -0.1184 -0.3861 -0.1067
  527MPD2    H1 7828   3.622   0.982   1.129 -0.9014 -2.7700  0.2086
  527MPD2    H2 7829   3.391   0.928   1.459 -0.3101 -1.2872 -0.3148
  527MPD2    H3 7830   3.411   0.946   1.243 -0.2428 -0.5605  0.4372
  527MPD2     N 7831   3.863   1.026   1.252  0.3914  0.4488 -0.0177
  527MPD2    H5 7832   3.948   0.997   1.299  0.4865  1.0455  0.1807
  527MPD2    N1 7833   3.615   0.928   1.645 -0.4126 -0.1018  0.2252
  527MPD2    H7 7834   3.702   0.945   1.694 -0.0101  1.7558 -1.1429
  528TMC3    C1 7835   3.550   0.850   1.857 -0.4690 -0.0889 -0.9513
  528TMC3    C2 7836   3.615   0.953   1.923  0.3935 -0.0879  0.1259
  528TMC3    C3 7837   3.591   0.954   2.055 -0.1137  0.2798 -0.0856
  528TMC3    C4 7838   3.479   0.744   1.919 -0.7215 -0.6725 -0.3862
  528TMC3    C5 7839   3.479   0.750   2.058 -0.5004  0.0173  0.4918
  528TMC3    C6 7840   3.535   0.853   2.126 -0.6970 -1.0848 -0.0687
  528TMC3     C 7841   3.517   0.861   1.717 -0.0625  0.3952 -0.9297
  528TMC3     O 7842   3.429   0.784   1.673 -0.2925  0.3830  0.0409
  528TMC3     H 7843   3.641   1.049   1.881 -2.9195  1.5907  1.9494
  528TMC3    H1 7844   3.446   0.656   1.865  1.6204 -1.9918  0.3207
  528TMC3    H2 7845   3.517   0.873   2.231  0.2635  0.2331 -0.1516
  528TMC3    C7 7846   3.387   0.655   2.122 -0.1620 -0.8149 -0.1789
  528TMC3    C8 7847   3.628   1.076   2.116 -1.0008 -0.0194 -0.4293
  528TMC3    O1 7848   3.313   0.593   2.047 -0.1077  0.2831  0.4629
  528TMC3    O2 7849   3.732   1.130   2.077  0.3338  0.0954 -0.1083
  529MPD2     C 7850   1.957   0.517   0.394 -0.3262  0.7840 -0.0144
  529MPD2    C1 7851   2.007   0.395   0.362  1.2542  0.4117  0.2144
  529MPD2    C2 7852   2.051   0.374   0.231 -0.0352  0.1108 -0.3013
  529MPD2    C3 7853   2.049   0.481   0.142 -0.2114 -0.4966 -0.0521
  529MPD2    C4 7854   1.992   0.604   0.177  0.0630 -0.8194  0.0404
  529MPD2    C5 7855   1.948   0.620   0.307  0.6545 -0.1389  0.2428
  529MPD2     H 7856   2.092   0.278   0.203  0.6663  0.4464 -0.4255
  529MPD2    H1 7857   1.985   0.687   0.106  0.3545 -1.3024 -0.5574
  529MPD2    H2 7858   1.900   0.532   0.484 -0.6367  1.2546 -0.2913
  529MPD2    H3 7859   1.890   0.708   0.334 -1.0507 -0.9492 -0.7276
  529MPD2     N 7860   2.104   0.473   0.010  0.5392 -0.1267 -0.1987
  529MPD2    H5 7861   2.087   0.551  17.648 -1.5683 -0.1050  0.3983
  529MPD2    N1 7862   2.009   0.291   0.457  0.0664 -0.7792 -0.2904
  529MPD2    H7 7863   2.044   0.204   0.417  0.2136  0.2202 -2.2944
  530TMC3    C1 7864   1.988   0.170   0.654 -0.6716 -0.5636  0.5202
  530TMC3    C2 7865   2.003   0.164   0.786 -0.1436  0.1377 -0.1963
  530TMC3    C3 7866   1.953   0.059   0.856  0.3444  0.0876 -0.3532
  530TMC3    C4 7867   1.926   0.067   0.588 -0.0112  0.6088 -0.1438
  530TMC3    C5 7868   1.872   4.692   0.660 -0.2222  0.3146 -0.0582
  530TMC3    C6 7869   1.885   4.683   0.801 -0.3879  0.2174  0.1655
  530TMC3     C 7870   1.985   0.302   0.593  0.1977 -0.6157 -0.1120
  530TMC3     O 7871   1.967   0.402   0.659  0.0535 -0.3602  0.1885
  530TMC3     H 7872   2.047   0.246   0.842 -0.2221  0.8937 -1.2337
  530TMC3    H1 7873   1.925   0.055   0.480  1.5532  0.0954 -0.1031
  530TMC3    H2 7874   1.827   4.617   0.865 -3.3865  1.1873 -1.5416
  530TMC3    C7 7875   1.772   4.614   0.585  0.6689 -0.0415 -0.5439
  530TMC3    C8 7876   1.960   0.044   0.998  0.2202  0.2083  0.3057
  530TMC3    O1 7877   1.726   4.662   0.482 -0.7970  0.3689 -0.1965
  530TMC3    O2 7878   1.948   0.150   1.066 -0.7427  0.7885  0.2094
  531MPD2     C 7879   0.577   3.015  13.091 -0.1501  0.0621  0.8059
  531MPD2    C1 7880   0.454   2.956  13.090  0.0140  0.1589 -1.3736
  531MPD2    C2 7881   0.412   2.872  12.985  0.0746  0.2672  0.0356
  531MPD2    C3 7882   0.498   2.840  12.878  0.6436  0.4798 -0.7544
  531MPD2    C4 7883   0.620   2.908  12.874  0.3962 -0.2777 -0.0818
  531MPD2    C5 7884   0.656   2.995  12.979 -0.5528 -0.2490 -0.5158
  531MPD2     H 7885   0.313   2.829  12.990  0.3188 -0.2767  0.1920
  531MPD2    H1 7886   0.685   2.888  12.789  1.4913  2.6923  0.0471
  531MPD2    H2 7887   0.613   3.082  13.168 -0.0944 -0.4261  1.2094
  531MPD2    H3 7888   0.759   3.029  12.969 -0.2574 -0.6062  1.3773
  531MPD2     N 7889   0.451   2.755  12.769 -0.0895  0.1416  0.2736
  531MPD2    H5 7890   0.497   2.757  12.678 -0.7015 -2.6792 -0.0789
  531MPD2    N1 7891   0.386   2.974  13.208 -0.6465 -0.6749 -0.2181
  531MPD2    H7 7892   0.425   3.033  13.281 -2.4811  0.5580 -0.2096
  532TMC3    C1 7893   0.211   2.937  13.367 -0.0798  1.2976 -0.8352
  532TMC3    C2 7894   0.078   2.903  13.368 -0.7002  0.2495 -0.1557
  532TMC3    C3 7895   0.031   2.819  13.463 -0.2181 -1.0915 -0.8282
  532TMC3    C4 7896   0.299   2.888  13.462  0.0119  0.1057 -0.9939
  532TMC3    C5 7897   0.245   2.806  13.559  0.2147  0.8101 -0.1937
  532TMC3    C6 7898   0.112   2.779  13.563  0.2904  0.2354  0.1134
  532TMC3     C 7899   0.264   2.921  13.233  0.6032  0.5505  0.0903
  532TMC3     O 7900   0.189   2.858  13.163 -0.5293 -0.3521  0.2601
  532TMC3     H 7901   0.006   2.941  13.297 -2.0118 -0.1689  0.9528
  532TMC3    H1 7902   0.406   2.908  13.455 -0.6134  3.2318 -1.6721
  532TMC3    H2 7903   0.080   2.711  13.642  0.2299 -3.7381 -3.3237
  532TMC3    C7 7904   0.327   2.778  13.677  0.1368  0.0644  0.3400
  532TMC3    C8 7905   4.676   2.717  13.399  0.3277  0.3814 -0.0032
  532TMC3    O1 7906   0.262   2.744  13.777  0.2347  0.3716  0.6000
  532TMC3    O2 7907   4.605   2.645  13.463  0.1757 -0.1951 -0.4190
  533TMC3    C1 7908   0.921   4.430  14.406 -0.2767  0.4721 -0.2894
  533TMC3    C2 7909   1.062   4.470  14.392 -0.4034  0.1772  0.4773
  533TMC3    C3 7910   1.107   4.560  14.483 -0.8041 -0.0275  0.5660
  533TMC3    C4 7911   0.852   4.472  14.514 -0.1215 -0.0486 -0.1166
  533TMC3    C5 7912   0.914   4.541  14.619  0.0728 -0.4112 -0.2300
  533TMC3    C6 7913   1.035   4.601  14.589  0.1127  0.6139 -0.0656
  533TMC3     C 7914   0.910   4.285  14.386  0.1838  0.1928 -0.6257
  533TMC3     O 7915   1.016   4.220  14.384  0.3162  0.7541  0.1434
  533TMC3     H 7916   1.128   4.412  14.328 -2.1585  0.2431 -1.3985
  533TMC3    H1 7917   0.756   4.428  14.538 -0.2157  0.9770  1.3451
  533TMC3    H2 7918   1.066   4.684  14.652 -0.4048  1.1008 -0.4508
  533TMC3    C7 7919   0.906   4.488  14.746 -0.0208 -0.0434 -0.4041
  533TMC3    C8 7920   1.252   4.558  14.513 -0.0718  0.0103  1.0660
  533TMC3    O1 7921   0.817   4.412  14.778 -0.0160  0.4720  0.2431
  533TMC3    O2 7922   1.288   4.618  14.614  0.1346  0.0050 -0.1735
  534MPD2     C 7923   3.238   4.524   2.505  0.0405  0.6318 -0.6113
  534MPD2    C1 7924   3.289   4.563   2.386  0.1861  0.9023 -0.3207
  534MPD2    C2 7925   3.269   4.478   2.281  0.4462 -0.1649  0.1714
  534MPD2    C3 7926   3.185   4.370   2.288  0.1677 -0.2517 -0.3891
  534MPD2    C4 7927   3.119   4.340   2.406 -0.1620 -0.0433 -0.3369
  534MPD2    C5 7928   3.160   4.408   2.516 -0.3928  0.1103 -0.0914
  534MPD2     H 7929   3.316   4.504   2.187 -1.7083  2.0333 -0.2843
  534MPD2    H1 7930   3.061   4.249   2.419 -2.7663  1.5097 -0.9550
  534MPD2    H2 7931   3.243   4.586   2.593 -0.0305  0.4663 -0.4916
  534MPD2    H3 7932   3.116   4.381   2.612  0.2938  2.3883  0.8497
  534MPD2     N 7933   3.157   4.292   2.176 -0.0418  0.2339 -0.6951
  534MPD2    H5 7934   3.073   4.235   2.179 -1.6032  2.4809 -0.8227
  534MPD2    N1 7935   3.369   4.674   2.364 -0.0404  0.3497 -0.4169
  534MPD2    H7 7936   3.395   4.685   2.267  0.6965 -1.3749 -0.4129
  535TMC3    C1 7937   3.156   4.215   1.955  0.1478 -0.1731  0.6792
  535TMC3    C2 7938   3.023   4.224   1.930 -0.7270  0.2338 -0.1531
  535TMC3    C3 7939   2.972   4.148   1.826 -0.1680 -0.5180 -0.0888
  535TMC3    C4 7940   3.245   4.146   1.877 -0.2358  0.5760  0.3073
  535TMC3    C5 7941   3.187   4.064   1.789 -1.2192  0.8933  0.4379
  535TMC3    C6 7942   3.055   4.066   1.762 -0.4526 -0.6888 -0.3279
  535TMC3     C 7943   3.216   4.304   2.056 -0.2626 -0.2514  0.5152
  535TMC3     O 7944   3.330   4.347   2.034 -0.3564 -0.0634  0.0399
  535TMC3     H 7945   2.954   4.295   1.976 -1.0875  0.1844 -0.6132
  535TMC3    H1 7946   3.351   4.138   1.897 -0.6637 -0.7880  2.0991
  535TMC3    H2 7947   3.019   4.016   1.673  0.4735 -0.0232 -1.0738
  535TMC3    C7 7948   3.273   4.001   1.687  0.7507 -0.2612 -0.3944
  535TMC3    C8 7949   2.846   4.179   1.763  0.2455 -0.1378 -0.1265
  535TMC3    O1 7950   3.380   4.057   1.652 -0.3441 -0.1399 -0.4257
  535TMC3    O2 7951   2.840   4.183   1.641 -0.4838  0.3972  0.0416
  536MPD2     C 7952   2.631   3.414  15.925  0.8657 -0.4619 -0.5621
  536MPD2    C1 7953   2.520   3.422  16.006 -0.1629 -0.7393  0.0388
  536MPD2    C2 7954   2.402   3.475  15.964 -0.3894 -0.5062 -0.3348
  536MPD2    C3 7955   2.392   3.531  15.840 -0.1774  0.0081 -0.5713
  536MPD2    C4 7956   2.502   3.538  15.758 -1.1348 -0.7120  0.4888
  536MPD2    C5 7957   2.619   3.484  15.803 -0.5065  0.2676 -0.6348
  536MPD2     H 7958   2.314   3.471  16.026 -1.0317  3.7875 -0.9888
  536MPD2    H1 7959   2.492   3.592  15.664  0.7879  1.0142  1.2837
  536MPD2    H2 7960   2.720   3.362  15.957  1.2688 -0.1575 -1.1787
  536MPD2    H3 7961   2.698   3.477  15.729 -0.4308 -1.7805 -0.3643
  536MPD2     N 7962   2.270   3.585  15.787  0.2769 -0.2304  0.9035
  536MPD2    H5 7963   2.276   3.612  15.690 -0.1702 -1.0020  0.6621
  536MPD2    N1 7964   2.540   3.348  16.124 -0.5236  0.7205  0.2387
  536MPD2    H7 7965   2.632   3.313  16.150 -0.3175  1.0398 -0.0602
  537TMC3    C1 7966   2.490   3.204  16.293  0.7428  0.7020 -0.3416
  537TMC3    C2 7967   2.587   3.266  16.369 -0.3356  0.2263  0.0440
  537TMC3    C3 7968   2.612   3.210  16.496  0.4552 -0.0550 -0.2896
  537TMC3    C4 7969   2.421   3.094  16.342 -0.4799 -0.1615  0.0012
  537TMC3    C5 7970   2.449   3.046  16.462 -0.4190 -0.1526  0.1498
  537TMC3    C6 7971   2.553   3.092  16.536 -0.3064 -0.1406  0.7756
  537TMC3     C 7972   2.435   3.287  16.191  0.0201 -0.6336 -0.9316
  537TMC3     O 7973   2.316   3.277  16.168  0.1298  0.4407  0.1329
  537TMC3     H 7974   2.640   3.354  16.337 -1.6985  0.8502 -0.5062
  537TMC3    H1 7975   2.351   3.037  16.281 -0.2497 -1.2761  0.7876
  537TMC3    H2 7976   2.583   3.046  16.629  0.8874  1.0650  0.9810
  537TMC3    C7 7977   2.376   2.924  16.504 -0.1261 -0.2205 -0.0116
  537TMC3    C8 7978   2.714   3.278  16.579 -0.6574  0.1248 -0.1598
  537TMC3    O1 7979   2.328   2.858  16.414  0.0625  0.4019  0.4761
  537TMC3    O2 7980   2.733   3.235  16.694  0.2860 -0.1479 -0.7052
  538TMC3    C1 7981   3.977   1.922  10.482 -0.1186  0.0235  0.1001
  538TMC3    C2 7982   4.114   1.911  10.493  0.4502 -0.9219  0.0946
  538TMC3    C3 7983   4.191   2.019  10.499  0.4625  0.4754 -0.6783
  538TMC3    C4 7984   3.927   2.051  10.481  0.0377  0.1908  0.5571
  538TMC3    C5 7985   4.008   2.156  10.509  0.3387  0.3145 -0.1111
  538TMC3    C6 7986   4.140   2.147  10.509 -0.7765  0.1087 -0.4811
  538TMC3     C 7987   3.896   1.832  10.555 -0.0249 -0.1741  0.0476
  538TMC3     O 7988   3.774   1.857  10.556  0.4674 -0.3517 -0.2497
  538TMC3     H 7989   4.158   1.814  10.473  0.8184 -0.6525 -0.3725
  538TMC3    H1 7990   3.819   2.062  10.490  0.0515  1.3774 -0.8424
  538TMC3    H2 7991   4.205   2.233  10.517  0.1358 -0.5530 -0.8628
  538TMC3    C7 7992   3.938   2.247  10.599  0.5106 -0.6801 -0.0131
  538TMC3    C8 7993   4.320   2.025  10.438 -0.2328 -0.6294  0.1496
  538TMC3    O1 7994   3.818   2.258  10.583  0.4098  0.1988  0.5200
  538TMC3    O2 7995   4.341   2.125  10.373  0.6962 -0.0234 -0.1927
  539MPD2     C 7996   2.901   0.946  11.330 -0.5254 -0.1444 -0.1517
  539MPD2    C1 7997   3.028   0.976  11.385  0.2952 -0.3363  0.5543
  539MPD2    C2 7998   3.050   1.100  11.440  0.2795 -0.5741  0.2622
  539MPD2    C3 7999   2.956   1.205  11.419 -0.5400 -0.3130  1.0844
  539MPD2    C4 8000   2.832   1.176  11.368 -0.7501  0.2966 -0.3664
  539MPD2    C5 8001   2.813   1.052  11.315  0.5444 -0.5654  0.1271
  539MPD2     H 8002   3.145   1.120  11.489  1.9268 -0.0815 -3.1082
  539MPD2    H1 8003   2.755   1.252  11.362 -0.4569  0.6758  0.5546
  539MPD2    H2 8004   2.878   0.851  11.282  0.0513  0.3397 -1.3771
  539MPD2    H3 8005   2.720   1.038  11.261 -0.4456 -0.1493  1.7167
  539MPD2     N 8006   2.979   1.335  11.463  0.9599  0.6314  0.1948
  539MPD2    H5 8007   2.916   1.410  11.436  1.2536  1.0902  0.7844
  539MPD2    N1 8008   3.139   0.893  11.390 -0.1501  0.2666 -0.1417
  539MPD2    H7 8009   3.223   0.940  11.423 -0.1308  0.7682 -0.8979
  540TMC3    C1 8010   3.094   1.517  11.539 -0.0557  0.4671 -0.3767
  540TMC3    C2 8011   3.120   1.569  11.410 -0.2692 -0.0027 -0.0707
  540TMC3    C3 8012   3.229   1.662  11.397 -0.9016  0.2201  0.0548
  540TMC3    C4 8013   3.164   1.572  11.644  0.4364 -0.3097 -0.6744
  540TMC3    C5 8014   3.256   1.674  11.630 -0.0238 -0.2430 -0.3253
  540TMC3    C6 8015   3.286   1.727  11.504  0.3369  0.0005  0.8308
  540TMC3     C 8016   3.076   1.373  11.546  0.1204  0.1315  0.7034
  540TMC3     O 8017   3.156   1.315  11.621 -0.0947 -0.5403 -0.0143
  540TMC3     H 8018   3.080   1.509  11.329  0.0769  0.4745 -0.5951
  540TMC3    H1 8019   3.154   1.533  11.745 -1.6401  1.2721 -0.2544
  540TMC3    H2 8020   3.359   1.808  11.497  0.1399 -0.0608 -2.0365
  540TMC3    C7 8021   3.297   1.737  11.756 -0.2467 -0.2928 -0.0181
  540TMC3    C8 8022   3.290   1.686  11.274 -0.2631 -0.2272 -0.8773
  540TMC3    O1 8023   3.205   1.736  11.838 -0.1793 -0.1451  0.7320
  540TMC3    O2 8024   3.388   1.754  11.274  0.3096  0.7941  0.5059
  541MPD2     C 8025   1.311   3.098  13.453  0.1295  0.1398  0.0545
  541MPD2    C1 8026   1.331   3.001  13.359 -0.0885 -0.5433  0.4934
  541MPD2    C2 8027   1.337   3.041  13.229 -0.6163 -0.2381  0.4995
  541MPD2    C3 8028   1.315   3.166  13.182 -0.2257 -0.6696  0.7339
  541MPD2    C4 8029   1.308   3.263  13.276 -0.0318  0.0717 -0.0465
  541MPD2    C5 8030   1.307   3.230  13.411 -0.3300  0.1036 -0.0110
  541MPD2     H 8031   1.356   2.955  13.165 -0.2408 -0.7224  1.2707
  541MPD2    H1 8032   1.304   3.369  13.251 -0.8948 -0.0486 -0.4238
  541MPD2    H2 8033   1.320   3.085  13.560  0.8336 -3.3468 -0.4354
  541MPD2    H3 8034   1.317   3.308  13.485 -0.4909 -1.2081  1.3940
  541MPD2     N 8035   1.322   3.211  13.045  0.4288  0.7141 -0.7556
  541MPD2    H5 8036   1.301   3.307  13.020 -2.1759  0.3545  0.0957
  541MPD2    N1 8037   1.392   2.881  13.407 -0.3898 -0.0878 -0.1041
  541MPD2    H7 8038   1.394   2.869  13.508  1.5048  1.3196  0.0429
  542TMC3    C1 8039   1.384   3.185  12.816 -0.4061  0.5982 -0.5288
  542TMC3    C2 8040   1.494   3.146  12.751  0.8647 -0.0137  0.5155
  542TMC3    C3 8041   1.521   3.208  12.632  0.4847  0.8547  0.4331
  542TMC3    C4 8042   1.299   3.287  12.776 -0.1899  0.0966  0.4533
  542TMC3    C5 8043   1.331   3.344  12.662 -0.2963 -0.4870 -0.2440
  542TMC3    C6 8044   1.435   3.307  12.584 -0.3448  0.5877  0.1014
  542TMC3     C 8045   1.366   3.124  12.943 -0.2243  0.9646  0.3928
  542TMC3     O 8046   1.412   3.011  12.953  0.2100 -0.1953  0.0766
  542TMC3     H 8047   1.562   3.071  12.788  2.6481  0.4893 -1.7110
  542TMC3    H1 8048   1.221   3.320  12.844 -0.7018 -1.8573  0.8306
  542TMC3    H2 8049   1.454   3.363  12.494 -0.2893 -0.0956 -0.3118
  542TMC3    C7 8050   1.232   3.420  12.588  0.1941  0.3053  0.1850
  542TMC3    C8 8051   1.653   3.192  12.568 -0.0395 -0.2326 -0.0674
  542TMC3    O1 8052   1.254   3.449  12.469 -0.0090  0.0099 -0.2797
  542TMC3    O2 8053   1.688   3.277  12.488  0.9959  0.1111  0.4568
  543TMC3    C1 8054   0.659   3.762  16.662  0.5269 -0.2615  0.2103
  543TMC3    C2 8055   0.689   3.633  16.639 -0.6209  0.8105  0.2915
  543TMC3    C3 8056   0.627   3.538  16.713 -0.7535 -0.4031  0.0708
  543TMC3    C4 8057   0.575   3.802  16.758 -0.3217  0.5780  0.4626
  543TMC3    C5 8058   0.507   3.705  16.830 -0.8002 -0.3529  0.0021
  543TMC3    C6 8059   0.535   3.575  16.811 -0.6160 -0.1968 -0.5943
  543TMC3     C 8060   0.733   3.865  16.589 -0.1165  0.0291  0.5014
  543TMC3     O 8061   0.792   3.832  16.486  0.1821  0.9534 -0.1896
  543TMC3     H 8062   0.770   3.612  16.570 -0.7392 -1.3350  0.7875
  543TMC3    H1 8063   0.539   3.904  16.761 -0.9347  0.3783  0.0479
  543TMC3    H2 8064   0.491   3.492  16.866 -1.5373 -0.4378 -1.6981
  543TMC3    C7 8065   0.415   3.744  16.929  0.4390  0.2811 -0.7374
  543TMC3    C8 8066   0.671   3.398  16.693  1.2650 -0.5672  0.7187
  543TMC3    O1 8067   0.327   3.660  16.954  0.1671 -0.0237  0.1216
  543TMC3    O2 8068   0.776   3.373  16.638 -1.2391 -0.3636  0.2804
  544MPD2     C 8069   0.573   2.892  16.714 -0.5378 -0.3810 -0.4286
  544MPD2    C1 8070   0.688   2.957  16.688  0.1597  0.4206 -0.1071
  544MPD2    C2 8071   0.691   3.097  16.693 -0.0719 -0.4126 -0.4120
  544MPD2    C3 8072   0.577   3.167  16.723 -1.5258  0.1722 -0.1104
  544MPD2    C4 8073   0.469   3.093  16.771  0.0947  0.0366 -0.5510
  544MPD2    C5 8074   0.463   2.962  16.748  0.2048 -0.6072 -1.0486
  544MPD2     H 8075   0.782   3.152  16.677 -1.0329  1.4472  0.4881
  544MPD2    H1 8076   0.386   3.144  16.818  0.8031  1.8072 -1.2061
  544MPD2    H2 8077   0.559   2.785  16.704 -2.0871 -0.2474  0.2904
  544MPD2    H3 8078   0.373   2.909  16.777  0.9994 -1.2082  0.3388
  544MPD2     N 8079   0.576   3.311  16.744  0.9907 -0.0179 -0.4617
  544MPD2    H5 8080   0.491   3.347  16.786  0.3245 -0.2951 -1.5916
  544MPD2    N1 8081   0.797   2.874  16.666 -0.2588  0.1044  0.4788
  544MPD2    H7 8082   0.782   2.776  16.686  1.3015 -0.0564  0.8444
  545TMC3    C1 8083   1.013   2.809  16.615 -0.7080 -0.4273 -0.7273
  545TMC3    C2 8084   1.124   2.837  16.543  0.6423 -0.2092  0.0403
  545TMC3    C3 8085   1.221   2.742  16.530  0.3722  0.3015 -1.0791
  545TMC3    C4 8086   0.989   2.685  16.668 -0.5565  0.2317  0.0847
  545TMC3    C5 8087   1.099   2.598  16.656  0.1585 -0.1897  0.4376
  545TMC3    C6 8088   1.208   2.622  16.592 -0.2792  0.0754  0.1461
  545TMC3     C 8089   0.915   2.916  16.616  0.2134 -0.3741  0.2552
  545TMC3     O 8090   0.937   3.025  16.564 -0.3074  0.0623 -0.9842
  545TMC3     H 8091   1.139   2.934  16.498  1.2742  0.6080  2.0358
  545TMC3    H1 8092   0.907   2.672  16.737  1.1084  0.0962  2.0061
  545TMC3    H2 8093   1.282   2.543  16.585 -1.6044 -1.3412  1.9321
  545TMC3    C7 8094   1.100   2.499  16.758 -0.5700 -0.0814 -0.2472
  545TMC3    C8 8095   1.349   2.782  16.484  0.4758 -0.4986  0.4603
  545TMC3    O1 8096   0.993   2.446  16.789 -0.2170  0.1088 -0.0865
  545TMC3    O2 8097   1.369   2.903  16.472  0.5830  0.1494  0.1220
  546MPD2     C 8098   2.713   3.677  17.532 -0.4904 -0.0103  0.4951
  546MPD2    C1 8099   2.683   3.738  17.408  0.8102 -0.1652 -0.2096
  546MPD2    C2 8100   2.730   3.866  17.389  0.0855 -0.1739  0.0704
  546MPD2    C3 8101   2.819   3.929  17.469 -0.3750  0.0523  0.2261
  546MPD2    C4 8102   2.852   3.859  17.588 -0.0125 -0.7270 -0.7565
  546MPD2    C5 8103   2.804   3.735  17.616  0.0391  0.6918 -0.1241
  546MPD2     H 8104   2.700   3.923  17.301  1.0574 -0.2028 -0.2783
  546MPD2    H1 8105   2.933   3.891  17.653  0.2033 -0.8407 -0.9683
  546MPD2    H2 8106   2.674   3.579  17.558 -0.3629 -0.0735  0.4477
  546MPD2    H3 8107   2.835   3.684   0.007 -1.8691  0.1162  0.1966
  546MPD2     N 8108   2.877   4.053  17.442 -0.6876 -0.7142 -0.1139
  546MPD2    H5 8109   2.940   4.085  17.516  0.1626 -0.3961 -0.9705
  546MPD2    N1 8110   2.597   3.663  17.323  1.2447  0.0602  0.1553
  546MPD2    H7 8111   2.574   3.571  17.359 -0.7854  1.6029  2.7907
  547TMC3    C1 8112   2.435   3.631  17.153 -0.1859 -0.0798 -0.0160
  547TMC3    C2 8113   2.352   3.692  17.062  0.1585  0.4454  0.1173
  547TMC3    C3 8114   2.225   3.646  17.045  0.9011  0.1370 -0.0605
  547TMC3    C4 8115   2.392   3.522  17.226 -0.0495 -0.3697 -0.6291
  547TMC3    C5 8116   2.265   3.475  17.198  0.6140  0.6970  0.1786
  547TMC3    C6 8117   2.178   3.537  17.111 -0.7602  0.4691 -0.1048
  547TMC3     C 8118   2.531   3.718  17.214  0.3176  0.6087 -0.8517
  547TMC3     O 8119   2.542   3.829  17.161  0.2734  0.2382  0.5812
  547TMC3     H 8120   2.391   3.772  17.000 -0.6598  0.8211  0.0803
  547TMC3    H1 8121   2.461   3.465  17.286 -0.2022 -0.4134 -0.4970
  547TMC3    H2 8122   2.076   3.505  17.094 -0.6723 -0.6456  1.4978
  547TMC3    C7 8123   2.219   3.384  17.304  0.6051  0.5459  0.2730
  547TMC3    C8 8124   2.138   3.705  16.940  0.1636 -0.1195 -0.0923
  547TMC3    O1 8125   2.267   3.388  17.417 -0.2057 -1.1531 -0.0071
  547TMC3    O2 8126   2.017   3.694  16.955  0.3614  0.0347 -0.2679
  548MPD2     C 8127   2.439   0.322  12.149 -0.7271  0.0235  0.1948
  548MPD2    C1 8128   2.463   0.248  12.263 -0.2262  0.5174 -0.1294
  548MPD2    C2 8129   2.565   0.157  12.267 -0.3239  0.1771  0.5847
  548MPD2    C3 8130   2.649   0.138  12.159 -0.4590 -0.3362 -0.4592
  548MPD2    C4 8131   2.629   0.217  12.046  0.5868  0.3785 -0.3567
  548MPD2    C5 8132   2.523   0.304  12.045  0.1810 -0.4225  0.2388
  548MPD2     H 8133   2.578   0.105  12.361 -2.9539 -1.4856  0.0092
  548MPD2    H1 8134   2.698   0.216  11.962  1.8082 -1.4022  0.6760
  548MPD2    H2 8135   2.366   0.403  12.146 -2.9071 -1.9829 -1.0310
  548MPD2    H3 8136   2.516   0.370  11.959 -0.3675 -0.9819 -0.1438
  548MPD2     N 8137   2.749   0.034  12.150  0.2073  0.8021 -0.2250
  548MPD2    H5 8138   2.753   4.691  12.225  0.7083  1.4127  0.3049
  548MPD2    N1 8139   2.378   0.292  12.376  0.0697  0.0259 -0.2878
  548MPD2    H7 8140   2.305   0.355  12.344  0.4499  0.2412 -0.7269
  549TMC3    C1 8141   2.274   0.272  12.584  0.0035  0.2101  0.1988
  549TMC3    C2 8142   2.189   0.373  12.547  0.1641  1.2701  0.2339
  549TMC3    C3 8143   2.058   0.352  12.578 -0.5487 -0.9406 -0.8085
  549TMC3    C4 8144   2.234   0.172  12.672  0.1784  0.6891  0.0117
  549TMC3    C5 8145   2.105   0.167  12.706  0.1598  0.5550  0.4363
  549TMC3    C6 8146   2.011   0.250  12.659 -0.9680  0.2051 -1.0264
  549TMC3     C 8147   2.395   0.251  12.507 -0.7683 -0.6190 -0.4709
  549TMC3     O 8148   2.480   0.171  12.555 -0.0597  0.5636 -0.0422
  549TMC3     H 8149   2.210   0.465  12.494 -0.5928  1.2056 -0.1752
  549TMC3    H1 8150   2.306   0.100  12.710 -1.4450 -1.1778 -0.4224
  549TMC3    H2 8151   1.912   0.250  12.703  0.6556 -0.5462  2.6110
  549TMC3    C7 8152   2.060   0.069  12.802  0.3892  0.5904 -0.6874
  549TMC3    C8 8153   1.956   0.434  12.537  0.5214 -0.7358  0.0646
  549TMC3    O1 8154   1.985   0.102  12.892 -0.5207  0.1499  0.3614
  549TMC3    O2 8155   1.854   0.376  12.505 -0.1214  0.4291  0.0473
  550TMC3    C1 8156   1.510   2.890  12.192  0.6941  0.2278 -0.6056
  550TMC3    C2 8157   1.442   2.895  12.308 -0.4553  0.1049  0.2883
  550TMC3    C3 8158   1.346   2.991  12.322 -0.6248  0.4940 -0.5117
  550TMC3    C4 8159   1.470   2.956  12.078  0.4650 -0.8305  0.6684
  550TMC3    C5 8160   1.362   3.043  12.091  0.0459 -0.6319  0.2019
  550TMC3    C6 8161   1.303   3.070  12.218 -0.5864 -0.1999 -0.4741
  550TMC3     C 8162   1.598   2.773  12.175  0.1539 -0.2590 -0.7290
  550TMC3     O 8163   1.656   2.728  12.269 -0.2104  0.3753  0.4025
  550TMC3     H 8164   1.459   2.834  12.395 -1.4643  1.8618  1.7147
  550TMC3    H1 8165   1.521   2.939  11.984  0.3812  0.6747  0.3532
  550TMC3    H2 8166   1.217   3.136  12.221 -1.6946 -1.8596  3.4777
  550TMC3    C7 8167   1.267   3.057  11.983  0.2968 -0.8743 -0.1188
  550TMC3    C8 8168   1.271   2.980  12.448 -0.3275 -0.6110 -0.0019
  550TMC3    O1 8169   1.152   3.050  12.013 -0.1537  0.7536  0.1287
  550TMC3    O2 8170   1.334   2.949  12.550  0.2015  0.3772 -0.7453
  551TMC3    C1 8171   3.325   0.534  13.374 -0.4041  0.2690  0.0953
  551TMC3    C2 8172   3.443   0.564  13.318 -0.1352  0.1565  0.0605
  551TMC3    C3 8173   3.532   0.650  13.377 -0.0956  0.0738  0.2449
  551TMC3    C4 8174   3.295   0.593  13.494  0.0263 -0.2711 -0.6786
  551TMC3    C5 8175   3.387   0.676  13.559  0.0428  0.4584 -1.0994
  551TMC3    C6 8176   3.507   0.710  13.500  0.2813  0.2236 -0.0297
  551TMC3     C 8177   3.230   0.475  13.283 -0.5262  0.9413 -0.5720
  551TMC3     O 8178   3.265   0.450  13.170 -0.0666 -0.5115 -1.0126
  551TMC3     H 8179   3.478   0.512  13.229 -0.4969  1.8706 -1.0770
  551TMC3    H1 8180   3.203   0.572  13.548  0.8486 -0.1177  0.7944
  551TMC3    H2 8181   3.580   0.767  13.556  1.1401 -2.2373  1.3685
  551TMC3    C7 8182   3.368   0.714  13.698 -0.7564 -0.4020  0.4419
  551TMC3    C8 8183   3.655   0.692  13.313  1.0106  0.8554 -0.1544
  551TMC3    O1 8184   3.466   0.756  13.759  0.3291  0.6568 -0.4616
  551TMC3    O2 8185   3.724   0.608  13.260  0.0285 -0.4489  0.1029
  552MPD2     C 8186   0.083   2.543  14.242 -0.0606  0.0531  0.4481
  552MPD2    C1 8187   0.208   2.487  14.212 -0.2523 -1.3960 -0.4572
  552MPD2    C2 8188   0.307   2.506  14.306  0.5207 -0.6483 -0.0513
  552MPD2    C3 8189   0.287   2.582  14.422 -0.0280  0.0767 -0.6446
  552MPD2    C4 8190   0.163   2.647  14.442 -0.6058 -0.8202  0.3430
  552MPD2    C5 8191   0.061   2.625  14.350 -0.7325 -0.2276  0.7935
  552MPD2     H 8192   0.400   2.460  14.277  0.0607  0.2413 -2.9526
  552MPD2    H1 8193   0.143   2.702  14.533  2.3323  1.4259 -0.3839
  552MPD2    H2 8194   4.718   2.531  14.184 -1.3014  1.3303  2.0999
  552MPD2    H3 8195   4.683   2.653  14.369 -0.1350  1.9144  0.8124
  552MPD2     N 8196   0.372   2.583  14.529  0.3981  0.1573 -0.3816
  552MPD2    H5 8197   0.350   2.640  14.610  0.5413  1.2008 -1.0719
  552MPD2    N1 8198   0.236   2.410  14.099  0.0337 -0.4078  0.3239
  552MPD2    H7 8199   0.331   2.374  14.091 -0.1344 -0.9989  1.0127
  553TMC3    C1 8200   0.221   2.284  13.909 -0.1715 -0.0116 -0.1959
  553TMC3    C2 8201   0.194   2.312  13.776 -0.0491  0.1066  0.5809
  553TMC3    C3 8202   0.292   2.279  13.689  0.0346  0.7714 -0.0003
  553TMC3    C4 8203   0.332   2.214  13.951  0.5591 -0.4677  0.5312
  553TMC3    C5 8204   0.414   2.159  13.857 -0.3576  0.2713 -0.1727
  553TMC3    C6 8205   0.400   2.196  13.724  0.5572 -0.3299  0.7044
  553TMC3     C 8206   0.149   2.361  14.006 -0.0151  0.2809 -0.8426
  553TMC3     O 8207   0.031   2.389  13.995  0.0210 -0.0622 -0.5168
  553TMC3     H 8208   0.112   2.377  13.747  0.1728  0.3696  0.5514
  553TMC3    H1 8209   0.350   2.195  14.057 -1.0718  0.5996  1.0014
  553TMC3    H2 8210   0.469   2.154  13.651  1.0437 -0.6799  1.3624
  553TMC3    C7 8211   0.503   2.051  13.887  0.2515 -0.6950  0.4787
  553TMC3    C8 8212   0.319   2.383  13.586 -0.8318  0.2251 -0.7381
  553TMC3    O1 8213   0.482   1.943  13.837 -0.2842  1.0682 -0.3515
  553TMC3    O2 8214   0.219   2.437  13.539  0.4049  0.0540  0.3183
  554TMC3    C1 8215   2.580   1.806  11.945 -0.2351 -0.0755  0.4585
  554TMC3    C2 8216   2.494   1.833  11.843  0.1616 -0.2276 -0.5047
  554TMC3    C3 8217   2.540   1.903  11.738 -0.2762  0.6351  0.3757
  554TMC3    C4 8218   2.711   1.850  11.939 -0.1231 -0.0865 -0.1264
  554TMC3    C5 8219   2.747   1.919  11.831 -0.4798 -1.0881 -0.2297
  554TMC3    C6 8220   2.663   1.957  11.735  0.2115  0.0791  0.0869
  554TMC3     C 8221   2.519   1.742  12.056 -0.4645 -0.8511  0.0685
  554TMC3     O 8222   2.401   1.732  12.053 -0.1303  0.2323  0.0116
  554TMC3     H 8223   2.392   1.796  11.846  0.0583  0.1179  0.3646
  554TMC3    H1 8224   2.784   1.835  12.018 -0.1772  0.6795  0.0783
  554TMC3    H2 8225   2.693   2.019  11.652 -0.1208  2.9907  2.1179
  554TMC3    C7 8226   2.876   1.915  11.771  0.6056  0.0577  0.2270
  554TMC3    C8 8227   2.467   1.913  11.617 -0.7935  0.2300 -0.0424
  554TMC3    O1 8228   2.875   1.884  11.650  0.7676 -0.1483 -0.2798
  554TMC3    O2 8229   2.521   1.964  11.518  0.3881  0.0218  0.3178
  555TMC3    C1 8230   1.541   0.768  15.086  0.4622  0.0066 -0.0979
  555TMC3    C2 8231   1.498   0.877  15.167 -0.1031  0.3442  0.4580
  555TMC3    C3 8232   1.471   0.845  15.296  0.3728  0.7036  0.3953
  555TMC3    C4 8233   1.534   0.640  15.125  0.0026 -0.2319 -0.1509
  555TMC3    C5 8234   1.501   0.618  15.255  0.2943  0.0295  0.3434
  555TMC3    C6 8235   1.456   0.715  15.344  0.9058 -0.0867  0.2545
  555TMC3     C 8236   1.587   0.796  14.951 -0.3685  0.1213 -0.1354
  555TMC3     O 8237   1.638   0.705  14.888  0.8698  0.1266 -0.4228
  555TMC3     H 8238   1.497   0.980  15.135 -1.6349 -0.5926 -2.5104
  555TMC3    H1 8239   1.567   0.567  15.052 -1.2067  1.1178 -2.0194
  555TMC3    H2 8240   1.439   0.696  15.449  2.0318 -1.0926  0.2390
  555TMC3    C7 8241   1.499   0.488  15.311 -0.3449  0.3395 -0.5038
  555TMC3    C8 8242   1.454   0.962  15.381 -0.1008  0.4483 -0.1020
  555TMC3    O1 8243   1.419   0.474  15.405 -0.1011  0.1180 -0.4384
  555TMC3    O2 8244   1.531   1.053  15.359 -0.1698 -0.4250  0.1418
  556MPD2     C 8245   0.315   2.927  10.233 -0.2413  0.6583 -0.0217
  556MPD2    C1 8246   0.246   2.841  10.317  0.1952 -0.0041 -0.5339
  556MPD2    C2 8247   0.234   2.707  10.275  0.1540  0.8951 -0.2095
  556MPD2    C3 8248   0.294   2.658  10.159 -0.4064 -0.5762  0.0049
  556MPD2    C4 8249   0.376   2.743  10.092 -0.4357 -0.0358  0.0417
  556MPD2    C5 8250   0.390   2.870  10.135  0.4636 -1.4385  0.5299
  556MPD2     H 8251   0.165   2.645  10.332  1.8937  1.1002  2.1323
  556MPD2    H1 8252   0.436   2.715  10.006  1.7761 -0.2061  1.6542
  556MPD2    H2 8253   0.320   3.033  10.251  1.6333  0.1898  2.2412
  556MPD2    H3 8254   0.461   2.930  10.079 -1.1961 -0.5741 -0.6472
  556MPD2     N 8255   0.281   2.520  10.114 -0.8396 -0.4259  0.4180
  556MPD2    H5 8256   0.244   2.460  10.186  1.3634  0.9170  2.6601
  556MPD2    N1 8257   0.186   2.892  10.433 -0.5302 -0.4064  0.3611
  556MPD2    H7 8258   0.135   2.824  10.487 -0.4523 -1.6355 -1.1057
  557TMC3    C1 8259   0.248   2.352   9.960 -0.5157  0.5222  0.4230
  557TMC3    C2 8260   0.263   2.298   9.834  0.0357  0.0929  0.7781
  557TMC3    C3 8261   0.226   2.167   9.808 -0.2951  0.0700  0.4668
  557TMC3    C4 8262   0.191   2.284  10.060 -0.3437 -0.4214  0.4893
  557TMC3    C5 8263   0.150   2.156  10.032 -0.4211 -0.2872 -0.5631
  557TMC3    C6 8264   0.162   2.094   9.910  0.2126 -0.8474 -0.2037
  557TMC3     C 8265   0.315   2.472   9.989  0.2514 -0.2133 -0.4839
  557TMC3     O 8266   0.367   2.534   9.899 -0.0894  0.0412 -0.3487
  557TMC3     H 8267   0.323   2.356   9.765  2.2272  0.7584  3.2783
  557TMC3    H1 8268   0.161   2.329  10.154 -0.9860  1.6410 -0.7247
  557TMC3    H2 8269   0.131   1.991   9.897 -2.1462 -0.5232  2.7454
  557TMC3    C7 8270   0.046   2.113  10.114  0.0708  0.3927  0.4718
  557TMC3    C8 8271   0.342   2.095   9.752 -0.5629  0.6254 -0.6251
  557TMC3    O1 8272   4.666   2.180  10.114  0.2679 -0.1766  0.6529
  557TMC3    O2 8273   0.452   2.152   9.742 -0.0918  0.3206 -0.8233
  558TMC3    C1 8274   2.720   0.891   9.567  0.3803 -0.3878 -0.0981
  558TMC3    C2 8275   2.649   0.775   9.584  0.6463  0.0008  0.3717
  558TMC3    C3 8276   2.543   0.744   9.501  0.4232 -0.0936  0.1323
  558TMC3    C4 8277   2.699   0.973   9.466  0.3224 -0.2983 -0.2880
  558TMC3    C5 8278   2.598   0.935   9.379 -0.3160  0.9825  0.5838
  558TMC3    C6 8279   2.515   0.827   9.399 -0.0947 -0.1411  0.5337
  558TMC3     C 8280   2.827   0.917   9.666  0.4737 -0.5884  0.3333
  558TMC3     O 8281   2.913   0.997   9.632  0.0398 -0.2480 -0.2130
  558TMC3     H 8282   2.664   0.707   9.666 -3.9213 -0.4842  0.8086
  558TMC3    H1 8283   2.749   1.067   9.450 -1.3396  0.7559  0.7242
  558TMC3    H2 8284   2.440   0.786   9.333  0.9951 -0.1936 -0.6801
  558TMC3    C7 8285   2.529   1.045   9.311 -0.3706 -0.2820 -0.6517
  558TMC3    C8 8286   2.443   0.641   9.535 -0.3202 -1.0932  0.4556
  558TMC3    O1 8287   2.569   1.162   9.327 -0.3427  0.6365  0.1591
  558TMC3    O2 8288   2.392   0.584   9.440  0.0149 -0.1978 -0.0472
  559MPD2     C 8289   2.043   1.396  10.976 -0.8360  0.2000 -0.1353
  559MPD2    C1 8290   2.078   1.345  10.854  0.0448  0.4359 -0.3132
  559MPD2    C2 8291   2.212   1.321  10.819 -0.2242 -0.2968 -0.0922
  559MPD2    C3 8292   2.305   1.324  10.922  0.2655 -0.2262  0.0544
  559MPD2    C4 8293   2.268   1.389  11.040  0.3031 -0.7590 -0.2145
  559MPD2    C5 8294   2.137   1.411  11.073  0.1916 -0.2032  0.8070
  559MPD2     H 8295   2.240   1.290  10.719 -0.5065  0.2605 -0.3466
  559MPD2    H1 8296   2.340   1.405  11.119 -0.0823 -0.7758  0.1372
  559MPD2    H2 8297   1.940   1.416  11.003 -1.4294 -0.0792 -2.2063
  559MPD2    H3 8298   2.102   1.454  11.166  0.1647 -1.4415  1.3649
  559MPD2     N 8299   2.433   1.277  10.907  0.4568 -0.3103  0.1000
  559MPD2    H5 8300   2.456   1.223  10.824 -1.5894 -0.2336 -0.5168
  559MPD2    N1 8301   1.971   1.314  10.765 -0.3703  0.3104  0.4626
  559MPD2    H7 8302   1.884   1.361  10.786 -1.3038 -1.4203  0.4538
  560TMC3    C1 8303   2.640   1.191  10.986  0.4878  0.5368 -0.3825
  560TMC3    C2 8304   2.629   1.093  10.889  0.1743  1.2207  0.2333
  560TMC3    C3 8305   2.735   1.011  10.877 -0.1922 -0.6992  0.2806
  560TMC3    C4 8306   2.755   1.236  11.043 -1.0461  0.2172  0.2394
  560TMC3    C5 8307   2.863   1.155  11.015 -0.1179  0.3472  0.0228
  560TMC3    C6 8308   2.850   1.042  10.940 -0.3715 -0.0002 -0.7598
  560TMC3     C 8309   2.534   1.290  11.005 -0.3453 -1.0253 -0.1769
  560TMC3     O 8310   2.549   1.373  11.092 -0.1142  0.0935 -0.3616
  560TMC3     H 8311   2.534   1.074  10.840  0.1464 -0.7370  1.0579
  560TMC3    H1 8312   2.764   1.315  11.116  0.3735  0.9977 -0.7750
  560TMC3    H2 8313   2.934   0.978  10.915 -0.7975 -0.0544 -2.0810
  560TMC3    C7 8314   2.993   1.204  11.065 -0.1153  0.0247  0.0860
  560TMC3    C8 8315   2.715   0.886  10.804 -0.3829  0.6358 -0.6125
  560TMC3    O1 8316   2.984   1.316  11.116 -0.2247 -0.6407 -0.3073
  560TMC3    O2 8317   2.599   0.868  10.778 -0.2509  0.1729  0.7702
  561TMC3    C1 8318   0.038   0.401  11.201 -0.0636  0.0339  0.5686
  561TMC3    C2 8319   0.021   0.329  11.316 -0.5004 -0.2889  0.0681
  561TMC3    C3 8320   4.698   0.396  11.426  0.4465 -0.2614  0.5208
  561TMC3    C4 8321   0.001   0.538  11.194 -0.4881  0.3623  0.2342
  561TMC3    C5 8322   4.682   0.599  11.303  0.2957 -0.1021  0.1342
  561TMC3    C6 8323   4.663   0.529  11.417  0.3631  0.1572 -0.1577
  561TMC3     C 8324   0.109   0.344  11.096 -0.2807  0.4538  0.1310
  561TMC3     O 8325   0.080   0.377  10.978  0.1381  0.2344 -0.1798
  561TMC3     H 8326   0.032   0.222  11.324 -0.7543 -0.2616  0.7508
  561TMC3    H1 8327   0.012   0.585  11.097  1.2360  0.8774  0.6803
  561TMC3    H2 8328   4.638   0.581  11.508  0.1204  2.4442 -1.5313
  561TMC3    C7 8329   0.034   0.714  11.335  1.1257 -0.2186  0.8167
  561TMC3    C8 8330   4.661   0.318  11.545  0.3466 -0.1464  0.5315
  561TMC3    O1 8331   0.015   0.775  11.440  0.7012  0.6784 -0.0319
  561TMC3    O2 8332   4.697   0.205  11.548  0.3933 -0.2113 -0.1190
  562TMC3    C1 8333   0.816   1.338  16.519 -0.1887  0.1289 -0.3102
  562TMC3    C2 8334   0.749   1.451  16.498 -0.0162 -0.1197 -0.6531
  562TMC3    C3 8335   0.664   1.461  16.389  1.2102  0.8299  0.1376
  562TMC3    C4 8336   0.823   1.239  16.429  0.0785 -0.3726 -0.1100
  562TMC3    C5 8337   0.731   1.234  16.324  0.1622 -0.1989 -0.5554
  562TMC3    C6 8338   0.637   1.341  16.321 -0.4838  0.9340  0.6802
  562TMC3     C 8339   0.933   1.349  16.597  0.5222  0.5245 -0.0943
  562TMC3     O 8340   0.914   1.413  16.704  0.3312  0.0234  0.4518
  562TMC3     H 8341   0.769   1.538  16.559 -1.0135  0.6099 -1.3666
  562TMC3    H1 8342   0.882   1.151  16.454  0.8054  0.4940  1.2152
  562TMC3    H2 8343   0.555   1.344  16.251  0.3281 -1.5326 -0.3944
  562TMC3    C7 8344   0.698   1.107  16.250  0.2179 -0.1923 -0.0480
  562TMC3    C8 8345   0.565   1.561  16.386  0.1063  0.0861 -0.4495
  562TMC3    O1 8346   0.588   1.103  16.189  0.1043  0.3700 -0.1689
  562TMC3    O2 8347   0.517   1.595  16.494  0.0311  0.2374 -0.6239
  563MPD2     C 8348   2.869   1.942  16.090 -0.7510  0.1844 -0.6697
  563MPD2    C1 8349   2.926   1.948  16.216 -0.1875 -0.6117 -0.2153
  563MPD2    C2 8350   2.997   2.070  16.248 -0.2970  1.0283  0.2514
  563MPD2    C3 8351   3.000   2.178  16.161 -0.5717  1.2041 -0.3737
  563MPD2    C4 8352   2.939   2.164  16.041  0.1898 -0.1421 -1.0280
  563MPD2    C5 8353   2.874   2.050  16.004 -1.0294 -0.6369  0.1841
  563MPD2     H 8354   3.054   2.071  16.340  0.7837 -2.4412 -0.3713
  563MPD2    H1 8355   2.898   2.251  15.991 -0.4290 -0.2200 -0.6504
  563MPD2    H2 8356   2.803   1.859  16.063  0.0083  0.2898 -2.8524
  563MPD2    H3 8357   2.828   2.049  15.906 -3.3936  2.0494  1.2659
  563MPD2     N 8358   3.066   2.302  16.192  0.1814  0.0163  0.6260
  563MPD2    H5 8359   3.114   2.321  16.279  1.0112  1.7555 -0.2154
  563MPD2    N1 8360   2.918   1.834  16.302 -0.1231  0.3375  0.5341
  563MPD2    H7 8361   2.877   1.749  16.264  2.7725 -0.6905 -0.2998
  564TMC3    C1 8362   2.913   1.705  16.496 -0.1524  0.0695  0.2269
  564TMC3    C2 8363   2.813   1.628  16.442  0.5848 -0.7614  0.7339
  564TMC3    C3 8364   2.830   1.492  16.428 -0.1744  0.1744 -0.1615
  564TMC3    C4 8365   3.038   1.648  16.514 -0.2356 -0.2959  0.0376
  564TMC3    C5 8366   3.045   1.514  16.505 -0.0219  0.5733 -0.0073
  564TMC3    C6 8367   2.949   1.439  16.456  0.2067 -0.2147 -0.2918
  564TMC3     C 8368   2.936   1.835  16.441 -0.4495  0.9093 -0.0716
  564TMC3     O 8369   3.001   1.913  16.510 -0.0735 -0.0096 -0.1777
  564TMC3     H 8370   2.721   1.679  16.418  0.6628 -0.4708  1.0565
  564TMC3    H1 8371   3.125   1.705  16.546 -1.6655  2.1552 -0.4400
  564TMC3    H2 8372   2.960   1.332  16.457  0.6553 -0.1756 -0.9067
  564TMC3    C7 8373   3.181   1.475  16.485  0.4859  0.5391  0.0089
  564TMC3    C8 8374   2.731   1.399  16.388  0.0989  0.1565 -0.7343
  564TMC3    O1 8375   3.269   1.519  16.558  0.0550  0.2033 -0.0926
  564TMC3    O2 8376   2.763   1.277  16.401  0.0113 -0.1709  0.4598
  565TMC3    C1 8377   4.501   3.976   9.749  0.0602  0.4154 -0.2633
  565TMC3    C2 8378   4.521   3.866   9.830  0.4316  0.2990 -0.0528
  565TMC3    C3 8379   4.415   3.817   9.896  0.3081 -0.3257  0.0479
  565TMC3    C4 8380   4.377   4.042   9.739 -0.3018 -0.3553  0.1975
  565TMC3    C5 8381   4.277   3.989   9.813 -0.3070  0.1703  0.3359
  565TMC3    C6 8382   4.295   3.886   9.900  0.8132 -0.9802  0.3512
  565TMC3     C 8383   4.611   4.029   9.665 -0.0441 -0.0701  0.3589
  565TMC3     O 8384   4.587   4.097   9.563 -0.3314  0.0613  0.1002
  565TMC3     H 8385   4.616   3.813   9.832  0.7937  1.0281  2.1513
  565TMC3    H1 8386   4.364   4.136   9.685  3.6231 -0.3913 -0.8362
  565TMC3    H2 8387   4.215   3.819   9.930 -0.8632  0.3476 -1.1712
  565TMC3    C7 8388   4.161   4.079   9.834 -0.7160 -0.0663 -0.3515
  565TMC3    C8 8389   4.438   3.678   9.946 -0.9147  0.3816  0.0983
  565TMC3    O1 8390   4.155   4.178   9.768  0.4614  0.3712  0.1724
  565TMC3    O2 8391   4.530   3.613   9.894 -0.8317  0.2469 -0.3375
  566MPD2     C 8392   0.677   1.173  14.520 -0.0454  0.0341  0.1822
  566MPD2    C1 8393   0.775   1.141  14.426  0.0439 -0.1310 -0.6893
  566MPD2    C2 8394   0.741   1.052  14.321  0.2321 -0.4828 -0.4697
  566MPD2    C3 8395   0.616   1.000  14.308  0.2739 -0.5357 -0.5488
  566MPD2    C4 8396   0.528   1.028  14.409 -0.3324 -0.2601  0.5560
  566MPD2    C5 8397   0.559   1.110  14.516 -0.0925 -0.8232 -0.0918
  566MPD2     H 8398   0.816   1.025  14.247 -0.0025  0.2967 -0.9867
  566MPD2    H1 8399   0.429   0.985  14.414 -0.9560  1.2631  1.1965
  566MPD2    H2 8400   0.707   1.236  14.602 -1.1544 -2.1172  2.2220
  566MPD2    H3 8401   0.494   1.144  14.596 -0.0498 -0.6794 -0.1184
  566MPD2     N 8402   0.582   0.908  14.207 -0.3871 -0.3538  0.2474
  566MPD2    H5 8403   0.488   0.873  14.223 -0.4757  0.3483  1.2334
  566MPD2    N1 8404   0.895   1.216  14.419 -0.4211  0.3509  0.0334
  566MPD2    H7 8405   0.907   1.281  14.496 -0.2350 -0.2909  0.5366
  567TMC3    C1 8406   1.125   1.253  14.358  0.3047  0.0910  0.0978
  567TMC3    C2 8407   1.165   1.330  14.252  0.6575 -0.2126 -0.3711
  567TMC3    C3 8408   1.286   1.300  14.196 -0.9930 -0.2238 -0.2847
  567TMC3    C4 8409   1.206   1.160  14.411  0.2939 -0.8360  0.3696
  567TMC3    C5 8410   1.337   1.153  14.369  0.4566 -0.6010  0.2546
  567TMC3    C6 8411   1.378   1.221  14.261 -0.3919  0.3686  0.1336
  567TMC3     C 8412   0.994   1.201  14.322 -0.6333 -0.0308  0.0929
  567TMC3     O 8413   0.993   1.135  14.221 -0.0347  0.3058 -0.2820
  567TMC3     H 8414   1.090   1.387  14.199  1.6024  0.8109 -0.6110
  567TMC3    H1 8415   1.174   1.086  14.483 -1.3398 -0.6737 -0.1960
  567TMC3    H2 8416   1.479   1.206  14.224 -0.4837  0.4234 -0.1398
  567TMC3    C7 8417   1.398   1.023  14.376  0.0227 -0.0877  0.9062
  567TMC3    C8 8418   1.304   1.311  14.048 -0.7552 -0.3004  0.4980
  567TMC3    O1 8419   1.460   0.994  14.274 -0.4673  0.0994  0.0647
  567TMC3    O2 8420   1.214   1.365  13.988  0.1215 -0.2523 -0.7774
  568MPD2     C 8421   3.039   0.498  16.584 -0.7495 -0.5396  0.2114
  568MPD2    C1 8422   3.009   0.579  16.690  0.3954  0.7676  0.4299
  568MPD2    C2 8423   2.889   0.655  16.686 -0.5626  0.2428 -0.5527
  568MPD2    C3 8424   2.788   0.645  16.582  0.1309 -0.1465 -0.6086
  568MPD2    C4 8425   2.821   0.551  16.481  0.0925  0.0900 -0.0884
  568MPD2    C5 8426   2.939   0.479  16.490  0.4124  0.2260  0.8957
  568MPD2     H 8427   2.866   0.714  16.773 -1.7445 -0.4462 -0.4053
  568MPD2    H1 8428   2.757   0.540  16.394  2.2939 -0.5368 -1.6370
  568MPD2    H2 8429   3.132   0.443  16.582 -1.9872 -2.5773 -0.5453
  568MPD2    H3 8430   2.955   0.400  16.417 -1.9221  0.6346 -0.0726
  568MPD2     N 8431   2.670   0.715  16.595 -0.7136  0.0737 -0.2415
  568MPD2    H5 8432   2.671   0.777  16.674 -1.3155 -0.6839  0.3663
  568MPD2    N1 8433   3.098   0.578  16.798 -0.9817  0.3540 -0.2330
  568MPD2    H7 8434   3.181   0.521  16.785  0.2597  1.5489  2.6210
  569TMC3    C1 8435   2.470   0.818  16.521  0.4810  0.3236  0.4668
  569TMC3    C2 8436   2.457   0.876  16.647  0.4710  0.9265  0.1461
  569TMC3    C3 8437   2.350   0.950  16.680 -0.0360 -0.5201  0.0076
  569TMC3    C4 8438   2.365   0.829  16.434 -0.1099 -0.3999 -0.5176
  569TMC3    C5 8439   2.247   0.894  16.473  0.3672  0.2734  0.4148
  569TMC3    C6 8440   2.246   0.957  16.597  0.3212  0.1931 -0.3311
  569TMC3     C 8441   2.576   0.721  16.498  0.0160 -0.4618  0.3628
  569TMC3     O 8442   2.564   0.657  16.395  0.4726  0.4937 -0.2471
  569TMC3     H 8443   2.532   0.870  16.725 -3.3290 -0.4352  3.6247
  569TMC3    H1 8444   2.379   0.795  16.332 -0.2756 -0.2495 -0.5883
  569TMC3    H2 8445   2.165   1.027  16.614 -1.7171 -1.2548 -4.0627
  569TMC3    C7 8446   2.213   0.998  16.384  0.3676 -0.0380 -0.0907
  569TMC3    C8 8447   2.374   1.075  16.748  0.5040 -0.7431 -0.2769
  569TMC3    O1 8448   2.096   1.036  16.390 -0.1352  0.0796  0.7099
  569TMC3    O2 8449   2.277   1.141  16.776  0.3880  0.1557  0.0717
  570TMC3    C1 8450   2.451   0.070  16.268  0.7469  0.0975 -0.4917
  570TMC3    C2 8451   2.542   0.081  16.170  0.2894 -0.4522  0.1957
  570TMC3    C3 8452   2.610   0.199  16.162 -0.4430  0.2217  0.4540
  570TMC3    C4 8453   2.413   0.172  16.358  0.4967 -0.2593  1.0643
  570TMC3    C5 8454   2.476   0.287  16.343  0.3771  0.0643  0.4554
  570TMC3    C6 8455   2.579   0.303  16.250  0.4226 -0.0913  0.1990
  570TMC3     C 8456   2.419   4.652  16.296 -0.2454  0.1383  0.2584
  570TMC3     O 8457   2.451   4.568  16.212  0.1141 -0.2577  0.3623
  570TMC3     H 8458   2.564   4.722  16.105 -0.5450 -0.4511 -0.0772
  570TMC3    H1 8459   2.351   0.153  16.445  1.7866  1.2091  2.3129
  570TMC3    H2 8460   2.650   0.380  16.277  1.2951 -0.8484  0.0790
  570TMC3    C7 8461   2.496   0.354  16.468  0.8937 -0.3767 -0.2385
  570TMC3    C8 8462   2.735   0.221  16.092 -0.4250  0.3504  0.3031
  570TMC3    O1 8463   2.602   0.334  16.524  0.2329  0.2241  0.1000
  570TMC3    O2 8464   2.793   0.329  16.092  0.4037  0.2183  0.2989
  571MPD2     C 8465   0.769   1.562   0.870 -0.5998 -0.0346  0.6311
  571MPD2    C1 8466   0.819   1.684   0.891  0.6660  0.2178 -0.0611
  571MPD2    C2 8467   0.741   1.793   0.894 -0.2532  0.2972 -0.3592
  571MPD2    C3 8468   0.615   1.786   0.833 -0.3372 -0.6653  0.4149
  571MPD2    C4 8469   0.567   1.664   0.805 -0.6406  0.3317 -0.4364
  571MPD2    C5 8470   0.634   1.550   0.836 -0.3728  0.3218  0.3803
  571MPD2     H 8471   0.782   1.891   0.918  2.1734 -0.7409 -0.2225
  571MPD2    H1 8472   0.471   1.639   0.761 -0.8345 -0.4341  0.4232
  571MPD2    H2 8473   0.831   1.473   0.866  0.9112  0.9889  1.2119
  571MPD2    H3 8474   0.596   1.451   0.812  0.0302 -0.0516  1.2647
  571MPD2     N 8475   0.523   1.888   0.815  0.6912 -0.4777 -0.7045
  571MPD2    H5 8476   0.429   1.866   0.785  0.2048  0.2933  0.2641
  571MPD2    N1 8477   0.952   1.689   0.939 -0.0283 -0.1579 -0.0278
  571MPD2    H7 8478   1.012   1.610   0.918  1.5565  0.8388  0.7847
  572TMC3    C1 8479   0.439   2.102   0.790  0.1448 -0.5354 -0.5663
  572TMC3    C2 8480   0.323   2.085   0.858  0.1238 -0.0195 -0.4182
  572TMC3    C3 8481   0.217   2.145   0.796  0.3275 -0.0433  0.0763
  572TMC3    C4 8482   0.464   2.203   0.702  0.1319  0.3208 -0.1897
  572TMC3    C5 8483   0.357   2.256   0.641  0.3803  0.3532  0.3289
  572TMC3    C6 8484   0.233   2.228   0.686 -0.6838  0.0678 -0.1937
  572TMC3     C 8485   0.551   2.022   0.833 -0.1532  0.0117 -0.1663
  572TMC3     O 8486   0.661   2.075   0.857  0.1576  0.5914 -0.1648
  572TMC3     H 8487   0.318   2.006   0.932 -1.8221  0.1843 -0.3386
  572TMC3    H1 8488   0.566   2.214   0.665  0.1955  1.5084  0.3232
  572TMC3    H2 8489   0.147   2.277   0.643 -0.9554 -0.3805 -0.1607
  572TMC3    C7 8490   0.359   2.315   0.510  0.5240  0.4963  0.1182
  572TMC3    C8 8491   0.096   2.169   0.876 -0.5842  0.0228 -0.3981
  572TMC3    O1 8492   0.258   2.325   0.443 -0.6948 -0.1809 -0.5426
  572TMC3    O2 8493   0.002   2.202   0.805  0.1171  0.1321 -0.3443
  573MPD2     C 8494   1.769   2.200   0.425  0.2611 -0.1301 -0.1208
  573MPD2    C1 8495   1.786   2.331   0.384  0.0344 -0.2583 -0.2404
  573MPD2    C2 8496   1.807   2.358   0.254  0.0449 -0.7826  0.3204
  573MPD2    C3 8497   1.812   2.253   0.162 -0.7255 -0.2391 -0.2357
  573MPD2    C4 8498   1.795   2.122   0.202  0.0608  0.0568 -0.4101
  573MPD2    C5 8499   1.781   2.096   0.334  0.3943  0.2986 -0.4696
  573MPD2     H 8500   1.822   2.464   0.234  0.1744 -1.2031 -1.8568
  573MPD2    H1 8501   1.793   2.040   0.131  0.3235  0.4910 -0.9211
  573MPD2    H2 8502   1.759   2.178   0.531  1.0507  0.2176  0.0231
  573MPD2    H3 8503   1.766   1.994   0.366 -0.0409  0.8221  1.0047
  573MPD2     N 8504   1.818   2.285   0.026 -0.1555 -0.0374  0.5400
  573MPD2    H5 8505   1.783   2.214  17.663  1.8970  0.7009 -1.4562
  573MPD2    N1 8506   1.770   2.434   0.482 -0.8345 -0.0561 -0.1802
  573MPD2    H7 8507   1.770   2.414   0.581  2.0992  0.4366 -0.0704
  574TMC3    C1 8508   1.838   2.411  17.529  0.2406  0.5034 -0.7066
  574TMC3    C2 8509   1.726   2.353  17.479 -1.1521  0.0629 -0.0451
  574TMC3    C3 8510   1.687   2.388  17.353  0.1037  0.1264  0.4307
  574TMC3    C4 8511   1.911   2.509  17.462  0.1799  0.5613 -0.1346
  574TMC3    C5 8512   1.867   2.536  17.334  0.5189 -0.6020  0.0541
  574TMC3    C6 8513   1.754   2.477  17.280 -0.2450  0.0815 -0.2085
  574TMC3     C 8514   1.859   2.406  17.677 -0.4183  0.5710  0.2501
  574TMC3     O 8515   1.913   2.507   0.025  0.5266 -0.0846 -0.4166
  574TMC3     H 8516   1.655   2.293  17.534 -0.1588  0.7043  1.9598
  574TMC3    H1 8517   2.004   2.545  17.504 -0.1602  2.5667 -1.1294
  574TMC3    H2 8518   1.738   2.483  17.173  3.4118  1.3687 -0.6590
  574TMC3    C7 8519   1.929   2.646  17.264 -0.9483  0.2962  0.6665
  574TMC3    C8 8520   1.555   2.344  17.313  0.0899 -0.0384  0.3569
  574TMC3    O1 8521   1.900   2.660  17.149 -0.0156  0.4681  0.3548
  574TMC3    O2 8522   1.500   2.256  17.381  0.4297  0.0142 -0.3236
  575TMC3    C1 8523   0.114   2.936   9.855 -0.0294 -0.2203  0.5575
  575TMC3    C2 8524   0.083   2.813   9.919  0.4673  0.3950 -0.5117
  575TMC3    C3 8525   4.698   2.811   9.992  0.6080 -0.1602 -0.1913
  575TMC3    C4 8526   0.025   3.038   9.849  0.5745  0.1061 -0.6355
  575TMC3    C5 8527   4.633   3.025   9.913 -0.1161 -0.3723 -0.3351
  575TMC3    C6 8528   4.605   2.913   9.990  1.2968 -0.7573  0.3256
  575TMC3     C 8529   0.250   2.979   9.825 -0.2095 -0.1800 -0.0017
  575TMC3     O 8530   0.323   2.891   9.784 -0.0230 -0.6149 -0.2914
  575TMC3     H 8531   0.160   2.737   9.923 -0.4051 -0.3977  1.1097
  575TMC3    H1 8532   0.054   3.129   9.798  1.3496 -1.9416 -3.8555
  575TMC3    H2 8533   4.509   2.898  10.037  0.7490  0.9555 -0.2675
  575TMC3    C7 8534   4.559   3.153   9.924  0.0377 -0.1817  0.2841
  575TMC3    C8 8535   4.665   2.688  10.068 -0.1775  0.1386  0.2054
  575TMC3    O1 8536   4.607   3.243   9.857 -0.5469  0.1707  0.5470
  575TMC3    O2 8537   4.689   2.581  10.020  0.3989 -0.5213  0.1006
  576MPD2     C 8538   3.908   0.666  12.760  0.1502  0.1921  0.4108
  576MPD2    C1 8539   3.917   0.763  12.663 -0.0872  0.4933 -0.4340
  576MPD2    C2 8540   3.857   0.884  12.683 -0.6584 -0.3208 -0.3341
  576MPD2    C3 8541   3.783   0.907  12.797 -0.6236  0.8124  0.6170
  576MPD2    C4 8542   3.784   0.811  12.898  0.2397  0.3916 -0.7711
  576MPD2    C5 8543   3.837   0.692  12.876 -0.7904 -0.7635  0.4209
  576MPD2     H 8544   3.856   0.963  12.609 -0.0605 -0.4863 -0.5156
  576MPD2    H1 8545   3.727   0.824  12.989  0.1606  1.0240 -0.9136
  576MPD2    H2 8546   3.950   0.566  12.750  2.7935  1.2129  1.3717
  576MPD2    H3 8547   3.835   0.611  12.949  1.0719 -1.8091 -0.6812
  576MPD2     N 8548   3.720   1.032  12.792  0.2495 -0.0008 -0.0092
  576MPD2    H5 8549   3.721   1.084  12.704  1.8031 -1.1726 -0.6883
  576MPD2    N1 8550   3.976   0.734  12.537  0.3339 -0.1383 -0.4465
  576MPD2    H7 8551   3.998   0.815  12.480 -1.2069 -0.3423 -1.3254
  577TMC3    C1 8552   3.995   0.612  12.342  1.0342  0.5500 -0.3950
  577TMC3    C2 8553   4.079   0.517  12.294 -0.9432  0.5628 -0.4767
  577TMC3    C3 8554   4.103   0.519  12.159  0.6636  0.1367  0.7573
  577TMC3    C4 8555   3.944   0.714  12.263  0.4137 -0.0972  0.3737
  577TMC3    C5 8556   3.956   0.698  12.129  0.2425 -0.0930  0.3894
  577TMC3    C6 8557   4.036   0.605  12.078 -0.7263 -0.2679 -0.2948
  577TMC3     C 8558   3.980   0.607  12.477  0.5763  0.0407 -0.1512
  577TMC3     O 8559   3.957   0.501  12.529 -0.2018  0.2073 -0.0286
  577TMC3     H 8560   4.120   0.443  12.362  0.7397 -0.3181 -2.4276
  577TMC3    H1 8561   3.871   0.784  12.302 -1.6017 -0.5274 -2.5711
  577TMC3    H2 8562   4.041   0.611  11.970 -1.0709 -0.9495 -0.3520
  577TMC3    C7 8563   3.937   0.822  12.054 -0.1046 -0.1651 -0.5575
  577TMC3    C8 8564   4.215   0.435  12.118  0.1910 -0.4258 -0.4329
  577TMC3    O1 8565   3.945   0.927  12.123  0.6171  0.4908  0.0436
  577TMC3    O2 8566   4.261   0.366  12.206 -0.3062 -0.0029  0.2585
  578MPD2     C 8567   2.313   0.489   0.761  0.2364  0.6648 -0.3734
  578MPD2    C1 8568   2.333   0.371   0.696  0.1510 -0.8802  0.1883
  578MPD2    C2 8569   2.345   0.254   0.772 -0.3643  0.0242 -0.3902
  578MPD2    C3 8570   2.315   0.259   0.907 -0.1207 -0.5008  0.7169
  578MPD2    C4 8571   2.285   0.375   0.976  0.8927 -0.1182 -0.0146
  578MPD2    C5 8572   2.282   0.489   0.894  0.3638 -0.0744 -0.7549
  578MPD2     H 8573   2.351   0.156   0.725 -0.1308  0.5408 -1.4359
  578MPD2    H1 8574   2.255   0.392   1.079  0.3109 -1.1133 -0.0177
  578MPD2    H2 8575   2.316   0.582   0.707  3.2960 -0.2818 -1.8438
  578MPD2    H3 8576   2.248   0.584   0.934 -0.2339 -0.7736  0.3936
  578MPD2     N 8577   2.324   0.134   0.977  0.0501 -0.1790 -0.3720
  578MPD2    H5 8578   2.355   0.056   0.919  1.3112  0.4572 -0.5699
  578MPD2    N1 8579   2.356   0.371   0.551  0.3655  0.0931 -0.7505
  578MPD2    H7 8580   2.346   0.465   0.515 -0.7950 -0.5964 -2.2603
  579TMC3    C1 8581   2.346   4.710   1.162 -0.4683 -0.2728 -0.4198
  579TMC3    C2 8582   2.362   4.698   1.295  0.3360  0.2713  0.3021
  579TMC3    C3 8583   2.382   4.572   1.345 -0.2455 -0.1897  0.1835
  579TMC3    C4 8584   2.349   4.602   1.070 -0.5899 -0.8905 -0.1231
  579TMC3    C5 8585   2.385   4.482   1.131 -0.3385  0.3366  0.0669
  579TMC3    C6 8586   2.399   4.460   1.265  0.2369 -0.4840 -0.1380
  579TMC3     C 8587   2.299   0.113   1.111  0.0706  0.0679 -0.2358
  579TMC3     O 8588   2.256   0.187   1.199 -0.4052  0.0112  0.1638
  579TMC3     H 8589   2.353   0.058   1.362  0.8116 -0.0291  0.7491
  579TMC3    H1 8590   2.315   4.607   0.967  1.1747 -1.9331 -0.7521
  579TMC3    H2 8591   2.395   4.366   1.318  0.6008 -1.0684 -1.1521
  579TMC3    C7 8592   2.414   4.355   1.057 -0.1498  0.1551 -0.7335
  579TMC3    C8 8593   2.397   4.573   1.493 -0.3967 -0.2006 -0.2257
  579TMC3    O1 8594   2.482   4.271   1.113 -0.2987  0.6072 -0.3914
  579TMC3    O2 8595   2.362   4.668   1.558 -0.0669  0.1850  0.3361
  580TMC3    C1 8596   2.689   4.646  11.751 -0.5192  0.3843  0.0364
  580TMC3    C2 8597   2.780   4.616  11.648  0.2492  0.2696  0.5430
  580TMC3    C3 8598   2.834   4.486  11.649 -0.2980 -0.3556 -0.4223
  580TMC3    C4 8599   2.662   4.554  11.848 -0.0096 -0.1255  0.3153
  580TMC3    C5 8600   2.721   4.426  11.838 -0.4015 -0.5088 -0.0359
  580TMC3    C6 8601   2.805   4.389  11.740  0.7346 -0.6086  0.4679
  580TMC3     C 8602   2.609   0.040  11.735 -0.9868 -0.6073 -0.2527
  580TMC3     O 8603   2.662   0.129  11.668  0.2242 -0.5137  0.5856
  580TMC3     H 8604   2.812   4.703  11.591  1.9001  0.3283  1.5682
  580TMC3    H1 8605   2.605   4.588  11.934  0.6461 -0.4794  0.8916
  580TMC3    H2 8606   2.868   4.303  11.755  1.0588 -0.2947  0.8788
  580TMC3    C7 8607   2.689   4.331  11.943 -0.4396  0.0902  0.3217
  580TMC3    C8 8608   2.937   4.454  11.548  0.2719  0.5592  0.1408
  580TMC3    O1 8609   2.652   4.375  12.053  0.1382  0.1360 -0.2902
  580TMC3    O2 8610   2.959   4.335  11.521 -0.1981  0.5946 -0.0680
  581MPD2     C 8611   4.383   4.069  14.470  0.0640 -0.3355  0.6048
  581MPD2    C1 8612   4.371   4.083  14.603 -0.5775 -0.2156  0.0903
  581MPD2    C2 8613   4.242   4.096  14.659 -1.0468 -0.5544 -0.2964
  581MPD2    C3 8614   4.132   4.086  14.580  0.2128  0.2086  0.5159
  581MPD2    C4 8615   4.146   4.060  14.444 -0.6256  0.1575  0.2141
  581MPD2    C5 8616   4.273   4.054  14.392  0.1248 -0.1947  0.2241
  581MPD2     H 8617   4.231   4.124  14.763 -1.8703 -1.2872 -0.1901
  581MPD2    H1 8618   4.061   4.059  14.377  0.8821  2.3706 -1.7923
  581MPD2    H2 8619   4.479   4.047  14.424 -0.1142  1.3446 -0.5495
  581MPD2    H3 8620   4.277   4.039  14.284 -0.4047 -1.2675  0.3593
  581MPD2     N 8621   4.003   4.107  14.637 -0.4076 -0.2729  0.1720
  581MPD2    H5 8622   3.993   4.155  14.725  0.8889 -0.4653  0.4318
  581MPD2    N1 8623   4.496   4.076  14.666 -0.2783  0.4604 -0.2132
  581MPD2    H7 8624   4.579   4.061  14.610 -2.6095 -1.2641 -3.2444
  582TMC3    C1 8625   4.637   3.998  14.850 -0.2329  1.2180  0.2793
  582TMC3    C2 8626   4.646   3.999  14.985 -0.5810 -0.2166  0.4366
  582TMC3    C3 8627   4.672   3.877  15.045  0.1087  0.4773 -0.0642
  582TMC3    C4 8628   4.644   3.883  14.776 -0.1569  0.0222 -0.4071
  582TMC3    C5 8629   4.661   3.760  14.842  0.0540 -0.3271 -0.4330
  582TMC3    C6 8630   4.667   3.760  14.978 -0.0980 -0.6906 -0.6566
  582TMC3     C 8631   4.516   4.076  14.802  0.4833 -0.3061 -0.0013
  582TMC3     O 8632   4.446   4.117  14.892  0.3215  0.0034 -0.5781
  582TMC3     H 8633   4.637   4.090  15.043  0.2149 -0.3537  0.7657
  582TMC3    H1 8634   4.631   3.890  14.669  0.9556 -1.0156 -0.6048
  582TMC3    H2 8635   4.675   3.666  15.031  2.6097 -0.7179 -1.1514
  582TMC3    C7 8636   4.563   3.674  14.792  1.4577 -0.1765 -0.1031
  582TMC3    C8 8637   4.690   3.876  15.188  0.2307  0.2734  0.7828
  582TMC3    O1 8638   4.562   3.665  14.669 -0.5048  0.3870 -0.5532
  582TMC3    O2 8639   4.660   3.982  15.242  0.2517 -0.1500 -0.0978
  583MPD2     C 8640   4.321   0.801  16.606 -0.1156 -0.3733  0.2971
  583MPD2    C1 8641   4.301   0.925  16.553 -0.1337  0.4733 -0.2306
  583MPD2    C2 8642   4.259   1.025  16.639  0.4533 -0.1106 -0.6346
  583MPD2    C3 8643   4.237   0.999  16.777  0.8829 -0.7518  0.1995
  583MPD2    C4 8644   4.266   0.868  16.823  0.2443 -0.7318  0.3292
  583MPD2    C5 8645   4.314   0.771  16.741 -0.4445  0.0682 -0.2149
  583MPD2     H 8646   4.235   1.122  16.596  1.4857  0.8891  1.0677
  583MPD2    H1 8647   4.255   0.837  16.926  0.7064  0.0501  0.6161
  583MPD2    H2 8648   4.354   0.718  16.543 -0.2295 -0.1437 -0.0636
  583MPD2    H3 8649   4.337   0.673  16.781  1.7660  0.8070  0.3203
  583MPD2     N 8650   4.177   1.102  16.857 -0.2906 -0.7685 -0.1364
  583MPD2    H5 8651   4.153   1.190  16.812  0.1414  0.7242  2.5665
  583MPD2    N1 8652   4.313   0.941  16.414 -0.9177  0.0326 -0.5856
  583MPD2    H7 8653   4.352   0.865  16.359 -1.4981  0.0083 -0.9541
  584TMC3    C1 8654   4.057   1.201  17.033  0.2247  0.7486 -0.1005
  584TMC3    C2 8655   4.081   1.328  16.987 -0.3002  0.1494  0.2266
  584TMC3    C3 8656   4.044   1.438  17.061 -0.1209  0.7641 -0.0290
  584TMC3    C4 8657   4.007   1.186  17.162 -0.2619 -0.6874  0.0767
  584TMC3    C5 8658   3.976   1.295  17.237 -0.1741  0.4368  0.1556
  584TMC3    C6 8659   3.989   1.423  17.186 -0.5504 -0.2076  0.3377
  584TMC3     C 8660   4.122   1.082  16.974  0.5617 -0.0430 -0.4491
  584TMC3     O 8661   4.109   0.980  17.039  0.2770  0.0967  0.0518
  584TMC3     H 8662   4.106   1.351  16.884  4.2142 -2.3536  0.7683
  584TMC3    H1 8663   3.992   1.088  17.206  0.2849 -1.4163 -1.3667
  584TMC3    H2 8664   3.953   1.509  17.242 -3.2338 -1.3827  0.4117
  584TMC3    C7 8665   3.959   1.261  17.378  0.6490 -0.8546  0.2608
  584TMC3    C8 8666   3.985   1.549  16.980 -0.6952 -0.6624  0.0099
  584TMC3    O1 8667   3.940   1.143  17.403  0.0675 -0.1942 -0.4557
  584TMC3    O2 8668   3.951   1.523  16.866  0.3556 -0.1371 -0.7121
  585MPD2     C 8669   3.304   3.941   0.754 -0.8508  0.3320  0.3667
  585MPD2    C1 8670   3.440   3.945   0.736  0.8111  0.0116 -0.3390
  585MPD2    C2 8671   3.481   3.982   0.614 -0.0638  0.8701 -0.4240
  585MPD2    C3 8672   3.402   4.026   0.517  0.5793  0.9069  0.3261
  585MPD2    C4 8673   3.260   4.034   0.539 -0.3489  0.4634  1.2092
  585MPD2    C5 8674   3.219   3.987   0.658  0.1829  0.1737  0.7038
  585MPD2     H 8675   3.586   3.966   0.596 -0.1210 -0.8528  0.7457
  585MPD2    H1 8676   3.188   4.066   0.465  1.5861  1.1359 -0.3730
  585MPD2    H2 8677   3.261   3.896   0.843  1.7031 -0.6788  1.1035
  585MPD2    H3 8678   3.112   3.976   0.670  0.0404  1.5329  0.6673
  585MPD2     N 8679   3.446   4.072   0.385  0.3903  0.1533  0.2291
  585MPD2    H5 8680   3.381   4.116   0.321 -1.0053 -0.4420  1.2212
  585MPD2    N1 8681   3.522   3.903   0.843  0.1781  0.5235  0.3116
  585MPD2    H7 8682   3.479   3.871   0.929 -2.0399  1.5719 -0.4262
  586TMC3    C1 8683   3.593   4.103   0.209 -0.4422  0.2513  0.3192
  586TMC3    C2 8684   3.710   4.069   0.151 -0.4771  0.3892 -0.6139
  586TMC3    C3 8685   3.741   4.129   0.031  0.0447  0.3371 -0.6238
  586TMC3    C4 8686   3.518   4.208   0.154 -0.1034 -0.3955 -0.1697
  586TMC3    C5 8687   3.559   4.276   0.042  0.3385  0.1266  0.2442
  586TMC3    C6 8688   3.669   4.228  17.679 -0.9161 -0.2468 -0.1718
  586TMC3     C 8689   3.572   4.056   0.341  0.3961  0.1887 -0.7546
  586TMC3     O 8690   3.666   4.000   0.393  0.0996  0.5668 -0.3570
  586TMC3     H 8691   3.775   3.993   0.193  0.5225  1.5675 -0.0204
  586TMC3    H1 8692   3.432   4.245   0.209  0.4639 -1.4070  1.4040
  586TMC3    H2 8693   3.706   4.274  17.587  0.8553  0.4212  0.8692
  586TMC3    C7 8694   3.450   4.287  17.654 -0.2805  0.1950 -0.4069
  586TMC3    C8 8695   3.773   4.023  17.631 -0.4374  0.5000 -0.2034
  586TMC3    O1 8696   3.351   4.218  17.687  0.3887  0.3642 -0.4179
  586TMC3    O2 8697   3.753   3.910  17.671 -0.0721  0.1058  0.2828
  587TMC3    C1 8698   0.931   2.946  16.155 -0.1102  0.0928  0.2419
  587TMC3    C2 8699   0.909   3.072  16.128  0.4949 -0.6927  0.4248
  587TMC3    C3 8700   1.020   3.153  16.130 -0.1811  0.4054 -0.1383
  587TMC3    C4 8701   1.059   2.902  16.158  0.5475 -0.7805 -1.3218
  587TMC3    C5 8702   1.168   2.986  16.135  0.2636  0.6829  0.1251
  587TMC3    C6 8703   1.151   3.119  16.132 -0.1911 -0.6800 -0.3399
  587TMC3     C 8704   0.821   2.853  16.175 -0.2482 -0.3007  0.8668
  587TMC3     O 8705   0.846   2.733  16.179 -0.0622  0.1131  0.1454
  587TMC3     H 8706   0.812   3.105  16.092  0.5282  1.7198  2.4845
  587TMC3    H1 8707   1.071   2.796  16.181  0.6633 -0.3151  0.7380
  587TMC3    H2 8708   1.228   3.195  16.132 -0.3609 -0.5011  0.5589
  587TMC3    C7 8709   1.300   2.931  16.119 -0.2734 -0.2055  0.5684
  587TMC3    C8 8710   0.990   3.291  16.122  0.2583  0.0224 -0.1657
  587TMC3    O1 8711   1.391   3.007  16.137 -0.3301 -0.0703 -0.6584
  587TMC3    O2 8712   1.080   3.368  16.081  0.2645 -0.5170 -0.7410
  588TMC3    C1 8713   4.167   1.648   9.398  0.3144  0.1023  0.4101
  588TMC3    C2 8714   4.132   1.516   9.424 -0.5034  0.0363  1.0070
  588TMC3    C3 8715   4.228   1.426   9.446  0.7228  0.2664 -0.0168
  588TMC3    C4 8716   4.301   1.681   9.405 -0.0710 -0.1209 -0.2388
  588TMC3    C5 8717   4.395   1.581   9.422  0.4090  0.7837 -0.1922
  588TMC3    C6 8718   4.363   1.451   9.447 -0.0574  0.3074 -0.5061
  588TMC3     C 8719   4.077   1.755   9.428  0.2126 -0.0219  0.2155
  588TMC3     O 8720   3.959   1.746   9.395 -0.1616  0.3669 -0.0200
  588TMC3     H 8721   4.028   1.485   9.426 -0.2006 -1.1530 -1.1367
  588TMC3    H1 8722   4.336   1.781   9.385 -0.1941  0.5197  2.8075
  588TMC3    H2 8723   4.434   1.373   9.476 -0.4870 -0.1841 -0.7724
  588TMC3    C7 8724   4.537   1.619   9.428  0.8364  0.2692 -0.0028
  588TMC3    C8 8725   4.189   1.283   9.433 -0.6480  0.3381 -0.0228
  588TMC3    O1 8726   4.616   1.540   9.382 -0.4337 -0.8044  0.1265
  588TMC3    O2 8727   4.081   1.263   9.378 -0.5479 -0.5497 -1.0629
  589TMC3    C1 8728   2.304   3.312   1.130 -0.2612 -0.5928 -0.3626
  589TMC3    C2 8729   2.317   3.244   1.251 -0.3156 -0.0516  0.4332
  589TMC3    C3 8730   2.412   3.142   1.248  0.9650 -0.3219 -0.4825
  589TMC3    C4 8731   2.351   3.260   1.013 -0.4184 -0.3768  0.1590
  589TMC3    C5 8732   2.418   3.142   1.017 -0.7833  0.1223  0.1528
  589TMC3    C6 8733   2.451   3.083   1.133  0.1483  0.0898  0.1689
  589TMC3     C 8734   2.217   3.426   1.121  0.0679 -0.2190  0.1005
  589TMC3     O 8735   2.223   3.503   1.028 -0.0798 -0.3084  0.0923
  589TMC3     H 8736   2.291   3.280   1.350 -0.3763  1.6502 -0.2074
  589TMC3    H1 8737   2.321   3.305   0.919 -2.2585 -1.7447  0.0878
  589TMC3    H2 8738   2.510   2.992   1.129  1.0790  0.7917 -2.7731
  589TMC3    C7 8739   2.436   3.051   0.901 -0.2062  0.0019  0.9190
  589TMC3    C8 8740   2.429   3.062   1.369  0.6731  0.9832  0.3787
  589TMC3    O1 8741   2.528   2.965   0.914  0.2175 -0.5694  0.0736
  589TMC3    O2 8742   2.343   3.084   1.454  0.7525 -0.1971  0.1068
  590MPD2     C 8743   1.740   1.681  16.606 -0.7848  0.1692 -1.0107
  590MPD2    C1 8744   1.681   1.699  16.482 -0.3010  0.6885 -0.2202
  590MPD2    C2 8745   1.760   1.747  16.382  0.0847  0.2344 -0.2230
  590MPD2    C3 8746   1.898   1.759  16.397  0.6868 -1.0813 -0.1550
  590MPD2    C4 8747   1.951   1.746  16.521 -1.0915  0.2064  0.3202
  590MPD2    C5 8748   1.876   1.709  16.621 -0.2890  0.1222  0.4113
  590MPD2     H 8749   1.717   1.766  16.284 -1.6981  2.1595  0.9288
  590MPD2    H1 8750   2.056   1.759  16.543 -0.4865 -1.4684 -1.5338
  590MPD2    H2 8751   1.678   1.650  16.690  0.4365 -1.1228 -0.5867
  590MPD2    H3 8752   1.911   1.707  16.723  0.3686 -2.0315  0.1512
  590MPD2     N 8753   1.981   1.776  16.277  0.3907  0.5798 -0.1523
  590MPD2    H5 8754   1.930   1.762  16.191 -1.2128  0.3980  0.8292
  590MPD2    N1 8755   1.546   1.664  16.474  0.2336 -1.0464 -0.0769
  590MPD2    H7 8756   1.491   1.645  16.557  0.2407  2.8502  0.8213
  591TMC3    C1 8757   2.155   1.844  16.139  0.1557  0.1351 -0.0410
  591TMC3    C2 8758   2.283   1.810  16.095 -0.1384 -0.3881 -0.6092
  591TMC3    C3 8759   2.330   1.868  15.983 -0.3017  0.8219  0.0498
  591TMC3    C4 8760   2.075   1.936  16.073 -0.1112 -0.2403  0.6901
  591TMC3    C5 8761   2.128   1.991  15.959  0.7530 -0.1131  0.2364
  591TMC3    C6 8762   2.253   1.954  15.914  0.5606  0.4027  0.3070
  591TMC3     C 8763   2.113   1.805  16.271  0.4981  0.0607 -0.7309
  591TMC3     O 8764   2.196   1.793  16.361 -0.3401 -0.2301 -0.1140
  591TMC3     H 8765   2.341   1.746  16.160 -0.0676  1.1065  0.8054
  591TMC3    H1 8766   1.978   1.976  16.103 -0.2855  0.1113 -0.3227
  591TMC3    H2 8767   2.290   1.982  15.816  2.2102  2.7632  1.6150
  591TMC3    C7 8768   2.055   2.095  15.889  0.2090  0.5569  0.2320
  591TMC3    C8 8769   2.438   1.795  15.921  0.1949  0.4758  0.1026
  591TMC3    O1 8770   1.931   2.114  15.902  0.4096 -0.0770  0.6842
  591TMC3    O2 8771   2.468   1.685  15.959  0.1574  0.4066 -0.4391
  592MPD2     C 8772   3.267   4.080  10.934 -0.7825 -0.3751 -0.3318
  592MPD2    C1 8773   3.320   4.081  11.060  1.1474  0.0736  0.4804
  592MPD2    C2 8774   3.268   3.994  11.152 -0.9634 -0.0510 -0.2989
  592MPD2    C3 8775   3.165   3.903  11.127  0.1974 -0.5331  0.5419
  592MPD2    C4 8776   3.117   3.908  10.998  0.1313 -0.2590 -0.1850
  592MPD2    C5 8777   3.158   4.002  10.903 -0.2367 -0.1723  0.0185
  592MPD2     H 8778   3.307   3.999  11.253 -0.9064 -2.2946 -0.2205
  592MPD2    H1 8779   3.034   3.845  10.967 -0.8899  0.3228  1.3236
  592MPD2    H2 8780   3.297   4.147  10.854  1.1499  0.3076  0.9701
  592MPD2    H3 8781   3.105   4.014  10.809  0.1650 -1.8295 -0.4247
  592MPD2     N 8782   3.092   3.829  11.225  0.4965  0.2800 -0.1955
  592MPD2    H5 8783   2.997   3.800  11.205  1.2636 -2.5805  0.3241
  592MPD2    N1 8784   3.413   4.187  11.091  0.3779 -0.3178 -0.3661
  592MPD2    H7 8785   3.446   4.241  11.012  0.3423  1.7108  1.0112
  593TMC3    C1 8786   3.552   4.334  11.217  0.4345 -0.3401 -0.5450
  593TMC3    C2 8787   3.604   4.358  11.339 -0.5396 -0.3205  0.4524
  593TMC3    C3 8788   3.693   4.463  11.357 -0.4377  0.1884 -0.5433
  593TMC3    C4 8789   3.588   4.416  11.106  0.5484 -0.3350  0.6299
  593TMC3    C5 8790   3.679   4.511  11.129 -0.3286  0.3856 -0.9278
  593TMC3    C6 8791   3.726   4.545  11.256 -0.7967 -0.5612 -0.1632
  593TMC3     C 8792   3.463   4.222  11.215  0.1045 -1.0378  0.0172
  593TMC3     O 8793   3.433   4.167  11.322 -0.4052 -0.2786  0.2238
  593TMC3     H 8794   3.573   4.299  11.424  2.0621 -2.8995 -0.3724
  593TMC3    H1 8795   3.576   4.378  11.005  3.0464  1.0986 -0.1976
  593TMC3    H2 8796   3.795   4.629  11.261 -1.0503 -0.2200 -2.1614
  593TMC3    C7 8797   3.713   4.606  11.026  0.1658  0.7138 -0.4818
  593TMC3    C8 8798   3.733   4.508  11.489 -0.4271  0.4027  0.0445
  593TMC3    O1 8799   3.819   4.664  11.048  0.5228 -0.3802  0.6489
  593TMC3    O2 8800   3.766   4.625  11.500  0.1953 -0.1398  0.2076
  594MPD2     C 8801   1.162   2.443  14.974  0.1222  0.0696 -0.3672
  594MPD2    C1 8802   1.121   2.518  14.867  0.0478 -0.4670 -0.5496
  594MPD2    C2 8803   1.211   2.572  14.778 -0.1221 -0.2548 -0.3102
  594MPD2    C3 8804   1.345   2.559  14.802  0.4394  0.4687  0.3211
  594MPD2    C4 8805   1.389   2.498  14.920 -0.6050  0.0864 -0.0237
  594MPD2    C5 8806   1.292   2.437  14.993  0.7190  0.6225  0.6596
  594MPD2     H 8807   1.175   2.600  14.680  0.5846 -1.7609 -0.9976
  594MPD2    H1 8808   1.495   2.488  14.941 -0.4355 -1.1217 -1.4898
  594MPD2    H2 8809   1.090   2.382  15.027  0.9847 -0.4168  0.2555
  594MPD2    H3 8810   1.332   2.370  15.067  2.0556 -1.6528 -2.1179
  594MPD2     N 8811   1.442   2.599  14.701 -0.6498  0.7729 -0.2327
  594MPD2    H5 8812   1.409   2.646  14.617  0.8640  2.0050 -0.1330
  594MPD2    N1 8813   0.984   2.513  14.844 -0.1323 -0.4010  0.1918
  594MPD2    H7 8814   0.923   2.479  14.918 -0.9663  2.1713  0.6569
  595TMC3    C1 8815   1.845   2.726  14.510 -0.3684 -0.5221  0.2863
  595TMC3    C2 8816   1.778   2.624  14.581  0.0734 -0.4457 -0.6648
  595TMC3    C3 8817   1.641   2.642  14.589  0.3709  0.5454 -0.2131
  595TMC3    C4 8818   1.786   2.836  14.459  0.4107  0.5619 -0.3887
  595TMC3    C5 8819   1.653   2.846  14.471 -0.0421 -1.0277 -0.8527
  595TMC3    C6 8820   1.577   2.752  14.535  0.1860  0.2548  0.2108
  595TMC3     C 8821   1.980   2.694  14.474  0.7543  0.3652  0.5178
  595TMC3     O 8822   2.041   2.630  14.557 -0.4748  0.1868  0.4069
  595TMC3     H 8823   1.821   2.538  14.631 -0.4625 -1.0252 -1.2100
  595TMC3    H1 8824   1.845   2.911  14.407  0.5976  0.4399 -0.3491
  595TMC3    H2 8825   1.474   2.780  14.555 -0.6659 -1.1429 -2.1580
  595TMC3    C7 8826   1.584   2.975  14.449 -0.2829  0.0690 -0.1690
  595TMC3    C8 8827   1.574   2.573  14.704 -0.1535 -0.4999  0.6188
  595TMC3    O1 8828   1.460   2.964  14.439  0.2839 -0.0141  0.2188
  595TMC3    O2 8829   1.635   2.487  14.759 -0.1884 -0.6867  0.4741
  596MPD2     C 8830   0.279   0.308  16.522 -0.1901 -0.8315  0.1511
  596MPD2    C1 8831   0.262   0.445  16.506  0.1699 -0.1556 -0.6802
  596MPD2    C2 8832   0.243   0.496  16.379 -0.3084 -0.3239 -0.8520
  596MPD2    C3 8833   0.259   0.417  16.266  0.8184 -0.4245 -0.1413
  596MPD2    C4 8834   0.284   0.286  16.280  0.1091  0.2336  0.2297
  596MPD2    C5 8835   0.287   0.230  16.409  0.0133  0.8373 -0.9351
  596MPD2     H 8836   0.239   0.603  16.360 -1.9849  0.0652  1.5728
  596MPD2    H1 8837   0.304   0.222  16.195 -2.2070 -0.2702  0.0662
  596MPD2    H2 8838   0.315   0.272  16.617  0.6118  1.8571  0.8771
  596MPD2    H3 8839   0.311   0.125  16.424 -3.9640 -0.0779 -1.0167
  596MPD2     N 8840   0.255   0.458  16.134 -0.0367  0.0024 -0.5786
  596MPD2    H5 8841   0.276   0.385  16.066  2.7536 -0.2515  0.5171
  596MPD2    N1 8842   0.270   0.539  16.613 -1.0381  0.0026 -0.6123
  596MPD2    H7 8843   0.279   0.635  16.579  1.2273  0.7822  2.1655
  597TMC3    C1 8844   0.304   0.625  16.838  0.5414  0.5925  0.1960
  597TMC3    C2 8845   0.282   0.754  16.794  0.3564  0.3479  0.3922
  597TMC3    C3 8846   0.338   0.858  16.869  0.1263  0.1310 -0.3197
  597TMC3    C4 8847   0.380   0.607  16.946  0.6587 -0.2536 -0.3168
  597TMC3    C5 8848   0.430   0.706  17.023 -0.1064 -0.0001  1.1970
  597TMC3    C6 8849   0.416   0.834  16.981  0.2008 -0.3755  0.7123
  597TMC3     C 8850   0.289   0.511  16.747  0.5785 -0.0185 -0.3383
  597TMC3     O 8851   0.291   0.406  16.810  0.0725  0.1214  0.0024
  597TMC3     H 8852   0.220   0.779  16.708  0.4495 -3.7034 -0.8323
  597TMC3    H1 8853   0.393   0.504  16.977  2.5827  0.0522 -0.1067
  597TMC3    H2 8854   0.455   0.922  17.031 -1.1105  0.4025  0.3454
  597TMC3    C7 8855   0.440   0.687  17.168 -0.8861 -0.3697 -0.0080
  597TMC3    C8 8856   0.326   0.997  16.830 -0.3698  0.4996 -0.2998
  597TMC3    O1 8857   0.385   0.589  17.216  0.5678 -0.2852 -0.1477
  597TMC3    O2 8858   0.344   1.080  16.919  0.4519  0.1379 -0.5016
  598TMC3    C1 8859   3.448   2.225  15.151 -1.0807  0.2219 -0.3883
  598TMC3    C2 8860   3.350   2.138  15.134 -0.4294 -0.1653  0.6152
  598TMC3    C3 8861   3.252   2.167  15.038  0.2747  0.8694 -1.0965
  598TMC3    C4 8862   3.463   2.339  15.078 -0.1615 -0.0722  0.5143
  598TMC3    C5 8863   3.383   2.347  14.972  0.0346  0.7162 -0.0049
  598TMC3    C6 8864   3.269   2.270  14.952 -0.9189 -0.3214  0.2853
  598TMC3     C 8865   3.526   2.211  15.279  0.7453  0.6230 -0.0228
  598TMC3     O 8866   3.482   2.145  15.370 -0.1358 -0.0759  0.7124
  598TMC3     H 8867   3.347   2.047  15.192 -0.1529 -0.9894 -0.6560
  598TMC3    H1 8868   3.528   2.423  15.102  1.2134 -0.8509 -0.4844
  598TMC3    H2 8869   3.214   2.279  14.858  2.3615 -0.7515 -1.6717
  598TMC3    C7 8870   3.414   2.443  14.863 -0.4138 -0.3795  0.7059
  598TMC3    C8 8871   3.154   2.068  15.001  0.6741 -0.2119  0.1541
  598TMC3    O1 8872   3.373   2.423  14.747  0.0845 -0.2628  0.0793
  598TMC3    O2 8873   3.118   2.066  14.886  0.9433  0.7848 -0.3050
  599MPD2     C 8874   3.538   0.202  15.933  0.1412 -0.1493  0.5670
  599MPD2    C1 8875   3.512   0.069  15.943 -0.0765  0.0951 -0.1604
  599MPD2    C2 8876   3.388   0.024  15.987  0.1992  0.4106 -0.0382
  599MPD2    C3 8877   3.290   0.112  16.020  0.4466 -0.6497 -0.1076
  599MPD2    C4 8878   3.316   0.245  15.999 -0.1767  0.3630 -0.3656
  599MPD2    C5 8879   3.437   0.294  15.958  0.5907 -0.6497 -0.9738
  599MPD2     H 8880   3.368   4.644  16.009 -4.1183  0.7576 -2.3803
  599MPD2    H1 8881   3.237   0.314  16.026  0.4188  0.5828  0.8142
  599MPD2    H2 8882   3.639   0.235  15.911  0.9383 -1.9227  1.5817
  599MPD2    H3 8883   3.462   0.399  15.945  0.8984 -0.4835  0.9290
  599MPD2     N 8884   3.174   0.082  16.076  0.2181  0.5240 -0.0473
  599MPD2    H5 8885   3.120   0.164  16.103  0.2695  0.0562  1.5258
  599MPD2    N1 8886   3.625   4.708  15.901  0.1190  0.3269  0.1303
  599MPD2    H7 8887   3.710   0.025  15.864 -0.0207 -0.5043 -1.1273
  600TMC3    C1 8888   2.993   4.690  16.184 -0.0674  0.4633 -0.2612
  600TMC3    C2 8889   2.904   4.581  16.173  0.0074 -0.1505  0.6841
  600TMC3    C3 8890   2.810   4.555  16.265 -0.4713  0.0719  0.2057
  600TMC3    C4 8891   2.987   0.053  16.291  0.4519 -0.0935  0.0844
  600TMC3    C5 8892   2.895   0.022  16.389  0.3997 -0.3247  0.3474
  600TMC3    C6 8893   2.805   4.639  16.378 -0.0065  0.6258  0.5980
  600TMC3     C 8894   3.114   4.681  16.098 -0.2812  0.9893 -0.2938
  600TMC3     O 8895   3.137   4.573  16.053 -0.2216  0.2440  0.3830
  600TMC3     H 8896   2.929   4.512  16.094  1.0116 -0.6624  1.4632
  600TMC3    H1 8897   3.061   0.129  16.314 -2.2517  1.9449  1.9759
  600TMC3    H2 8898   2.754   4.604  16.468  2.9646 -0.0518  2.0199
  600TMC3    C7 8899   2.911   0.084  16.518  0.4638 -0.1144  0.5942
  600TMC3    C8 8900   2.791   4.413  16.287 -0.1575  0.0175 -0.2655
  600TMC3    O1 8901   2.809   0.089  16.584 -0.3272 -0.0405 -0.0132
  600TMC3    O2 8902   2.865   4.370  16.377 -0.4116  0.0994  0.8829
  601MPD2     C 8903   0.646   2.445   0.100  0.3217  0.4152  0.4106
  601MPD2    C1 8904   0.513   2.449   0.121 -0.2177 -0.1093  0.0517
  601MPD2    C2 8905   0.460   2.395   0.239 -0.5825 -0.2477  0.0107
  601MPD2    C3 8906   0.540   2.354   0.341  0.3850 -0.0658  0.5394
  601MPD2    C4 8907   0.675   2.359   0.319  0.1692 -0.1079 -0.0474
  601MPD2    C5 8908   0.731   2.404   0.197  0.1684 -0.4853  0.3824
  601MPD2     H 8909   0.353   2.399   0.253 -0.4974 -1.7874  1.1100
  601MPD2    H1 8910   0.735   2.335   0.406  1.7501 -2.5238 -1.8026
  601MPD2    H2 8911   0.695   2.486   0.012  0.6306  0.1482  0.4610
  601MPD2    H3 8912   0.839   2.414   0.186 -0.0328 -0.5729 -1.7654
  601MPD2     N 8913   0.496   2.324   0.473 -0.8843 -0.4627 -0.5582
  601MPD2    H5 8914   0.570   2.304   0.540  0.2053  1.1795 -1.2549
  601MPD2    N1 8915   0.421   2.501   0.027 -0.0168  0.3650  0.0235
  601MPD2    H7 8916   0.322   2.489   0.048 -0.0585 -0.1441 -0.4520
  602TMC3    C1 8917   0.335   2.628  17.556 -0.8644  0.4753  0.3216
  602TMC3    C2 8918   0.237   2.669  17.637 -0.1238 -0.0331 -0.1298
  602TMC3    C3 8919   0.162   2.780  17.594 -0.1457 -0.3252  0.0626
  602TMC3    C4 8920   0.357   2.678  17.431  0.0818  0.7175 -0.5412
  602TMC3    C5 8921   0.270   2.777  17.386  0.1862  0.5862 -0.0041
  602TMC3    C6 8922   0.175   2.832  17.468  0.0039 -0.4306  0.4300
  602TMC3     C 8923   0.454   2.578  17.618  0.3008 -0.2292 -0.7020
  602TMC3     O 8924   0.567   2.598  17.573  0.1001  0.1992 -0.6194
  602TMC3     H 8925   0.228   2.641   0.042 -0.5089  1.5895  0.2742
  602TMC3    H1 8926   0.428   2.640  17.359  1.0512  1.9871 -0.2643
  602TMC3    H2 8927   0.109   2.912  17.436 -0.2284 -0.9315 -0.3368
  602TMC3    C7 8928   0.245   2.778  17.243 -0.4447 -0.1006 -0.5483
  602TMC3    C8 8929   0.044   2.805  17.677  0.3439 -0.1301 -0.3104
  602TMC3    O1 8930   0.335   2.732  17.174  0.2406 -0.0855 -0.5491
  602TMC3    O2 8931   0.014   2.713   0.051 -0.5039 -0.1894 -0.4106
  603TMC3    C1 8932   4.023   3.125  10.168 -0.0460 -0.4063  0.3192
  603TMC3    C2 8933   3.996   3.139  10.303  0.3345 -0.2256  0.0865
  603TMC3    C3 8934   3.954   3.262  10.342  0.4743 -0.7407  0.0748
  603TMC3    C4 8935   3.987   3.225  10.079  0.0335 -0.1966  0.5688
  603TMC3    C5 8936   3.955   3.346  10.124 -0.1717 -0.0498 -0.4918
  603TMC3    C6 8937   3.936   3.371  10.261  1.1560 -0.3427  0.3508
  603TMC3     C 8938   4.085   2.993  10.137 -0.3561  0.4948  0.0755
  603TMC3     O 8939   4.085   2.913  10.229  0.1747  0.0880 -0.2937
  603TMC3     H 8940   3.999   3.058  10.376 -2.1782  0.2710  0.7249
  603TMC3    H1 8941   3.997   3.215   9.971  0.2467 -0.8729  0.6509
  603TMC3    H2 8942   3.935   3.474  10.295  1.1530  0.0110 -0.7338
  603TMC3    C7 8943   3.950   3.458  10.031 -0.4336 -0.5184 -0.2525
  603TMC3    C8 8944   3.954   3.279  10.483 -1.1257  0.3349 -0.5560
  603TMC3    O1 8945   4.024   3.450   9.929 -0.4808  0.4625  0.0386
  603TMC3    O2 8946   4.003   3.197  10.556  0.5149  0.0314  0.2527
  604MPD2     C 8947   4.106   1.451  15.912 -0.6032  0.7444 -0.5464
  604MPD2    C1 8948   4.127   1.580  15.945  0.5434 -0.2818 -0.8611
  604MPD2    C2 8949   4.191   1.664  15.856 -0.3487  0.2395 -0.2202
  604MPD2    C3 8950   4.245   1.613  15.735  0.2881 -1.0524  0.3903
  604MPD2    C4 8951   4.209   1.486  15.695 -0.0068  0.5080 -0.2395
  604MPD2    C5 8952   4.143   1.406  15.784  0.1932  0.3161 -0.2931
  604MPD2     H 8953   4.197   1.769  15.883  0.3655  0.2523 -0.4483
  604MPD2    H1 8954   4.231   1.448  15.596 -0.2461 -0.5680  0.1169
  604MPD2    H2 8955   4.049   1.385  15.976  1.4825 -1.0176 -0.4630
  604MPD2    H3 8956   4.119   1.302  15.767  0.0788  0.3979 -0.6383
  604MPD2     N 8957   4.318   1.708  15.655 -0.0867 -0.4712 -0.1720
  604MPD2    H5 8958   4.309   1.801  15.694  0.1107 -0.6864  0.3845
  604MPD2    N1 8959   4.076   1.621  16.069  0.0540 -0.1976 -0.2617
  604MPD2    H7 8960   4.027   1.551  16.123  1.0902  0.3863  1.4368
  605TMC3    C1 8961   4.004   1.736  16.248  0.5253 -0.1559 -0.1561
  605TMC3    C2 8962   4.030   1.835  16.334  0.0849 -0.3892  0.1139
  605TMC3    C3 8963   3.954   1.839  16.442  0.2050  0.0089 -0.6298
  605TMC3    C4 8964   3.905   1.641  16.265 -0.2607  0.0813  0.7594
  605TMC3    C5 8965   3.820   1.669  16.370  0.0298  0.5120 -0.0949
  605TMC3    C6 8966   3.844   1.762  16.465 -0.3683 -0.2662 -0.2612
  605TMC3     C 8967   4.087   1.744  16.127 -0.6523  0.0182  0.2580
  605TMC3     O 8968   4.144   1.848  16.099  0.4047  0.1196  0.0917
  605TMC3     H 8969   4.109   1.909  16.325 -0.1012 -0.2816 -0.6272
  605TMC3    H1 8970   3.881   1.582  16.177  1.0197  0.4295  0.1673
  605TMC3    H2 8971   3.767   1.776  16.540  1.3195  3.3226  0.8091
  605TMC3    C7 8972   3.689   1.604  16.374 -0.3534 -0.1795 -0.6827
  605TMC3    C8 8973   3.958   1.965  16.510 -0.2660 -0.9024 -0.9844
  605TMC3    O1 8974   3.607   1.658  16.450  0.2192 -0.2071  0.1728
  605TMC3    O2 8975   4.070   1.999  16.550  0.2032  0.6190 -0.3286
  606TMC3    C1 8976   1.200   0.423  17.398  0.0405  0.8106  0.0148
  606TMC3    C2 8977   1.332   0.384  17.383 -0.7708  0.1804 -0.5143
  606TMC3    C3 8978   1.362   0.254  17.366  0.1388  0.0159 -0.4768
  606TMC3    C4 8979   1.103   0.330  17.394  0.4000 -1.2795 -0.4704
  606TMC3    C5 8980   1.133   0.198  17.369 -0.1503  1.2564  0.5011
  606TMC3    C6 8981   1.262   0.159  17.365 -0.0249  0.5308 -0.4176
  606TMC3     C 8982   1.164   0.561  17.402  0.0042 -0.0468 -0.3179
  606TMC3     O 8983   1.244   0.641  17.442  0.0889  0.3126 -0.5441
  606TMC3     H 8984   1.409   0.458  17.395 -1.4307  0.9294 -0.8875
  606TMC3    H1 8985   1.010   0.371  17.432  0.9990  2.3392 -2.8662
  606TMC3    H2 8986   1.288   0.056  17.347 -1.1685  0.2086 -0.2107
  606TMC3    C7 8987   1.037   0.086  17.388  0.4061 -0.3970 -0.2879
  606TMC3    C8 8988   1.504   0.220  17.365 -0.1963  0.4383 -0.1856
  606TMC3    O1 8989   1.075   4.696  17.382  0.8728  0.2689  0.3037
  606TMC3    O2 8990   1.579   0.314  17.362  0.5637  0.1969 -0.6808
  607MPD2     C 8991   3.119   3.522  11.120 -0.1066 -0.8723  0.3998
  607MPD2    C1 8992   3.197   3.496  11.234 -0.2162 -0.1289 -0.4491
  607MPD2    C2 8993   3.137   3.443  11.343  0.0756  0.3538 -0.0516
  607MPD2    C3 8994   3.003   3.398  11.342 -0.0040 -0.1280 -0.9521
  607MPD2    C4 8995   2.921   3.420  11.233  0.2992 -0.1797 -0.9655
  607MPD2    C5 8996   2.984   3.480  11.121  0.4474  0.2880 -0.4797
  607MPD2     H 8997   3.196   3.424  11.432 -1.6225  0.9354  1.1972
  607MPD2    H1 8998   2.814   3.401  11.234  0.3241 -0.2467  1.3065
  607MPD2    H2 8999   3.167   3.551  11.027 -0.9071 -1.5977 -0.2379
  607MPD2    H3 9000   2.934   3.488  11.025  0.9641 -1.0214 -0.8496
  607MPD2     N 9001   2.955   3.341  11.463 -0.5666  0.0490 -0.2438
  607MPD2    H5 9002   3.032   3.329  11.527 -2.3413 -2.5450  1.3753
  607MPD2    N1 9003   3.336   3.527  11.251  0.4164 -0.3782  0.5170
  607MPD2    H7 9004   3.388   3.481  11.324 -0.2688 -0.3881  0.9952
  608TMC3    C1 9005   3.542   3.633  11.217  0.5474 -0.0342 -0.2516
  608TMC3    C2 9006   3.567   3.609  11.349 -0.3780 -0.3968  0.1704
  608TMC3    C3 9007   3.635   3.708  11.423  0.2816 -1.3395 -0.1020
  608TMC3    C4 9008   3.593   3.747  11.161  0.3234 -0.0778  0.4071
  608TMC3    C5 9009   3.665   3.837  11.235  0.0524 -0.0818  0.7551
  608TMC3    C6 9010   3.679   3.818  11.364 -0.2621 -0.7176  0.2373
  608TMC3     C 9011   3.420   3.588  11.159 -0.4217  0.4956 -0.3334
  608TMC3     O 9012   3.382   3.647  11.062 -0.0959 -0.2881 -0.1286
  608TMC3     H 9013   3.540   3.513  11.390  0.9547 -0.0793  1.7966
  608TMC3    H1 9014   3.566   3.775  11.060 -1.8478 -2.0809  0.4310
  608TMC3    H2 9015   3.742   3.882  11.425 -0.1740  0.4095 -1.0281
  608TMC3    C7 9016   3.700   3.964  11.171 -0.0472  0.4141 -0.2809
  608TMC3    C8 9017   3.600   3.719  11.563  0.3991  0.0961  0.3514
  608TMC3    O1 9018   3.668   3.988  11.057 -0.4140 -0.0178 -0.5505
  608TMC3    O2 9019   3.647   3.815  11.622 -0.0880  0.1146 -0.1187
  609TMC3    C1 9020   2.132   2.390   9.438  0.3598  0.2967  0.0543
  609TMC3    C2 9021   2.241   2.481   9.445  0.7734 -0.6115 -1.0091
  609TMC3    C3 9022   2.359   2.416   9.422  0.4765  0.0339  0.4335
  609TMC3    C4 9023   2.130   2.262   9.401  0.2511 -0.0030  0.3749
  609TMC3    C5 9024   2.257   2.208   9.383  0.5696 -0.0002  0.1065
  609TMC3    C6 9025   2.370   2.279   9.394  0.2011  0.1089 -0.3645
  609TMC3     C 9026   2.000   2.449   9.461 -0.3145  0.2844  0.0446
  609TMC3     O 9027   1.908   2.374   9.479  0.0572  0.2416  0.3722
  609TMC3     H 9028   2.234   2.584   9.478  0.0518 -1.1051  0.3703
  609TMC3    H1 9029   2.040   2.202   9.404 -1.0098  1.9420  0.8963
  609TMC3    H2 9030   2.464   2.234   9.366  0.6310 -0.1335  1.4952
  609TMC3    C7 9031   2.270   2.067   9.406  0.2979  0.1020 -0.7241
  609TMC3    C8 9032   2.483   2.486   9.438 -0.8232  0.3699 -0.5319
  609TMC3    O1 9033   2.371   2.021   9.462 -0.1995 -0.1029  0.3220
  609TMC3    O2 9034   2.580   2.408   9.445  0.3649 -0.3201  0.1808
  610TMC3    C1 9035   3.062   2.476  12.026 -0.2756  0.0481 -0.4703
  610TMC3    C2 9036   3.133   2.567  11.955  0.5316  0.2449 -0.3552
  610TMC3    C3 9037   3.272   2.569  11.967  0.0510 -0.2934  0.3987
  610TMC3    C4 9038   3.135   2.409  12.127  0.8066 -0.3548 -0.0190
  610TMC3    C5 9039   3.267   2.415  12.130 -0.5455 -0.1712  0.3276
  610TMC3    C6 9040   3.337   2.488  12.050  0.4809  0.2059 -0.4565
  610TMC3     C 9041   2.922   2.516  12.039 -0.2452 -0.1466  0.2796
  610TMC3     O 9042   2.886   2.588  11.949 -0.2796  0.0797  0.2608
  610TMC3     H 9043   3.086   2.629  11.879 -1.8648  1.2714  1.9627
  610TMC3    H1 9044   3.093   2.332  12.191  1.7365 -2.1423 -1.5351
  610TMC3    H2 9045   3.445   2.497  12.058  0.2002  2.0325  1.2522
  610TMC3    C7 9046   3.348   2.353  12.241  0.1813  0.0261  0.3036
  610TMC3    C8 9047   3.335   2.694  11.960 -0.0662  0.0988  0.0332
  610TMC3    O1 9048   3.462   2.318  12.213  0.2714  0.0246  0.4560
  610TMC3    O2 9049   3.459   2.698  11.944 -0.3251  0.3975  0.5249
  611MPD2     C 9050   2.993   3.244  10.339  0.0165 -0.3672 -0.7019
  611MPD2    C1 9051   2.911   3.355  10.334  0.4088  0.3672  0.3522
  611MPD2    C2 9052   2.943   3.460  10.250  0.4892 -0.1144  0.5429
  611MPD2    C3 9053   3.053   3.453  10.159 -0.1640  0.8825  0.3781
  611MPD2    C4 9054   3.129   3.338  10.164  0.3223 -0.6430  0.2670
  611MPD2    C5 9055   3.106   3.239  10.262  0.3471  0.1479 -0.0618
  611MPD2     H 9056   2.885   3.550  10.263  0.9373 -0.1773  2.9939
  611MPD2    H1 9057   3.223   3.334  10.110  1.9536  2.6872  2.8137
  611MPD2    H2 9058   2.968   3.152  10.390 -0.9956 -0.0552 -0.6376
  611MPD2    H3 9059   3.166   3.149  10.273 -0.2981 -0.3896 -0.9351
  611MPD2     N 9060   3.083   3.555  10.071 -0.7442  0.0226  0.1098
  611MPD2    H5 9061   3.175   3.547  10.028 -0.7801  0.2001  0.0031
  611MPD2    N1 9062   2.800   3.354  10.420  0.0255 -0.1172  0.3777
  611MPD2    H7 9063   2.801   3.282  10.492 -0.0309  0.4415  0.9418
  612TMC3    C1 9064   3.073   3.768   9.977 -0.1137  0.5832  0.6436
  612TMC3    C2 9065   3.209   3.784   9.970 -0.1174 -0.8606 -0.6105
  612TMC3    C3 9066   3.261   3.892   9.912 -0.7337  0.4801  0.3380
  612TMC3    C4 9067   2.991   3.867   9.930 -0.4640  0.1320 -0.1322
  612TMC3    C5 9068   3.050   3.976   9.864 -0.1616 -0.5187  0.1762
  612TMC3    C6 9069   3.185   3.993   9.857  0.6453 -0.1045  0.1480
  612TMC3     C 9070   3.012   3.677  10.061  0.1684 -0.9593 -0.1822
  612TMC3     O 9071   2.897   3.700  10.103 -0.3251 -0.1200  0.2516
  612TMC3     H 9072   3.274   3.703  10.003 -0.5608 -1.3371 -0.9120
  612TMC3    H1 9073   2.885   3.846   9.928 -0.6417  1.1805 -1.9789
  612TMC3    H2 9074   3.235   4.083   9.823  1.8685 -1.0650 -0.5649
  612TMC3    C7 9075   2.970   4.080   9.800  0.1801  0.2964  0.8930
  612TMC3    C8 9076   3.398   3.904   9.886  0.3092  1.1838 -0.9747
  612TMC3    O1 9077   3.019   4.151   9.715  0.4176  0.1703  0.0426
  612TMC3    O2 9078   3.421   3.966   9.781  0.2719 -0.2917 -0.2231
  613MPD2     C 9079   1.855   0.878  16.554  0.2336  0.3341  0.1779
  613MPD2    C1 9080   1.765   0.914  16.461  0.1238 -0.1959 -0.5657
  613MPD2    C2 9081   1.673   0.825  16.412 -0.7805  0.3598  0.3925
  613MPD2    C3 9082   1.662   0.695  16.467 -0.2915  0.0202 -0.5095
  613MPD2    C4 9083   1.751   0.666  16.572 -0.0842  0.1187 -0.4108
  613MPD2    C5 9084   1.843   0.756  16.615  0.1869  0.2952  0.5461
  613MPD2     H 9085   1.593   0.858  16.346 -1.1522 -2.1929 -0.4686
  613MPD2    H1 9086   1.737   0.563  16.604 -2.2827  0.8620  1.0738
  613MPD2    H2 9087   1.947   0.934  16.570 -0.7790  1.6435  1.4046
  613MPD2    H3 9088   1.919   0.716  16.681  1.6996  3.0457  0.4932
  613MPD2     N 9089   1.576   0.599  16.418  0.5247  0.2028  0.2216
  613MPD2    H5 9090   1.595   0.503  16.446 -1.1042 -0.1556  0.0877
  613MPD2    N1 9091   1.772   1.041  16.395 -0.9029 -0.4346 -0.1742
  613MPD2    H7 9092   1.851   1.101  16.414  0.3844 -2.1115 -0.2603
  614TMC3    C1 9093   1.750   1.178  16.215 -0.0828 -0.0312  0.0602
  614TMC3    C2 9094   1.861   1.125  16.149  0.4224  0.2971  0.5321
  614TMC3    C3 9095   1.873   1.148  16.017 -0.1119 -0.1974  0.9955
  614TMC3    C4 9096   1.662   1.256  16.149 -0.5012  0.5968 -0.2392
  614TMC3    C5 9097   1.680   1.291  16.016  0.2377  0.8635 -0.1743
  614TMC3    C6 9098   1.791   1.241  15.948  0.0852 -0.4150 -0.4474
  614TMC3     C 9099   1.680   1.095  16.311  0.5861  0.3218 -0.0264
  614TMC3     O 9100   1.561   1.083  16.313  0.2103 -0.0490  0.2994
  614TMC3     H 9101   1.942   1.076  16.202 -0.3132 -0.5997  0.8363
  614TMC3    H1 9102   1.566   1.279  16.192 -0.2651 -0.2677  0.7557
  614TMC3    H2 9103   1.817   1.274  15.849  0.3528 -0.2947 -0.3373
  614TMC3    C7 9104   1.553   1.299  15.937 -0.1815 -0.2456  0.9625
  614TMC3    C8 9105   1.859   1.016  15.958  0.5700 -0.2322 -0.0090
  614TMC3    O1 9106   1.474   1.389  15.965 -0.3745  0.3335  0.0816
  614TMC3    O2 9107   1.851   0.934  16.044  0.4638 -0.6345 -0.2923
  615MPD2     C 9108   0.866   1.889  16.025  0.9290 -0.2856  0.8241
  615MPD2    C1 9109   0.788   1.984  16.090  0.1334  0.6886 -0.3231
  615MPD2    C2 9110   0.689   2.052  16.021 -1.0282  0.0598  1.2739
  615MPD2    C3 9111   0.666   2.026  15.882 -0.1853  0.1729 -0.5772
  615MPD2    C4 9112   0.746   1.940  15.812  0.4836  0.0314 -0.0640
  615MPD2    C5 9113   0.836   1.865  15.891  0.9372  0.0495 -0.1527
  615MPD2     H 9114   0.629   2.125  16.076 -0.3076  1.3108  0.4054
  615MPD2    H1 9115   0.732   1.915  15.708 -0.1657 -0.8816  0.2417
  615MPD2    H2 9116   0.940   1.826  16.074 -0.4955 -2.8114 -0.2636
  615MPD2    H3 9117   0.902   1.796  15.840  1.3093 -1.1651  2.0045
  615MPD2     N 9118   0.579   2.116  15.814  0.4657  0.4742 -0.5356
  615MPD2    H5 9119   0.595   2.126  15.714 -0.5671 -0.1039 -0.7623
  615MPD2    N1 9120   0.807   2.020  16.229 -0.2565  0.5903  0.2179
  615MPD2    H7 9121   0.752   2.090  16.279 -1.6605  0.4994 -1.2032
  616TMC3    C1 9122   0.935   2.054  16.420  0.2949  0.4828 -0.4553
  616TMC3    C2 9123   1.065   2.077  16.466 -0.5365  0.7975  0.4701
  616TMC3    C3 9124   1.078   2.108  16.598  0.4288 -0.1724 -0.3356
  616TMC3    C4 9125   0.822   2.050  16.496  0.8838  0.2205  0.5143
  616TMC3    C5 9126   0.837   2.090  16.627  0.0384 -0.3506 -0.4658
  616TMC3    C6 9127   0.964   2.112  16.682  0.4561 -0.4533 -0.8155
  616TMC3     C 9128   0.928   1.997  16.285  0.1611 -0.5405  0.1285
  616TMC3     O 9129   1.030   1.947  16.234  0.1812 -0.3592 -0.0492
  616TMC3     H 9130   1.145   2.088  16.393 -1.3412  2.7185 -0.1325
  616TMC3    H1 9131   0.733   2.007  16.452  1.9568 -0.0310 -1.4373
  616TMC3    H2 9132   0.980   2.157  16.779  2.2359 -1.1031 -0.8064
  616TMC3    C7 9133   0.717   2.116  16.703 -0.8111 -0.1138  0.5360
  616TMC3    C8 9134   1.212   2.140  16.645  0.7025 -0.8336 -0.7022
  616TMC3    O1 9135   0.714   2.109  16.825 -0.0197  0.4041  0.6250
  616TMC3    O2 9136   1.300   2.169  16.565  0.0308 -0.0413 -0.0863
  617MPD2     C 9137   3.822   0.542  13.579 -0.2433  0.1313  0.0559
  617MPD2    C1 9138   3.819   0.599  13.711  0.6409  0.1611 -0.3004
  617MPD2    C2 9139   3.726   0.553  13.805 -0.8185  0.4478 -0.4394
  617MPD2    C3 9140   3.635   0.456  13.772 -0.5606 -0.7615  0.0350
  617MPD2    C4 9141   3.641   0.400  13.645  0.4153  0.2503  0.1909
  617MPD2    C5 9142   3.730   0.452  13.552 -0.2000 -0.3116  0.6759
  617MPD2     H 9143   3.741   0.588  13.906 -0.8695 -0.4625 -0.1100
  617MPD2    H1 9144   3.585   0.310  13.622  0.2882  0.8453 -1.7665
  617MPD2    H2 9145   3.877   0.593  13.500  1.8971 -1.5998  0.4402
  617MPD2    H3 9146   3.731   0.412  13.451  0.2468  1.1291  0.1113
  617MPD2     N 9147   3.546   0.398  13.866  0.4614  1.1321  0.4450
  617MPD2    H5 9148   3.511   0.306  13.841  1.9086  0.6834  0.0386
  617MPD2    N1 9149   3.933   0.690  13.735 -0.0227 -1.1896 -0.9353
  617MPD2    H7 9150   3.991   0.708  13.653 -1.0449 -2.7021 -1.9969
  618TMC3    C1 9151   4.109   0.807  13.840  0.2041  0.3454 -0.0492
  618TMC3    C2 9152   4.226   0.754  13.891 -1.3910 -0.3365  0.4980
  618TMC3    C3 9153   4.344   0.750  13.820 -0.5259 -0.8508 -0.0272
  618TMC3    C4 9154   4.119   0.855  13.706  0.2518 -0.4650 -0.5652
  618TMC3    C5 9155   4.236   0.847  13.630 -0.3622  0.4026  0.3586
  618TMC3    C6 9156   4.345   0.804  13.694 -1.1097  0.6751  0.2892
  618TMC3     C 9157   3.986   0.733  13.855 -0.0278  0.4587  0.9198
  618TMC3     O 9158   3.976   0.692  13.970  0.4067 -0.5654 -0.2269
  618TMC3     H 9159   4.219   0.701  13.985 -2.7601 -0.1736  0.4802
  618TMC3    H1 9160   4.031   0.896  13.657 -1.2098  0.9189  3.2714
  618TMC3    H2 9161   4.428   0.794  13.624 -1.1710 -3.2411  0.7520
  618TMC3    C7 9162   4.206   0.788  13.506  0.0669  0.0932 -0.8619
  618TMC3    C8 9163   4.461   0.707  13.891 -0.6172 -0.0831  0.0693
  618TMC3    O1 9164   4.110   0.713  13.511  0.2111 -0.3092  0.2396
  618TMC3    O2 9165   4.452   0.671  14.008 -0.6599 -0.0016 -0.0739
  619MPD2     C 9166   1.130   2.125  13.847 -0.4406 -0.4753  0.1608
  619MPD2    C1 9167   1.059   2.154  13.728 -0.1457 -0.2103  1.1563
  619MPD2    C2 9168   0.993   2.055  13.662  1.0814 -0.2032 -0.0466
  619MPD2    C3 9169   0.988   1.932  13.713  0.0846  0.7896 -0.5525
  619MPD2    C4 9170   1.054   1.902  13.830 -0.6011 -0.3252 -0.1533
  619MPD2    C5 9171   1.121   1.997  13.901 -0.3400  0.7598  0.4375
  619MPD2     H 9172   0.937   2.079  13.573  0.5295  1.1082  0.6465
  619MPD2    H1 9173   1.057   1.803  13.875  0.4821 -1.3964 -2.6150
  619MPD2    H2 9174   1.195   2.198  13.894  1.7533 -1.2911 -1.5503
  619MPD2    H3 9175   1.181   1.971  13.987 -0.4053 -1.4687 -0.1705
  619MPD2     N 9176   0.915   1.834  13.644  0.7526  0.2116  0.2316
  619MPD2    H5 9177   0.883   1.755  13.701  1.7505 -0.0496  0.4229
  619MPD2    N1 9178   1.073   2.280  13.659  0.3232  0.8300  0.6851
  619MPD2    H7 9179   1.024   2.297  13.572  0.0698 -1.8223  0.3068
  620TMC3    C1 9180   1.168   2.488  13.605 -0.3292  0.0211  0.0502
  620TMC3    C2 9181   1.137   2.460  13.474  0.2644 -0.1114 -0.2315
  620TMC3    C3 9182   1.073   2.554  13.400 -1.0158  0.3683  0.0310
  620TMC3    C4 9183   1.145   2.616  13.664 -0.1053  0.7281  0.8038
  620TMC3    C5 9184   1.097   2.713  13.582 -0.7678  0.7666  0.4668
  620TMC3    C6 9185   1.064   2.681  13.449  0.5099 -0.3240  0.6348
  620TMC3     C 9186   1.156   2.386  13.705 -0.0821  0.1673  0.0958
  620TMC3     O 9187   1.203   2.404  13.816 -0.2214  0.3395 -0.4431
  620TMC3     H 9188   1.155   2.362  13.431  0.0948  0.2134 -1.0432
  620TMC3    H1 9189   1.176   2.626  13.768 -3.2121  0.6056  1.7521
  620TMC3    H2 9190   1.013   2.756  13.389 -0.9406 -1.1947  0.7786
  620TMC3    C7 9191   0.981   2.778  13.638  0.2844 -0.1537 -0.8137
  620TMC3    C8 9192   0.943   2.487  13.380 -0.4686  0.5175 -0.8832
  620TMC3    O1 9193   0.930   2.860  13.561 -0.2675 -0.0423  0.0637
  620TMC3    O2 9194   0.926   2.380  13.436 -0.0768  0.1613  0.5728
  621MPD2     C 9195   1.489   1.464  10.195 -0.3107 -0.4208  0.6453
  621MPD2    C1 9196   1.532   1.377  10.094 -0.3754  0.0842  0.0993
  621MPD2    C2 9197   1.625   1.426  10.001  0.2453  0.7247 -0.3018
  621MPD2    C3 9198   1.679   1.548  10.016 -0.6699  0.1051 -0.0812
  621MPD2    C4 9199   1.638   1.633  10.116 -0.4074  0.4743 -0.5027
  621MPD2    C5 9200   1.542   1.590  10.200  0.7290  0.1091  0.5668
  621MPD2     H 9201   1.649   1.363   9.916  1.3597  0.9773 -0.1800
  621MPD2    H1 9202   1.672   1.734  10.133  1.2061  0.2401 -2.3576
  621MPD2    H2 9203   1.397   1.448  10.251 -0.3791  0.5912  0.8122
  621MPD2    H3 9204   1.497   1.652  10.277 -1.8020 -0.2933 -0.5984
  621MPD2     N 9205   1.781   1.592   9.926  0.1295 -0.0929 -0.5141
  621MPD2    H5 9206   1.828   1.530   9.861 -0.1521 -0.9865  0.1364
  621MPD2    N1 9207   1.470   1.252  10.068  0.0483 -0.0559 -0.2597
  621MPD2    H7 9208   1.483   1.215   9.975 -2.1726  1.5420 -1.2308
  622TMC3    C1 9209   1.308   1.085  10.076  0.6135  0.5325  0.2070
  622TMC3    C2 9210   1.208   1.034  10.154 -0.0455  0.0910 -0.1042
  622TMC3    C3 9211   1.097   0.981  10.098 -0.4807 -0.2083  0.4450
  622TMC3    C4 9212   1.289   1.081   9.941  0.1442 -0.3070  0.0530
  622TMC3    C5 9213   1.187   1.003   9.890  0.1216 -0.5941 -0.0161
  622TMC3    C6 9214   1.083   0.954   9.965  0.1635  0.2853  0.4798
  622TMC3     C 9215   1.383   1.181  10.148 -0.4466  0.3510 -0.6381
  622TMC3     O 9216   1.349   1.196  10.261 -0.4458  0.3571 -0.0139
  622TMC3     H 9217   1.214   1.029  10.262  1.6814 -0.4606 -0.2220
  622TMC3    H1 9218   1.365   1.111   9.870 -2.4796 -1.9418 -3.4211
  622TMC3    H2 9219   0.989   0.919   9.924 -0.2213  1.2980  0.5053
  622TMC3    C7 9220   1.152   1.019   9.752 -0.7992 -0.3130 -0.1984
  622TMC3    C8 9221   0.980   0.989  10.181 -0.6073 -0.7631  0.6518
  622TMC3    O1 9222   1.093   0.922   9.704  0.6941  0.7232  0.2669
  622TMC3    O2 9223   0.896   0.897  10.178  0.2694  0.0739  0.4364
  623MPD2     C 9224   3.668   2.225  16.040 -0.2617  0.6009  0.3007
  623MPD2    C1 9225   3.663   2.329  16.131 -0.4563  0.9859 -0.3917
  623MPD2    C2 9226   3.771   2.369  16.202  0.2870 -0.7825 -0.2897
  623MPD2    C3 9227   3.886   2.290  16.193 -0.4524 -0.1600 -0.6578
  623MPD2    C4 9228   3.886   2.173  16.122 -0.3325  1.1208 -0.1135
  623MPD2    C5 9229   3.780   2.145  16.036  0.3169  0.2793 -0.3741
  623MPD2     H 9230   3.781   2.456  16.265  0.3828  1.0535 -2.8182
  623MPD2    H1 9231   3.964   2.099  16.136 -1.4076 -0.3919 -2.2126
  623MPD2    H2 9232   3.587   2.202  15.972 -0.5216  1.0533  0.4611
  623MPD2    H3 9233   3.773   2.051  15.982  1.4116 -0.7655  1.2633
  623MPD2     N 9234   3.990   2.321  16.279 -0.1677  0.6648 -0.4300
  623MPD2    H5 9235   3.979   2.403  16.339 -1.7249  1.8767 -2.3797
  623MPD2    N1 9236   3.540   2.389  16.145  0.2134  0.5456 -0.2612
  623MPD2    H7 9237   3.466   2.348  16.090 -1.1446 -1.8378  3.3284
  624TMC3    C1 9238   4.312   2.194  16.576 -0.4563 -0.5989 -1.0538
  624TMC3    C2 9239   4.245   2.257  16.675 -0.1941  0.2527 -0.8168
  624TMC3    C3 9240   4.154   2.352  16.637 -0.0498 -0.0458  0.1373
  624TMC3    C4 9241   4.287   2.217  16.444 -0.5228  0.2007 -0.3686
  624TMC3    C5 9242   4.187   2.301  16.410  0.4573  0.0714  0.4093
  624TMC3    C6 9243   4.131   2.385  16.510  0.2147 -0.3520 -0.0692
  624TMC3     C 9244   4.424   2.109  16.621 -0.4177 -0.5372  0.2660
  624TMC3     O 9245   4.467   2.147  16.724  0.3964  0.0571 -0.0590
  624TMC3     H 9246   4.260   2.246  16.782 -0.2886  2.0048 -0.6280
  624TMC3    H1 9247   4.337   2.164  16.364  0.8349  1.0884 -0.0920
  624TMC3    H2 9248   4.063   2.467  16.487  0.7453  0.4795  1.2941
  624TMC3    C7 9249   4.106   2.255  16.292  0.2356  0.1787 -0.3449
  624TMC3    C8 9250   4.081   2.419  16.747 -0.3036  0.1391 -0.0208
  624TMC3    O1 9251   4.156   2.174  16.222  0.5172 -0.2177 -0.2133
  624TMC3    O2 9252   4.152   2.472  16.829  0.5627 -0.7406  0.0822
  625MPD2     C 9253   0.564   2.930   0.867  0.2025 -0.0178  0.2738
  625MPD2    C1 9254   0.545   3.045   0.793 -0.1861  0.9552 -0.5967
  625MPD2    C2 9255   0.630   3.067   0.684  0.7247  0.2422  0.1074
  625MPD2    C3 9256   0.740   2.992   0.656  0.0219 -0.9684  0.2744
  625MPD2    C4 9257   0.764   2.884   0.735 -0.1191  0.3325 -0.0960
  625MPD2    C5 9258   0.672   2.849   0.831 -0.0177  0.6233  0.2977
  625MPD2     H 9259   0.616   3.154   0.622 -0.4494  1.6344  2.3444
  625MPD2    H1 9260   0.857   2.829   0.728  0.3201  0.7647  2.3560
  625MPD2    H2 9261   0.501   2.891   0.946 -1.5112  0.3357 -0.9317
  625MPD2    H3 9262   0.691   2.762   0.892 -0.0473 -0.0122 -0.5970
  625MPD2     N 9263   0.834   3.042   0.557  0.0979 -0.0231 -0.0383
  625MPD2    H5 9264   0.809   3.123   0.502 -1.2433 -1.8387 -2.1074
  625MPD2    N1 9265   0.440   3.140   0.817  0.2368  0.3753  0.4083
  625MPD2    H7 9266   0.433   3.224   0.761 -0.0260  0.7834  1.0636
  626TMC3    C1 9267   0.238   3.194   0.915  1.0922  0.4977 -0.0679
  626TMC3    C2 9268   0.179   3.188   0.797 -0.5072 -0.2275  0.0784
  626TMC3    C3 9269   0.054   3.233   0.791 -0.7170  0.5870 -0.7141
  626TMC3    C4 9270   0.173   3.228   1.032 -0.4886 -0.1123  0.1160
  626TMC3    C5 9271   0.047   3.281   1.027 -0.1319  0.9436  0.0261
  626TMC3    C6 9272   4.714   3.294   0.902  0.3745  0.4390  0.5686
  626TMC3     C 9273   0.362   3.133   0.930  0.7518 -0.2615  0.3126
  626TMC3     O 9274   0.381   3.080   1.040  0.1773 -0.3048  0.0466
  626TMC3     H 9275   0.222   3.138   0.710 -0.6188 -1.3032  0.6480
  626TMC3    H1 9276   0.234   3.229   1.122  0.3458  0.2226 -0.4420
  626TMC3    H2 9277   4.630   3.358   0.880  0.6784  0.7826  0.4239
  626TMC3    C7 9278   4.689   3.289   1.143  0.2293  0.2615  0.8451
  626TMC3    C8 9279   0.004   3.275   0.660  1.1826 -0.1712  0.4068
  626TMC3    O1 9280   0.023   3.295   1.250 -0.4280  0.1951  0.7923
  626TMC3    O2 9281   4.672   3.385   0.649  0.1537  0.7014 -0.1937
  627MPD2     C 9282   3.212   4.023  14.409  0.8663  0.3738  0.3614
  627MPD2    C1 9283   3.272   3.966  14.516  0.1720 -0.1487 -0.3708
  627MPD2    C2 9284   3.257   3.833  14.547  0.1606  0.2762  0.4059
  627MPD2    C3 9285   3.160   3.759  14.475  0.6137  0.3906  0.0992
  627MPD2    C4 9286   3.082   3.823  14.385  0.3432  0.6991  0.9065
  627MPD2    C5 9287   3.111   3.953  14.352  0.2002  0.0033 -0.0601
  627MPD2     H 9288   3.322   3.788  14.622 -0.1794 -0.6388  0.1601
  627MPD2    H1 9289   3.007   3.764  14.332 -0.7645  1.0514  2.0713
  627MPD2    H2 9290   3.228   4.125  14.375  1.8568  0.4292  1.0077
  627MPD2    H3 9291   3.056   3.999  14.271  0.8105  1.5318  0.4083
  627MPD2     N 9292   3.142   3.632  14.518 -0.4469  0.3903  0.1163
  627MPD2    H5 9293   3.197   3.591  14.594  0.7197 -1.9405 -1.9610
  627MPD2    N1 9294   3.374   4.028  14.592  0.0949  0.0857 -0.2757
  627MPD2    H7 9295   3.429   3.972  14.656 -1.3492 -1.0374 -0.0237
  628TMC3    C1 9296   3.541   4.179  14.622  0.0319 -0.6063 -0.3134
  628TMC3    C2 9297   3.641   4.086  14.616 -0.5988  0.3621  0.2303
  628TMC3    C3 9298   3.768   4.124  14.654 -0.3249 -0.3956  0.2527
  628TMC3    C4 9299   3.554   4.301  14.676 -0.4150 -0.4102  0.0760
  628TMC3    C5 9300   3.677   4.328  14.729 -0.5281  0.1991  0.1134
  628TMC3    C6 9301   3.789   4.248  14.710  0.3739  0.6370  0.0361
  628TMC3     C 9302   3.413   4.157  14.576  0.0214  0.0448  0.3452
  628TMC3     O 9303   3.355   4.246  14.522 -0.5828 -0.6343 -0.0940
  628TMC3     H 9304   3.626   3.996  14.557 -3.1310  0.6610  0.4218
  628TMC3    H1 9305   3.469   4.367  14.681 -0.6419 -0.6765 -0.2597
  628TMC3    H2 9306   3.880   4.305  14.701  0.4949  0.4962  0.3699
  628TMC3    C7 9307   3.698   4.474  14.759 -0.1144  0.3780  0.2887
  628TMC3    C8 9308   3.883   4.063  14.582 -0.2949 -0.2023  0.5867
  628TMC3    O1 9309   3.782   4.503  14.838  0.3410 -0.3205 -0.2634
  628TMC3    O2 9310   3.860   4.005  14.475 -0.3740 -0.3893 -0.1315
  629MPD2     C 9311   1.587   1.941  16.937 -0.1988 -0.0459  0.6653
  629MPD2    C1 9312   1.599   2.019  16.824 -0.1075 -0.3306  0.0610
  629MPD2    C2 9313   1.480   2.074  16.775  0.1677  0.3217 -0.1964
  629MPD2    C3 9314   1.354   2.053  16.832  0.3784 -0.5585 -0.1543
  629MPD2    C4 9315   1.352   1.979  16.951  0.4928 -0.5077  0.5330
  629MPD2    C5 9316   1.465   1.918  16.996 -0.4121 -0.3202 -0.1311
  629MPD2     H 9317   1.480   2.120  16.677 -2.7296 -1.0291 -0.8252
  629MPD2    H1 9318   1.261   1.952  17.003  0.6097 -1.9214  0.0089
  629MPD2    H2 9319   1.674   1.888  16.974  1.2724  1.3844 -0.7597
  629MPD2    H3 9320   1.451   1.857  17.084 -1.2644 -1.4765 -1.0775
  629MPD2     N 9321   1.228   2.073  16.766  0.5769  0.4362  0.0599
  629MPD2    H5 9322   1.138   2.054  16.809  0.1975  0.1134 -0.8945
  629MPD2    N1 9323   1.722   2.023  16.761 -0.0145 -0.3203 -0.6139
  629MPD2    H7 9324   1.807   1.987  16.802  0.0198  0.2956 -0.1361
  630TMC3    C1 9325   1.881   2.102  16.616  0.2393  0.2300 -0.3706
  630TMC3    C2 9326   1.913   2.150  16.493 -0.0287 -0.1021 -0.0841
  630TMC3    C3 9327   2.043   2.127  16.446 -0.5083 -0.1292  0.0292
  630TMC3    C4 9328   1.975   2.056  16.704 -0.4319 -0.4965  0.2037
  630TMC3    C5 9329   2.105   2.043  16.658 -0.5021  0.6890  0.3437
  630TMC3    C6 9330   2.131   2.063  16.527  0.6306 -0.5812  0.3575
  630TMC3     C 9331   1.745   2.100  16.649  0.4274 -0.2081 -0.4074
  630TMC3     O 9332   1.677   2.172  16.582  0.9246  0.0714  0.2420
  630TMC3     H 9333   1.834   2.185  16.428  0.8098  1.0004 -0.5103
  630TMC3    H1 9334   1.956   2.062  16.811  0.0979 -1.4657  0.3469
  630TMC3    H2 9335   2.232   2.041  16.494  0.3115 -0.8625 -0.4296
  630TMC3    C7 9336   2.208   2.081  16.750  0.9332  0.6174  0.7610
  630TMC3    C8 9337   2.118   2.237  16.381  0.1875  0.4497  1.0507
  630TMC3    O1 9338   2.198   2.048  16.864 -0.1400  0.2752 -0.0002
  630TMC3    O2 9339   2.240   2.229  16.393  0.3961 -0.2815 -0.2088
  631MPD2     C 9340   4.516   2.861  15.722 -0.3775 -0.1867 -0.3415
  631MPD2    C1 9341   4.612   2.897  15.633 -0.4748  0.1218  0.5132
  631MPD2    C2 9342   4.721   2.807  15.612  0.2024  0.2317  0.5079
  631MPD2    C3 9343   4.719   2.690  15.687 -0.6394  0.6960 -0.1932
  631MPD2    C4 9344   4.622   2.660  15.781 -0.7008  0.6028 -0.4541
  631MPD2    C5 9345   4.519   2.749  15.794 -1.3587  0.6350 -0.0849
  631MPD2     H 9346   0.083   2.835  15.553 -0.9719  1.4422 -0.6389
  631MPD2    H1 9347   4.616   2.569  15.839  1.2599  0.2490 -0.8041
  631MPD2    H2 9348   4.432   2.929  15.733  0.2325  0.5003  0.0869
  631MPD2    H3 9349   4.428   2.721  15.845  0.2309 -3.5252  0.5058
  631MPD2     N 9350   0.111   2.615  15.663  0.0879 -0.1532  0.2223
  631MPD2    H5 9351   0.175   2.640  15.589 -1.3104  0.5968 -0.7253
  631MPD2    N1 9352   4.607   3.031  15.583 -0.0136 -0.0174 -0.6241
  631MPD2    H7 9353   4.530   3.084  15.622  0.5181 -0.1092  0.5500
  632TMC3    C1 9354   4.654   3.229  15.463 -0.1113 -0.0184  0.0524
  632TMC3    C2 9355   4.593   3.311  15.562  0.1222 -0.3120 -0.6317
  632TMC3    C3 9356   4.530   3.422  15.515 -0.1747  0.0184 -0.6699
  632TMC3    C4 9357   4.651   3.269  15.331 -0.2988  0.2059 -0.5344
  632TMC3    C5 9358   4.609   3.398  15.297 -0.0747 -0.3172 -0.2928
  632TMC3    C6 9359   4.548   3.476  15.393 -0.3361  0.2225  0.1916
  632TMC3     C 9360   4.684   3.093  15.482 -0.1091 -1.0828  0.1153
  632TMC3     O 9361   0.054   3.050  15.418  0.9010 -0.0551  0.1712
  632TMC3     H 9362   4.569   3.273  15.661  3.3178 -2.4152 -0.6487
  632TMC3    H1 9363   4.682   3.191  15.264 -1.9614 -0.9958  0.1009
  632TMC3    H2 9364   4.494   3.565  15.363  0.3281  0.5947  0.0774
  632TMC3    C7 9365   4.552   3.427  15.166  0.7932  0.2429  0.1477
  632TMC3    C8 9366   4.393   3.428  15.565 -0.0916 -0.0771 -0.2393
  632TMC3    O1 9367   4.483   3.524  15.157  0.1065  0.2610  0.1904
  632TMC3    O2 9368   4.378   3.388  15.677  0.7040  0.2165  0.4799
  633MPD2     C 9369   0.060   0.951  17.240  0.0526  0.3880 -0.4432
  633MPD2    C1 9370   0.057   0.855  17.137  0.1458  0.8458  0.2746
  633MPD2    C2 9371   0.078   0.726  17.165  0.4887 -0.1271 -0.5104
  633MPD2    C3 9372   0.067   0.682  17.292 -0.7753 -0.5426 -0.0626
  633MPD2    C4 9373   0.069   0.774  17.394  0.2296  0.7525  0.4826
  633MPD2    C5 9374   0.069   0.906  17.372  0.3121  0.3147  0.5069
  633MPD2     H 9375   0.082   0.651  17.087 -0.3838 -0.7844  0.0729
  633MPD2    H1 9376   0.053   0.742  17.497 -1.3391 -0.3236 -0.0916
  633MPD2    H2 9377   0.039   1.056  17.222 -2.0469 -0.1604 -1.1877
  633MPD2    H3 9378   0.079   0.971  17.459 -1.8690  1.1794  0.1029
  633MPD2     N 9379   0.070   0.546  17.302  0.3600  0.3250  0.1230
  633MPD2    H5 9380   0.060   0.492  17.217  0.2589 -0.4290  0.6175
  633MPD2    N1 9381   0.025   0.883  16.997 -0.3132  0.0449 -0.3375
  633MPD2    H7 9382   0.032   0.810  16.927  1.0181 -2.1722  2.1349
  634TMC3    C1 9383   4.657   0.989  16.819 -1.2724 -0.2681 -0.7070
  634TMC3    C2 9384   4.672   0.866  16.761  0.2942  0.0048  0.4623
  634TMC3    C3 9385   4.672   0.853  16.619  0.4485 -0.3679 -0.6793
  634TMC3    C4 9386   4.636   1.107  16.749  0.4373  0.4138  0.4844
  634TMC3    C5 9387   4.633   1.088  16.611 -0.5781  0.1691  0.2726
  634TMC3    C6 9388   4.651   0.967  16.548 -0.2560 -0.3166  0.2957
  634TMC3     C 9389   4.695   1.002  16.959  0.2078 -0.1642 -0.7418
  634TMC3     O 9390   4.657   1.097  17.029  0.3423 -0.3386 -0.3172
  634TMC3     H 9391   4.686   0.775  16.817  0.2379 -1.7588 -2.3787
  634TMC3    H1 9392   4.631   1.203  16.798  1.1410  0.6467  0.1098
  634TMC3    H2 9393   4.643   0.970  16.440  0.8900 -1.2504  0.1819
  634TMC3    C7 9394   4.588   1.193  16.530 -0.0008  0.1367  0.4016
  634TMC3    C8 9395   4.661   0.725  16.562 -0.0590 -0.0570  0.3498
  634TMC3    O1 9396   4.599   1.184  16.410 -0.3722 -0.4069  0.1230
  634TMC3    O2 9397   4.654   0.637  16.647  0.2198 -0.1282  0.0399
  635TMC3    C1 9398   1.152   1.761   1.023  0.7191 -0.4083  0.0917
  635TMC3    C2 9399   1.218   1.665   0.949 -0.3183 -0.0101 -0.3131
  635TMC3    C3 9400   1.352   1.649   0.974  0.5988 -0.0262 -0.5727
  635TMC3    C4 9401   1.216   1.833   1.109 -0.1386 -0.4939  0.7943
  635TMC3    C5 9402   1.344   1.807   1.141 -0.2460 -0.0212  0.2890
  635TMC3    C6 9403   1.416   1.708   1.079  0.8143  0.3734 -0.1950
  635TMC3     C 9404   1.017   1.798   0.990 -0.2605  0.0771 -0.2929
  635TMC3     O 9405   0.977   1.907   1.021 -0.2127 -0.2112 -0.0966
  635TMC3     H 9406   1.182   1.605   0.866 -0.2057  2.1694 -1.9387
  635TMC3    H1 9407   1.156   1.893   1.177  0.9761  1.2997  0.1651
  635TMC3    H2 9408   1.520   1.683   1.096  0.9539  1.8845  1.1842
  635TMC3    C7 9409   1.398   1.882   1.257  0.0286 -0.0061 -0.2155
  635TMC3    C8 9410   1.406   1.519   0.939 -0.1756 -0.3329 -0.6727
  635TMC3    O1 9411   1.328   1.975   1.296 -0.2531 -0.1823 -0.1507
  635TMC3    O2 9412   1.374   1.469   0.832 -0.5558 -0.3223  0.5481
  636MPD2     C 9413   0.726   0.886  16.055  0.4574 -0.3115  0.3723
  636MPD2    C1 9414   0.827   0.922  16.145  0.5864 -0.5079 -0.4736
  636MPD2    C2 9415   0.948   0.851  16.154 -0.3827  0.1007 -0.0174
  636MPD2    C3 9416   0.976   0.749  16.070  0.8221 -0.2178  1.0644
  636MPD2    C4 9417   0.883   0.724  15.969 -0.6097  0.4766 -0.5652
  636MPD2    C5 9418   0.758   0.783  15.970 -0.6444 -0.0393  0.6715
  636MPD2     H 9419   1.021   0.881  16.228 -0.0740 -1.1127  0.1599
  636MPD2    H1 9420   0.912   0.648  15.898  0.4945  0.9808 -0.6491
  636MPD2    H2 9421   0.633   0.940  16.044  0.5179  0.2968  2.8044
  636MPD2    H3 9422   0.685   0.749  15.898  0.5536 -2.4624  0.6055
  636MPD2     N 9423   1.106   0.691  16.080 -0.2466 -0.0531  0.3625
  636MPD2    H5 9424   1.169   0.737  16.145  2.9463 -1.2446 -1.8500
  636MPD2    N1 9425   0.811   1.029  16.236 -0.3857  0.4049 -0.4932
  636MPD2    H7 9426   0.890   1.058  16.292  0.1154 -1.2845 -0.3360
  637TMC3    C1 9427   1.289   0.551  16.074 -0.5045 -0.4081  0.3165
  637TMC3    C2 9428   1.306   0.545  16.203  0.8275 -0.0591 -0.2121
  637TMC3    C3 9429   1.428   0.516  16.258 -0.4023 -0.3319  0.3593
  637TMC3    C4 9430   1.384   0.515  15.983  0.3153  0.5923  0.6131
  637TMC3    C5 9431   1.506   0.480  16.034 -0.4517 -0.5845 -0.0411
  637TMC3    C6 9432   1.534   0.482  16.174  0.4033  0.6339  0.2695
  637TMC3     C 9433   1.159   0.585  16.011  0.3430 -0.4391 -0.4429
  637TMC3     O 9434   1.116   0.520  15.917 -0.8088  0.1194  0.4065
  637TMC3     H 9435   1.219   0.562  16.266  0.6194 -0.5163 -0.3777
  637TMC3    H1 9436   1.357   0.515  15.878  1.2232  1.3601  0.3728
  637TMC3    H2 9437   1.632   0.457  16.211  1.5711 -1.1228 -4.0289
  637TMC3    C7 9438   1.616   0.543  15.959 -0.2293 -0.6169  0.1778
  637TMC3    C8 9439   1.464   0.625  16.343 -0.3322  0.5789  0.2250
  637TMC3    O1 9440   1.718   0.573  16.020  0.2741 -0.3786  0.0057
  637TMC3    O2 9441   1.404   0.728  16.319  0.5191  0.5414  0.1971
  638MPD2     C 9442   1.148   4.527  15.026 -0.1019  0.1258 -0.4014
  638MPD2    C1 9443   1.052   4.456  14.950  0.8244 -0.7145 -0.1126
  638MPD2    C2 9444   0.993   4.344  15.003 -0.1721 -0.0502 -0.3357
  638MPD2    C3 9445   1.037   4.300  15.124  0.6390 -0.1829 -0.0714
  638MPD2    C4 9446   1.124   4.375  15.201 -0.2350 -0.0194  0.7886
  638MPD2    C5 9447   1.176   4.492  15.158 -0.0327  0.7322  0.0780
  638MPD2     H 9448   0.936   4.285  14.933  0.0185 -0.7980  0.1467
  638MPD2    H1 9449   1.153   4.338  15.298  1.1208  1.3121  0.8852
  638MPD2    H2 9450   1.192   4.623  15.005 -1.9621  0.8032 -1.1619
  638MPD2    H3 9451   1.253   4.552  15.205  0.3697  0.4386 -0.2157
  638MPD2     N 9452   0.987   4.173  15.159 -0.4266 -0.1304 -0.7815
  638MPD2    H5 9453   0.945   4.116  15.086 -1.7993 -0.1264  0.0006
  638MPD2    N1 9454   1.021   4.515  14.821 -0.2916 -0.3348 -0.0245
  638MPD2    H7 9455   1.079   4.592  14.789  0.9017 -1.4809 -0.6139
  639TMC3    C1 9456   0.988   3.954  15.252  0.4904  0.1411 -0.1477
  639TMC3    C2 9457   0.878   3.922  15.184  0.2095 -0.4346  0.1863
  639TMC3    C3 9458   0.827   3.795  15.180  0.3183 -0.0416 -0.2943
  639TMC3    C4 9459   1.054   3.860  15.333 -0.4360  0.4934  0.1681
  639TMC3    C5 9460   1.011   3.730  15.321 -0.3087  0.5807  0.2455
  639TMC3    C6 9461   0.910   3.700  15.234  0.2643  0.6476  0.2873
  639TMC3     C 9462   1.032   4.091  15.265  0.4292  0.4229  0.4239
  639TMC3     O 9463   1.113   4.120  15.351 -0.5297 -0.3059 -0.2449
  639TMC3     H 9464   0.824   3.995  15.123  2.1787  1.3949  0.6583
  639TMC3    H1 9465   1.145   3.877  15.388 -1.9037 -0.1665  2.8240
  639TMC3    H2 9466   0.865   3.601  15.237  1.0085  0.3364  1.0070
  639TMC3    C7 9467   1.103   3.619  15.338  0.7569 -0.6894 -0.0999
  639TMC3    C8 9468   0.737   3.762  15.076 -0.5853 -0.2301 -0.7159
  639TMC3    O1 9469   1.084   3.530  15.420  0.3896 -0.0209 -0.6269
  639TMC3    O2 9470   0.755   3.655  15.021 -0.3500 -0.7396 -0.5585
  640MPD2     C 9471   2.589   2.344  10.282  0.0372 -1.0863  0.4463
  640MPD2    C1 9472   2.663   2.407  10.185  0.1518 -0.2425 -0.3311
  640MPD2    C2 9473   2.614   2.525  10.135  0.3253 -0.1201  0.3686
  640MPD2    C3 9474   2.491   2.575  10.183  0.0061 -0.3251  1.0918
  640MPD2    C4 9475   2.420   2.504  10.276 -0.3442  0.1291 -0.4433
  640MPD2    C5 9476   2.466   2.387  10.333  0.3597 -0.1964 -0.2742
  640MPD2     H 9477   2.668   2.584  10.062  0.1954 -0.4642 -0.0065
  640MPD2    H1 9478   2.334   2.550  10.322  0.7233  2.7773 -1.0879
  640MPD2    H2 9479   2.624   2.249  10.318  1.6401 -0.9965 -0.8950
  640MPD2    H3 9480   2.413   2.326  10.405  2.7395 -2.2922 -0.3033
  640MPD2     N 9481   2.432   2.694  10.133 -0.0128  0.1328  0.0036
  640MPD2    H5 9482   2.343   2.724  10.170  1.0234  2.7190  0.4119
  640MPD2    N1 9483   2.783   2.353  10.134 -0.3300  0.0048  0.2167
  640MPD2    H7 9484   2.814   2.261  10.164  1.7128 -0.0433 -2.0299
  641TMC3    C1 9485   2.959   2.309   9.981 -0.2390 -0.2779  1.0451
  641TMC3    C2 9486   2.926   2.176  10.002 -0.4582  0.5795  0.1803
  641TMC3    C3 9487   3.005   2.086   9.940 -0.8645  0.1198 -0.5744
  641TMC3    C4 9488   3.064   2.355   9.912 -0.1721  0.3328 -0.2525
  641TMC3    C5 9489   3.140   2.263   9.856 -1.1463 -0.0529 -0.5132
  641TMC3    C6 9490   3.111   2.134   9.868 -0.5367  0.3305 -1.0067
  641TMC3     C 9491   2.865   2.406  10.035  0.0346  0.2990  0.4053
  641TMC3     O 9492   2.866   2.511   9.975 -0.3918  0.2895 -0.5545
  641TMC3     H 9493   2.824   2.141  10.013 -0.8904  2.0062  0.6872
  641TMC3    H1 9494   3.070   2.461   9.889 -1.3399 -0.1677 -2.9163
  641TMC3    H2 9495   3.163   2.064   9.803 -1.7701  0.0118 -1.6523
  641TMC3    C7 9496   3.258   2.313   9.776 -0.4266 -0.4187 -0.0443
  641TMC3    C8 9497   2.961   1.952   9.920 -0.0278 -0.7060 -0.3079
  641TMC3    O1 9498   3.243   2.416   9.708 -0.2814 -0.5892 -0.2122
  641TMC3    O2 9499   2.995   1.898   9.811  0.0541 -0.2919 -0.0555
  642TMC3    C1 9500   2.967   4.673  12.115 -0.0226  0.2520  0.0670
  642TMC3    C2 9501   3.057   4.715  12.210 -0.5751 -0.3765  0.5017
  642TMC3    C3 9502   3.142   4.625  12.258 -0.1643  0.5920 -0.5635
  642TMC3    C4 9503   2.980   4.554  12.055 -0.1980  0.4911 -0.0167
  642TMC3    C5 9504   3.073   4.467  12.107 -0.6934 -0.8044 -0.4683
  642TMC3    C6 9505   3.158   4.500  12.206 -0.0753 -0.0312  0.6372
  642TMC3     C 9506   2.867   0.045  12.072 -0.1694 -0.3928 -0.5934
  642TMC3     O 9507   2.906   0.141  12.005  0.0613  0.1160  0.0083
  642TMC3     H 9508   3.026   0.083  12.257 -0.6037 -1.2562  2.1968
  642TMC3    H1 9509   2.910   4.520  11.979 -1.0112 -0.7916  1.2941
  642TMC3    H2 9510   3.231   4.430  12.245  0.9695  0.4834 -0.4101
  642TMC3    C7 9511   3.085   4.333  12.042  0.4071 -0.0120 -0.0666
  642TMC3    C8 9512   3.170   4.637  12.398 -0.3733 -0.1181 -0.3780
  642TMC3    O1 9513   3.048   4.326  11.926  0.1570  0.6341  0.1089
  642TMC3    O2 9514   3.122   4.558  12.476 -0.0032  0.2350  0.6232
  643TMC3    C1 9515   1.813   3.329   0.332  0.0687  0.1392  0.5261
  643TMC3    C2 9516   1.710   3.417   0.323 -0.4861 -0.0432  0.2354
  643TMC3    C3 9517   1.608   3.402   0.230 -0.1767  0.1755  0.4033
  643TMC3    C4 9518   1.819   3.218   0.252 -0.2456  0.2523 -0.2014
  643TMC3    C5 9519   1.725   3.214   0.147 -0.5526  0.1461  0.0713
  643TMC3    C6 9520   1.615   3.293   0.141 -0.4638 -1.2278 -0.3246
  643TMC3     C 9521   1.918   3.335   0.429 -0.2913  0.4738 -0.0683
  643TMC3     O 9522   1.995   3.238   0.441 -0.5967 -0.1497  0.6548
  643TMC3     H 9523   1.704   3.511   0.378  1.7859 -0.6248  1.4758
  643TMC3    H1 9524   1.891   3.136   0.257  0.3475  0.6794 -1.6998
  643TMC3    H2 9525   1.562   3.297   0.047 -0.9775  0.3102  0.0318
  643TMC3    C7 9526   1.760   3.145   0.029  0.1047  0.5028 -1.0704
  643TMC3    C8 9527   1.532   3.513   0.181 -0.1637  0.1184  0.1585
  643TMC3    O1 9528   1.668   3.081  17.676 -0.0811  0.8037 -0.0564
  643TMC3    O2 9529   1.422   3.489   0.132 -0.2041  0.8556 -0.1180
  644MPD2     C 9530   1.909   3.749  10.053  0.2256 -0.5889  0.2060
  644MPD2    C1 9531   2.029   3.811  10.031 -0.1520 -0.1261 -0.1271
  644MPD2    C2 9532   2.038   3.943  10.050  0.2933 -0.0275 -0.8437
  644MPD2    C3 9533   1.929   4.019  10.088  0.4299  0.1913  0.3666
  644MPD2    C4 9534   1.809   3.956  10.122 -0.2609  0.3492  0.8127
  644MPD2    C5 9535   1.802   3.817  10.101  0.6117 -0.6339  0.4385
  644MPD2     H 9536   2.137   3.986  10.038  0.1750 -0.0393 -1.8387
  644MPD2    H1 9537   1.718   4.012  10.138  1.4746  3.0705  1.1753
  644MPD2    H2 9538   1.905   3.642  10.038  1.5852 -0.5618 -0.4191
  644MPD2    H3 9539   1.708   3.765  10.114  0.6354 -0.9475 -0.6595
  644MPD2     N 9540   1.941   4.160  10.094 -0.2934  0.1490 -0.1175
  644MPD2    H5 9541   2.026   4.194  10.051 -0.1514  0.8756  0.7424
  644MPD2    N1 9542   2.139   3.730   9.998 -0.3959  0.1603 -0.0140
  644MPD2    H7 9543   2.131   3.631  10.018 -0.2633  0.0179 -0.6643
  645TMC3    C1 9544   1.899   4.383  10.141 -0.0453  0.2745  0.5857
  645TMC3    C2 9545   1.850   4.467  10.234 -0.5065 -0.2220 -0.2062
  645TMC3    C3 9546   1.906   4.593  10.240 -0.1491 -0.1905 -0.4364
  645TMC3    C4 9547   1.986   4.413  10.042  0.1892 -0.4475 -0.0039
  645TMC3    C5 9548   2.028   4.543  10.046  0.5237  0.4170  0.3212
  645TMC3    C6 9549   1.990   4.639  10.139  0.8049  0.2429  0.1116
  645TMC3     C 9550   1.859   4.251  10.150  0.1960  1.0304  0.4369
  645TMC3     O 9551   1.756   4.230  10.208 -0.3843  0.4180  0.1785
  645TMC3     H 9552   1.784   4.428  10.311 -4.0884  1.6284 -2.3534
  645TMC3    H1 9553   2.019   4.352   9.958  1.0301 -1.2713  0.9259
  645TMC3    H2 9554   2.032   0.015  10.142  0.1595  0.4868  0.9981
  645TMC3    C7 9555   2.160   4.564   9.987 -0.1931  0.0908 -1.1875
  645TMC3    C8 9556   1.929   4.662  10.367 -0.8999  0.2364  0.5018
  645TMC3    O1 9557   2.234   4.467   9.971  0.0232  0.3980  0.2263
  645TMC3    O2 9558   2.009   0.028  10.366 -0.3372  0.2690 -0.1942
  646MPD2     C 9559   1.084   3.147  14.516 -0.1530 -0.0230 -0.8560
  646MPD2    C1 9560   0.986   3.125  14.610 -0.3000  0.1432 -0.0405
  646MPD2    C2 9561   0.866   3.198  14.603 -0.1759  0.4054  0.4531
  646MPD2    C3 9562   0.843   3.282  14.493  0.6394 -1.1363  0.4039
  646MPD2    C4 9563   0.941   3.289  14.391  0.0028  0.6736  0.2298
  646MPD2    C5 9564   1.063   3.232  14.410  0.4988  0.3467 -0.1046
  646MPD2     H 9565   0.788   3.173  14.674  0.9805 -1.4780  1.0749
  646MPD2    H1 9566   0.921   3.331  14.293 -0.2623  0.9885  0.4166
  646MPD2    H2 9567   1.183   3.102  14.519 -0.0022  0.3799  0.3478
  646MPD2    H3 9568   1.141   3.237  14.335 -0.7229 -0.9913 -1.4695
  646MPD2     N 9569   0.719   3.353  14.476  0.3570  0.0422  0.0156
  646MPD2    H5 9570   0.645   3.336  14.545 -2.5433  3.7653 -2.2084
  646MPD2    N1 9571   1.011   3.018  14.702 -0.0007  0.5769  0.7249
  646MPD2    H7 9572   1.107   2.984  14.706  0.3713  1.5717  0.2939
  647TMC3    C1 9573   1.001   2.896  14.907 -0.3394  0.0526 -0.1659
  647TMC3    C2 9574   0.913   2.836  14.994  0.6434 -0.1702 -0.7080
  647TMC3    C3 9575   0.966   2.780  15.103  0.6663 -0.2992 -0.0044
  647TMC3    C4 9576   1.134   2.898  14.915 -0.4432 -0.0972 -0.4828
  647TMC3    C5 9577   1.183   2.847  15.029 -0.2095 -0.3603 -0.6573
  647TMC3    C6 9578   1.102   2.787  15.123 -0.7361  0.5469 -0.3337
  647TMC3     C 9579   0.934   2.974  14.806  0.3530 -0.2059 -0.1294
  647TMC3     O 9580   0.809   2.975  14.806 -0.2891  0.3188 -0.1795
  647TMC3     H 9581   0.810   2.823  14.965  0.1880 -0.2533  0.9599
  647TMC3    H1 9582   1.200   2.951  14.846  1.7363 -0.8937  1.0025
  647TMC3    H2 9583   1.148   2.729  15.202  2.1640 -0.4531 -2.7267
  647TMC3    C7 9584   1.327   2.845  15.057  0.4527  0.0518 -0.1217
  647TMC3    C8 9585   0.905   2.654  15.151  0.4534  0.0043 -0.0825
  647TMC3    O1 9586   1.363   2.819  15.172 -0.8764  0.1486 -0.3207
  647TMC3    O2 9587   0.839   2.590  15.077  0.2058  0.4433 -0.4536
  648TMC3    C1 9588   0.275   0.598  15.948 -0.3360 -0.0685  0.9574
  648TMC3    C2 9589   0.323   0.482  15.885 -0.3329  0.2098 -0.1680
  648TMC3    C3 9590   0.332   0.481  15.747 -0.5508  0.9053  0.0475
  648TMC3    C4 9591   0.225   0.712  15.884 -0.5215 -0.5009  0.4061
  648TMC3    C5 9592   0.236   0.700  15.750 -0.0477  0.5680 -0.3915
  648TMC3    C6 9593   0.273   0.583  15.678  0.7423 -0.0444  0.1536
  648TMC3     C 9594   0.242   0.590  16.089  0.0395 -0.1600  1.1270
  648TMC3     O 9595   0.216   0.694  16.153 -0.3452 -0.3179 -0.0782
  648TMC3     H 9596   0.381   0.411  15.941 -0.4209  0.6801  0.5109
  648TMC3    H1 9597   0.210   0.802  15.941 -0.3854 -2.0668  2.9157
  648TMC3    H2 9598   0.263   0.573  15.571  1.8051 -0.7504  0.1216
  648TMC3    C7 9599   0.233   0.820  15.670 -0.5742  0.5708  0.0291
  648TMC3    C8 9600   0.350   0.351  15.677 -0.1649  0.5894  0.4718
  648TMC3    O1 9601   0.297   0.802  15.564 -0.0961  0.1943 -1.1335
  648TMC3    O2 9602   0.273   0.335  15.582 -0.3550 -0.1667 -0.0727
  649TMC3    C1 9603   0.126   1.752  12.730 -0.3556 -0.2798  0.0150
  649TMC3    C2 9604   0.220   1.827  12.789  0.1693 -1.2452 -0.2274
  649TMC3    C3 9605   0.248   1.813  12.922 -0.2355 -0.6153  0.3990
  649TMC3    C4 9606   0.060   1.650  12.793 -0.5662  0.3865 -0.2294
  649TMC3    C5 9607   0.094   1.634  12.918 -0.1359 -0.6772  0.3315
  649TMC3    C6 9608   0.183   1.709  12.987 -0.3142 -0.2466  0.6062
  649TMC3     C 9609   0.067   1.797  12.605  0.0970  0.0427  0.6128
  649TMC3     O 9610   4.671   1.776  12.608 -0.3216 -0.2690 -0.1965
  649TMC3     H 9611   0.281   1.890  12.726  0.0527 -1.5779 -0.6774
  649TMC3    H1 9612   4.710   1.587  12.747 -1.1694  1.9727 -1.4185
  649TMC3    H2 9613   0.209   1.687  13.090 -0.6233 -1.2528  0.4716
  649TMC3    C7 9614   0.032   1.533  13.011 -0.0617 -0.8259  0.0835
  649TMC3    C8 9615   0.374   1.860  12.979  1.0824 -0.1512  0.5461
  649TMC3    O1 9616   0.088   1.504  13.118 -0.1139  0.2232 -0.5061
  649TMC3    O2 9617   0.433   1.790  13.059 -0.4682 -0.1653 -0.1503
  650TMC3    C1 9618   2.268   3.832  12.657  0.6974  0.9746  0.0787
  650TMC3    C2 9619   2.250   3.963  12.695  0.3318  0.3227  0.5103
  650TMC3    C3 9620   2.332   4.062  12.641  0.4489 -0.1822  0.7737
  650TMC3    C4 9621   2.367   3.800  12.568  0.2367  0.9788  0.7847
  650TMC3    C5 9622   2.444   3.903  12.510 -0.5737 -0.2646  0.3731
  650TMC3    C6 9623   2.425   4.030  12.548  0.3279 -0.1116 -0.2297
  650TMC3     C 9624   2.200   3.729  12.737 -0.4128 -0.1921  0.0359
  650TMC3     O 9625   2.125   3.776  12.826 -1.0156 -0.4156 -0.6051
  650TMC3     H 9626   2.175   3.989  12.768 -0.1247 -0.7595  0.4247
  650TMC3    H1 9627   2.381   3.698  12.534 -1.2507  1.3580 -0.9883
  650TMC3    H2 9628   2.497   4.104  12.517  0.2698 -0.8289 -2.1098
  650TMC3    C7 9629   2.513   3.870  12.390  0.9393  0.1473  0.4328
  650TMC3    C8 9630   2.311   4.199  12.675 -0.2695  0.5337  0.1498
  650TMC3    O1 9631   2.543   3.754  12.374 -0.1841 -0.2095  0.0157
  650TMC3    O2 9632   2.354   4.277  12.595  0.1341  0.1855 -0.1587
  651MPD2     C 9633   1.134   0.798  10.457  0.4519 -0.5770  0.4525
  651MPD2    C1 9634   1.140   0.902  10.548 -0.4468 -0.1488  0.7889
  651MPD2    C2 9635   1.255   0.976  10.567  0.7162  0.1951 -0.3360
  651MPD2    C3 9636   1.368   0.952  10.498  0.2860  0.3433  0.3757
  651MPD2    C4 9637   1.371   0.849  10.409 -0.8113  0.3893 -0.2528
  651MPD2    C5 9638   1.252   0.773  10.392  0.2566  0.1562 -0.1797
  651MPD2     H 9639   1.250   1.061  10.633  2.0971 -1.1982  1.5619
  651MPD2    H1 9640   1.462   0.828  10.352 -1.8079  1.0202 -2.0838
  651MPD2    H2 9641   1.050   0.732  10.441  1.9758 -2.0978 -1.1910
  651MPD2    H3 9642   1.255   0.692  10.320 -2.4437 -1.5031  1.5525
  651MPD2     N 9643   1.472   1.044  10.521 -0.7007 -0.6998 -0.2534
  651MPD2    H5 9644   1.452   1.129  10.573  1.8796  0.0937 -0.5658
  651MPD2    N1 9645   1.030   0.941  10.629  0.2291  0.2745 -0.2787
  651MPD2    H7 9646   1.055   1.013  10.696 -1.4810  2.3176 -1.8614
  652TMC3    C1 9647   1.855   1.290  10.562 -0.5141 -0.3514  0.0529
  652TMC3    C2 9648   1.802   1.181  10.496  0.4817 -0.5317 -0.2689
  652TMC3    C3 9649   1.671   1.177  10.470  0.5327 -0.2204  0.3010
  652TMC3    C4 9650   1.787   1.403  10.593  0.8430 -0.2191  0.2730
  652TMC3    C5 9651   1.655   1.403  10.550 -0.4440 -0.2874  0.3681
  652TMC3    C6 9652   1.597   1.293  10.490 -0.0922 -0.3427  0.5327
  652TMC3     C 9653   1.975   1.257  10.641  0.4975  0.1576  0.0300
  652TMC3     O 9654   2.065   1.185  10.599  0.0633  0.4389 -0.0997
  652TMC3     H 9655   1.856   1.087  10.482  0.2552 -1.0142  2.0435
  652TMC3    H1 9656   1.833   1.490  10.639 -0.1089  0.2392  0.3617
  652TMC3    H2 9657   1.494   1.296  10.455  0.8559  3.9026 -1.9660
  652TMC3    C7 9658   1.586   1.529  10.563 -1.3471 -0.6259  0.3491
  652TMC3    C8 9659   1.599   1.049  10.458  0.0497  0.1416 -0.1432
  652TMC3    O1 9660   1.466   1.514  10.580 -0.4299  0.0594 -0.1791
  652TMC3    O2 9661   1.666   0.964  10.407 -0.2522 -0.7103  0.3595
  653MPD2     C 9662   4.690   0.071  17.675  0.2452 -0.2427  0.1534
  653MPD2    C1 9663   4.603   0.173  17.650 -0.4206 -0.3104  0.1880
  653MPD2    C2 9664   4.505   0.153  17.551 -0.1082 -0.1708 -0.3942
  653MPD2    C3 9665   4.495   0.037  17.481  0.5416  0.4378 -0.4169
  653MPD2    C4 9666   4.580   4.660  17.513 -0.7734  0.4649  0.3746
  653MPD2    C5 9667   4.674   4.675  17.610 -0.0319  0.0572  0.4545
  653MPD2     H 9668   4.437   0.234  17.527 -0.0666  0.0003  0.0603
  653MPD2    H1 9669   4.567   4.557  17.484  1.1868  1.0179 -2.4253
  653MPD2    H2 9670   0.044   0.069   0.049  0.5111  0.8686 -0.1001
  653MPD2    H3 9671   0.022   4.597  17.631  1.1413  1.2936  0.9873
  653MPD2     N 9672   4.381   0.014  17.396  0.0040 -0.1928 -0.6911
  653MPD2    H5 9673   4.307   0.083  17.399  0.9993  0.7715  2.1332
  653MPD2    N1 9674   4.614   0.306   0.008  0.2236 -0.2865  0.3255
  653MPD2    H7 9675   4.542   0.372  17.680  1.3340  1.3116  1.2714
  654TMC3    C1 9676   4.247   4.598  17.261 -0.4470  0.1171 -0.1077
  654TMC3    C2 9677   4.160   4.698  17.261 -0.4077 -0.9053 -0.1384
  654TMC3    C3 9678   4.033   4.672  17.291  0.2026  0.7498  0.0663
  654TMC3    C4 9679   4.200   4.470  17.288 -0.5419 -0.0011 -0.2404
  654TMC3    C5 9680   4.067   4.449  17.320 -0.7273  0.1607  0.6400
  654TMC3    C6 9681   3.979   4.550  17.327  0.3220 -0.0333 -0.3219
  654TMC3     C 9682   4.378   4.632  17.304  0.1892 -0.2989 -0.2718
  654TMC3     O 9683   4.457   4.539  17.279 -0.2312  0.0753  0.3110
  654TMC3     H 9684   4.180   0.075  17.232 -1.0844  0.1885  3.2117
  654TMC3    H1 9685   4.275   4.392  17.294  0.1601  0.6445 -0.5350
  654TMC3    H2 9686   3.871   4.538  17.328  0.2679  0.6112  1.5580
  654TMC3    C7 9687   4.036   4.344  17.413  0.0415  0.6227  0.3912
  654TMC3    C8 9688   3.945   0.050  17.239  0.7018  0.2399 -0.4338
  654TMC3    O1 9689   3.927   4.334  17.460 -0.0827  0.3127  0.0939
  654TMC3    O2 9690   3.863   0.096  17.317 -0.0344 -0.0639  0.4949
  655MPD2     C 9691   1.038   0.806  15.676  0.4862  0.0430  0.5979
  655MPD2    C1 9692   0.951   0.825  15.571 -0.5751 -0.4243 -0.1628
  655MPD2    C2 9693   0.977   0.748  15.459 -0.7892 -0.2676 -0.0791
  655MPD2    C3 9694   1.084   0.657  15.458 -0.7149  0.0728 -0.0062
  655MPD2    C4 9695   1.162   0.635  15.567 -0.1153  0.3189 -1.0227
  655MPD2    C5 9696   1.139   0.718  15.672 -0.3295  0.8610  0.4077
  655MPD2     H 9697   0.908   0.763  15.377 -0.4871  0.3260 -0.2210
  655MPD2    H1 9698   1.253   0.575  15.568  1.0286  2.0777 -0.1729
  655MPD2    H2 9699   1.027   0.870  15.763  1.4732  1.5227 -0.3705
  655MPD2    H3 9700   1.204   0.713  15.758  0.5594  1.2217 -0.2365
  655MPD2     N 9701   1.121   0.583  15.345  1.1129  0.6767  0.6229
  655MPD2    H5 9702   1.182   0.502  15.353 -2.0774 -1.6994  0.6987
  655MPD2    N1 9703   0.847   0.923  15.564 -0.2035  0.6087  0.2179
  655MPD2    H7 9704   0.783   0.917  15.486  0.2072 -0.1188 -0.0674
  656TMC3    C1 9705   0.698   1.082  15.638  0.3739  0.2366  0.1374
  656TMC3    C2 9706   0.612   1.075  15.747 -0.1938  0.6052 -0.3154
  656TMC3    C3 9707   0.518   1.173  15.758 -0.4491 -0.2601 -0.1548
  656TMC3    C4 9708   0.705   1.192  15.554 -0.2644 -0.0707 -0.2660
  656TMC3    C5 9709   0.612   1.290  15.574 -0.7075 -0.1160 -0.5340
  656TMC3    C6 9710   0.516   1.281  15.673  0.4120  0.1941 -0.4668
  656TMC3     C 9711   0.817   1.014  15.664  0.1905  0.7565 -0.2823
  656TMC3     O 9712   0.870   1.047  15.769 -0.0717  0.1718  0.0132
  656TMC3     H 9713   0.637   0.997  15.818  0.2874  1.7336  0.7541
  656TMC3    H1 9714   0.784   1.192  15.480  0.6851 -0.3555  0.7555
  656TMC3    H2 9715   0.432   1.349  15.683  0.6188  0.7455 -2.5635
  656TMC3    C7 9716   0.618   1.418  15.493  0.0869  0.1414 -0.3848
  656TMC3    C8 9717   0.411   1.148  15.855 -0.2767 -0.1169 -0.0130
  656TMC3    O1 9718   0.700   1.418  15.404 -0.2028  0.0574 -0.4747
  656TMC3    O2 9719   0.396   1.034  15.897  0.2264 -0.8137 -0.1874
  657TMC3    C1 9720   0.010   0.373  15.424 -0.4174 -0.5244 -0.5862
  657TMC3    C2 9721   4.683   0.393  15.548  0.9497  0.3794  0.0232
  657TMC3    C3 9722   4.624   0.510  15.571  0.2529  0.5664  0.1055
  657TMC3    C4 9723   4.715   0.460  15.319 -0.3484 -1.0161  0.2130
  657TMC3    C5 9724   4.657   0.576  15.354  0.1220  0.2807 -0.3495
  657TMC3    C6 9725   4.621   0.603  15.477 -0.1659  0.1731 -0.1274
  657TMC3     C 9726   0.037   0.239  15.390 -0.5128  0.4914  0.3673
  657TMC3     O 9727   4.688   0.153  15.438 -0.3380 -0.1378  0.1827
  657TMC3     H 9728   4.691   0.315  15.624 -2.9406 -0.2274 -0.1793
  657TMC3    H1 9729   0.031   0.443  15.220  0.6978 -0.3070  0.5178
  657TMC3    H2 9730   4.573   0.699  15.488  0.9000  0.7384 -0.4244
  657TMC3    C7 9731   4.656   0.693  15.260 -0.6101 -0.4420 -0.2664
  657TMC3    C8 9732   4.544   0.520  15.683 -0.3197  0.4645  0.3686
  657TMC3    O1 9733   4.683   0.803  15.311  0.4918  0.6213 -0.0480
  657TMC3    O2 9734   4.584   0.467  15.787 -0.3170  0.0369  0.4068
  658MPD2     C 9735   1.417   0.533  14.543  0.2324 -0.9148  0.4267
  658MPD2    C1 9736   1.365   0.607  14.633  0.1163  0.3107  0.6426
  658MPD2    C2 9737   1.344   0.745  14.619 -0.5798 -0.2455  0.5721
  658MPD2    C3 9738   1.381   0.804  14.498 -0.5187 -0.4846 -0.7847
  658MPD2    C4 9739   1.444   0.724  14.402 -0.1732  0.3873 -0.7165
  658MPD2    C5 9740   1.469   0.593  14.432  0.1644 -0.1945 -0.3888
  658MPD2     H 9741   1.297   0.806  14.696  1.7755  0.6753  1.2852
  658MPD2    H1 9742   1.480   0.760  14.307  0.2449 -1.0025 -1.0799
  658MPD2    H2 9743   1.442   0.429  14.562 -0.9370 -1.5683 -1.6426
  658MPD2    H3 9744   1.508   0.519  14.362  0.1804  1.9066 -2.5894
  658MPD2     N 9745   1.361   0.941  14.482  0.2117 -0.6809 -0.5100
  658MPD2    H5 9746   1.307   0.988  14.553  0.4260  0.6074 -1.1952
  658MPD2    N1 9747   1.324   0.536  14.743  0.0795  0.4881  0.4708
  658MPD2    H7 9748   1.322   0.434  14.746  2.1802  0.4547  0.7997
  659TMC3    C1 9749   1.195   0.485  14.930 -0.3022 -0.3902  0.5386
  659TMC3    C2 9750   1.194   0.515  15.063 -0.0372 -0.2874 -0.3136
  659TMC3    C3 9751   1.083   0.480  15.135  0.2642  0.1737  0.0728
  659TMC3    C4 9752   1.097   0.420  14.860  0.1174  0.1940  0.1325
  659TMC3    C5 9753   0.987   0.390  14.936  0.0973  0.1696  0.0190
  659TMC3    C6 9754   0.981   0.417  15.069  0.7563 -0.4575  0.7512
  659TMC3     C 9755   1.263   0.588  14.855  0.4328  0.0905 -0.9496
  659TMC3     O 9756   1.271   0.699  14.900 -0.4831  0.6383  0.0659
  659TMC3     H 9757   1.275   0.575  15.102 -1.6684 -0.3761  3.1765
  659TMC3    H1 9758   1.091   0.397  14.754 -0.7819  3.9832 -0.6605
  659TMC3    H2 9759   0.887   0.413  15.123  0.4889 -1.1716  0.2260
  659TMC3    C7 9760   0.860   0.411  14.870  0.0867 -0.2832  0.0246
  659TMC3    C8 9761   1.058   0.588  15.225  0.2174 -0.0661 -0.2475
  659TMC3    O1 9762   0.766   0.385  14.940 -0.2641  0.8463  0.3991
  659TMC3    O2 9763   0.979   0.673  15.184  0.7709  0.4076  0.6058
  660MPD2     C 9764   4.074   3.460  12.494  0.1687  0.1335 -0.1885
  660MPD2    C1 9765   4.020   3.585  12.480 -0.5103 -0.1521 -0.7556
  660MPD2    C2 9766   3.960   3.642  12.593 -0.4895  0.0962  0.4163
  660MPD2    C3 9767   3.949   3.573  12.715 -0.3749 -0.7548  0.3980
  660MPD2    C4 9768   4.011   3.452  12.727  0.2043  0.5490  0.3807
  660MPD2    C5 9769   4.069   3.399  12.618  0.4803  0.2861 -0.0217
  660MPD2     H 9770   3.909   3.736  12.577  0.4986  0.2504 -1.8738
  660MPD2    H1 9771   4.002   3.403  12.824 -2.0152  2.3561  1.0807
  660MPD2    H2 9772   4.121   3.416  12.407  1.3248  1.0689 -0.0395
  660MPD2    H3 9773   4.103   3.297  12.631 -1.7652 -0.6489 -1.4694
  660MPD2     N 9774   3.886   3.625  12.831 -0.2518 -0.1609  0.7544
  660MPD2    H5 9775   3.897   3.574  12.917  1.8996  0.0699  0.6210
  660MPD2    N1 9776   4.032   3.641  12.346  0.3523 -0.4309  0.1348
  660MPD2    H7 9777   4.079   3.578  12.281 -0.5516 -3.0168  2.0184
  661TMC3    C1 9778   4.017   3.822  12.178  0.0123 -0.5708  0.0716
  661TMC3    C2 9779   4.031   3.745  12.065  0.0392 -0.1691  0.3718
  661TMC3    C3 9780   4.046   3.799  11.944 -0.4489  0.0424  0.1865
  661TMC3    C4 9781   4.015   3.956  12.172  0.2763 -0.6722  0.0350
  661TMC3    C5 9782   4.050   4.011  12.052  0.1647  0.4812 -0.5087
  661TMC3    C6 9783   4.073   3.934  11.942 -0.2716 -0.4150  0.6048
  661TMC3     C 9784   3.990   3.766  12.310  0.0710  0.0637 -0.6316
  661TMC3     O 9785   3.927   3.846  12.382  0.3074  0.3951  0.8608
  661TMC3     H 9786   4.026   3.636  12.068  1.9841 -0.3546 -2.5281
  661TMC3    H1 9787   4.014   4.017  12.262 -0.2595 -0.1408 -0.3309
  661TMC3    H2 9788   4.088   3.987  11.849 -0.2253  0.3434  1.0373
  661TMC3    C7 9789   4.020   4.153  12.039  0.8593 -0.2597 -0.0459
  661TMC3    C8 9790   4.040   3.726  11.822  0.0659 -0.0190 -0.4149
  661TMC3    O1 9791   4.038   4.212  12.144 -0.1430 -0.0736  0.0547
  661TMC3    O2 9792   4.095   3.784  11.729  0.6196 -0.1097 -0.1263
  662MPD2     C 9793   3.810   3.827  17.154 -0.0477 -0.7053 -0.2475
  662MPD2    C1 9794   3.762   3.770  17.269  0.1185  0.4937  0.4181
  662MPD2    C2 9795   3.773   3.853  17.380 -0.0817  0.7279  0.3671
  662MPD2    C3 9796   3.803   3.988  17.386  0.5573  0.4274 -0.4130
  662MPD2    C4 9797   3.831   4.047  17.263  0.4165  0.0821  1.0535
  662MPD2    C5 9798   3.846   3.962  17.151  0.1347 -0.3717 -0.3329
  662MPD2     H 9799   3.758   3.802  17.475  1.4276 -1.0846 -0.3815
  662MPD2    H1 9800   3.849   4.154  17.261 -0.0418  0.1081 -1.1535
  662MPD2    H2 9801   3.841   3.770  17.067 -1.1071  1.3242 -1.9447
  662MPD2    H3 9802   3.882   3.993  17.054  0.2705 -0.2031 -0.2289
  662MPD2     N 9803   3.798   4.068  17.503 -0.6492  0.3459 -0.0716
  662MPD2    H5 9804   3.820   4.166  17.488 -2.5909  0.8222  0.2042
  662MPD2    N1 9805   3.719   3.633  17.285 -0.1597 -0.3969  0.7339
  662MPD2    H7 9806   3.712   3.604  17.382  1.2182 -1.2914  0.5567
  663TMC3    C1 9807   3.677   3.408  17.241  0.0180  0.7550 -0.3316
  663TMC3    C2 9808   3.653   3.383  17.374 -0.1681 -0.2434  0.1470
  663TMC3    C3 9809   3.619   3.262  17.416  0.0716  0.3339 -0.7024
  663TMC3    C4 9810   3.657   3.313  17.146 -0.3035  0.8603  0.3629
  663TMC3    C5 9811   3.611   3.193  17.194  0.5940 -0.5481  0.3996
  663TMC3    C6 9812   3.589   3.162  17.326  0.0601 -0.1777  0.0429
  663TMC3     C 9813   3.707   3.543  17.187  0.0402 -0.0061  0.3489
  663TMC3     O 9814   3.735   3.549  17.069  0.1963 -0.2253  0.2106
  663TMC3     H 9815   3.672   3.460  17.448  0.7627 -0.7840  0.4663
  663TMC3    H1 9816   3.691   3.326  17.044 -1.8590  1.9913 -0.0123
  663TMC3    H2 9817   3.596   3.061  17.365  0.7326 -0.2340 -0.2207
  663TMC3    C7 9818   3.619   3.084  17.097 -0.1585 -0.7076 -0.0299
  663TMC3    C8 9819   3.543   3.254  17.536 -0.0387  0.2337  0.1143
  663TMC3    O1 9820   3.642   3.114  16.984 -0.3701  0.2655 -0.1572
  663TMC3    O2 9821   3.584   3.318  17.633  0.1590 -0.0605  0.8586
  664MPD2     C 9822   2.000   2.064  17.401  0.4745  0.1039 -0.3283
  664MPD2    C1 9823   2.096   2.114  17.487 -0.2406  0.5119 -0.6045
  664MPD2    C2 9824   2.099   2.059  17.615  0.2345  0.1085 -0.4856
  664MPD2    C3 9825   2.020   1.953  17.655  0.5721 -0.8643  0.2496
  664MPD2    C4 9826   1.939   1.893  17.566 -0.3864 -0.4650 -0.1110
  664MPD2    C5 9827   1.929   1.953  17.443  0.1124  0.2570 -0.5370
  664MPD2     H 9828   2.166   2.101  17.689 -0.1919 -1.1482  0.6345
  664MPD2    H1 9829   1.863   1.822  17.594 -1.3903  0.8732  0.5621
  664MPD2    H2 9830   1.971   2.111  17.307  0.7436  0.4556 -0.2361
  664MPD2    H3 9831   1.865   1.925  17.360 -0.7827 -4.1491  1.6699
  664MPD2     N 9832   2.035   1.910   0.087 -0.2326 -0.7337 -0.0277
  664MPD2    H5 9833   2.103   1.956   0.147  0.6207  0.0307 -1.5919
  664MPD2    N1 9834   2.190   2.209  17.451  0.3971 -0.1784 -0.2388
  664MPD2    H7 9835   2.269   2.231  17.510  0.8115  0.1480 -0.9106
  665TMC3    C1 9836   2.036   1.776   0.277 -0.2983 -0.1453 -0.5175
  665TMC3    C2 9837   1.942   1.776   0.378  0.5849 -0.5498  0.7622
  665TMC3    C3 9838   1.982   1.829   0.500 -0.3892 -0.7414  0.4154
  665TMC3    C4 9839   2.159   1.838   0.291 -0.2585 -0.4507 -0.0487
  665TMC3    C5 9840   2.187   1.903   0.404  0.0986 -0.6995 -0.4416
  665TMC3    C6 9841   2.112   1.886   0.515 -0.3321  0.2464 -0.0888
  665TMC3     C 9842   1.972   1.806   0.150  0.2817  0.0212 -0.5027
  665TMC3     O 9843   1.887   1.724   0.120  0.0825 -0.2300 -0.4955
  665TMC3     H 9844   1.838   1.754   0.355  1.1572 -1.0562 -1.2822
  665TMC3    H1 9845   2.232   1.846   0.211 -0.4029 -2.0469 -0.3531
  665TMC3    H2 9846   2.134   1.926   0.614 -0.2767 -2.6789  1.0695
  665TMC3    C7 9847   2.231   2.039   0.380 -0.2127 -0.0850 -0.0292
  665TMC3    C8 9848   1.880   1.861   0.602 -0.2507 -0.2328  0.3748
  665TMC3    O1 9849   2.198   2.081   0.268  0.7743  0.6235 -0.8332
  665TMC3    O2 9850   1.916   1.923   0.701 -0.2717  0.3479  0.3673
  666TMC3    C1 9851   1.915   1.743   9.813 -0.7856  0.1255 -0.3943
  666TMC3    C2 9852   2.030   1.689   9.860 -0.2760  0.2198 -0.7361
  666TMC3    C3 9853   2.140   1.742   9.800  0.7735  0.5454  0.1844
  666TMC3    C4 9854   1.914   1.860   9.743  0.6474  0.4950 -0.5099
  666TMC3    C5 9855   2.031   1.921   9.704 -0.0561 -0.0722  1.2205
  666TMC3    C6 9856   2.147   1.852   9.723 -0.2378  0.0745 -0.4485
  666TMC3     C 9857   1.809   1.726   9.908  0.1020 -0.8053  0.2524
  666TMC3     O 9858   1.744   1.826   9.937 -0.3272 -0.3186  0.5119
  666TMC3     H 9859   2.032   1.595   9.913 -2.6077  0.7302  0.2499
  666TMC3    H1 9860   1.827   1.924   9.752 -1.5239 -3.0203  2.9304
  666TMC3    H2 9861   2.237   1.876   9.667 -0.9221  1.0366 -1.1317
  666TMC3    C7 9862   2.029   2.063   9.735 -0.4415 -0.1469  0.0301
  666TMC3    C8 9863   2.266   1.673   9.829  0.0875  1.2807 -0.0385
  666TMC3    O1 9864   1.927   2.107   9.781 -0.0268 -0.4762 -0.2183
  666TMC3    O2 9865   2.260   1.552   9.812  0.0142  0.0588  0.2088
  667MPD2     C 9866   2.117   2.387  14.921  0.7136  0.0520 -0.2294
  667MPD2    C1 9867   2.136   2.266  14.990  0.4031 -0.3145 -0.0665
  667MPD2    C2 9868   2.044   2.167  14.986 -0.3945 -0.4303 -0.1809
  667MPD2    C3 9869   1.931   2.182  14.903  0.6074  0.4207 -0.2253
  667MPD2    C4 9870   1.923   2.292  14.832 -0.7198  0.0284 -0.8013
  667MPD2    C5 9871   2.003   2.397  14.847 -0.1672  0.5541  0.1974
  667MPD2     H 9872   2.055   2.077  15.046 -1.1439 -0.1890  0.3152
  667MPD2    H1 9873   1.839   2.316  14.767  0.9050  0.0914 -2.8590
  667MPD2    H2 9874   2.190   2.468  14.916 -1.2315  1.6900 -1.7707
  667MPD2    H3 9875   1.976   2.492  14.803 -1.6250 -0.3451 -0.8283
  667MPD2     N 9876   1.832   2.079  14.881 -0.3507  0.5504  0.6366
  667MPD2    H5 9877   1.762   2.097  14.811  0.5949  0.9541 -0.2027
  667MPD2    N1 9878   2.254   2.235  15.063  0.7310 -0.3824  0.6498
  667MPD2    H7 9879   2.254   2.155  15.125  0.9421 -0.2955  0.7618
  668TMC3    C1 9880   2.475   2.233  15.151 -0.7300 -0.2597  0.8251
  668TMC3    C2 9881   2.607   2.261  15.130 -0.2029 -0.4016 -0.9712
  668TMC3    C3 9882   2.698   2.176  15.190 -0.4395 -0.3943 -0.6697
  668TMC3    C4 9883   2.430   2.144  15.243 -0.4188 -0.4609 -0.3969
  668TMC3    C5 9884   2.520   2.067  15.311  0.3094 -0.3685 -0.3919
  668TMC3    C6 9885   2.651   2.084  15.280 -0.2935 -0.1198  0.0514
  668TMC3     C 9886   2.373   2.305  15.070 -0.2029 -0.2577  0.1436
  668TMC3     O 9887   2.408   2.415  15.025 -0.1197  0.0091  0.4862
  668TMC3     H 9888   2.637   2.338  15.061  2.6776  1.8386  2.8226
  668TMC3    H1 9889   2.324   2.135  15.264 -0.2834  1.0415  1.0143
  668TMC3    H2 9890   2.720   2.014  15.325 -0.2287 -1.6094 -2.3702
  668TMC3    C7 9891   2.484   1.944  15.373  0.2676 -0.5494  0.1030
  668TMC3    C8 9892   2.838   2.217  15.223  1.4589 -0.7042 -0.4919
  668TMC3    O1 9893   2.559   1.846  15.357  0.0085 -0.3786  0.2324
  668TMC3    O2 9894   2.893   2.183  15.326 -0.2860 -0.4121  0.0112
  669TMC3    C1 9895   0.598   2.412  14.845  0.4707 -0.1970  0.0370
  669TMC3    C2 9896   0.506   2.459  14.759  0.1134 -0.3702 -0.8048
  669TMC3    C3 9897   0.550   2.560  14.669  0.0966  0.3144  0.3774
  669TMC3    C4 9898   0.726   2.445  14.842 -1.0512 -0.9722  0.6509
  669TMC3    C5 9899   0.766   2.543  14.754  0.1243  0.4334  0.2534
  669TMC3    C6 9900   0.678   2.602  14.667  0.1753  0.3526 -0.2185
  669TMC3     C 9901   0.552   2.298  14.923  0.3936  0.0417 -0.0688
  669TMC3     O 9902   0.434   2.297  14.953  0.2327  0.3240  0.7542
  669TMC3     H 9903   0.407   2.414  14.753 -0.3191  0.3573  1.0019
  669TMC3    H1 9904   0.782   2.409  14.928  1.3606 -0.1562 -0.5636
  669TMC3    H2 9905   0.710   2.674  14.593  1.0186  1.1129  0.8926
  669TMC3    C7 9906   0.913   2.568  14.741  0.6229 -0.1533 -0.0998
  669TMC3    C8 9907   0.498   2.534  14.536 -0.3066  0.1734 -0.7216
  669TMC3    O1 9908   0.950   2.608  14.633  0.2351 -0.1772  0.3258
  669TMC3    O2 9909   0.565   2.477  14.451 -0.0867 -0.3047 -0.0192
  670MPD2     C 9910   3.651   0.008  13.360  0.1488 -1.0492  0.0977
  670MPD2    C1 9911   3.781   0.026  13.409  0.4225  0.6345  0.0899
  670MPD2    C2 9912   3.798   0.037  13.546 -0.1535 -0.0032 -0.2183
  670MPD2    C3 9913   3.693   0.047  13.636  0.3223  0.0083 -0.4738
  670MPD2    C4 9914   3.568   0.038  13.587 -0.4177 -0.7269 -0.1943
  670MPD2    C5 9915   3.548   0.028  13.446  0.1162  0.2541  0.4560
  670MPD2     H 9916   3.901   0.041  13.578  0.1604 -0.2461 -1.1922
  670MPD2    H1 9917   3.482   0.036  13.654  0.2997  0.3189  0.7506
  670MPD2    H2 9918   3.636   4.709  13.255 -0.2509 -0.5104  0.0298
  670MPD2    H3 9919   3.450   0.016  13.400 -0.0193 -1.1415  1.1202
  670MPD2     N 9920   3.722   0.065  13.771 -0.3121 -0.1310  0.5849
  670MPD2    H5 9921   3.821   0.057  13.790 -0.2642  2.9750  1.5611
  670MPD2    N1 9922   3.906   0.015  13.329  0.0085 -0.1665 -0.2012
  670MPD2    H7 9923   3.994   0.033  13.377  0.4252  3.1829 -2.2205
  671TMC3    C1 9924   3.669   0.088  13.994 -1.2470 -0.0861 -0.5511
  671TMC3    C2 9925   3.804   0.096  14.024  0.1421  0.5280  0.2895
  671TMC3    C3 9926   3.853   4.713  14.093  0.5929  0.0044  0.3611
  671TMC3    C4 9927   3.589   4.716  14.052 -0.3424  0.6092 -0.3926
  671TMC3    C5 9928   3.649   4.617  14.120  0.1090  0.2121 -0.3467
  671TMC3    C6 9929   3.780   4.610  14.148  0.4518 -0.2550  0.8166
  671TMC3     C 9930   3.630   0.100  13.858 -0.0962  0.4224  0.1726
  671TMC3     O 9931   3.517   0.138  13.845  0.8390  0.3622  0.4264
  671TMC3     H 9932   3.862   0.167  13.967  0.9796  0.9410  1.6708
  671TMC3    H1 9933   3.491   4.706  14.007 -0.9988 -1.7724  1.6031
  671TMC3    H2 9934   3.825   4.522  14.192  0.5170 -1.4191 -1.5738
  671TMC3    C7 9935   3.584   4.487  14.099 -0.2698 -0.5466  0.0426
  671TMC3    C8 9936   3.994   4.684  14.073  0.8707 -0.0511  0.2963
  671TMC3    O1 9937   3.654   4.405  14.043 -0.6005  0.4588  0.1103
  671TMC3    O2 9938   4.040   4.715  13.965 -0.3911  0.1909 -0.5345
  672MPD2     C 9939   4.024   4.256   0.619 -0.6138  0.2861 -0.1172
  672MPD2    C1 9940   4.083   4.372   0.572  0.0531  0.3791 -0.2895
  672MPD2    C2 9941   4.135   4.465   0.652  0.1093  0.1522 -0.3482
  672MPD2    C3 9942   4.142   4.448   0.787  0.3442  0.3582 -1.2412
  672MPD2    C4 9943   4.073   4.342   0.837 -0.6198  0.0209 -0.0745
  672MPD2    C5 9944   4.019   4.248   0.756  0.3546  0.2426 -1.4489
  672MPD2     H 9945   4.185   4.546   0.600  0.7979  0.4743  0.8143
  672MPD2    H1 9946   4.054   4.329   0.943 -1.7695 -2.1503 -0.5442
  672MPD2    H2 9947   3.971   4.182   0.560  0.2503 -0.2659 -0.1996
  672MPD2    H3 9948   3.951   4.172   0.793 -1.8623  3.0558  0.2561
  672MPD2     N 9949   4.196   4.537   0.884  0.0263  0.1320  0.1904
  672MPD2    H5 9950   4.191   4.510   0.981 -0.8784  0.5581  0.2557
  672MPD2    N1 9951   4.101   4.397   0.434  0.2955 -0.1752  0.3322
  672MPD2    H7 9952   4.130   4.492   0.413  1.3349 -0.0855  2.1138
  673TMC3    C1 9953   4.193   4.348   0.229 -0.0946 -0.7622 -0.5599
  673TMC3    C2 9954   4.290   4.269   0.184  0.2157 -0.0945  0.3481
  673TMC3    C3 9955   4.358   4.307   0.070  0.2446 -0.2750  0.0968
  673TMC3    C4 9956   4.162   4.471   0.171  0.0221  0.2442 -0.0937
  673TMC3    C5 9957   4.234   4.516   0.065  0.3696  0.3162  0.1408
  673TMC3    C6 9958   4.326   4.426   0.008 -0.4416 -0.1387  0.5112
  673TMC3     C 9959   4.120   4.294   0.344 -0.4967 -1.1791 -0.0154
  673TMC3     O 9960   4.122   4.177   0.372  0.0193  0.4946  0.0449
  673TMC3     H 9961   4.311   4.177   0.236 -0.8818 -1.1367 -1.0383
  673TMC3    H1 9962   4.087   4.536   0.216 -0.5662 -0.3483 -0.2256
  673TMC3    H2 9963   4.375   4.462  17.618 -2.1486  0.2287 -0.2643
  673TMC3    C7 9964   4.191   4.630  17.686  0.4747  0.0423  0.1757
  673TMC3    C8 9965   4.467   4.219   0.026  0.0528  0.1884 -0.3186
  673TMC3    O1 9966   4.166   4.613  17.567  0.4233  0.6447 -0.2683
  673TMC3    O2 9967   4.509   4.229  17.608 -0.2339 -0.6404  0.0029
  674MPD2     C 9968   4.326   3.541   0.602 -0.5017  0.6147 -0.8965
  674MPD2    C1 9969   4.190   3.529   0.564 -0.0609 -0.4290 -0.1423
  674MPD2    C2 9970   4.100   3.546   0.664 -0.3978  0.4164 -0.2730
  674MPD2    C3 9971   4.136   3.568   0.793 -0.3142  0.3120  0.6617
  674MPD2    C4 9972   4.267   3.570   0.834 -0.7842 -0.3139  0.2039
  674MPD2    C5 9973   4.360   3.557   0.735 -1.1839 -0.1440  0.2608
  674MPD2     H 9974   3.992   3.543   0.651 -0.1815  0.0328 -1.9547
  674MPD2    H1 9975   4.296   3.585   0.938  0.7798 -2.1490  0.0315
  674MPD2    H2 9976   4.407   3.543   0.530  1.0053  1.0996  0.8109
  674MPD2    H3 9977   4.467   3.559   0.751 -0.7399 -2.2440 -2.4556
  674MPD2     N 9978   4.029   3.606   0.883  0.0894  0.3292 -0.6267
  674MPD2    H5 9979   3.936   3.605   0.841  0.0960 -1.0329 -0.6129
  674MPD2    N1 9980   4.150   3.510   0.427  0.1957 -0.3931 -0.0379
  674MPD2    H7 9981   4.221   3.516   0.355 -0.6399 -2.0225 -1.0014
  675TMC3    C1 9982   3.987   3.578   0.268  0.2011  0.2199  0.1998
  675TMC3    C2 9983   3.877   3.654   0.301  0.0095 -0.0668 -0.3548
  675TMC3    C3 9984   3.788   3.682   0.203  0.3521  0.8571 -0.2793
  675TMC3    C4 9985   3.994   3.510   0.154  0.3508  0.2212 -1.3442
  675TMC3    C5 9986   3.897   3.538   0.055  0.2317  0.3164 -0.3680
  675TMC3    C6 9987   3.796   3.628   0.074 -0.9183 -0.0040 -0.0181
  675TMC3     C 9988   4.016   3.506   0.385 -0.6942 -0.9106 -0.4563
  675TMC3     O 9989   3.915   3.473   0.452 -0.1678  0.3668 -0.4553
  675TMC3     H 9990   3.873   3.724   0.384 -0.1710  0.5869 -0.9045
  675TMC3    H1 9991   4.082   3.451   0.132  0.4146 -1.1548  2.5835
  675TMC3    H2 9992   3.715   3.642   0.004 -1.5373  1.5465  1.0130
  675TMC3    C7 9993   3.925   3.509  17.617 -0.0486  0.0173  0.2196
  675TMC3    C8 9994   3.656   3.690   0.264  0.5846 -0.1221  0.1004
  675TMC3    O1 9995   3.882   3.590  17.532 -0.0439 -0.4542 -0.5013
  675TMC3    O2 9996   3.566   3.733   0.195 -0.3010 -0.0880  0.6345
  676MPD2     C 9997   2.481   3.726  11.121  0.7145 -0.0784  0.1231
  676MPD2    C1 9998   2.359   3.716  11.186 -0.8040 -0.2268 -0.1697
  676MPD2    C2 9999   2.339   3.618  11.281  0.1784  0.1368  0.2173
  676MPD2    C310000   2.438   3.530  11.311 -0.4515 -0.0004  0.6587
  676MPD2    C410001   2.556   3.529  11.242  1.1733  0.1422 -0.1345
  676MPD2    C510002   2.579   3.626  11.146 -0.1887 -0.7684 -0.4296
  676MPD2     H10003   2.243   3.613  11.331 -0.0269  2.1405 -0.0062
  676MPD2    H110004   2.629   3.452  11.264  0.1606 -0.9972 -0.7340
  676MPD2    H210005   2.506   3.803  11.049  1.1638 -0.6076 -0.2819
  676MPD2    H310006   2.675   3.618  11.096  0.8694 -0.4483  1.5536
  676MPD2     N10007   2.418   3.414  11.389 -0.5023 -0.1033 -0.0542
  676MPD2    H510008   2.501   3.355  11.386  0.0711  0.8270 -2.2811
  676MPD2    N110009   2.252   3.811  11.178  0.1774 -0.0790 -0.1540
  676MPD2    H710010   2.173   3.792  11.239 -0.5247 -0.4068 -1.1575
  677TMC3    C110011   2.148   4.030  11.146  0.2841 -0.4820  0.4348
  677TMC3    C210012   2.072   3.999  11.255 -0.3129  0.1500  0.1505
  677TMC3    C310013   2.056   4.100  11.347 -0.0186  0.6489  0.4030
  677TMC3    C410014   2.210   4.154  11.133 -0.2657 -0.0838  0.4581
  677TMC3    C510015   2.183   4.251  11.232  0.3338  0.0441 -0.4346
  677TMC3    C610016   2.106   4.230  11.341  0.0183  0.9189  0.1478
  677TMC3     C10017   2.252   3.932  11.105  0.7424 -0.0310 -0.4073
  677TMC3     O10018   2.339   3.971  11.028  0.8314  0.1856 -0.0093
  677TMC3     H10019   2.007   3.914  11.274 -0.6785  0.8467  1.9658
  677TMC3    H110020   2.258   4.175  11.038  1.8899  0.9240  1.7721
  677TMC3    H210021   2.102   4.305  11.419  0.2327 -0.3904  1.4000
  677TMC3    C710022   2.265   4.372  11.244  0.6733 -0.3042  0.1123
  677TMC3    C810023   2.093   4.046  11.480 -0.1964 -0.0687 -1.2061
  677TMC3    O110024   2.228   4.458  11.325  0.0813 -0.0312  0.6954
  677TMC3    O210025   2.021   4.072  11.576 -0.2505  0.2860 -0.8024
  678MPD2     C10026   2.719   2.775   1.684  0.1385 -0.3180  0.5350
  678MPD2    C110027   2.790   2.813   1.575 -0.3352  0.2310  0.9392
  678MPD2    C210028   2.734   2.880   1.474  0.0257 -0.1226 -0.2669
  678MPD2    C310029   2.603   2.921   1.487 -0.6104 -0.4994 -0.4748
  678MPD2    C410030   2.527   2.891   1.602 -0.1205  0.0286 -0.6059
  678MPD2    C510031   2.587   2.816   1.695 -0.0713  0.4905 -0.0529
  678MPD2     H10032   2.789   2.927   1.394  0.9266  0.5209  0.7410
  678MPD2    H110033   2.423   2.921   1.616 -0.0853 -0.0156 -0.2610
  678MPD2    H210034   2.756   2.727   1.773  1.8846  0.7236  0.3642
  678MPD2    H310035   2.528   2.796   1.783 -0.8191  0.3383 -0.5900
  678MPD2     N10036   2.549   2.990   1.379 -0.1636 -0.3830  0.0269
  678MPD2    H510037   2.612   3.003   1.300 -2.0867 -0.2461 -1.5071
  678MPD2    N110038   2.928   2.784   1.549 -0.3938 -0.1023  0.2790
  678MPD2    H710039   2.949   2.799   1.451  1.1661 -0.8066  0.5204
  679TMC3    C110040   3.373   2.646   1.618 -0.2942 -0.5901  0.4625
  679TMC3    C210041   3.243   2.647   1.657  0.5675  0.4616 -0.2029
  679TMC3    C310042   3.155   2.723   1.590 -0.1968 -0.2877  0.2862
  679TMC3    C410043   3.419   2.718   1.512 -0.3680  0.2656 -0.4934
  679TMC3    C510044   3.327   2.801   1.446 -0.7354 -0.2678 -0.0155
  679TMC3    C610045   3.192   2.794   1.478 -0.2719  0.3262 -0.3480
  679TMC3     C10046   3.470   2.588   1.709 -0.1722  0.1312  0.2623
  679TMC3     O10047   3.582   2.573   1.666 -0.0468  0.3625 -0.3732
  679TMC3     H10048   3.199   2.604   1.747 -2.7544  0.2977 -1.9038
  679TMC3    H110049   3.525   2.733   1.497 -0.3395  0.5470 -0.0133
  679TMC3    H210050   3.125   2.858   1.422  0.5989  0.4601 -1.2448
  679TMC3    C710051   3.368   2.877   1.328  0.7379 -0.0665 -0.8305
  679TMC3    C810052   3.023   2.749   1.640  0.7536  0.2002 -0.1081
  679TMC3    O110053   3.286   2.950   1.274 -0.0205  0.4081  0.4314
  679TMC3    O210054   2.995   2.709   1.753 -0.0457 -0.0521 -0.0954
  680MPD2     C10055   4.716   1.840  13.602  0.4449 -0.6154 -0.0765
  680MPD2    C110056   4.593   1.809  13.660 -0.6303 -0.0900  0.1862
  680MPD2    C210057   4.519   1.923  13.694  0.2106 -1.3082  0.0642
  680MPD2    C310058   4.563   2.054  13.671 -0.5182 -0.3580 -0.0222
  680MPD2    C410059   4.685   2.077  13.612 -0.0846 -0.4384 -0.0667
  680MPD2    C510060   0.035   1.970  13.572  0.0615  0.3428 -0.8942
  680MPD2     H10061   4.420   1.902  13.731 -0.5442  2.2570  0.1148
  680MPD2    H110062   4.721   2.178  13.598 -0.9126 -0.2038 -0.5229
  680MPD2    H210063   0.060   1.758  13.588  1.3211  0.1793 -0.4480
  680MPD2    H310064   0.129   1.970  13.518  0.8317  0.5385  0.4569
  680MPD2     N10065   4.483   2.166  13.695  0.3427 -0.3918  0.1013
  680MPD2    H510066   4.519   2.252  13.653  0.2292  0.0961  1.0103
  680MPD2    N110067   4.537   1.682  13.690 -0.1267  0.5225 -0.2263
  680MPD2    H710068   4.453   1.683  13.747 -1.0970  0.5010 -1.6704
  681TMC3    C110069   4.510   1.450  13.681  0.5605  0.2887 -0.5782
  681TMC3    C210070   4.387   1.465  13.740  1.4581 -0.0962  0.1717
  681TMC3    C310071   4.306   1.351  13.737 -0.6732  0.4148 -0.2285
  681TMC3    C410072   4.549   1.336  13.613 -0.0810 -0.2684  0.0827
  681TMC3    C510073   4.456   1.236  13.599  0.5452  0.1254  0.3706
  681TMC3    C610074   4.335   1.240  13.660  0.2890  0.4578 -0.5472
  681TMC3     C10075   4.586   1.564  13.644  0.2848 -0.2696 -0.1059
  681TMC3     O10076   4.669   1.538  13.554 -0.8966 -0.3783 -0.5319
  681TMC3     H10077   4.356   1.552  13.796 -0.3890  0.0783 -1.1302
  681TMC3    H110078   4.650   1.320  13.577  0.3329  0.7823  0.7793
  681TMC3    H210079   4.266   1.156  13.665  0.5672  0.2786  0.2546
  681TMC3    C710080   4.451   1.169  13.470 -0.0825 -0.2237 -0.4607
  681TMC3    C810081   4.189   1.342  13.822  1.0106  0.3404  0.1391
  681TMC3    O110082   4.378   1.078  13.443  0.1555  1.0555  1.0194
  681TMC3    O210083   4.117   1.243  13.808 -0.2264 -0.2985  0.3878
  682MPD2     C10084   1.733   3.347  10.141  0.1978  0.3521  0.5909
  682MPD2    C110085   1.674   3.229  10.175 -0.0412  0.6634  0.5372
  682MPD2    C210086   1.588   3.225  10.281  0.2272 -0.5228 -0.0015
  682MPD2    C310087   1.537   3.332  10.348 -0.1839  0.5274 -0.3653
  682MPD2    C410088   1.594   3.449  10.317 -0.5531 -0.6462  0.2147
  682MPD2    C510089   1.696   3.458  10.221 -0.0113  0.2630  0.2347
  682MPD2     H10090   1.542   3.128  10.299 -0.3772 -0.0036  1.2308
  682MPD2    H110091   1.565   3.541  10.367 -1.0718  0.1754 -1.6169
  682MPD2    H210092   1.811   3.356  10.067 -1.1691 -0.6082 -0.9499
  682MPD2    H310093   1.749   3.550  10.201 -0.6301 -0.3525 -4.3116
  682MPD2     N10094   1.435   3.324  10.452 -0.2999 -0.1609  0.9865
  682MPD2    H510095   1.403   3.415  10.481  2.6230  1.3715 -0.6490
  682MPD2    N110096   1.708   3.108  10.109 -0.2258  0.6833 -0.1452
  682MPD2    H710097   1.657   3.025  10.139  0.3436  0.0546 -0.9133
  683TMC3    C110098   1.070   3.333  10.646 -0.2693 -0.1101  0.4329
  683TMC3    C210099   1.026   3.209  10.681  0.3823  0.1678 -0.3526
  683TMC3    C310100   1.110   3.102  10.709  0.3426  0.5636  0.5296
  683TMC3    C410101   1.200   3.341  10.606  0.7413 -0.0793 -0.3902
  683TMC3    C510102   1.282   3.231  10.612 -0.2841 -0.2345 -0.8161
  683TMC3    C610103   1.246   3.113  10.679 -0.5591 -0.5889  0.1248
  683TMC3     C10104   1.022   3.446  10.721 -0.7628 -0.0444  0.1242
  683TMC3     O10105   1.110   3.501  10.789 -0.5433  0.3303 -0.4802
  683TMC3     H10106   0.923   3.198  10.710  0.1426 -0.9916 -1.6092
  683TMC3    H110107   1.240   3.432  10.563  0.8366  0.1184  0.1119
  683TMC3    H210108   1.304   3.022  10.671 -0.4524 -0.5958  1.0649
  683TMC3    C710109   1.389   3.208  10.510 -0.0266  0.0344 -0.1348
  683TMC3    C810110   1.045   2.977  10.755 -0.1305  0.0182 -0.7228
  683TMC3    O110111   1.430   3.094  10.485  0.8251 -0.0270  0.3130
  683TMC3    O210112   0.927   2.957  10.728 -0.4720  0.0317 -0.5126
  684MPD2     C10113   3.275   3.123  15.951 -0.3365 -1.3837  0.2741
  684MPD2    C110114   3.364   3.069  16.042 -0.2926  0.9353  0.3238
  684MPD2    C210115   3.476   3.144  16.078  0.0418 -0.0007  0.1881
  684MPD2    C310116   3.497   3.271  16.020  0.1518  0.4772 -0.4386
  684MPD2    C410117   3.410   3.315  15.931 -0.0260 -0.0178 -0.5100
  684MPD2    C510118   3.296   3.248  15.892  0.1193  0.2885  0.2126
  684MPD2     H10119   3.544   3.107  16.154 -0.6007 -1.1273  0.2136
  684MPD2    H110120   3.436   3.411  15.889  0.0459 -0.6284 -1.8850
  684MPD2    H210121   3.174   3.085  15.939 -1.7905  2.5627 -0.1748
  684MPD2    H310122   3.227   3.294  15.822  0.2060  1.7520  1.0862
  684MPD2     N10123   3.607   3.349  16.049 -0.3466 -0.9320 -0.2016
  684MPD2    H510124   3.613   3.437  15.999 -1.2848 -0.9832 -0.4160
  684MPD2    N110125   3.328   2.955  16.120  0.5840  0.3775 -0.2130
  684MPD2    H710126   3.397   2.924  16.186 -0.4397  0.0529  0.7085
  685TMC3    C110127   3.244   2.736  16.158 -0.0539  0.0313  0.1081
  685TMC3    C210128   3.146   2.641  16.126  0.1021 -0.1079  0.2007
  685TMC3    C310129   3.173   2.512  16.146  0.2219 -0.2781  0.1432
  685TMC3    C410130   3.371   2.687  16.185  0.1946  0.5426 -0.1853
  685TMC3    C510131   3.390   2.552  16.205  1.0492  0.7668 -0.5063
  685TMC3    C610132   3.293   2.459  16.186 -0.6166 -0.6729 -0.3987
  685TMC3     C10133   3.224   2.872  16.095 -0.7521  0.5996 -0.1754
  685TMC3     O10134   3.123   2.873  16.023 -0.0209 -0.0220  0.3921
  685TMC3     H10135   3.046   2.672  16.098  0.5977  0.6343 -0.7916
  685TMC3    H110136   3.454   2.757  16.185  0.2933  0.4499  2.0089
  685TMC3    H210137   3.300   2.354  16.208  2.9994 -0.1068  1.2390
  685TMC3    C710138   3.523   2.503  16.210  0.5952  0.7307  0.2794
  685TMC3    C810139   3.069   2.415  16.107 -0.4061 -0.4535 -0.2338
  685TMC3    O110140   3.606   2.595  16.228  0.6171  0.4894 -0.1527
  685TMC3    O210141   2.986   2.447  16.029 -0.4184  0.2358 -0.3156
  686MPD2     C10142   0.514   2.979  15.622  0.3202  0.0629  0.5296
  686MPD2    C110143   0.484   2.862  15.696 -0.1710  0.4735 -0.4865
  686MPD2    C210144   0.517   2.744  15.647 -0.4524  0.8996  0.5235
  686MPD2    C310145   0.579   2.727  15.526 -0.4071  0.5024  0.3676
  686MPD2    C410146   0.612   2.839  15.455 -0.1614 -0.2969  0.5709
  686MPD2    C510147   0.592   2.965  15.509 -0.1417 -0.0401  0.0509
  686MPD2     H10148   0.499   2.658  15.711 -1.5363  1.7463  1.3496
  686MPD2    H110149   0.646   2.827  15.352 -2.1709 -0.3113 -0.0967
  686MPD2    H210150   0.500   3.081  15.656  2.6419  0.1225  1.3126
  686MPD2    H310151   0.626   3.053  15.454 -0.9124  1.0159  1.2665
  686MPD2     N10152   0.617   2.601  15.472  0.0379  0.1719 -0.6515
  686MPD2    H510153   0.689   2.605  15.400 -0.5886  0.0291 -1.2773
  686MPD2    N110154   0.397   2.880  15.807 -0.4387 -0.5243 -0.0647
  686MPD2    H710155   0.357   2.971  15.825  0.0299 -0.2592 -0.3735
  687TMC3    C110156   0.481   2.444  15.606 -0.1557  0.4622  0.5671
  687TMC3    C210157   0.352   2.495  15.610  0.5433  0.0446  0.0905
  687TMC3    C310158   0.270   2.441  15.707  0.2101  0.0584 -0.3542
  687TMC3    C410159   0.518   2.337  15.682  0.3124  0.3321 -0.2006
  687TMC3    C510160   0.435   2.284  15.774  0.2445 -0.9897 -0.5274
  687TMC3    C610161   0.308   2.338  15.789  0.0585 -0.3212 -0.2956
  687TMC3     C10162   0.573   2.467  15.499 -0.3565  0.1368  0.5644
  687TMC3     O10163   0.604   2.371  15.430 -0.4232  0.4652  0.1093
  687TMC3     H10164   0.328   2.569  15.534  0.0352  1.3703  1.5369
  687TMC3    H110165   0.624   2.319  15.667  0.6168  0.8541  1.2941
  687TMC3    H210166   0.244   2.299  15.866 -0.9239 -1.5618 -1.7257
  687TMC3    C710167   0.484   2.192  15.872  0.2396  0.4742  0.8935
  687TMC3    C810168   0.136   2.498  15.735  0.3358  0.6543 -0.7510
  687TMC3    O110169   0.418   2.182  15.977  0.2414  0.7573  0.3690
  687TMC3    O210170   0.078   2.441  15.831  0.3230 -0.0225  0.0962
  688MPD2     C10171   0.475   0.881  17.621 -0.1240  0.2164  0.0856
  688MPD2    C110172   0.382   0.791  17.571  0.1258  0.3746 -0.4062
  688MPD2    C210173   0.400   0.750  17.441  0.3964  0.0763 -0.5432
  688MPD2    C310174   0.500   0.813  17.363 -0.0755 -0.5386  0.0704
  688MPD2    C410175   0.580   0.909  17.410 -0.2724  0.7846 -0.2061
  688MPD2    C510176   0.573   0.945  17.546  0.1709  0.7005  0.0499
  688MPD2     H10177   0.340   0.666  17.408 -1.3065  0.3686  1.8545
  688MPD2    H110178   0.658   0.950  17.347  0.0126 -1.1292 -1.1051
  688MPD2    H210179   0.471   0.899   0.028  0.6042 -1.1357  0.3401
  688MPD2    H310180   0.635   1.018  17.597 -0.6201  1.2626  0.1954
  688MPD2     N10181   0.518   0.778  17.224 -0.4239 -0.5867  0.9419
  688MPD2    H510182   0.592   0.821  17.170 -1.8425 -1.6272 -1.8614
  688MPD2    N110183   0.277   0.729  17.644 -0.2392  0.3635  0.6052
  688MPD2    H710184   0.225   0.661  17.590 -0.1311  0.1683  0.7457
  689TMC3    C110185   0.110   0.693   0.115  0.1307 -0.4168 -0.1580
  689TMC3    C210186   4.719   0.759   0.149  0.0200 -0.4756  0.0844
  689TMC3    C310187   4.599   0.684   0.160 -0.0175  0.4556  0.0436
  689TMC3    C410188   0.103   0.559   0.093  0.0173 -0.0174 -0.3910
  689TMC3    C510189   4.711   0.489   0.099  0.2796  0.8624 -0.4680
  689TMC3    C610190   4.594   0.547   0.140 -0.3390  0.0431  0.3097
  689TMC3     C10191   0.221   0.773   0.067  0.1835 -0.2120  0.6306
  689TMC3     O10192   0.251   0.873   0.129 -0.0563 -0.6200  0.2569
  689TMC3     H10193   0.001   0.867   0.146 -1.4711 -0.3613  1.1146
  689TMC3    H110194   0.194   0.512   0.058 -1.1790 -2.0758 -0.7647
  689TMC3    H210195   4.501   0.492   0.152  0.1068 -0.2335  2.4967
  689TMC3    C710196   0.003   0.352   0.066  0.2736 -0.3500 -0.0477
  689TMC3    C810197   4.498   0.737   0.250  0.1392  0.2377  0.4966
  689TMC3    O110198   0.120   0.306   0.082 -0.0195  0.3831  0.3089
  689TMC3    O210199   4.439   0.656   0.324 -0.4757  0.1427  0.0826
  690MPD2     C10200   1.863   3.189  15.742 -0.3069  0.1545  0.1340
  690MPD2    C110201   1.858   3.117  15.622  0.1014  0.1084 -0.4497
  690MPD2    C210202   1.948   3.152  15.522 -0.1652  0.1888  0.4983
  690MPD2    C310203   2.066   3.224  15.554  0.2181  0.5941 -0.6022
  690MPD2    C410204   2.072   3.294  15.668 -0.1254  0.4937  0.1324
  690MPD2    C510205   1.974   3.277  15.756  0.1409  0.9546  0.0480
  690MPD2     H10206   1.934   3.102  15.427 -2.1360 -0.1640  0.9623
  690MPD2    H110207   2.156   3.355  15.699  0.3902 -1.4722  2.6842
  690MPD2    H210208   1.798   3.175  15.828 -0.7904  1.4814 -0.0079
  690MPD2    H310209   1.969   3.333  15.848  0.0159  1.6625 -0.3951
  690MPD2     N10210   2.166   3.229  15.459  0.1532  0.8287 -0.2134
  690MPD2    H510211   2.163   3.168  15.378  0.3473  0.9707 -0.3269
  690MPD2    N110212   1.758   3.018  15.593  0.5059  0.1931 -0.0337
  690MPD2    H710213   1.757   2.979  15.499 -0.0617 -1.0653  0.4886
  691TMC3    C110214   1.585   2.861  15.636  0.3813  0.1379  0.4636
  691TMC3    C210215   1.457   2.847  15.685 -0.9198  0.3360 -0.1863
  691TMC3    C310216   1.380   2.747  15.637  0.1941  0.1253  0.0046
  691TMC3    C410217   1.638   2.765  15.548 -0.0319 -0.1258  0.7631
  691TMC3    C510218   1.542   2.681  15.489  0.3401  0.2362 -0.5951
  691TMC3    C610219   1.411   2.669  15.529  0.0986 -0.5873 -0.2335
  691TMC3     C10220   1.666   2.967  15.686  0.5256  0.4941 -0.0933
  691TMC3     O10221   1.641   3.010  15.798  0.3134  0.0635  0.3153
  691TMC3     H10222   1.426   2.905  15.771 -0.1624 -0.1396  0.4126
  691TMC3    H110223   1.741   2.778  15.515 -1.1665  2.5759 -1.7611
  691TMC3    H210224   1.343   2.595  15.489  1.1816 -1.3777 -0.6477
  691TMC3    C710225   1.599   2.584  15.402  0.0357  0.4017  0.2807
  691TMC3    C810226   1.241   2.745  15.682  0.1720 -0.1481 -0.2722
  691TMC3    O110227   1.701   2.611  15.338 -0.3084 -0.6580 -0.7687
  691TMC3    O210228   1.202   2.628  15.675  0.0060  0.4414  0.0364
  692TMC3    C110229   3.740   4.518  15.844 -0.3665 -0.3378  0.4826
  692TMC3    C210230   3.847   4.545  15.925 -0.6855  0.4851  0.3458
  692TMC3    C310231   3.953   4.455  15.946 -0.1403 -0.3728 -0.3820
  692TMC3    C410232   3.735   4.403  15.775  0.5405 -0.1747  0.4068
  692TMC3    C510233   3.834   4.312  15.794 -0.4046 -0.4849  0.1660
  692TMC3    C610234   3.937   4.332  15.883 -0.0028  0.1626  0.1518
  692TMC3     C10235   3.611   4.576  15.881  0.2791  0.0314  0.3257
  692TMC3     O10236   3.523   4.503  15.915 -0.0450 -0.2646 -0.0579
  692TMC3     H10237   3.864   4.645  15.963  1.5560  0.3084 -0.1525
  692TMC3    H110238   3.640   4.379  15.728  1.2132  1.4511 -1.7945
  692TMC3    H210239   4.019   4.262  15.874  0.9655  1.6260 -2.3483
  692TMC3    C710240   3.849   4.193  15.700  0.0090  0.3772  0.1678
  692TMC3    C810241   3.982   4.429  16.086  0.2036 -0.0481  0.2321
  692TMC3    O110242   3.799   4.197  15.592  0.3081  0.2741 -0.0899
  692TMC3    O210243   4.033   4.317  16.105 -0.3748  0.1184 -0.3668
  693MPD2     C10244   3.858   2.389  11.081  0.5415  0.5462 -0.4646
  693MPD2    C110245   3.782   2.305  10.999  0.0740  0.0485 -0.1063
  693MPD2    C210246   3.835   2.268  10.874  0.8688 -0.5293 -0.1070
  693MPD2    C310247   3.958   2.317  10.833  0.0755  1.0323 -0.4619
  693MPD2    C410248   4.043   2.382  10.926  0.5867 -0.0889 -0.7263
  693MPD2    C510249   3.985   2.423  11.046  1.0130  0.8000  0.0364
  693MPD2     H10250   3.778   2.207  10.805 -0.0823 -1.8240  1.8127
  693MPD2    H110251   4.143   2.414  10.900 -0.0548  1.3939 -1.3495
  693MPD2    H210252   3.820   2.398  11.182  0.9561  2.9983 -0.5256
  693MPD2    H310253   4.037   2.493  11.109  1.4290 -0.7856  1.4602
  693MPD2     N10254   4.013   2.285  10.703  0.0439  0.1600  0.4412
  693MPD2    H510255   4.114   2.293  10.695  0.1890  0.2186  2.4538
  693MPD2    N110256   3.659   2.260  11.043  0.1730 -0.0901 -0.1997
  693MPD2    H710257   3.635   2.277  11.140 -0.5749 -0.5289 -0.3072
  694TMC3    C110258   3.460   2.147  11.053  0.2962 -0.1377 -0.6528
  694TMC3    C210259   3.346   2.114  10.995  0.5819  0.5950 -0.0579
  694TMC3    C310260   3.246   2.066  11.073  0.0364 -0.1648  0.1816
  694TMC3    C410261   3.480   2.123  11.187  0.2420 -0.0523  0.1662
  694TMC3    C510262   3.371   2.092  11.269 -0.0932 -0.4965 -0.1860
  694TMC3    C610263   3.248   2.068  11.213 -0.8795  0.9500 -0.1478
  694TMC3     C10264   3.570   2.180  10.969 -0.1932  0.3761  0.6748
  694TMC3     O10265   3.581   2.129  10.856  0.3275 -0.9239  0.1617
  694TMC3     H10266   3.352   2.116  10.887 -2.1075  0.6269 -0.1941
  694TMC3    H110267   3.576   2.133  11.236  0.2359 -1.7269  0.5335
  694TMC3    H210268   3.155   2.058  11.268 -0.2988  0.1566  0.6832
  694TMC3    C710269   3.379   2.118  11.411 -0.1002  0.2704  0.3155
  694TMC3    C810270   3.131   2.005  11.014  0.4448 -0.5692  0.1360
  694TMC3    O110271   3.480   2.176  11.453 -0.9601 -0.0497  0.6744
  694TMC3    O210272   3.027   1.998  11.074 -0.4839 -0.3292  0.1639
  695MPD2     C10273   4.136   4.033  13.287 -0.6059  0.4978  0.1246
  695MPD2    C110274   4.110   4.070  13.416 -0.4145 -0.3714  0.1719
  695MPD2    C210275   3.978   4.089  13.455  0.1874  0.9887  0.2426
  695MPD2    C310276   3.871   4.080  13.370 -0.5483 -0.3296  0.0486
  695MPD2    C410277   3.899   4.042  13.245 -0.4936 -0.8574 -0.0058
  695MPD2    C510278   4.025   4.005  13.208 -0.1245  0.0043 -0.1418
  695MPD2     H10279   3.963   4.118  13.558  0.6672  2.1099 -0.0040
  695MPD2    H110280   3.825   4.027  13.167 -0.9585 -1.0339  0.4770
  695MPD2    H210281   4.235   4.011  13.248 -0.6513 -2.0221  1.4274
  695MPD2    H310282   4.047   3.983  13.105  4.6119  1.2119  0.5741
  695MPD2     N10283   3.744   4.110  13.426 -0.2793 -0.0215 -0.2344
  695MPD2    H510284   3.746   4.130  13.525  0.6153  0.7792 -0.4090
  695MPD2    N110285   4.216   4.097  13.503  0.3925  0.1509  0.0389
  695MPD2    H710286   4.187   4.118  13.598 -3.1598  0.0457 -1.0453
  696TMC3    C110287   3.512   4.125  13.433 -0.6322 -0.9732 -0.1780
  696TMC3    C210288   3.509   4.087  13.563 -0.4175 -0.4338 -0.2362
  696TMC3    C310289   3.401   4.129  13.641 -0.6459 -0.4869  0.1826
  696TMC3    C410290   3.414   4.204  13.376 -0.2160  0.2812  0.3972
  696TMC3    C510291   3.315   4.248  13.457 -0.8074  1.2383  0.0166
  696TMC3    C610292   3.304   4.213  13.587  0.2373 -0.0558 -0.1490
  696TMC3     C10293   3.627   4.104  13.356 -1.0348 -0.2535  0.1344
  696TMC3     O10294   3.610   4.097  13.233  0.3471  0.0108  0.3116
  696TMC3     H10295   3.567   4.001  13.594  0.2090 -0.2647 -0.9491
  696TMC3    H110296   3.409   4.230  13.271 -3.1128 -2.6283 -0.1950
  696TMC3    H210297   3.225   4.250  13.651 -0.4672  1.0683 -1.6485
  696TMC3    C710298   3.246   4.371  13.406 -0.2611 -0.0872 -0.4411
  696TMC3    C810299   3.419   4.118  13.780 -0.1477 -0.3595  0.2118
  696TMC3    O110300   3.238   4.394  13.285 -0.1869  0.3492  0.4012
  696TMC3    O210301   3.532   4.100  13.820  0.3971 -0.3769  0.3863
  697MPD2     C10302   3.294   1.174  15.850  0.6728 -0.9333 -0.7431
  697MPD2    C110303   3.341   1.102  15.744 -0.0462 -0.2912 -0.3101
  697MPD2    C210304   3.377   1.172  15.633 -0.4132  0.3419  0.4005
  697MPD2    C310305   3.370   1.307  15.628 -0.4435 -0.5835 -0.9873
  697MPD2    C410306   3.351   1.380  15.743  0.3201 -0.4899 -0.6185
  697MPD2    C510307   3.302   1.311  15.852  0.1111 -0.5672  0.5821
  697MPD2     H10308   3.409   1.126  15.541 -2.3910  2.2916 -1.2687
  697MPD2    H110309   3.360   1.488  15.749 -1.4806 -0.3850  0.3118
  697MPD2    H210310   3.247   1.124  15.934  0.1938  0.8096  0.0159
  697MPD2    H310311   3.273   1.371  15.937  0.6743 -1.1422  1.1883
  697MPD2     N10312   3.419   1.374  15.507  0.6128  0.1965  0.4312
  697MPD2    H510313   3.424   1.320  15.422  2.3907 -2.0649  1.9907
  697MPD2    N110314   3.348   0.960  15.737 -0.1149  0.1732 -0.9050
  697MPD2    H710315   3.382   0.922  15.649 -0.4332 -1.6061 -0.2608
  698TMC3    C110316   3.460   1.535  15.343 -0.6605 -0.8085 -0.3848
  698TMC3    C210317   3.489   1.664  15.312  0.7848 -0.0483  0.5250
  698TMC3    C310318   3.554   1.695  15.199 -0.0128  0.1383 -0.1544
  698TMC3    C410319   3.501   1.436  15.262 -0.1448  0.6311  0.2926
  698TMC3    C510320   3.586   1.462  15.155  0.1287 -0.2866  0.0036
  698TMC3    C610321   3.602   1.595  15.119  0.8924  0.1384 -0.6596
  698TMC3     C10322   3.416   1.510  15.480  0.1855  1.0556  1.1665
  698TMC3     O10323   3.399   1.610  15.550  0.2758 -0.0287 -0.2432
  698TMC3     H10324   3.442   1.741  15.372 -2.9407 -1.1542 -0.9305
  698TMC3    H110325   3.473   1.334  15.286 -1.0276  0.4800 -1.4111
  698TMC3    H210326   3.633   1.624  15.019  2.6045 -0.5176 -0.3166
  698TMC3    C710327   3.540   1.381  15.041  0.6512  0.3889 -0.1144
  698TMC3    C810328   3.491   1.791  15.113  0.2204 -0.3223 -0.7323
  698TMC3    O110329   3.424   1.358  15.025 -0.0196 -0.2132  0.9965
  698TMC3    O210330   3.380   1.758  15.083  0.2399 -0.0281  0.4028
  699TMC3    C110331   3.748   3.750  12.961 -0.1770 -0.1392 -0.4534
  699TMC3    C210332   3.801   3.690  13.079  0.5244  0.6518  0.3335
  699TMC3    C310333   3.736   3.707  13.200 -0.6491  0.0653 -0.1302
  699TMC3    C410334   3.631   3.823  12.959  0.3216  0.2138 -0.7186
  699TMC3    C510335   3.568   3.831  13.086 -0.3720  0.1906 -0.4668
  699TMC3    C610336   3.620   3.782  13.205  0.6616  0.2737  0.1714
  699TMC3     C10337   3.823   3.747  12.836 -0.2434  0.4639 -0.9910
  699TMC3     O10338   3.792   3.830  12.749 -0.2547 -0.1193  0.2179
  699TMC3     H10339   3.902   3.651  13.084  0.3584  0.1779 -0.0180
  699TMC3    H110340   3.592   3.863  12.867 -2.3523  0.2376  0.4360
  699TMC3    H210341   3.578   3.798  13.304 -0.7926  1.4477 -0.6419
  699TMC3    C710342   3.438   3.888  13.105  0.4937  0.1343  0.7602
  699TMC3    C810343   3.800   3.649  13.316  0.3573  0.0101 -0.2519
  699TMC3    O110344   3.380   3.849  13.207  0.0540  0.0631 -0.0477
  699TMC3    O210345   3.920   3.626  13.314 -0.0649 -0.6109  0.1033
  700TMC3    C110346   2.598   1.222  17.581  0.1340  0.4938 -0.3060
  700TMC3    C210347   2.686   1.122  17.570  0.7374 -0.1599 -0.0745
  700TMC3    C310348   2.801   1.139  17.631 -0.1780 -0.0786  0.3867
  700TMC3    C410349   2.621   1.334  17.660  0.3636 -0.4360  0.0593
  700TMC3    C510350   2.741   1.343   0.025  0.2703  0.5540  0.3132
  700TMC3    C610351   2.831   1.245   0.011 -0.5169  0.0206 -0.1551
  700TMC3     C10352   2.500   1.229  17.470 -0.3616  0.1959  1.1400
  700TMC3     O10353   2.438   1.127  17.439  0.1229 -0.1584 -0.2882
  700TMC3     H10354   2.660   1.052  17.492 -0.1979  0.3354 -0.2126
  700TMC3    H110355   2.545   1.410  17.658  0.8419  0.0424  0.1341
  700TMC3    H210356   2.918   1.255   0.076  0.4486 -0.6582 -1.3436
  700TMC3    C710357   2.756   1.446   0.126  0.4442 -0.0012  0.7828
  700TMC3    C810358   2.903   1.044  17.592  0.1715  0.3432  1.0539
  700TMC3    O110359   2.866   1.462   0.180  0.3049  0.3185  0.1791
  700TMC3    O210360   2.863   0.951  17.521 -0.1319  0.3688 -0.0372
  701TMC3    C110361   2.574   0.123  15.678 -0.2638 -0.3393  0.1613
  701TMC3    C210362   2.601   0.068  15.556 -0.3662  0.1259  0.4724
  701TMC3    C310363   2.696   0.136  15.477  0.1950 -0.0262 -0.0090
  701TMC3    C410364   2.608   0.250  15.717  0.2325 -0.5717 -0.1723
  701TMC3    C510365   2.695   0.314  15.633  0.8451 -0.2577 -0.0239
  701TMC3    C610366   2.746   0.258  15.518 -0.0279  0.2843  0.6566
  701TMC3     C10367   2.481   0.055  15.767 -0.0027  0.0621 -0.1109
  701TMC3     O10368   2.436   0.113  15.867  0.3929 -0.1640  0.8678
  701TMC3     H10369   2.564   4.697  15.521 -0.9914  1.2658 -1.9802
  701TMC3    H110370   2.563   0.308  15.797 -0.2939  0.5211 -1.2473
  701TMC3    H210371   2.832   0.294  15.464 -1.9421 -0.1564 -2.7327
  701TMC3    C710372   2.751   0.446  15.659  0.4767 -0.5168 -0.4043
  701TMC3    C810373   2.704   0.119  15.338  0.0264 -0.1106  0.2010
  701TMC3    O110374   2.796   0.503  15.560  0.3081  0.7214 -0.3017
  701TMC3    O210375   2.807   0.136  15.278 -0.1185  0.2533 -0.4276
  702MPD2     C10376   2.746   2.999  11.191  0.1724 -0.3124  0.4512
  702MPD2    C110377   2.622   3.055  11.187  0.2912 -0.5418  0.2415
  702MPD2    C210378   2.578   3.129  11.082 -0.1300  0.5313 -0.1687
  702MPD2    C310379   2.665   3.149  10.969 -0.1106 -0.1990 -0.0929
  702MPD2    C410380   2.783   3.085  10.973  0.1569  0.5138  0.6093
  702MPD2    C510381   2.824   3.017  11.083  0.5122  0.3942  0.9444
  702MPD2     H10382   2.481   3.177  11.085 -0.2566  0.4443 -3.0028
  702MPD2    H110383   2.856   3.099  10.894 -0.7771 -0.4391 -0.4237
  702MPD2    H210384   2.780   2.937  11.274  1.4957  0.1410  0.2424
  702MPD2    H310385   2.923   2.974  11.073  0.9819  2.1416 -1.8057
  702MPD2     N10386   2.640   3.231  10.858 -0.5881  0.2110  1.0181
  702MPD2    H510387   2.716   3.244  10.792 -1.3366 -0.3152  0.0425
  702MPD2    N110388   2.536   3.061  11.300 -0.4920 -0.0355  0.4334
  702MPD2    H710389   2.470   3.137  11.305 -1.1976 -0.7843  2.1941
  703TMC3    C110390   2.514   3.377  10.724 -0.9545 -0.0641  0.2804
  703TMC3    C210391   2.421   3.480  10.727  0.0790 -0.7606  0.1888
  703TMC3    C310392   2.413   3.553  10.613  0.3771  0.1054 -0.6768
  703TMC3    C410393   2.591   3.348  10.618 -0.0396  0.0680  0.0983
  703TMC3    C510394   2.580   3.426  10.509 -0.1298  0.2181 -0.1410
  703TMC3    C610395   2.491   3.530  10.505 -0.0655 -0.6623  0.6593
  703TMC3     C10396   2.524   3.306  10.848 -0.3692 -0.6495  0.0945
  703TMC3     O10397   2.437   3.329  10.930 -0.0425 -0.0792 -0.2243
  703TMC3     H10398   2.394   3.522  10.823  0.4381 -1.7888  0.7445
  703TMC3    H110399   2.665   3.269  10.626 -0.8436 -0.7384 -0.4337
  703TMC3    H210400   2.496   3.597  10.420  0.1296 -0.0430  1.1524
  703TMC3    C710401   2.689   3.442  10.411 -0.5783  0.2769  0.6207
  703TMC3    C810402   2.329   3.666  10.608 -0.0737 -0.7340 -0.1201
  703TMC3    O110403   2.674   3.526  10.328  1.0395  0.3262 -0.0697
  703TMC3    O210404   2.374   3.748  10.530 -0.2527 -0.4809 -0.2743
  704TMC3    C110405   4.406   1.158  12.610  0.6500  0.2556 -0.6717
  704TMC3    C210406   4.530   1.213  12.591  0.1577  0.1927  0.1847
  704TMC3    C310407   4.631   1.169  12.673  0.0034  0.1351 -0.2215
  704TMC3    C410408   4.383   1.050  12.689  0.6199  0.4782 -0.4422
  704TMC3    C510409   4.491   1.001  12.762 -0.2870 -0.1108  0.6034
  704TMC3    C610410   4.617   1.063  12.760  0.6333 -0.1037  0.0101
  704TMC3     C10411   4.308   1.167  12.504 -0.0643  0.1750 -0.5350
  704TMC3     O10412   4.187   1.158  12.534  0.2776 -0.1743 -0.3903
  704TMC3     H10413   4.541   1.298  12.526  1.4723  2.0306  2.8131
  704TMC3    H110414   4.287   0.999  12.687  1.1059 -0.4164 -0.7118
  704TMC3    H210415   4.695   1.039  12.832  0.7668 -0.1835 -0.1611
  704TMC3    C710416   4.512   0.860  12.744  0.0312  0.0176 -0.3872
  704TMC3    C810417   0.031   1.168  12.597 -0.7114 -0.3804 -0.0654
  704TMC3    O110418   4.620   0.827  12.695 -0.4357 -0.6228 -0.7895
  704TMC3    O210419   0.025   1.194  12.478  0.2172 -0.3209  0.1351
  705MPD2     C10420   4.150   3.814  16.484 -0.2537 -0.0554  0.1960
  705MPD2    C110421   4.119   3.808  16.355 -0.2846 -0.8608 -0.9306
  705MPD2    C210422   3.984   3.785  16.319  0.4453 -0.2384 -0.2410
  705MPD2    C310423   3.881   3.765  16.411 -0.4495 -0.0518  0.5996
  705MPD2    C410424   3.922   3.754  16.543 -0.4876  0.6194  0.6442
  705MPD2    C510425   4.055   3.770  16.571  0.4380 -0.5806 -0.1054
  705MPD2     H10426   3.965   3.775  16.213  1.8438  4.0422 -0.8871
  705MPD2    H110427   3.855   3.731  16.625 -1.1010 -0.4831 -0.1705
  705MPD2    H210428   4.250   3.838  16.518  0.4257  0.1802 -1.9350
  705MPD2    H310429   4.081   3.768  16.676  1.5382 -3.4184 -0.4444
  705MPD2     N10430   3.743   3.761  16.369 -0.5395 -0.1890 -0.4336
  705MPD2    H510431   3.717   3.787  16.274 -1.9929  1.7602  0.4791
  705MPD2    N110432   4.203   3.840  16.249 -0.3643  0.5717  0.4085
  705MPD2    H710433   4.166   3.850  16.155  1.7426  1.8991 -0.2906
  706TMC3    C110434   4.490   3.872  15.913 -0.9250 -0.3054 -0.2853
  706TMC3    C210435   4.422   3.975  15.855 -0.2984 -0.1240 -0.0865
  706TMC3    C310436   4.344   4.055  15.939  0.5031 -0.8837 -0.4860
  706TMC3    C410437   4.473   3.843  16.047 -0.2243  0.4296 -0.5126
  706TMC3    C510438   4.375   3.912  16.114 -0.3967 -0.6039  0.5533
  706TMC3    C610439   4.314   4.022  16.072 -0.0890  0.6756 -0.4301
  706TMC3     C10440   4.592   3.800  15.842 -0.0982 -0.4433 -0.3056
  706TMC3     O10441   4.645   3.712  15.910  0.0491  0.2545 -0.4595
  706TMC3     H10442   4.443   4.011  15.755 -1.6099 -0.1301 -0.3600
  706TMC3    H110443   4.524   3.763  16.100 -1.5550  0.2003  0.4208
  706TMC3    H210444   4.242   4.079  16.129  0.5041 -0.5666  1.5433
  706TMC3    C710445   4.334   3.867  16.253 -0.5787 -0.2297  0.4232
  706TMC3    C810446   4.326   4.190  15.902  0.1326 -0.0360 -0.2656
  706TMC3    O110447   4.420   3.853  16.340 -0.4706  0.7573 -0.0505
  706TMC3    O210448   4.338   4.222  15.783 -0.0629  0.1458 -0.2731
  707TMC3    C110449   0.982   3.150   0.925  0.0019  0.5516 -0.1490
  707TMC3    C210450   0.965   3.062   1.026 -0.1144 -0.4720 -0.3851
  707TMC3    C310451   0.856   3.062   1.099 -0.5939  0.2519 -0.1850
  707TMC3    C410452   0.882   3.247   0.897  0.4927  0.1754  0.0681
  707TMC3    C510453   0.768   3.242   0.980  0.1882 -0.6488  0.1908
  707TMC3    C610454   0.751   3.150   1.085 -0.4355 -0.0159  0.5780
  707TMC3     C10455   1.095   3.122   0.834  0.1007 -0.0757  0.4924
  707TMC3     O10456   1.160   3.028   0.865  0.2199  0.2891 -0.1238
  707TMC3     H10457   1.036   2.981   1.039  1.2624  0.8129  0.1119
  707TMC3    H110458   0.893   3.325   0.822  1.7281 -0.0568 -0.0011
  707TMC3    H210459   0.668   3.146   1.154 -1.5503  2.1796 -0.6420
  707TMC3    C710460   0.665   3.335   0.946 -0.1142 -0.1948  0.3680
  707TMC3    C810461   0.827   2.948   1.183  0.2690 -0.2468  0.4215
  707TMC3    O110462   0.659   3.372   0.831  0.0032  0.4777  0.1262
  707TMC3    O210463   0.706   2.928   1.190 -0.0573 -0.5845 -0.5047
  708MPD2     C10464   2.661   1.914  14.116 -0.9000 -0.8520 -0.3497
  708MPD2    C110465   2.555   2.000  14.096 -0.0805 -0.7548 -0.3595
  708MPD2    C210466   2.429   1.960  14.146 -0.3007  0.1318  0.3573
  708MPD2    C310467   2.410   1.845  14.217 -0.6759  0.1539  0.2191
  708MPD2    C410468   2.516   1.756  14.229 -0.0845  0.1749  0.3736
  708MPD2    C510469   2.636   1.790  14.172 -0.6217  0.0088 -0.2836
  708MPD2     H10470   2.348   2.031  14.132 -0.0855  0.3302  0.1286
  708MPD2    H110471   2.507   1.659  14.277 -2.4726 -0.2879 -1.0086
  708MPD2    H210472   2.753   1.925  14.060  0.4657 -0.2481  2.0287
  708MPD2    H310473   2.713   1.714  14.166 -1.5560 -1.0229  0.6064
  708MPD2     N10474   2.281   1.824  14.271 -0.2043  0.2530 -0.4664
  708MPD2    H510475   2.216   1.902  14.271 -2.2469 -1.4637 -0.3682
  708MPD2    N110476   2.572   2.114  14.010  0.3063 -0.2576  0.1277
  708MPD2    H710477   2.665   2.137  13.977  0.5520 -2.7816 -0.9843
  709TMC3    C110478   2.506   2.318  13.885  0.0728  0.1210  0.0377
  709TMC3    C210479   2.552   2.274  13.762 -0.1327 -0.0050  0.0181
  709TMC3    C310480   2.476   2.302  13.646 -1.1688  0.3412  0.6456
  709TMC3    C410481   2.407   2.411  13.885 -0.2004  0.3424  0.3826
  709TMC3    C510482   2.329   2.438  13.773 -0.0674 -0.1749  1.3288
  709TMC3    C610483   2.364   2.384  13.652 -0.6932  0.8902 -0.0128
  709TMC3     C10484   2.481   2.216  13.987  0.0437 -0.1628 -0.3609
  709TMC3     O10485   2.373   2.227  14.042 -0.5530 -0.6186 -0.1485
  709TMC3     H10486   2.622   2.191  13.752 -0.9905 -0.6193 -0.9895
  709TMC3    H110487   2.380   2.445  13.985 -0.2424 -0.8859  0.7906
  709TMC3    H210488   2.297   2.369  13.568  2.2101 -0.6999 -2.0641
  709TMC3    C710489   2.185   2.441  13.803  0.0561  0.5564 -0.1213
  709TMC3    C810490   2.539   2.280  13.522  0.4667 -0.4905 -0.4057
  709TMC3    O110491   2.109   2.466  13.706  0.1185 -0.5082 -0.1197
  709TMC3    O210492   2.632   2.202  13.511 -0.1040  0.0106 -0.1527
  710TMC3    C110493   3.125   3.324   0.607  0.4542  0.4006  0.5980
  710TMC3    C210494   3.175   3.295   0.484  0.7969  0.4134  0.2768
  710TMC3    C310495   3.291   3.221   0.480 -0.2184 -0.3501  0.9022
  710TMC3    C410496   3.171   3.264   0.721 -0.0036 -0.3284  0.0805
  710TMC3    C510497   3.284   3.192   0.721  0.3014 -0.1492 -0.4648
  710TMC3    C610498   3.344   3.171   0.595  0.2930  0.2727  0.2006
  710TMC3     C10499   3.028   3.430   0.625  0.4230 -0.5736 -0.0057
  710TMC3     O10500   2.979   3.475   0.524  0.2663 -0.1234  0.0942
  710TMC3     H10501   3.129   3.341   0.398 -1.0833  0.2269  1.1763
  710TMC3    H110502   3.117   3.257   0.815 -0.1962  1.4811  0.1093
  710TMC3    H210503   3.435   3.114   0.582  0.9848  1.4420 -0.0545
  710TMC3    C710504   3.342   3.131   0.841 -0.3569 -0.2891  0.4262
  710TMC3    C810505   3.344   3.186   0.345  0.2620  0.3798  0.2332
  710TMC3    O110506   3.271   3.132   0.943 -0.7576 -0.2775  0.0733
  710TMC3    O210507   3.461   3.146   0.329  0.2518 -0.3594 -0.2735
  711TMC3    C110508   3.098   0.090  14.881 -0.5883  0.6856  0.6962
  711TMC3    C210509   3.114   0.138  15.008 -0.5670  0.3621  0.3369
  711TMC3    C310510   3.236   0.173  15.048 -0.0359  0.1330  0.2981
  711TMC3    C410511   3.208   0.060  14.803  0.0890  0.4591 -0.1240
  711TMC3    C510512   3.330   0.075  14.857  0.5192  0.7509 -0.9146
  711TMC3    C610513   3.342   0.149  14.971  0.5416 -0.6841  0.7395
  711TMC3     C10514   3.002   4.711  14.867 -0.0253  0.5498  0.3725
  711TMC3     O10515   2.997   4.662  14.754  0.0129 -0.6517 -0.0112
  711TMC3     H10516   3.028   0.158  15.070 -0.1667 -1.6073  1.5103
  711TMC3    H110517   3.188   0.012  14.707 -0.5672 -0.0332  0.2601
  711TMC3    H210518   3.446   0.166  14.995  0.5114 -0.5070  0.7444
  711TMC3    C710519   3.399   4.674  14.885  0.5785 -0.2985 -0.4505
  711TMC3    C810520   3.254   0.186  15.187 -0.8716 -0.6174  0.0372
  711TMC3    O110521   3.488   4.671  14.968 -0.4489  0.0435 -0.4115
  711TMC3    O210522   3.160   0.178  15.263 -0.4992 -0.0534 -0.1189
  712MPD2     C10523   0.510   1.245  14.102  0.2056  0.3606 -0.5208
  712MPD2    C110524   0.431   1.244  13.979 -0.3819  0.1198  0.1053
  712MPD2    C210525   0.466   1.319  13.871  0.0095 -0.0458 -0.3499
  712MPD2    C310526   0.577   1.404  13.882  0.4115 -0.8641 -1.1780
  712MPD2    C410527   0.645   1.410  14.004 -0.3793  1.1990  0.7301
  712MPD2    C510528   0.609   1.332  14.108 -0.1040  0.5163 -0.3990
  712MPD2     H10529   0.403   1.314  13.782 -1.0147 -2.1162  0.4844
  712MPD2    H110530   0.734   1.471  14.013  0.2861  0.3495 -0.1425
  712MPD2    H210531   0.484   1.184  14.188 -0.0589  0.5449 -0.4692
  712MPD2    H310532   0.662   1.341  14.203 -2.0696  0.1269  0.7352
  712MPD2     N10533   0.621   1.492  13.780 -0.9087  0.0926 -0.1585
  712MPD2    H510534   0.710   1.540  13.788 -2.1976  2.3814  0.6681
  712MPD2    N110535   0.311   1.169  13.966 -0.3370  0.2513  0.1132
  712MPD2    H710536   0.267   1.179  13.875 -2.1529  0.4993  1.0272
  713TMC3    C110537   0.584   1.647  13.591 -0.3578  0.2892 -0.7986
  713TMC3    C210538   0.726   1.663  13.575 -0.2647 -0.5123 -0.0102
  713TMC3    C310539   0.770   1.755  13.481 -0.2746 -0.4990  0.1100
  713TMC3    C410540   0.496   1.724  13.521  0.4293  0.0818 -0.3518
  713TMC3    C510541   0.544   1.808  13.422 -0.1157  0.3736  0.1511
  713TMC3    C610542   0.679   1.825  13.403  0.3064  0.1885 -0.6098
  713TMC3     C10543   0.533   1.540  13.681  0.1401  0.2612  0.3015
  713TMC3     O10544   0.412   1.523  13.667 -0.3722 -0.1735 -0.0451
  713TMC3     H10545   0.800   1.598  13.620  1.6898  0.8678 -1.1759
  713TMC3    H110546   0.390   1.707  13.537  0.7495 -1.4889  0.1420
  713TMC3    H210547   0.714   1.907  13.340  0.8695 -0.9326 -1.7446
  713TMC3    C710548   0.454   1.918  13.386 -0.1545 -0.2515 -0.2923
  713TMC3    C810549   0.888   1.830  13.509  1.0211 -0.4545 -1.1713
  713TMC3    O110550   0.501   2.028  13.384 -0.0616  0.0869  0.0124
  713TMC3    O210551   0.926   1.906  13.418  0.5434 -0.2775  0.2290
  714MPD2     C10552   2.038   4.521   1.439  0.8880  0.2302 -0.1630
  714MPD2    C110553   2.045   4.430   1.342  0.1949  0.4337 -0.5930
  714MPD2    C210554   2.028   4.475   1.214  0.2450 -0.3723 -0.1963
  714MPD2    C310555   1.996   4.608   1.184 -0.9236  0.7023  0.2295
  714MPD2    C410556   1.996   4.693   1.288  0.9411  0.3391 -0.2531
  714MPD2    C510557   2.026   4.652   1.410  1.8623  0.3395 -1.3765
  714MPD2     H10558   2.028   4.407   1.129  1.2900 -0.4550 -0.1263
  714MPD2    H110559   1.983   0.076   1.278  0.2643  0.1845 -1.0342
  714MPD2    H210560   2.042   4.493   1.544 -1.1577 -0.9406 -0.3928
  714MPD2    H310561   2.020   0.003   1.487 -0.7410 -2.1487  0.8414
  714MPD2     N10562   1.985   4.644   1.044  0.7478 -0.2158 -0.4103
  714MPD2    H510563   1.988   4.575   0.970 -1.2479 -0.2665 -0.4613
  714MPD2    N110564   2.071   4.295   1.384  0.2066 -0.0552  0.2664
  714MPD2    H710565   2.071   4.284   1.485 -1.4983  1.0319  0.3803
  715TMC3    C110566   2.127   4.073   1.379 -0.5773  0.5114  0.5022
  715TMC3    C210567   2.224   3.992   1.328 -0.1474 -0.0283 -0.2441
  715TMC3    C310568   2.259   3.876   1.386  1.2469 -0.0803 -0.1536
  715TMC3    C410569   2.069   4.044   1.500 -0.4995 -0.3984  0.5071
  715TMC3    C510570   2.116   3.932   1.566  0.2715 -0.0902 -0.4334
  715TMC3    C610571   2.208   3.851   1.509 -0.4544  0.2568 -0.9089
  715TMC3     C10572   2.076   4.187   1.301 -0.0598 -0.4536 -0.0622
  715TMC3     O10573   2.087   4.183   1.177  0.3577  0.0613 -0.2467
  715TMC3     H10574   2.266   4.024   1.233 -2.8086 -0.0724 -1.4648
  715TMC3    H110575   1.992   4.106   1.543  1.3713 -0.0349  3.3556
  715TMC3    H210576   2.227   3.761   1.566 -1.0326  0.2497 -0.7288
  715TMC3    C710577   2.100   3.919   1.707  0.1217 -0.4351 -0.0349
  715TMC3    C810578   2.374   3.804   1.336 -0.2467 -0.0601 -0.3837
  715TMC3    O110579   2.184   3.843   1.757  0.0685  0.1896  0.7108
  715TMC3    O210580   2.403   3.821   1.220  0.1036 -0.6156  0.2048
  716MPD2     C10581   2.823   1.734  10.181 -0.5719  0.5534  0.0112
  716MPD2    C110582   2.844   1.773  10.051  0.2935 -0.7507  1.1305
  716MPD2    C210583   2.817   1.688   9.947 -0.5837 -0.1040  0.7556
  716MPD2    C310584   2.761   1.565   9.979  0.4992  0.3366 -0.4130
  716MPD2    C410585   2.747   1.523  10.106 -0.4041 -0.7624 -0.5487
  716MPD2    C510586   2.782   1.606  10.209 -0.1743 -0.1387 -0.4283
  716MPD2     H10587   2.813   1.718   9.843 -1.3821  0.6657  1.0001
  716MPD2    H110588   2.703   1.428  10.135  1.8545 -1.2541  1.3185
  716MPD2    H210589   2.837   1.804  10.263 -1.0359  2.7487 -1.7725
  716MPD2    H310590   2.749   1.576  10.308 -1.0462  2.1199 -0.0293
  716MPD2     N10591   2.728   1.482   9.870 -0.0763  0.3475  0.3221
  716MPD2    H510592   2.748   1.523   9.780 -2.5765  0.6278 -0.0965
  716MPD2    N110593   2.904   1.901  10.032  0.5577  0.0114 -0.2770
  716MPD2    H710594   2.901   1.958  10.116  0.4753  0.8350 -0.8418
  717TMC3    C110595   2.571   1.346   9.758  0.8785  0.4316 -0.3574
  717TMC3    C210596   2.544   1.449   9.672 -0.8597 -0.1593  0.1087
  717TMC3    C310597   2.459   1.433   9.567  0.4585 -0.7038  0.3242
  717TMC3    C410598   2.511   1.225   9.742  0.6841  0.4389  0.4667
  717TMC3    C510599   2.430   1.207   9.633  0.2992  0.4850  0.2027
  717TMC3    C610600   2.395   1.311   9.548  0.0921 -1.5005  0.0167
  717TMC3     C10601   2.645   1.371   9.875  0.3320 -0.0458  0.7175
  717TMC3     O10602   2.613   1.302   9.972 -0.2573 -0.1909 -0.0215
  717TMC3     H10603   2.590   1.545   9.693  0.6151 -0.7464 -0.4185
  717TMC3    H110604   2.530   1.147   9.815 -0.1139  1.2751  1.5798
  717TMC3    H210605   2.333   1.296   9.461 -0.4407 -1.0778  0.3222
  717TMC3    C710606   2.365   1.076   9.619 -0.8804 -0.0728  0.1568
  717TMC3    C810607   2.401   1.552   9.514  0.1247  0.5610 -0.7497
  717TMC3    O110608   2.411   0.988   9.692 -0.2570  0.0894  0.3189
  717TMC3    O210609   2.460   1.659   9.537 -0.2202  0.6166  0.2421
  718MPD2     C10610   1.924   1.693  13.374  0.1769  0.3701 -0.4577
  718MPD2    C110611   1.970   1.637  13.256  0.0892 -0.1635  0.0046
  718MPD2    C210612   1.955   1.499  13.245 -0.8219  0.2065 -0.4832
  718MPD2    C310613   1.910   1.421  13.352 -0.3719  0.4692  0.4082
  718MPD2    C410614   1.857   1.476  13.465  0.2630  0.0542  0.1092
  718MPD2    C510615   1.868   1.611  13.472 -0.4786  0.1717 -0.6687
  718MPD2     H10616   1.996   1.447  13.159  1.1825  0.0885  0.5475
  718MPD2    H110617   1.813   1.420  13.547  2.7859  0.2377  1.5737
  718MPD2    H210618   1.932   1.801  13.378 -0.3143  0.3594  0.7166
  718MPD2    H310619   1.837   1.663  13.561  1.2810 -2.0589  1.2422
  718MPD2     N10620   1.924   1.284  13.333  0.0563 -0.5555  0.0521
  718MPD2    H510621   1.955   1.262  13.239  0.7406  0.0923  0.1344
  718MPD2    N110622   2.043   1.702  13.156  0.3163 -0.6137  0.1589
  718MPD2    H710623   2.069   1.648  13.074 -1.9986  0.0596 -1.0163
  719TMC3    C110624   2.163   1.847  13.033  0.7664  0.0052 -0.0291
  719TMC3    C210625   2.126   1.766  12.924 -0.8217 -0.3341 -0.9728
  719TMC3    C310626   2.232   1.718  12.846  0.3812  0.3701 -0.4587
  719TMC3    C410627   2.290   1.881  13.057  0.1044 -0.4575 -0.0738
  719TMC3    C510628   2.391   1.831  12.978  0.0441  0.2009  0.2455
  719TMC3    C610629   2.360   1.753  12.874 -0.2441 -0.6051 -0.4516
  719TMC3     C10630   2.088   1.830  13.160 -1.1814 -0.8381  1.2278
  719TMC3     O10631   2.096   1.909  13.251  0.5066 -0.0035 -0.0609
  719TMC3     H10632   2.023   1.744  12.899 -0.6968 -2.6119  0.4907
  719TMC3    H110633   2.316   1.943  13.142 -1.7457  1.6013 -0.9827
  719TMC3    H210634   2.438   1.722  12.805  0.4195  1.1126 -0.4949
  719TMC3    C710635   2.501   1.916  12.947 -0.3550  0.1449  0.2171
  719TMC3    C810636   2.219   1.574  12.811  0.4966  0.1833 -0.9114
  719TMC3    O110637   2.509   1.949  12.829 -0.1341  0.3502  0.3116
  719TMC3    O210638   2.289   1.506  12.877  0.0184  0.7111 -0.0094
  720MPD2     C10639   4.192   3.315  13.942 -0.5078 -0.1332  0.6707
  720MPD2    C110640   4.295   3.251  13.867 -0.1709  0.1144 -0.0282
  720MPD2    C210641   4.389   3.174  13.937 -0.1570  0.0699 -0.7483
  720MPD2    C310642   4.380   3.161  14.073 -0.8509 -0.0861 -0.1860
  720MPD2    C410643   4.272   3.215  14.135  0.0428  0.4526 -0.2590
  720MPD2    C510644   4.176   3.290  14.078 -0.4956  0.6876  0.0510
  720MPD2     H10645   4.477   3.133  13.889 -0.2424  0.3145 -1.1233
  720MPD2    H110646   4.260   3.214  14.243  0.5717  3.5311 -0.1767
  720MPD2    H210647   4.111   3.372  13.898  1.6705  2.7392  0.4295
  720MPD2    H310648   4.098   3.326  14.143  0.3866 -2.1810  2.6973
  720MPD2     N10649   4.476   3.090  14.146  0.8604  0.1519 -0.7024
  720MPD2    H510650   4.539   3.030  14.093 -0.4742 -0.6885 -1.3667
  720MPD2    N110651   4.321   3.274  13.729 -0.2196  0.2617 -0.4892
  720MPD2    H710652   4.398   3.225  13.684 -1.1628 -0.0704 -1.7658
  721TMC3    C110653   4.610   3.014  14.317 -0.6100 -0.5355  0.2893
  721TMC3    C210654   4.578   2.976  14.439 -0.0572 -0.9202  0.2504
  721TMC3    C310655   4.678   2.944  14.522  0.1890 -0.3251 -0.1416
  721TMC3    C410656   0.015   3.034  14.277 -0.6054  0.0405  0.0960
  721TMC3    C510657   0.113   2.994  14.361  0.1996 -0.4706  0.6339
  721TMC3    C610658   0.082   2.951  14.486 -0.2989  0.4302  0.2926
  721TMC3     C10659   4.498   3.092  14.278  0.2629 -0.2447  0.4659
  721TMC3     O10660   4.431   3.144  14.366 -0.6277 -0.5195 -0.3603
  721TMC3     H10661   4.476   2.966  14.475 -1.4141  0.8549 -3.1171
  721TMC3    H110662   0.039   3.064  14.175 -0.1758 -3.6485 -0.8998
  721TMC3    H210663   0.156   2.937  14.565  0.5088 -0.4369 -0.6129
  721TMC3    C710664   0.248   2.996  14.313 -0.0642 -0.3908  0.5612
  721TMC3    C810665   4.669   3.009  14.646  0.2427  0.4557  0.0842
  721TMC3    O110666   0.255   3.032  14.198  0.1530  0.0816 -0.4788
  721TMC3    O210667   0.019   2.986  14.734 -0.1771  0.3912  0.3569
  722MPD2     C10668   4.130   1.348  13.406 -0.1893  0.4974  0.1219
  722MPD2    C110669   4.065   1.456  13.356 -0.0237  0.3453  0.6118
  722MPD2    C210670   3.942   1.482  13.411 -0.4677  0.5938 -0.4118
  722MPD2    C310671   3.882   1.400  13.504 -0.3054 -0.3376 -0.0637
  722MPD2    C410672   3.936   1.283  13.535 -0.6757 -0.1038  0.0534
  722MPD2    C510673   4.064   1.260  13.489 -0.0554  0.3307 -0.0559
  722MPD2     H10674   3.890   1.574  13.387  0.4199  0.8774 -1.2591
  722MPD2    H110675   3.896   1.215  13.609 -2.0236  0.3508 -0.2384
  722MPD2    H210676   4.233   1.325  13.380 -0.2031  1.5011 -0.7830
  722MPD2    H310677   4.119   1.168  13.504 -0.1541  0.4749  1.1516
  722MPD2     N10678   3.754   1.441  13.546 -0.1909  0.3313  0.3745
  722MPD2    H510679   3.713   1.523  13.504  1.2413  0.0379 -1.5963
  722MPD2    N110680   4.122   1.552  13.271  0.9307 -0.3663 -0.0915
  722MPD2    H710681   4.066   1.621  13.222 -0.0310 -0.6684  0.5631
  723TMC3    C110682   3.574   1.476  13.686 -0.4593 -0.4617 -0.4858
  723TMC3    C210683   3.452   1.418  13.701  0.1002  0.2462  0.3612
  723TMC3    C310684   3.354   1.507  13.677 -0.3908  1.1918  1.3070
  723TMC3    C410685   3.598   1.613  13.683  0.2146  0.2241  0.0832
  723TMC3    C510686   3.490   1.697  13.695  0.0768  0.8239 -0.5553
  723TMC3    C610687   3.359   1.643  13.693 -0.6367 -0.0239  0.2788
  723TMC3     C10688   3.678   1.386  13.650  0.1107  0.1262  0.1009
  723TMC3     O10689   3.693   1.282  13.709  0.2615 -0.0792 -0.1000
  723TMC3     H10690   3.429   1.312  13.706 -0.1947  0.3468  1.1856
  723TMC3    H110691   3.693   1.661  13.661  0.3535 -0.4353 -0.7405
  723TMC3    H210692   3.266   1.699  13.685 -1.6815 -2.0395 -1.4668
  723TMC3    C710693   3.506   1.830  13.649 -0.1505 -0.0487  0.2469
  723TMC3    C810694   3.225   1.451  13.646  0.7763 -0.2926 -0.2029
  723TMC3    O110695   3.617   1.881  13.641 -0.1595 -0.1905  0.5774
  723TMC3    O210696   3.131   1.499  13.710  0.9658  0.2578  0.4748
  724TMC3    C110697   4.263   0.036   9.855 -0.5717 -0.7487  0.2967
  724TMC3    C210698   4.363   0.084   9.937 -0.1439  0.0805 -0.5314
  724TMC3    C310699   4.459   0.165   9.879 -0.1654  0.5789 -0.3388
  724TMC3    C410700   4.271   0.064   9.722 -0.0255 -0.4354 -0.5815
  724TMC3    C510701   4.361   0.150   9.670 -0.4872 -0.0663 -0.3928
  724TMC3    C610702   4.459   0.204   9.748 -0.2959 -0.5382  0.4835
  724TMC3     C10703   4.189   4.653   9.894  0.2234 -0.7012 -0.1641
  724TMC3     O10704   4.093   4.615   9.825 -0.2520  0.2432 -0.0059
  724TMC3     H10705   4.356   0.093  10.045  0.9497 -0.1237 -0.4507
  724TMC3    H110706   4.225   4.722   9.650 -1.3741  0.8912 -0.9538
  724TMC3    H210707   4.514   0.286   9.704 -0.3148 -1.1238 -0.6240
  724TMC3    C710708   4.356   0.182   9.534  0.0254 -0.0070 -0.3173
  724TMC3    C810709   4.548   0.222   9.966  0.4144 -0.2132 -0.3454
  724TMC3    O110710   4.464   0.216   9.476  0.2540  0.1816  0.3265
  724TMC3    O210711   4.591   0.154  10.054  0.4711  0.2675 -0.1948
  725TMC3    C110712   0.351   3.527  12.604 -0.4377 -0.2503 -0.0095
  725TMC3    C210713   0.349   3.534  12.467  0.1729  0.0517 -0.9447
  725TMC3    C310714   0.427   3.450  12.392  0.2319  0.1189  0.8175
  725TMC3    C410715   0.437   3.435  12.655  0.7855  0.3199  0.0564
  725TMC3    C510716   0.518   3.353  12.581 -0.2938  0.5250  0.7646
  725TMC3    C610717   0.509   3.352  12.441  0.1491 -0.0071  0.7711
  725TMC3     C10718   0.353   3.656  12.660  0.8908  0.0474  0.3116
  725TMC3     O10719   0.408   3.740  12.589  0.2061 -0.0714  0.6377
  725TMC3     H10720   0.298   3.618  12.421  0.0216  2.3595  3.4019
  725TMC3    H110721   0.450   3.426  12.763  0.9872 -2.5674 -0.2185
  725TMC3    H210722   0.554   3.274  12.380 -2.3826 -0.1709 -0.8868
  725TMC3    C710723   0.625   3.274  12.646  0.2361  0.1528  0.2316
  725TMC3    C810724   0.378   3.417  12.263  0.6224  0.4175 -0.2006
  725TMC3    O110725   0.609   3.247  12.765  0.1311 -0.0490 -0.1889
  725TMC3    O210726   0.398   3.302  12.223 -0.2509 -0.0314  0.5545
  726MPD2     C10727   3.848   0.768   9.995  0.1252  1.1878  0.5799
  726MPD2    C110728   3.750   0.801   9.904  0.1277 -0.2229  0.6524
  726MPD2    C210729   3.626   0.748   9.908  1.0828  0.4572 -0.1483
  726MPD2    C310730   3.600   0.651  10.000  0.1375 -0.2506 -0.8475
  726MPD2    C410731   3.695   0.615  10.094  0.4002  0.8411 -0.8357
  726MPD2    C510732   3.825   0.674  10.092 -0.0364  0.1494  0.3126
  726MPD2     H10733   3.560   0.775   9.826 -0.9904  0.5563  1.5375
  726MPD2    H110734   3.666   0.552  10.176 -0.1237  2.3971  0.1805
  726MPD2    H210735   3.947   0.811   9.985 -0.6260  3.1793  1.6756
  726MPD2    H310736   3.903   0.652  10.164 -0.4930  0.5094  0.9199
  726MPD2     N10737   3.477   0.588  10.012  0.3299 -0.4275  0.2515
  726MPD2    H510738   3.470   0.507  10.072  1.4572 -2.2757 -2.0899
  726MPD2    N110739   3.774   0.899   9.807  0.7542  0.9508 -0.5057
  726MPD2    H710740   3.701   0.903   9.737 -0.9155 -1.8733  1.1172
  727TMC3    C110741   3.867   1.083   9.695  0.5902  0.3835  0.4770
  727TMC3    C210742   3.944   1.194   9.710  0.0683 -0.1833 -0.0191
  727TMC3    C310743   3.916   1.317   9.660 -0.1210 -0.0343  0.6230
  727TMC3    C410744   3.753   1.096   9.626 -0.4110  0.4701  0.7802
  727TMC3    C510745   3.726   1.220   9.565  0.5837 -0.2283 -0.2523
  727TMC3    C610746   3.798   1.337   9.592  0.0452 -0.5278  0.2761
  727TMC3     C10747   3.878   0.986   9.797 -0.0874  0.1588  0.0272
  727TMC3     O10748   3.961   1.007   9.884 -0.4211  0.2216 -0.4498
  727TMC3     H10749   4.046   1.186   9.747  0.5986 -1.8320 -1.8101
  727TMC3    H110750   3.687   1.011   9.609 -0.1904  0.1772  1.3919
  727TMC3    H210751   3.779   1.437   9.555 -1.1994 -1.9190 -2.8999
  727TMC3    C710752   3.584   1.239   9.536  0.9605  0.2104 -0.2207
  727TMC3    C810753   3.990   1.427   9.709  0.4565  0.1724 -0.2369
  727TMC3    O110754   3.506   1.174   9.600  0.4586  0.0830 -0.6740
  727TMC3    O210755   4.097   1.398   9.759  0.2488 -0.2407 -0.6893
  728TMC3    C110756   2.375   3.269  15.354  0.7035 -0.4914 -0.5137
  728TMC3    C210757   2.507   3.293  15.386 -0.5110  0.4725 -0.7830
  728TMC3    C310758   2.596   3.292  15.281 -0.1031  0.3683  0.9541
  728TMC3    C410759   2.328   3.255  15.226  0.5569  0.0436  0.2321
  728TMC3    C510760   2.425   3.257  15.130 -0.0546  0.5567 -0.2820
  728TMC3    C610761   2.558   3.272  15.154 -0.2675 -0.6346  0.2110
  728TMC3     C10762   2.283   3.305  15.462  0.2679  0.0625  0.0516
  728TMC3     O10763   2.318   3.395  15.543 -0.0722  0.5093  0.0068
  728TMC3     H10764   2.527   3.301  15.492 -1.5006 -1.2399 -0.4642
  728TMC3    H110765   2.225   3.237  15.199  0.1367  0.9905  1.1898
  728TMC3    H210766   2.633   3.273  15.076 -0.5208 -1.5932 -0.0435
  728TMC3    C710767   2.379   3.287  14.996  0.1224  0.7307  0.4408
  728TMC3    C810768   2.733   3.256  15.301  0.5509  0.0669 -0.1078
  728TMC3    O110769   2.262   3.263  14.969  0.2573 -0.0440  0.4564
  728TMC3    O210770   2.758   3.157  15.228  0.1061  0.2408 -0.0794
  729MPD2     C10771   4.308   0.153  16.817 -0.8183  0.2620 -0.4114
  729MPD2    C110772   4.415   0.070  16.830  0.2008 -0.8925 -0.2456
  729MPD2    C210773   4.488   0.069  16.949  0.4032 -0.0849  0.4271
  729MPD2    C310774   4.459   0.145  17.053 -0.2364  0.3294  0.9543
  729MPD2    C410775   4.341   0.212  17.047 -0.1230  0.2739 -0.0072
  729MPD2    C510776   4.263   0.213  16.933 -0.2581  0.0324  0.2128
  729MPD2     H10777   4.562   4.715  16.964 -2.0849 -2.7950 -1.3952
  729MPD2    H110778   4.309   0.260  17.139 -0.2625 -1.2354  0.7366
  729MPD2    H210779   4.267   0.171  16.718  0.8345  0.3807 -1.0846
  729MPD2    H310780   4.172   0.273  16.927  0.2119  0.5876 -1.1222
  729MPD2     N10781   4.553   0.161  17.155 -0.1114 -0.7555 -1.0452
  729MPD2    H510782   4.530   0.217  17.237 -1.5157 -1.0743 -1.2261
  729MPD2    N110783   4.453   0.004  16.715 -0.2320  0.2916 -0.0859
  729MPD2    H710784   4.397   0.016  16.631  1.1890  3.2436 -0.5799
  730TMC3    C110785   0.023   0.152  17.276  0.6583  0.1205  0.2939
  730TMC3    C210786   0.124   0.076  17.327 -0.2489 -0.1754 -0.4772
  730TMC3    C310787   0.207   0.132  17.421  0.9270 -0.3096  1.3725
  730TMC3    C410788   0.004   0.282  17.308  0.7696 -0.8234 -0.3892
  730TMC3    C510789   0.087   0.337  17.403  0.3389 -0.1836  0.6448
  730TMC3    C610790   0.188   0.264  17.466 -0.1480 -0.0583 -0.0228
  730TMC3     C10791   4.677   0.097  17.161 -0.7134  0.1810  0.3775
  730TMC3     O10792   0.006   0.009  17.101 -0.1111  0.2145  0.5981
  730TMC3     H10793   0.149   4.703  17.287  1.3998 -0.3890  1.0667
  730TMC3    H110794   4.665   0.355  17.258  0.0267 -1.2985 -0.1411
  730TMC3    H210795   0.253   0.307  17.541 -0.3062 -1.7894  1.1045
  730TMC3    C710796   0.106   0.479  17.414 -0.1093 -0.4684  0.2056
  730TMC3    C810797   0.313   0.040  17.469 -0.5609  0.0173  0.0803
  730TMC3    O110798   0.167   0.514  17.511 -0.2151  0.3235  0.0958
  730TMC3    O210799   0.292   4.644  17.463 -0.4321 -0.0732  0.5224
  731MPD2     C10800   0.128   2.969  11.980 -0.4218 -0.2225 -0.5863
  731MPD2    C110801   0.258   2.919  11.990 -0.7052 -0.4968 -0.4581
  731MPD2    C210802   0.288   2.839  12.100  0.2242 -0.0389 -0.1466
  731MPD2    C310803   0.190   2.812  12.198 -0.6523  0.1992 -0.4249
  731MPD2    C410804   0.064   2.867  12.183 -0.6467 -0.3369  0.1762
  731MPD2    C510805   0.038   2.943  12.075 -0.1203 -0.2654 -0.2958
  731MPD2     H10806   0.387   2.797  12.111 -0.3489 -1.2902  0.2553
  731MPD2    H110807   4.712   2.861  12.260 -0.4714  1.2877  0.4842
  731MPD2    H210808   0.102   3.038  11.900 -3.0637  0.9956  1.3325
  731MPD2    H310809   4.669   2.996  12.076  0.2389  0.3940 -1.4805
  731MPD2     N10810   0.221   2.723  12.298  0.1769 -0.0350 -0.2991
  731MPD2    H510811   0.314   2.684  12.298 -0.0527 -0.5736 -2.4147
  731MPD2    N110812   0.346   2.947  11.884 -0.0968  0.2029 -0.4272
  731MPD2    H710813   0.311   2.996  11.802  0.5982 -0.6064 -1.2112
  732TMC3    C110814   0.513   2.884  11.732 -0.0395  0.1382  0.4231
  732TMC3    C210815   0.411   2.868  11.643  0.4612 -0.7206  0.0063
  732TMC3    C310816   0.445   2.850  11.510  0.2651  0.2493  0.6587
  732TMC3    C410817   0.647   2.889  11.705 -0.8420 -0.1870 -0.1997
  732TMC3    C510818   0.673   2.887  11.565  0.0258  0.1327  0.0861
  732TMC3    C610819   0.572   2.873  11.470 -0.2903 -0.3136  0.2573
  732TMC3     C10820   0.473   2.890  11.869  0.1502 -0.2862 -0.4415
  732TMC3     O10821   0.547   2.849  11.958  0.3476 -0.5967 -0.0006
  732TMC3     H10822   0.306   2.868  11.669  0.7021  1.3649  0.9836
  732TMC3    H110823   0.719   2.907  11.785 -2.3202 -2.9876  1.7349
  732TMC3    H210824   0.603   2.877  11.367  0.5818 -0.5682  0.5116
  732TMC3    C710825   0.808   2.906  11.519  0.5103  0.0297  0.1472
  732TMC3    C810826   0.347   2.818  11.407  0.2530  0.2837  1.0294
  732TMC3    O110827   0.840   2.896  11.400  0.0203 -0.0766  0.8429
  732TMC3    O210828   0.372   2.863  11.295  0.6097  0.2791 -1.0206
  733TMC3    C110829   1.689   0.962  13.254  0.1807  0.2273 -0.3115
  733TMC3    C210830   1.752   1.018  13.360 -0.0132 -0.1064  0.4355
  733TMC3    C310831   1.880   1.059  13.345  0.2387 -0.6439  0.6611
  733TMC3    C410832   1.755   0.950  13.134 -0.1618 -0.3508  0.4906
  733TMC3    C510833   1.885   0.991  13.127  0.3543  0.0077  0.5115
  733TMC3    C610834   1.947   1.047  13.231 -0.1048 -0.1066 -0.4127
  733TMC3     C10835   1.545   0.953  13.253 -0.3508  0.7049  0.2300
  733TMC3     O10836   1.496   0.958  13.142  0.5377 -0.0567 -0.2462
  733TMC3     H10837   1.695   1.040  13.449 -1.2942  1.8086 -0.8518
  733TMC3    H110838   1.702   0.919  13.045 -1.0512 -0.5149  1.0864
  733TMC3    H210839   2.046   1.090  13.225 -0.4107  0.5987 -0.4917
  733TMC3    C710840   1.928   1.018  12.990 -0.0247 -0.2413 -0.1019
  733TMC3    C810841   1.912   1.181  13.423  0.1133  0.7741  0.0900
  733TMC3    O110842   1.874   0.954  12.904  0.3331  0.5035  0.6656
  733TMC3    O210843   1.902   1.179  13.545 -0.3012 -0.1488 -0.0194
  734MPD2     C10844   3.340   3.547  11.974 -0.4634 -0.2530  0.6644
  734MPD2    C110845   3.288   3.490  11.861 -0.0743 -0.2423 -0.2897
  734MPD2    C210846   3.343   3.523  11.739 -0.1610 -0.2613 -0.5044
  734MPD2    C310847   3.455   3.602  11.731  0.3900  0.7723  0.9121
  734MPD2    C410848   3.498   3.661  11.840  0.8920  0.1936  0.6856
  734MPD2    C510849   3.442   3.638  11.960 -0.5725 -0.1891  0.8431
  734MPD2     H10850   3.294   3.508  11.644 -0.6386 -0.2972 -0.2546
  734MPD2    H110851   3.591   3.717  11.841  0.0069  1.6682  1.6505
  734MPD2    H210852   3.302   3.510  12.069 -0.7318  0.3483  0.7916
  734MPD2    H310853   3.491   3.669  12.051  1.7607 -0.5648 -0.2969
  734MPD2     N10854   3.508   3.626  11.602 -1.1068  0.1457 -0.5588
  734MPD2    H510855   3.469   3.580  11.520 -0.0131 -1.4793 -0.1676
  734MPD2    N110856   3.169   3.409  11.869  0.2018  0.0766 -0.6608
  734MPD2    H710857   3.127   3.390  11.959  1.4231  1.6540  0.2561
  735TMC3    C110858   2.999   3.249  11.777 -0.2322  0.4197 -0.5926
  735TMC3    C210859   2.908   3.307  11.697  0.2183  0.5399  0.2351
  735TMC3    C310860   2.838   3.223  11.613 -0.6778  0.1464  0.5908
  735TMC3    C410861   3.008   3.111  11.797  0.2682  0.4307 -0.1405
  735TMC3    C510862   2.933   3.033  11.709  0.0525 -0.7016  0.4187
  735TMC3    C610863   2.852   3.090  11.619 -0.0629  1.0216 -0.0342
  735TMC3     C10864   3.130   3.322  11.762  0.6834  0.6971 -1.0163
  735TMC3     O10865   3.183   3.304  11.651  0.2260 -0.0883 -0.3318
  735TMC3     H10866   2.898   3.415  11.698 -0.2713  0.4884  1.4259
  735TMC3    H110867   3.085   3.072  11.862 -2.5036 -0.7636  2.4107
  735TMC3    H210868   2.811   3.019  11.548 -2.8613 -0.4541  3.0487
  735TMC3    C710869   3.001   2.911  11.670  0.1737  0.0596 -0.1995
  735TMC3    C810870   2.841   3.269  11.476 -0.2352  0.3053 -0.2284
  735TMC3    O110871   2.931   2.822  11.615 -0.2812 -0.3345 -0.3450
  735TMC3    O210872   2.752   3.243  11.398 -0.3841  0.2238 -0.2944
  736MPD2     C10873   3.211   2.719  11.587 -0.1691 -0.2500  0.1245
  736MPD2    C110874   3.233   2.851  11.611 -0.8169 -0.0406  0.1723
  736MPD2    C210875   3.355   2.897  11.579  0.3522  0.4705 -0.2022
  736MPD2    C310876   3.457   2.815  11.526 -0.0460  0.4115 -0.3706
  736MPD2    C410877   3.433   2.678  11.522 -0.5795 -0.1518 -0.0704
  736MPD2    C510878   3.305   2.631  11.548 -0.3583  0.0752 -0.5698
  736MPD2     H10879   3.362   3.004  11.598 -0.1369  0.3672  0.5273
  736MPD2    H110880   3.511   2.613  11.485 -1.4008  0.5181 -3.0067
  736MPD2    H210881   3.117   2.670  11.609  0.8201 -1.7081  1.1115
  736MPD2    H310882   3.291   2.524  11.543 -3.6301  0.4558 -0.0328
  736MPD2     N10883   3.576   2.868  11.470  0.4054 -0.3868 -0.0091
  736MPD2    H510884   3.633   2.808  11.412  0.9838  2.5148 -2.4504
  736MPD2    N110885   3.135   2.936  11.668 -0.3387  0.1130 -0.2019
  736MPD2    H710886   3.171   3.028  11.692  1.5706 -0.5542 -0.4576
  737TMC3    C110887   3.709   3.024  11.364 -0.5079  0.0178 -0.1250
  737TMC3    C210888   3.696   3.135  11.286  0.0885 -0.2787 -0.0772
  737TMC3    C310889   3.773   3.151  11.171 -0.2512  0.2844  0.2701
  737TMC3    C410890   3.804   2.929  11.342  1.1056 -0.3515  0.0485
  737TMC3    C510891   3.898   2.966  11.246 -0.0239  0.4316 -0.1439
  737TMC3    C610892   3.887   3.071  11.161  0.2262 -0.7686  0.0416
  737TMC3     C10893   3.602   3.003  11.455 -0.7589  0.8624 -0.6175
  737TMC3     O10894   3.539   3.104  11.495  0.3858  0.5899  0.5674
  737TMC3     H10895   3.617   3.206  11.309 -1.4495 -1.7534 -0.9376
  737TMC3    H110896   3.824   2.847  11.410 -0.8911 -0.7595  0.1188
  737TMC3    H210897   3.967   3.095  11.091  0.2543  1.3586  0.7847
  737TMC3    C710898   4.020   2.897  11.260 -0.5140  0.1448  0.8929
  737TMC3    C810899   3.775   3.280  11.111 -0.5242  0.2115 -0.0868
  737TMC3    O110900   4.016   2.784  11.313  0.6688 -0.1805  0.4577
  737TMC3    O210901   3.742   3.374  11.178 -0.5998 -0.7217 -0.5202
  738MPD2     C10902   3.467   1.930  14.867 -0.1966 -0.4034 -0.9058
  738MPD2    C110903   3.552   1.967  14.963  0.6919 -0.7623  0.2703
  738MPD2    C210904   3.628   2.075  14.939 -0.0403 -0.2975 -0.3044
  738MPD2    C310905   3.620   2.151  14.821 -0.3006 -0.3953  0.2688
  738MPD2    C410906   3.536   2.106  14.726 -0.0065  0.3102  0.0265
  738MPD2    C510907   3.463   1.992  14.748  0.2382  0.5413 -0.2372
  738MPD2     H10908   3.694   2.098  15.023 -2.1037  0.2617  1.1625
  738MPD2    H110909   3.519   2.152  14.630 -2.6910  1.0628  0.8595
  738MPD2    H210910   3.395   1.848  14.874 -1.1322  0.6326  1.7587
  738MPD2    H310911   3.387   1.970  14.675 -0.6827 -0.3887  1.0095
  738MPD2     N10912   3.698   2.268  14.799 -0.2049 -0.2415  0.0105
  738MPD2    H510913   3.690   2.304  14.704 -2.6396 -1.1684 -0.1522
  738MPD2    N110914   3.580   1.882  15.062  0.8850  0.4996 -0.1953
  738MPD2    H710915   3.672   1.882  15.105  0.5444  1.7484  0.5230
  739TMC3    C110916   3.848   2.446  14.826 -0.5674 -0.3915 -0.4144
  739TMC3    C210917   3.896   2.443  14.697 -0.2956 -0.4890  0.4476
  739TMC3    C310918   3.965   2.555  14.659  0.8542  0.1308 -0.0810
  739TMC3    C410919   3.875   2.551  14.910  0.5565  0.0534 -0.2038
  739TMC3    C510920   3.933   2.660  14.866 -0.0518  0.5536  0.8165
  739TMC3    C610921   3.994   2.665  14.739  0.0679 -1.1594  0.5950
  739TMC3     C10922   3.780   2.333  14.883  0.5736 -0.1323 -0.0405
  739TMC3     O10923   3.789   2.318  15.006 -0.0514  0.5927 -0.1980
  739TMC3     H10924   3.879   2.354  14.639 -1.5793  0.7549 -1.0902
  739TMC3    H110925   3.833   2.545  15.010  1.1104 -1.8652 -0.0733
  739TMC3    H210926   4.056   2.746  14.702 -1.3421 -0.1984  0.3857
  739TMC3    C710927   3.950   2.763  14.965 -0.0643 -0.5277 -0.1963
  739TMC3    C810928   3.999   2.563  14.510  0.4497 -0.6143  0.2040
  739TMC3    O110929   3.931   2.733  15.082 -0.2509  1.0817 -0.2702
  739TMC3    O210930   4.011   2.456  14.448 -0.1962 -0.3218 -0.6877
  740TMC3    C110931   4.520   3.505  14.124 -0.2519  0.9307  0.1392
  740TMC3    C210932   4.619   3.488  14.218 -0.6459 -0.6926  0.5454
  740TMC3    C310933   0.008   3.410  14.187  0.2674  0.0790 -0.1029
  740TMC3    C410934   4.539   3.461  14.000  0.2730 -0.8285 -0.1778
  740TMC3    C510935   4.655   3.386  13.975  0.4388  0.1146 -0.1823
  740TMC3    C610936   0.016   3.341  14.068  0.5464 -0.2496 -0.0737
  740TMC3     C10937   4.397   3.562  14.155  0.5136  0.2369  0.4263
  740TMC3     O10938   4.331   3.600  14.056 -0.4783 -0.1113  0.8825
  740TMC3     H10939   4.608   3.542  14.312 -3.7912  2.0606 -1.4132
  740TMC3    H110940   4.463   3.462  13.923 -2.7429  0.3313  2.8110
  740TMC3    H210941   0.101   3.280  14.041  0.5669 -0.2344 -0.0447
  740TMC3    C710942   4.675   3.335  13.842  0.1972  0.1236 -0.7430
  740TMC3    C810943   0.120   3.396  14.282 -0.2321  0.4023  0.3878
  740TMC3    O110944   0.002   3.226  13.838  0.5810  0.2283 -0.0019
  740TMC3    O210945   0.228   3.368  14.238 -0.2964 -0.0399 -0.5743
  741TMC3    C110946   3.887   2.285  13.592  0.0445  0.2397  0.0471
  741TMC3    C210947   3.769   2.221  13.635 -0.1356 -0.3918 -0.1041
  741TMC3    C310948   3.677   2.315  13.683  0.1426 -0.3309  0.2762
  741TMC3    C410949   3.894   2.421  13.571 -0.1553 -0.1680  0.1500
  741TMC3    C510950   3.796   2.504  13.610 -0.5626 -0.0422  0.2740
  741TMC3    C610951   3.680   2.454  13.668 -0.6563 -0.1479  0.2400
  741TMC3     C10952   4.007   2.207  13.550 -0.1860 -0.5614 -0.1465
  741TMC3     O10953   4.071   2.258  13.456  0.0147  0.1092  0.1257
  741TMC3     H10954   3.756   2.114  13.646 -1.0631 -0.2381  0.2558
  741TMC3    H110955   3.982   2.467  13.528 -0.1457  0.1344  0.4934
  741TMC3    H210956   3.607   2.525  13.703 -0.1608 -0.5471  2.1201
  741TMC3    C710957   3.835   2.640  13.597 -0.2110  0.2833  0.3829
  741TMC3    C810958   3.569   2.275  13.782 -0.2843  0.7314  0.2725
  741TMC3    O110959   3.924   2.663  13.515 -0.2438  0.1871  0.8811
  741TMC3    O210960   3.501   2.365  13.824  0.3045 -0.0923 -0.0738
  742TMC3    C110961   4.154   1.399  15.283 -0.3252 -1.2569 -0.3199
  742TMC3    C210962   4.049   1.324  15.240  0.0473  0.4653  0.4529
  742TMC3    C310963   4.085   1.214  15.162 -0.3134 -0.1399  0.2940
  742TMC3    C410964   4.287   1.363  15.262  0.2106 -0.1958  0.0016
  742TMC3    C510965   4.313   1.251  15.191 -0.8137 -0.6470 -0.1457
  742TMC3    C610966   4.214   1.168  15.139  0.1324 -0.6075 -0.4407
  742TMC3     C10967   4.119   1.532  15.338 -0.2779  0.0564 -0.7365
  742TMC3     O10968   4.205   1.616  15.313 -0.1429  0.4840  0.0369
  742TMC3     H10969   3.949   1.364  15.229  1.4573  3.4927 -1.3799
  742TMC3    H110970   4.369   1.419  15.306  1.5460 -2.7906  0.8033
  742TMC3    H210971   4.227   1.075  15.086 -0.3137 -0.3077 -1.0744
  742TMC3    C710972   4.444   1.210  15.156  0.8788  0.3256 -0.0777
  742TMC3    C810973   3.974   1.156  15.089  0.1636 -0.4676  0.1259
  742TMC3    O110974   4.462   1.092  15.146 -0.6646 -0.6957 -0.5358
  742TMC3    O210975   3.997   1.127  14.974 -0.1225 -0.4624  0.5381
  743MPD2     C10976   1.733   2.428   1.612  0.7644  0.0827  0.0223
  743MPD2    C110977   1.780   2.352   1.504  0.4670  0.0281  0.2934
  743MPD2    C210978   1.894   2.276   1.510 -0.0798 -0.1466 -0.6095
  743MPD2    C310979   1.971   2.279   1.623 -0.2573 -0.5571  0.7007
  743MPD2    C410980   1.925   2.353   1.731  0.2460  0.6143 -0.1988
  743MPD2    C510981   1.804   2.417   1.722 -0.0055 -0.5231  0.4811
  743MPD2     H10982   1.932   2.214   1.430  0.8595 -1.3575  0.7859
  743MPD2    H110983   1.982   2.362   1.823  0.7259 -3.8985 -0.0750
  743MPD2    H210984   1.652   2.500   1.611  2.0837  1.5699  1.0293
  743MPD2    H310985   1.784   2.478   1.809 -3.2364  1.2240 -1.4691
  743MPD2     N10986   2.098   2.219   1.616  0.4497  0.4679  0.0575
  743MPD2    H510987   2.120   2.163   1.534  2.6466  0.6877  0.4894
  743MPD2    N110988   1.686   2.348   1.395  0.1177 -0.7132 -0.0631
  743MPD2    H710989   1.592   2.385   1.401  0.7309  0.9672 -0.6610
  744TMC3    C110990   1.590   2.307   1.190 -0.3688 -0.0572 -0.5382
  744TMC3    C210991   1.511   2.418   1.203  0.0369  0.2218 -0.6092
  744TMC3    C310992   1.393   2.416   1.133  0.0736  1.0494 -0.8286
  744TMC3    C410993   1.558   2.192   1.119 -0.9436 -0.9227  0.0617
  744TMC3    C510994   1.433   2.199   1.060 -0.0333 -0.1740 -0.1240
  744TMC3    C610995   1.353   2.310   1.066  0.3229 -0.2115  0.2301
  744TMC3     C10996   1.706   2.285   1.274  0.3748 -0.0536  0.6518
  744TMC3     O10997   1.804   2.228   1.231  0.3605  0.3354 -0.4502
  744TMC3     H10998   1.546   2.505   1.257 -1.4391 -0.0789  0.8326
  744TMC3    H110999   1.626   2.107   1.119 -1.2296 -1.1578 -3.2376
  744TMC3    H211000   1.254   2.309   1.022  0.2476  0.7930  0.3738
  744TMC3    C711001   1.403   2.109   0.950  0.2821 -0.0399  1.0575
  744TMC3    C811002   1.302   2.513   1.188  0.6458  0.3541  0.3160
  744TMC3    O111003   1.286   2.106   0.919  0.1391 -0.7094 -0.8276
  744TMC3    O211004   1.353   2.625   1.218 -0.7256  0.0923 -0.3603
  745TMC3    C111005   0.139   1.022  14.038  0.5136 -0.6282  0.3883
  745TMC3    C211006   0.028   1.059  14.104 -0.2850  0.2547  0.1169
  745TMC3    C311007   4.632   1.055  14.034  0.4344  0.2557 -0.5932
  745TMC3    C411008   0.137   0.976  13.908 -0.1991  0.2353  1.1351
  745TMC3    C511009   0.015   0.977  13.839  0.2118 -0.2693  0.0704
  745TMC3    C611010   4.628   1.018  13.901  0.5236 -0.7727 -0.5576
  745TMC3     C11011   0.251   1.104  14.075 -0.1446  0.0863 -0.4880
  745TMC3     O11012   0.276   1.117  14.194 -0.4593 -0.0256 -0.2974
  745TMC3     H11013   0.028   1.086  14.209 -0.0288  0.1813  0.1365
  745TMC3    H111014   0.226   0.935  13.861  0.2266  2.1886  0.2351
  745TMC3    H211015   4.530   1.019  13.855  1.3707 -0.4666 -2.3710
  745TMC3    C711016   0.014   0.981  13.691 -0.0080  0.8858 -0.5338
  745TMC3    C811017   4.545   1.167  14.052  1.0728  0.7689 -0.0347
  745TMC3    O111018   4.630   0.969  13.635  0.4195  0.5034 -0.3163
  745TMC3    O211019   4.423   1.154  14.022  0.5647  0.7267 -0.2964
  746TMC3    C111020   2.322   3.239  11.519 -0.0019  0.5063 -0.5659
  746TMC3    C211021   2.442   3.178  11.497  0.2225  0.1481 -0.1952
  746TMC3    C311022   2.464   3.042  11.510 -0.8453  0.2606  1.1152
  746TMC3    C411023   2.213   3.160  11.552 -0.1703 -0.0168  0.0676
  746TMC3    C511024   2.229   3.025  11.574  0.2709 -0.1342  0.3599
  746TMC3    C611025   2.353   2.971  11.543 -0.2253  0.5383 -0.1815
  746TMC3     C11026   2.299   3.371  11.456  0.6150 -0.0481  0.5896
  746TMC3     O11027   2.184   3.421  11.461  0.3262 -0.1285 -0.1714
  746TMC3     H11028   2.536   3.233  11.497 -0.1852  0.8445 -0.2791
  746TMC3    H111029   2.123   3.216  11.575 -0.2060  0.0068 -0.1330
  746TMC3    H211030   2.356   2.863  11.546 -0.0237  0.5212 -1.3824
  746TMC3    C711031   2.116   2.942  11.527  0.5882  0.0687  0.8747
  746TMC3    C811032   2.546   2.980  11.410 -0.0481 -0.5232  0.0630
  746TMC3    O111033   2.151   2.837  11.471 -0.0226 -0.5194  0.3457
  746TMC3    O211034   2.587   2.862  11.419  0.1386 -0.3467  0.2958
  747TMC3    C111035   0.124   3.065  10.601 -0.3031  0.0485 -0.3975
  747TMC3    C211036   0.004   2.999  10.639  0.0158 -0.0585 -0.3207
  747TMC3    C311037   4.669   3.030  10.760 -0.5373 -0.2399 -0.4568
  747TMC3    C411038   0.168   3.174  10.672 -0.5357 -0.0444  0.8491
  747TMC3    C511039   0.095   3.208  10.787  0.0495  0.1050  0.5831
  747TMC3    C611040   4.711   3.138  10.827  0.2699 -0.0233  0.5009
  747TMC3     C11041   0.207   3.026  10.482  0.1707  0.4987 -0.1596
  747TMC3     O11042   0.287   3.114  10.446 -0.7685 -0.3668  0.0407
  747TMC3     H11043   4.693   2.918  10.575 -0.0742  0.6267 -1.1309
  747TMC3    H111044   0.267   3.215  10.659  0.4734 -2.1892  1.6207
  747TMC3    H211045   4.677   3.166  10.926 -1.2995 -0.3044  0.0301
  747TMC3    C711046   0.140   3.320  10.863 -0.6078 -0.5811  0.0032
  747TMC3    C811047   4.572   2.940  10.812 -0.0295 -0.2274  0.0207
  747TMC3    O111048   0.090   3.340  10.972  0.3378  0.4858  0.0639
  747TMC3    O211049   4.546   2.841  10.742 -0.3393 -0.6170  0.1458
  748MPD2     C11050   0.991   3.247   1.417  0.5234  0.0416  0.7712
  748MPD2    C111051   1.083   3.147   1.395  0.1692 -0.3465  0.1124
  748MPD2    C211052   1.181   3.165   1.300 -0.4873 -0.6134  0.7545
  748MPD2    C311053   1.184   3.273   1.221  0.4485  0.0853 -0.4085
  748MPD2    C411054   1.083   3.368   1.234 -0.4647 -0.5432 -0.0513
  748MPD2    C511055   0.991   3.360   1.330 -0.4428 -0.9341 -0.3095
  748MPD2     H11056   1.267   3.099   1.298  0.7177  0.9809  0.9176
  748MPD2    H111057   1.076   3.452   1.166 -0.8092 -0.5113  0.0272
  748MPD2    H211058   0.908   3.232   1.486 -0.0729  1.5056  0.3699
  748MPD2    H311059   0.913   3.433   1.347 -0.0161 -0.3795 -0.7686
  748MPD2     N11060   1.284   3.283   1.125  0.1050 -0.0461 -0.2759
  748MPD2    H511061   1.356   3.212   1.128  0.3465  0.1731 -0.8144
  748MPD2    N111062   1.075   3.040   1.484 -0.3414 -0.1390  0.3065
  748MPD2    H711063   1.010   3.043   1.562  2.1992  0.4276  2.4070
  749TMC3    C111064   1.418   3.359   0.952  0.4883  0.2771  0.2700
  749TMC3    C211065   1.532   3.303   1.007 -0.5172  0.3525 -0.1036
  749TMC3    C311066   1.644   3.289   0.922 -0.9397  0.5015  0.0613
  749TMC3    C411067   1.415   3.406   0.823  0.0831  0.0523  0.2600
  749TMC3    C511068   1.529   3.402   0.753  0.5856  0.2427 -0.5056
  749TMC3    C611069   1.640   3.343   0.799 -0.2660  1.3515 -0.4093
  749TMC3     C11070   1.290   3.370   1.021 -0.1448  0.3033  0.0635
  749TMC3     O11071   1.204   3.443   0.972 -0.3062 -0.2689  0.1508
  749TMC3     H11072   1.536   3.263   1.108 -0.3958 -0.8089 -0.5665
  749TMC3    H111073   1.328   3.449   0.775  2.3720  2.9410 -1.3064
  749TMC3    H211074   1.736   3.342   0.749  0.0902  1.5040  0.2731
  749TMC3    C711075   1.544   3.501   0.655  0.0229  0.3745 -0.7990
  749TMC3    C811076   1.768   3.224   0.960 -0.4032 -0.2613 -0.0623
  749TMC3    O111077   1.655   3.528   0.624  0.6374 -0.0685  0.3371
  749TMC3    O211078   1.830   3.155   0.880  0.4517  0.5032  0.5463
  750MPD2     C11079   2.667   0.516  10.979  0.5807  0.2172  0.0986
  750MPD2    C111080   2.540   0.487  11.002 -0.4566 -1.1302 -0.8103
  750MPD2    C211081   2.486   0.370  10.950 -0.2833 -0.1781 -0.5865
  750MPD2    C311082   2.555   0.287  10.863 -0.0512 -0.2364  0.1520
  750MPD2    C411083   2.691   0.313  10.852 -0.4015 -0.3594 -0.4181
  750MPD2    C511084   2.741   0.429  10.905  0.2664  0.2140 -0.5203
  750MPD2     H11085   2.381   0.343  10.959  0.2267 -1.3091  1.9520
  750MPD2    H111086   2.755   0.243  10.800  0.1348 -0.5215  0.4551
  750MPD2    H211087   2.716   0.602  11.024 -1.1300  2.1694 -1.7387
  750MPD2    H311088   2.846   0.448  10.891  0.4465  1.6923  2.7608
  750MPD2     N11089   2.503   0.171  10.796 -0.2050  0.2897  0.5897
  750MPD2    H511090   2.566   0.098  10.766 -0.2458  0.4658  0.0879
  750MPD2    N111091   2.464   0.570  11.092 -0.0726 -0.2408 -0.4878
  750MPD2    H711092   2.504   0.659  11.122 -0.8529 -0.2585  0.6083
  751TMC3    C111093   2.361   4.717  10.768  0.8346 -0.6232  0.5219
  751TMC3    C211094   2.252   4.665  10.821 -0.6501 -1.0741 -0.8894
  751TMC3    C311095   2.250   4.529  10.829  0.0102  0.5130 -0.3399
  751TMC3    C411096   2.457   4.650  10.711 -0.5411 -0.4855  0.5484
  751TMC3    C511097   2.461   4.514  10.717 -0.0238  0.0738 -0.5046
  751TMC3    C611098   2.351   4.450  10.772 -0.1019 -0.3291  0.4671
  751TMC3     C11099   2.371   0.131  10.793 -0.0933 -0.1220  0.5601
  751TMC3     O11100   2.272   0.196  10.829 -0.0111  0.3257  0.2748
  751TMC3     H11101   2.166   4.723  10.856  0.2454 -1.1337  1.4244
  751TMC3    H111102   2.537   4.701  10.659 -1.2117  1.0691  1.0347
  751TMC3    H211103   2.347   4.344  10.795 -1.0130 -0.9852 -2.6721
  751TMC3    C711104   2.559   4.440  10.635 -0.1878  0.6285 -0.3128
  751TMC3    C811105   2.147   4.462  10.907  0.1796 -0.5100 -0.2108
  751TMC3    O111106   2.647   4.510  10.590  0.4280 -0.1364  0.3475
  751TMC3    O211107   2.121   4.347  10.876 -0.1245 -0.0410 -0.1644
  752TMC3    C111108   0.806   0.147  16.844  0.2329  0.0036 -0.7094
  752TMC3    C211109   0.930   0.128  16.894 -0.0699  0.1906 -0.3273
  752TMC3    C311110   0.996   0.242  16.926 -0.4583 -0.2738 -0.5147
  752TMC3    C411111   0.748   0.268  16.821 -0.1106  0.3535  0.0643
  752TMC3    C511112   0.819   0.376  16.860 -0.6710 -0.7162  0.3033
  752TMC3    C611113   0.944   0.366  16.907  0.4463  1.0654 -0.2154
  752TMC3     C11114   0.766   0.038  16.757 -0.1119 -0.2557  0.8794
  752TMC3     O11115   0.859   4.697  16.708 -0.1369  0.1448  0.3235
  752TMC3     H11116   0.970   0.027  16.895  1.1988  0.7008  0.6982
  752TMC3    H111117   0.653   0.279  16.771  0.7828 -0.5621 -1.8260
  752TMC3    H211118   1.001   0.450  16.945  1.3312 -0.2245  1.3489
  752TMC3    C711119   0.770   0.506  16.829 -0.6286 -0.7302 -0.6030
  752TMC3    C811120   1.132   0.243  16.976 -0.2353 -0.1382 -0.8404
  752TMC3    O111121   0.797   0.600  16.909  0.7481 -0.1775  0.1299
  752TMC3    O211122   1.193   0.342  17.017  0.2089 -0.1511 -0.0077
  753TMC3    C111123   2.562   0.781  13.511  0.6395  0.6498  0.1188
  753TMC3    C211124   2.575   0.779  13.642 -0.6605  0.3571  0.4266
  753TMC3    C311125   2.537   0.666  13.713  0.8722  0.5414  0.6018
  753TMC3    C411126   2.503   0.680  13.445 -0.1203  0.1133  0.0219
  753TMC3    C511127   2.465   0.571  13.516  0.1471  0.5444 -0.2179
  753TMC3    C611128   2.481   0.559  13.655 -0.3980 -0.8905 -0.4955
  753TMC3     C11129   2.556   0.909  13.451 -0.3522  0.4696  0.5476
  753TMC3     O11130   2.592   0.927  13.334  0.1953  0.0732  0.0095
  753TMC3     H11131   2.635   0.856  13.688 -0.6210  0.9564 -0.6305
  753TMC3    H111132   2.467   0.705  13.346  1.1533  2.8644  0.2624
  753TMC3    H211133   2.453   0.464  13.698  0.1275 -1.2576 -0.9748
  753TMC3    C711134   2.418   0.467  13.427 -0.5363 -0.4284 -0.8257
  753TMC3    C811135   2.571   0.643  13.860 -0.0995 -0.6612 -0.1794
  753TMC3    O111136   2.438   0.486  13.310  0.2759  0.2425 -0.0733
  753TMC3    O211137   2.525   0.538  13.912 -0.2020  0.3866 -0.2865
  754MPD2     C11138   1.181   3.849  12.490 -0.2328  0.9096 -0.0650
  754MPD2    C111139   1.164   3.904  12.618  0.7948  0.1928 -0.4207
  754MPD2    C211140   1.091   4.019  12.631  0.1152  0.4125  0.0561
  754MPD2    C311141   1.023   4.070  12.522  0.5717 -0.0088 -0.9699
  754MPD2    C411142   1.029   4.011  12.402  0.3246 -0.0225  0.5553
  754MPD2    C511143   1.121   3.908  12.382 -0.2700 -0.5094  0.2464
  754MPD2     H11144   1.083   4.065  12.728  0.0442  3.6197 -1.4791
  754MPD2    H111145   0.976   4.049  12.315  0.1396  1.8084  1.4721
  754MPD2    H211146   1.255   3.773  12.470 -1.4978 -0.1955 -0.5634
  754MPD2    H311147   1.142   3.865  12.285  0.1668  0.4577 -0.0946
  754MPD2     N11148   0.936   4.182  12.536 -0.2274  0.7752  0.6907
  754MPD2    H511149   0.877   4.214  12.461  1.0902 -0.1806 -0.7752
  754MPD2    N111150   1.228   3.834  12.726 -0.6306  0.1780  0.0225
  754MPD2    H711151   1.235   3.733  12.719  3.1890  0.4129  0.8014
  755MPD2     C11152   0.715   4.702  13.458 -0.5295  0.2031 -0.8977
  755MPD2    C111153   0.682   0.034  13.336 -0.8725 -0.1267  0.2376
  755MPD2    C211154   0.704   4.686  13.216  0.0364  0.1438  0.3868
  755MPD2    C311155   0.738   4.555  13.212 -0.4344  0.0448 -0.0387
  755MPD2    C411156   0.771   4.497  13.338  0.3874  0.0279  0.1057
  755MPD2    C511157   0.769   4.577  13.454 -0.3816  0.0946 -1.0371
  755MPD2     H11158   0.683   0.014  13.123  2.3391 -0.6817 -0.5838
  755MPD2    H111159   0.790   4.390  13.343 -1.2345 -0.2370  0.6927
  755MPD2    H211160   0.716   0.032  13.552 -0.6666  0.7556 -1.2152
  755MPD2    H311161   0.807   4.535  13.547 -2.3830  1.2739  0.3048
  755MPD2     N11162   0.752   4.479  13.097  0.1988  0.3518 -0.3185
  755MPD2    H511163   0.769   4.380  13.108 -1.2446  0.0283 -0.9566
  755MPD2    N111164   0.635   0.171  13.324 -0.0331  0.1045 -0.1949
  755MPD2    H711165   0.629   0.209  13.230 -1.3023  2.9531  1.0535
  756MPD2     C11166   2.346   1.231   9.182 -0.0902  0.1511  0.8451
  756MPD2    C111167   2.336   1.095   9.179  0.6483 -0.1926 -0.7479
  756MPD2    C211168   2.229   1.043   9.104  0.0124 -0.4541 -0.2783
  756MPD2    C311169   2.123   1.119   9.058  0.2164 -0.0191 -0.2335
  756MPD2    C411170   2.138   1.256   9.071 -0.5534 -0.2383  0.1090
  756MPD2    C511171   2.251   1.307   9.127 -0.4577 -0.2852 -0.7026
  756MPD2     H11172   2.198   0.942   9.125  0.9646 -1.0916 -1.9063
  756MPD2    H111173   2.070   1.327   9.023 -0.5545 -0.5526 -0.3560
  756MPD2    H211174   2.415   1.296   9.233  0.7386 -1.3833  1.6865
  756MPD2    H311175   2.268   1.413   9.120 -0.5642 -0.1871  0.6692
  756MPD2     N11176   2.009   1.053   9.015  0.1296 -0.4740  0.5088
  756MPD2    H511177   2.021   0.954   8.997 -1.7042 -0.4804 -0.7154
  756MPD2    N111178   2.414   1.001   9.244  0.3008  0.0958 -1.0035
  756MPD2    H711179   2.391   0.902   9.235 -0.7421  0.2089  0.4674
  757MPD2     C11180   1.550   0.325   8.488  0.0397 -0.0355  0.3650
  757MPD2    C111181   1.456   0.362   8.582 -0.1930  0.3171  0.5152
  757MPD2    C211182   1.471   0.472   8.666 -0.5365  0.1324  0.4472
  757MPD2    C311183   1.587   0.549   8.645 -0.1477 -0.7693 -0.6444
  757MPD2    C411184   1.679   0.520   8.555  0.4718 -0.7327  0.5489
  757MPD2    C511185   1.654   0.418   8.467  0.6771 -0.2457 -0.3273
  757MPD2     H11186   1.399   0.506   8.740 -0.6490  1.0268 -0.0793
  757MPD2    H111187   1.771   0.576   8.549  0.2644 -0.6519 -2.0337
  757MPD2    H211188   1.539   0.237   8.426  0.6543 -0.1210  0.3774
  757MPD2    H311189   1.721   0.402   8.383  0.6640 -1.7304 -0.0659
  757MPD2     N11190   1.600   0.654   8.738  0.7286  0.3650  0.6162
  757MPD2    H511191   1.523   0.673   8.801  0.7051  0.5237  0.5380
  757MPD2    N111192   1.348   0.275   8.592  0.4439  0.6708 -0.0990
  757MPD2    H711193   1.344   0.200   8.524  0.0700  0.6643 -0.0694
  758MPD2     C11194   1.361   3.580  15.870  0.3610 -0.0893 -0.4514
  758MPD2    C111195   1.477   3.640  15.889  0.3363 -0.5727 -0.1362
  758MPD2    C211196   1.484   3.724  16.005  0.1033 -0.1752  0.1233
  758MPD2    C311197   1.375   3.749  16.096  0.3948 -0.2498 -0.1064
  758MPD2    C411198   1.258   3.679  16.065 -0.0433  0.0975  0.3760
  758MPD2    C511199   1.252   3.596  15.953 -0.4839  0.1563 -0.3344
  758MPD2     H11200   1.577   3.778  16.021  1.1083 -2.1718  0.8915
  758MPD2    H111201   1.170   3.683  16.128  0.1261  1.0941  0.5605
  758MPD2    H211202   1.354   3.516  15.783 -0.0653 -0.4487 -0.1502
  758MPD2    H311203   1.163   3.539  15.929 -1.4135  1.4424  0.0870
  758MPD2     N11204   1.388   3.827  16.212 -0.4050  0.4189 -0.2726
  758MPD2    H511205   1.304   3.847  16.265  1.8496 -0.1195  3.6127
  758MPD2    N111206   1.589   3.616  15.805  0.3169  0.7625  0.5424
  758MPD2    H711207   1.587   3.529  15.754 -0.7066 -0.0763  2.0158
  759MPD2     C11208   1.371   1.901  10.237 -0.1340  0.4658 -0.2643
  759MPD2    C111209   1.254   1.969  10.256 -0.2034  0.1208  0.2795
  759MPD2    C211210   1.224   2.082  10.177 -0.0407  0.6839  0.2744
  759MPD2    C311211   1.313   2.128  10.078  0.1718  0.0310  0.6789
  759MPD2    C411212   1.437   2.068  10.077 -0.0798  0.3104  0.6445
  759MPD2    C511213   1.461   1.958  10.151 -0.2497  0.2497 -0.4646
  759MPD2     H11214   1.146   2.155  10.199 -0.6040 -0.2870  1.4848
  759MPD2    H111215   1.518   2.100  10.012  0.5395  0.4171  1.4647
  759MPD2    H211216   1.407   1.817  10.295 -1.6875  0.5819  0.8518
  759MPD2    H311217   1.561   1.917  10.153 -0.9676 -1.5446 -1.0378
  759MPD2     N11218   1.269   2.246  10.001  0.8190 -0.6792 -0.0395
  759MPD2    H511219   1.187   2.296  10.034  0.9691 -0.9841  0.8163
  759MPD2    N111220   1.164   1.933  10.354  0.3692  0.3142  0.0837
  759MPD2    H711221   1.078   1.987  10.366  1.0036  1.5399 -0.9177
  760MPD2     C11222   0.094   4.682  11.905  0.6189 -0.2037  0.1941
  760MPD2    C111223   0.191   4.693  11.804  0.3691 -0.1231 -0.2584
  760MPD2    C211224   0.232   4.578  11.737 -0.2391 -0.0703  0.0402
  760MPD2    C311225   0.190   4.451  11.778  0.2871 -0.4573  0.0187
  760MPD2    C411226   0.091   4.439  11.875  0.2138 -0.0065 -0.1330
  760MPD2    C511227   0.050   4.558  11.937 -0.2936  0.1553 -0.2459
  760MPD2     H11228   0.316   4.576  11.669 -1.0895 -1.9956 -0.9420
  760MPD2    H111229   0.053   4.342  11.906  1.2042 -0.5018 -0.4690
  760MPD2    H211230   0.040   0.037  11.955 -2.5144 -0.6535 -2.4137
  760MPD2    H311231   4.712   4.553  12.025 -0.2853  1.3241 -0.1762
  760MPD2     N11232   0.251   4.334  11.734 -0.6265 -0.0910 -0.1988
  760MPD2    H511233   0.217   4.247  11.774 -0.5626 -0.7266 -1.5282
  760MPD2    N111234   0.243   0.096  11.768  0.1696 -0.8143 -0.2692
  760MPD2    H711235   0.299   0.089  11.684  1.1809  0.9710  0.2615
  761MPD2     C11236   1.770   4.504  11.250  0.2494 -0.3239  0.0451
  761MPD2    C111237   1.810   4.397  11.186  0.4069 -0.4357  0.1097
  761MPD2    C211238   1.916   4.404  11.099 -0.1915 -0.3056 -0.2466
  761MPD2    C311239   1.987   4.525  11.084 -0.6143  0.0154 -0.1419
  761MPD2    C411240   1.952   4.628  11.174  0.4212  0.2408  0.0649
  761MPD2    C511241   1.843   4.620  11.251  0.2123  0.2995  0.1810
  761MPD2     H11242   1.953   4.323  11.037 -0.7472 -0.5592 -0.2472
  761MPD2    H111243   2.010   4.719  11.168 -0.6576  0.9559  0.6261
  761MPD2    H211244   1.671   4.503  11.294 -0.0347 -1.6914 -0.6271
  761MPD2    H311245   1.807   4.710  11.300  0.0075  0.1044  0.3904
  761MPD2     N11246   2.095   4.546  10.993 -0.4479 -0.4354 -0.5291
  761MPD2    H511247   2.134   4.637  11.015 -1.4316  0.3299 -1.9111
  761MPD2    N111248   1.723   4.279  11.197 -0.1409 -0.0095  0.1791
  761MPD2    H711249   1.648   4.279  11.266  0.5106  2.6191  0.8761
  762MPD2     C11250   2.040   4.015  10.837 -0.7750 -0.0541 -0.6406
  762MPD2    C111251   2.006   3.895  10.890 -0.1952  0.5448 -0.3233
  762MPD2    C211252   2.078   3.785  10.851  0.2312  0.3846 -0.1973
  762MPD2    C311253   2.170   3.795  10.752  0.4315 -0.0337  0.8164
  762MPD2    C411254   2.201   3.921  10.697 -0.1804 -0.3900  0.1497
  762MPD2    C511255   2.136   4.031  10.742 -0.4518  0.3511 -0.1743
  762MPD2     H11256   2.059   3.686  10.890 -2.2613  0.9201 -0.0633
  762MPD2    H111257   2.284   3.941  10.629 -0.9355  1.0210 -0.3506
  762MPD2    H211258   1.987   4.106  10.866 -1.2503 -0.4494 -0.2627
  762MPD2    H311259   2.149   4.130  10.700 -0.5489 -0.5849 -2.3978
  762MPD2     N11260   2.236   3.676  10.711  0.3443 -0.8890  0.1464
  762MPD2    H511261   2.205   3.592  10.761 -1.4205  0.6329  1.6288
  762MPD2    N111262   1.898   3.899  10.985  0.5360 -0.0301 -0.2049
  762MPD2    H711263   1.859   3.988  11.013  0.6651 -0.1919  0.4817
  763MPD2     C11264   3.757   4.074  16.305 -0.2009 -0.0957  0.1027
  763MPD2    C111265   3.636   4.115  16.243 -0.2464  0.3079  0.4072
  763MPD2    C211266   3.555   4.198  16.313 -0.8176  0.5020  0.4217
  763MPD2    C311267   3.580   4.229  16.446  0.4453  0.1927 -0.2482
  763MPD2    C411268   3.694   4.177  16.504 -0.6540  0.2094 -0.4892
  763MPD2    C511269   3.782   4.106  16.433  0.1329 -0.0361 -0.1571
  763MPD2     H11270   3.466   4.239  16.267 -0.7173  0.9640  0.6359
  763MPD2    H111271   3.722   4.202  16.606 -1.1162  1.0201 -0.5565
  763MPD2    H211272   3.825   4.016  16.243  0.8602 -0.8993  2.0050
  763MPD2    H311273   3.881   4.073  16.463  0.6054  0.9967 -0.5937
  763MPD2     N11274   3.485   4.312  16.509 -0.1856  0.5317  0.5285
  763MPD2    H511275   3.421   4.361  16.446 -2.7161  2.3925  4.5343
  763MPD2    N111276   3.597   4.067  16.111 -0.4787  0.1307  0.0491
  763MPD2    H711277   3.512   4.100  16.066  0.2293  1.4667 -0.3028
  764MPD2     C11278   1.950   0.997  16.971 -0.0398 -0.3339 -0.4599
  764MPD2    C111279   1.877   0.881  16.976  0.5262 -1.1770 -0.6577
  764MPD2    C211280   1.926   0.759  17.029  0.0701  0.5644 -0.6121
  764MPD2    C311281   2.050   0.761  17.092  0.4978  0.4066  0.2094
  764MPD2    C411282   2.117   0.879  17.102  0.3010 -0.2604  0.4746
  764MPD2    C511283   2.069   0.988  17.031  1.0274  0.4330 -0.4209
  764MPD2     H11284   1.866   0.669  17.034 -0.4465  1.0182  1.4577
  764MPD2    H111285   2.213   0.873  17.151  1.9855  2.6211 -2.5045
  764MPD2    H211286   1.912   1.088  16.928  1.2951  1.3036  1.7759
  764MPD2    H311287   2.131   1.076  17.043  2.6727 -0.9039  0.8777
  764MPD2     N11288   2.090   0.652  17.169 -0.3092  0.3095  0.0168
  764MPD2    H511289   2.038   0.566  17.157  0.4494 -0.1853  0.2736
  764MPD2    N111290   1.744   0.870  16.928  0.4402  0.2282 -0.2380
  764MPD2    H711291   1.697   0.781  16.936 -0.7494  0.8116 -0.8037
  765MPD2     C11292   0.806   2.961  15.817  0.0592  0.5854  0.0917
  765MPD2    C111293   0.886   3.067  15.789  0.5977 -0.0462 -0.0783
  765MPD2    C211294   1.016   3.029  15.761  0.2835 -0.2983  0.2374
  765MPD2    C311295   1.058   2.901  15.755 -0.0654 -0.1990  0.0204
  765MPD2    C411296   0.973   2.799  15.788 -0.2325 -0.4989 -0.0425
  765MPD2    C511297   0.842   2.831  15.816  0.2373  0.4542  0.6020
  765MPD2     H11298   1.082   3.109  15.731  2.2843 -2.1612 -0.2776
  765MPD2    H111299   1.016   2.700  15.791 -1.4685 -0.9892  1.3846
  765MPD2    H211300   0.703   2.980  15.845 -0.0509 -0.0303  0.1188
  765MPD2    H311301   0.771   2.755  15.846 -1.7546  1.4871 -1.4354
  765MPD2     N11302   1.185   2.872  15.713  0.5113 -0.0915  0.8244
  765MPD2    H511303   1.250   2.948  15.695  0.6725 -0.6499 -1.0055
  765MPD2    N111304   0.829   3.201  15.784 -0.3215 -0.4373  0.2959
  765MPD2    H711305   0.732   3.218  15.805 -0.6681 -0.2295 -1.5012
  766MPD2     C11306   0.893   3.170  15.345  0.5825  0.0665 -0.2283
  766MPD2    C111307   0.810   3.278  15.319 -0.3121 -0.7159 -0.3606
  766MPD2    C211308   0.818   3.324  15.186 -0.3843 -0.9377  0.0807
  766MPD2    C311309   0.908   3.274  15.093  0.2435  0.2647  0.7091
  766MPD2    C411310   0.984   3.164  15.126  0.2991 -0.2060 -0.4935
  766MPD2    C511311   0.983   3.117  15.255  0.1869 -0.2530  0.6633
  766MPD2     H11312   0.758   3.409  15.156  0.3365 -1.5602 -3.2084
  766MPD2    H111313   1.054   3.113  15.059  1.0055  0.3079 -0.1421
  766MPD2    H211314   0.903   3.146  15.450  0.6182  3.0986  0.4538
  766MPD2    H311315   1.045   3.035  15.288  0.5754 -0.4178 -0.4723
  766MPD2     N11316   0.921   3.347  14.978 -0.4075 -0.2530  0.4620
  766MPD2    H511317   0.857   3.422  14.957 -0.0368  0.2590  1.1691
  766MPD2    N111318   0.738   3.338  15.426 -0.5340  0.3743  0.0213
  766MPD2    H711319   0.752   3.298  15.518  0.4420  0.5576 -0.0521
  767MPD2     C11320   0.405   3.903  15.013  0.0615  0.3008 -0.4820
  767MPD2    C111321   0.516   3.834  14.983 -0.5480  0.4661  0.5740
  767MPD2    C211322   0.516   3.756  14.872  0.8564 -0.7612  0.1148
  767MPD2    C311323   0.409   3.743  14.791 -0.0465 -0.0620 -0.2527
  767MPD2    C411324   0.293   3.807  14.825 -0.1083  0.3910 -0.3358
  767MPD2    C511325   0.297   3.886  14.936 -0.9679  0.2104  0.7874
  767MPD2     H11326   0.607   3.701  14.852  2.2896  1.5682  0.2280
  767MPD2    H111327   0.203   3.801  14.765 -0.0776 -0.0204 -0.3416
  767MPD2    H211328   0.396   3.964  15.102  0.1983  0.6582 -0.7161
  767MPD2    H311329   0.205   3.934  14.968 -0.2971  0.5149  2.2874
  767MPD2     N11330   0.417   3.668  14.675  0.5576 -0.0141  0.4660
  767MPD2    H511331   0.506   3.620  14.666  0.1775 -0.7371  0.6093
  767MPD2    N111332   0.628   3.848  15.070 -0.2965  0.0690  0.1879
  767MPD2    H711333   0.614   3.919  15.141  1.2881  0.7855 -0.2241
  768MPD2     C11334   2.252   2.202  11.016 -0.7262  0.5081  0.5151
  768MPD2    C111335   2.194   2.300  11.094  0.2409  0.4167 -0.4234
  768MPD2    C211336   2.248   2.340  11.215  0.7489  0.1995  0.5930
  768MPD2    C311337   2.367   2.286  11.266 -0.4213  0.2164 -0.0689
  768MPD2    C411338   2.412   2.177  11.190  0.6657 -0.4876 -0.2708
  768MPD2    C511339   2.353   2.137  11.073 -0.1708  0.5990 -0.1459
  768MPD2     H11340   2.203   2.419  11.273  0.3757  2.4334 -2.7446
  768MPD2    H111341   2.503   2.129  11.223  1.1689 -0.4957 -1.6870
  768MPD2    H211342   2.224   2.178  10.914  0.4474 -0.2096  0.3583
  768MPD2    H311343   2.395   2.054  11.017  2.8496  1.3314  1.0473
  768MPD2     N11344   2.423   2.321  11.387  0.2817 -0.1040  0.2073
  768MPD2    H511345   2.508   2.273  11.415  0.2988  0.5247  1.2285
  768MPD2    N111346   2.071   2.364  11.050 -0.0765 -0.0558  0.0312
  768MPD2    H711347   2.030   2.415  11.128  0.7083 -2.9972  2.3646
  769MPD2     C11348   2.468   4.687  14.917 -0.0192 -0.9382 -0.2296
  769MPD2    C111349   2.375   4.666  15.020  0.0182  0.3019 -0.6302
  769MPD2    C211350   2.429   4.700  15.148 -0.1447  0.1919 -0.4521
  769MPD2    C311351   2.551   0.027  15.170 -0.7086 -0.4497  0.1690
  769MPD2    C411352   2.637   0.038  15.062  0.0418  0.1501  0.2398
  769MPD2    C511353   2.593   0.002  14.935  0.7348 -0.2454 -0.4107
  769MPD2     H11354   2.364   4.688  15.234  0.9151 -1.9205  0.0587
  769MPD2    H111355   2.742   0.060  15.070  0.1451  0.3910 -1.9153
  769MPD2    H211356   2.436   4.664  14.816  1.2580  2.4446 -1.4335
  769MPD2    H311357   2.655   0.016  14.848  1.4412 -3.0475 -0.3735
  769MPD2     N11358   2.582   0.065  15.299 -0.2471 -0.0942  0.1691
  769MPD2    H511359   2.510   0.047  15.368 -2.2483  0.9978 -1.6075
  769MPD2    N111360   2.252   4.602  14.990  0.3503 -0.2697 -0.6208
  769MPD2    H711361   2.236   4.554  14.902 -0.4483 -0.2522 -0.4892
  770MPD2     C11362   1.529   3.935  15.014  0.7454  0.9097  0.0026
  770MPD2    C111363   1.617   3.959  14.912  0.0480  0.1935 -0.0226
  770MPD2    C211364   1.690   4.072  14.905 -0.0763 -0.4839 -0.1501
  770MPD2    C311365   1.677   4.162  15.007  0.6089 -0.3834 -0.4518
  770MPD2    C411366   1.587   4.135  15.110  0.5942  0.2857 -0.5722
  770MPD2    C511367   1.512   4.021  15.112  0.3026  0.1678 -0.0669
  770MPD2     H11368   1.756   4.085  14.819 -2.3040  3.3218 -1.2697
  770MPD2    H111369   1.580   4.196  15.199 -1.3096 -2.6306  1.2736
  770MPD2    H211370   1.467   3.847  15.013  1.8972  0.1091 -1.4497
  770MPD2    H311371   1.442   4.010  15.195  0.0221 -0.7729 -0.4278
  770MPD2     N11372   1.749   4.286  15.005 -0.3026 -0.0779  0.0028
  770MPD2    H511373   1.800   4.317  14.923  1.5611 -2.7352  0.1572
  770MPD2    N111374   1.627   3.854  14.819 -0.1236  0.6640 -0.0175
  770MPD2    H711375   1.566   3.775  14.839  0.2902  0.3493  0.0058
  771MPD2     C11376   3.142   2.852  14.098 -0.6383  0.2540 -0.1516
  771MPD2    C111377   3.065   2.939  14.020 -0.1416  0.7064 -0.3410
  771MPD2    C211378   2.993   2.876  13.917  0.0219 -0.6726 -0.7624
  771MPD2    C311379   2.997   2.735  13.890 -0.0712 -1.2145 -0.4256
  771MPD2    C411380   3.081   2.659  13.963  0.2721 -0.4741 -0.1412
  771MPD2    C511381   3.152   2.716  14.071 -0.0112 -0.3486 -0.1214
  771MPD2     H11382   2.920   2.929  13.857  0.2687 -0.5489 -0.9539
  771MPD2    H111383   3.084   2.551  13.953 -0.2417 -0.1609 -3.7148
  771MPD2    H211384   3.194   2.890  14.186 -2.9000 -1.0548  1.7663
  771MPD2    H311385   3.214   2.648  14.127 -1.8223 -1.3579  0.6543
  771MPD2     N11386   2.907   2.686  13.789 -0.2668 -0.1741 -0.6327
  771MPD2    H511387   2.888   2.753  13.716  0.5436  1.5548  0.7362
  771MPD2    N111388   3.078   3.081  14.023 -0.0720 -0.0650 -0.3639
  771MPD2    H711389   3.036   3.135  13.949  1.2062 -0.7810 -1.6081
  772MPD2     C11390   2.712   3.630  13.760  0.6733 -0.1896  0.4431
  772MPD2    C111391   2.716   3.494  13.805  0.1066 -0.5921 -0.2574
  772MPD2    C211392   2.595   3.420  13.796  0.5194 -0.4687 -0.8232
  772MPD2    C311393   2.479   3.487  13.753  0.5125 -0.3055  0.4200
  772MPD2    C411394   2.479   3.616  13.725  0.1232  0.6683 -0.3042
  772MPD2    C511395   2.596   3.682  13.724 -0.1353 -0.3892  0.5515
  772MPD2     H11396   2.592   3.320  13.837  0.7490 -0.1062  0.0668
  772MPD2    H111397   2.386   3.660  13.690 -0.1685  0.4555  0.1945
  772MPD2    H211398   2.800   3.692  13.771  0.1201  1.2004 -2.9787
  772MPD2    H311399   2.597   3.787  13.696  2.4502 -0.7897 -0.9141
  772MPD2     N11400   2.350   3.424  13.719  0.2073 -0.0706  0.1261
  772MPD2    H511401   2.277   3.484  13.684  0.8124  1.0306  0.7470
  772MPD2    N111402   2.841   3.442  13.863  0.7738  0.1955  0.6866
  772MPD2    H711403   2.828   3.355  13.914  0.1515  0.5752  1.1806
  773MPD2     C11404   2.397   4.179   0.281 -0.4729 -0.1710  0.3478
  773MPD2    C111405   2.320   4.085   0.212 -0.8244  0.3963 -0.4312
  773MPD2    C211406   2.339   3.955   0.232  0.2328 -0.1223 -0.0388
  773MPD2    C311407   2.440   3.913   0.327  0.1336 -0.6401  0.4061
  773MPD2    C411408   2.520   4.010   0.393  0.3495  0.2631  0.0153
  773MPD2    C511409   2.490   4.143   0.369 -0.3817 -1.0174  0.8561
  773MPD2     H11410   2.282   3.884   0.174  0.7949 -0.1856 -0.5234
  773MPD2    H111411   2.594   3.985   0.469  0.7220 -3.6197 -1.6011
  773MPD2    H211412   2.369   4.282   0.266 -2.5531 -1.0004 -1.3894
  773MPD2    H311413   2.551   4.219   0.415  1.6595 -1.5095 -1.0134
  773MPD2     N11414   2.469   3.778   0.340 -0.1686  0.0242  0.1199
  773MPD2    H511415   2.410   3.715   0.285 -0.7311  1.9656 -1.4996
  773MPD2    N111416   2.224   4.114   0.116 -0.0029 -0.5309  0.1787
  773MPD2    H711417   2.164   4.040   0.082  0.8869 -1.0314 -0.3033
  774MPD2     C11418   0.928   3.056  13.291 -0.0166 -0.4017 -0.8378
  774MPD2    C111419   0.897   3.157  13.378 -1.1980  0.3664  0.1469
  774MPD2    C211420   0.894   3.286  13.331  0.0168 -0.7030 -0.1984
  774MPD2    C311421   0.951   3.319  13.211  0.6492  0.3769  0.0869
  774MPD2    C411422   0.976   3.216  13.125  0.1901  0.4696  0.0953
  774MPD2    C511423   0.961   3.085  13.162 -0.4699 -0.4716  0.3839
  774MPD2     H11424   0.873   3.369  13.398  0.3147  1.0688 -2.2853
  774MPD2    H111425   1.027   3.226  13.030 -0.0010 -1.6104 -0.2311
  774MPD2    H211426   0.912   2.954  13.324  1.8117 -0.5724 -0.4921
  774MPD2    H311427   0.986   2.993  13.111 -3.0842  0.5355 -2.6573
  774MPD2     N11428   0.989   3.457  13.181  0.8563  1.0527 -0.0378
  774MPD2    H511429   0.961   3.535  13.240  1.3201  1.1643  0.0304
  774MPD2    N111430   0.856   3.110  13.510 -0.7559  0.0256  0.0463
  774MPD2    H711431   0.861   3.013  13.538  2.2845 -0.2269 -1.3429
  775MPD2     C11432   2.890   4.724  15.846 -0.8641  0.3523  0.1900
  775MPD2    C111433   2.868   0.115  15.910 -0.6985  0.0305  0.8120
  775MPD2    C211434   2.945   0.227  15.872 -0.4276 -0.6172  0.1652
  775MPD2    C311435   3.024   0.224  15.755  0.3008  0.5451  0.3832
  775MPD2    C411436   3.022   0.116  15.682  0.3095  0.0933  0.0675
  775MPD2    C511437   2.970   4.721  15.732 -0.1994  0.3482  0.3251
  775MPD2     H11438   2.938   0.323  15.922  0.4925  0.1541 -1.1939
  775MPD2    H111439   3.083   0.101  15.593  0.5814  0.8625  0.1211
  775MPD2    H211440   2.821   4.642  15.864 -1.2007  1.1138  2.3194
  775MPD2    H311441   2.973   4.629  15.674  4.6623 -0.7079  2.2009
  775MPD2     N11442   3.093   0.337  15.711 -0.9546  0.3925 -0.7453
  775MPD2    H511443   3.112   0.336  15.611  1.6292  0.3503 -0.2490
  775MPD2    N111444   2.774   0.110  16.013 -0.5153  0.2532  0.6872
  775MPD2    H711445   2.713   0.030  16.003  1.7459 -1.1243 -1.9031
  776MPD2     C11446   2.429   1.244  11.400  0.5266 -0.0384  0.1279
  776MPD2    C111447   2.467   1.143  11.485  0.4089 -0.2862 -0.2214
  776MPD2    C211448   2.567   1.157  11.577 -0.4979 -0.2693  0.3206
  776MPD2    C311449   2.621   1.282  11.598  0.2943  0.0127 -0.0578
  776MPD2    C411450   2.589   1.385  11.517  0.0644 -0.2751 -0.4657
  776MPD2    C511451   2.486   1.368  11.422  0.1017  0.0686 -0.4124
  776MPD2     H11452   2.604   1.072  11.633 -0.0341  0.6411  1.3931
  776MPD2    H111453   2.637   1.483  11.520  0.4902 -0.4900 -0.2656
  776MPD2    H211454   2.354   1.233  11.323  1.7806 -1.0545 -0.9295
  776MPD2    H311455   2.449   1.455  11.370  3.7741  0.4235 -2.4393
  776MPD2     N11456   2.728   1.317  11.685 -0.4283 -0.2602  0.4149
  776MPD2    H511457   2.769   1.409  11.678 -1.7170  0.1178 -1.9525
  776MPD2    N111458   2.410   1.018  11.467 -0.2858  0.0067 -0.5431
  776MPD2    H711459   2.434   0.950  11.538 -0.6201  3.0101  2.4238
  777MPD2     C11460   2.145   2.512   0.558 -0.0125 -0.4087  0.2499
  777MPD2    C111461   2.220   2.441   0.650 -0.0436 -0.0287  0.2733
  777MPD2    C211462   2.229   2.308   0.628  0.1315 -0.0150  1.2366
  777MPD2    C311463   2.204   2.246   0.507  0.4403 -0.5814 -0.3747
  777MPD2    C411464   2.139   2.319   0.413  0.2660  0.4979 -0.4285
  777MPD2    C511465   2.102   2.440   0.449 -0.0557 -0.0402  0.1903
  777MPD2     H11466   2.275   2.253   0.710 -0.8793  0.1607  1.9099
  777MPD2    H111467   2.101   2.275   0.322  0.9685 -0.1005 -0.4377
  777MPD2    H211468   2.099   2.607   0.585 -1.0360 -0.8576  0.0962
  777MPD2    H311469   2.035   2.497   0.386  0.9782 -0.2727 -1.1195
  777MPD2     N11470   2.242   2.113   0.497 -0.6055 -0.1270  0.3098
  777MPD2    H511471   2.277   2.056   0.573 -2.0581  0.3260  1.3126
  777MPD2    N111472   2.233   2.500   0.779 -0.0270  0.0601 -0.4076
  777MPD2    H711473   2.186   2.588   0.797  2.0502  0.9842  0.5288
  778MPD2     C11474   3.087   2.388  15.246  0.2369 -0.2740  0.0755
  778MPD2    C111475   3.008   2.377  15.135 -0.3648 -0.0291 -0.2608
  778MPD2    C211476   3.041   2.458  15.021  0.5114  0.3652  0.3469
  778MPD2    C311477   3.128   2.555  15.027  0.5838  0.1181 -0.0016
  778MPD2    C411478   3.206   2.569  15.140 -0.5563 -0.2088  0.4728
  778MPD2    C511479   3.186   2.487  15.253  0.1668  0.0196 -0.6620
  778MPD2     H11480   2.973   2.443  14.937  1.0012 -0.4478  0.0935
  778MPD2    H111481   3.284   2.644  15.149 -0.9210  0.3007 -0.6156
  778MPD2    H211482   3.069   2.336  15.340  1.4959  0.5402  0.7654
  778MPD2    H311483   3.245   2.503  15.342 -1.0625 -0.5664  0.2564
  778MPD2     N11484   3.147   2.632  14.907  0.0859  0.8414  0.0344
  778MPD2    H511485   3.117   2.583  14.823 -0.2011  3.1199 -1.1917
  778MPD2    N111486   2.890   2.302  15.129 -0.1012 -0.2889  0.8420
  778MPD2    H711487   2.831   2.315  15.047  1.2686  0.2292 -0.0646
  779MPD2     C11488   2.679   1.631  14.574  0.5742 -0.7802 -0.2368
  779MPD2    C111489   2.801   1.634  14.512  0.1684  0.2120 -0.0409
  779MPD2    C211490   2.855   1.751  14.464 -0.2560  0.5204  0.2691
  779MPD2    C311491   2.786   1.870  14.477  0.7694  0.0515 -0.7879
  779MPD2    C411492   2.669   1.874  14.558  0.5412  0.0422  0.2077
  779MPD2    C511493   2.623   1.753  14.599  0.5307  0.1502  0.4504
  779MPD2     H11494   2.945   1.751  14.404  1.3865  2.4031  2.6794
  779MPD2    H111495   2.605   1.961  14.567  1.1592  0.4767  0.3783
  779MPD2    H211496   2.626   1.543  14.609  1.0244 -1.4323 -1.2039
  779MPD2    H311497   2.523   1.744  14.642  0.2533  2.4194  0.2550
  779MPD2     N11498   2.830   1.975  14.396  0.0640 -0.7433  0.0253
  779MPD2    H511499   2.908   1.961  14.332  0.5800  2.3944 -0.0001
  779MPD2    N111500   2.858   1.507  14.486 -0.0919  0.2289  0.5317
  779MPD2    H711501   2.814   1.422  14.519  2.7662 -1.6008 -0.3220
  780MPD2     C11502   2.048   1.679   0.836 -0.7101 -0.3479 -0.8585
  780MPD2    C111503   2.073   1.586   0.731  0.5164  0.0262  0.5082
  780MPD2    C211504   2.203   1.566   0.697  0.5384  0.3465 -0.3806
  780MPD2    C311505   2.307   1.627   0.758 -0.2134 -0.3298  0.6138
  780MPD2    C411506   2.283   1.708   0.865 -0.0236  0.5658 -0.4076
  780MPD2    C511507   2.151   1.735   0.900 -0.7137  0.0727  0.0508
  780MPD2     H11508   2.217   1.488   0.622 -1.9082  2.1062 -2.6668
  780MPD2    H111509   2.354   1.740   0.940 -1.1020 -0.3208  1.0120
  780MPD2    H211510   1.948   1.695   0.873  0.8290  2.2732  2.2188
  780MPD2    H311511   2.135   1.801   0.985  2.6258  0.1628  0.6062
  780MPD2     N11512   2.435   1.594   0.718 -0.0018  0.1294  0.2977
  780MPD2    H511513   2.446   1.519   0.651 -0.5195 -1.3006  1.8005
  780MPD2    N111514   1.969   1.502   0.679  0.1792  0.3958  0.3914
  780MPD2    H711515   1.881   1.499   0.731  0.6981 -1.5165  1.1675
  781MPD2     C11516   4.650   3.291  11.586  0.5787  0.3447 -0.4737
  781MPD2    C111517   4.692   3.376  11.686 -0.7518 -0.4100 -0.1958
  781MPD2    C211518   0.010   3.503  11.649  0.2981 -0.5296 -0.0199
  781MPD2    C311519   0.023   3.543  11.517 -0.4332  0.4352 -0.1873
  781MPD2    C411520   4.719   3.449  11.420  0.1099  0.5677  0.4036
  781MPD2    C511521   4.665   3.331  11.457 -0.3725  1.1359  0.3541
  781MPD2     H11522   0.035   3.572  11.729  2.3514 -0.3404 -0.8020
  781MPD2    H111523   0.010   3.471  11.315  0.2551 -0.7140  0.1633
  781MPD2    H211524   4.616   3.189  11.600  0.1541  0.9034  2.7213
  781MPD2    H311525   4.639   3.271  11.371  0.4020 -0.5578  1.2957
  781MPD2     N11526   0.066   3.673  11.481  0.2604  0.3027  0.0181
  781MPD2    H511527   0.087   3.686  11.383  1.4668  0.8490  0.3513
  781MPD2    N111528   4.686   3.347  11.823 -0.3234  0.0296 -0.4722
  781MPD2    H711529   4.709   3.420  11.890  1.6812  0.7174 -1.9064
  782MPD2     C11530   3.016   0.008   9.550 -0.0280  0.6738  0.0197
  782MPD2    C111531   2.985   0.005   9.681 -0.8758  0.1382 -0.0116
  782MPD2    C211532   2.948   0.125   9.747 -0.4087 -0.2087 -0.5955
  782MPD2    C311533   2.952   0.248   9.681 -0.0202  0.3827  0.2029
  782MPD2    C411534   2.995   0.245   9.541 -0.0268 -0.1920 -0.6631
  782MPD2    C511535   3.024   0.122   9.480 -1.3206 -0.7330  0.1697
  782MPD2     H11536   2.929   0.124   9.853  1.2877 -0.4766 -0.2862
  782MPD2    H111537   3.020   0.338   9.490  0.5039  0.3992  0.6718
  782MPD2    H211538   3.027   4.639   9.496  3.2950  1.2505 -0.3135
  782MPD2    H311539   3.042   0.123   9.374 -0.4295  4.7999  0.3482
  782MPD2     N11540   2.969   0.372   9.756 -0.1398  0.9055 -0.0185
  782MPD2    H511541   3.006   0.454   9.710  0.2275  0.5006 -0.4495
  782MPD2    N111542   2.994   4.606   9.745 -0.1066 -0.1588  0.0571
  782MPD2    H711543   3.045   4.534   9.694  0.8069  0.1022  0.6022
  783MPD2     C11544   2.542   4.092  10.519 -0.4131  0.0817  0.6499
  783MPD2    C111545   2.584   4.223  10.519  0.0694  0.2321  0.2462
  783MPD2    C211546   2.670   4.272  10.425  0.1314  0.2527  0.5815
  783MPD2    C311547   2.727   4.186  10.332 -0.6389 -0.1861 -0.4196
  783MPD2    C411548   2.695   4.057  10.329 -0.0858 -0.1802 -0.7778
  783MPD2    C511549   2.610   4.005  10.426 -0.3077  0.2583 -0.9834
  783MPD2     H11550   2.705   4.374  10.425  0.1660  0.2408  0.5118
  783MPD2    H111551   2.717   3.982  10.254 -3.4068 -2.3063  0.3989
  783MPD2    H211552   2.475   4.054  10.594 -0.3950  0.4191  0.8347
  783MPD2    H311553   2.609   3.897  10.437  1.0747  0.3069 -0.3798
  783MPD2     N11554   2.820   4.254  10.247  0.1015 -0.0311  0.7161
  783MPD2    H511555   2.810   4.352  10.269  1.8670  0.4691 -0.6827
  783MPD2    N111556   2.528   4.307  10.615 -0.1575  0.5686 -0.3469
  783MPD2    H711557   2.477   4.267  10.693  1.8014  2.6009  2.0054
  784MPD2     C11558   0.150   3.931   0.161  0.0077  0.2824 -0.8510
  784MPD2    C111559   0.081   3.979   0.274  0.5175  0.6101 -0.2736
  784MPD2    C211560   4.689   4.050   0.261  0.6108  0.7596 -0.4296
  784MPD2    C311561   4.646   4.086   0.133 -0.3485 -0.4855 -0.8725
  784MPD2    C411562   4.715   4.042   0.021 -0.2077  0.2340 -0.0790
  784MPD2    C511563   0.106   3.964   0.034  0.3635  0.1575 -0.5215
  784MPD2     H11564   4.640   4.103   0.342 -2.2571  0.4380 -1.9411
  784MPD2    H111565   4.682   4.073  17.623  2.4898  0.9966 -0.7470
  784MPD2    H211566   0.238   3.866   0.166 -1.6146 -1.6098  2.8720
  784MPD2    H311567   0.171   3.942  17.649  0.8955  1.1641 -0.3694
  784MPD2     N11568   4.530   4.155   0.130  0.0501  0.0018  0.1220
  784MPD2    H511569   4.488   4.157   0.223  0.5459  1.9072  0.3089
  784MPD2    N111570   0.129   3.964   0.406  0.1731  0.5157 -0.0667
  784MPD2    H711571   0.077   4.016   0.475  1.5870  0.4505  1.0462
  785MPD2     C11572   1.366   3.909  10.315 -0.1354 -0.3478  0.6544
  785MPD2    C111573   1.276   3.816  10.368  0.0143  0.4068  0.2942
  785MPD2    C211574   1.269   3.693  10.308 -0.0627 -0.6049  0.6927
  785MPD2    C311575   1.345   3.654  10.202  0.2104 -0.0358  0.0319
  785MPD2    C411576   1.446   3.740  10.155  0.0277 -0.1576  0.2424
  785MPD2    C511577   1.445   3.865  10.213 -0.0560  0.1585  0.1518
  785MPD2     H11578   1.202   3.620  10.353  2.0549 -2.2538  1.1979
  785MPD2    H111579   1.510   3.716  10.071 -0.6536  1.8682 -0.8524
  785MPD2    H211580   1.378   4.010  10.351 -0.1842  0.0715 -0.4897
  785MPD2    H311581   1.509   3.939  10.167  1.0355 -1.7751 -1.4562
  785MPD2     N11582   1.318   3.531  10.146  0.0210 -0.6686 -0.3653
  785MPD2    H511583   1.251   3.475  10.197 -0.4335  0.3596  0.1806
  785MPD2    N111584   1.193   3.860  10.473 -0.1512  0.5111 -0.4284
  785MPD2    H711585   1.189   3.958  10.500  2.7780  0.5551 -0.1340
  786MPD2     C11586   3.500   0.961  15.058 -0.0439  0.6029 -0.3875
  786MPD2    C111587   3.607   0.962  14.969 -0.3612 -0.4058 -0.0478
  786MPD2    C211588   3.729   1.007  15.006 -0.6856 -0.7628 -0.2481
  786MPD2    C311589   3.744   1.071  15.123 -0.3465  0.4223 -0.2878
  786MPD2    C411590   3.640   1.068  15.214  0.4839  0.0867  0.0792
  786MPD2    C511591   3.516   1.023  15.184 -0.3858  0.2420 -0.5759
  786MPD2     H11592   3.814   0.998  14.939  0.6108 -0.1999  1.3278
  786MPD2    H111593   3.655   1.108  15.314 -1.4438 -1.6059  1.0282
  786MPD2    H211594   3.399   0.928  15.041 -0.2802  0.6760  0.8371
  786MPD2    H311595   3.434   1.024  15.256 -0.6118  0.6832 -0.8441
  786MPD2     N11596   3.865   1.142  15.162  0.4304 -0.0977 -0.1059
  786MPD2    H511597   3.871   1.176  15.258 -0.3122  2.1904 -0.8760
  786MPD2    N111598   3.588   0.903  14.843  0.4246 -0.9283 -0.0663
  786MPD2    H711599   3.673   0.901  14.788  1.9197 -1.4830  2.2355
  787MPD2     C11600   3.849   0.468  14.151  0.1769  0.7142 -0.1447
  787MPD2    C111601   3.826   0.465  14.286  0.8195 -0.0421  0.2737
  787MPD2    C211602   3.901   0.380  14.361 -0.1421 -0.9303 -0.4322
  787MPD2    C311603   4.002   0.302  14.314  0.0675 -0.1523 -0.0839
  787MPD2    C411604   4.024   0.310  14.180 -0.3461  0.2851  0.0884
  787MPD2    C511605   3.945   0.394  14.098  0.0516  0.7646  0.2319
  787MPD2     H11606   3.877   0.366  14.466  1.4037  2.4397  0.3703
  787MPD2    H111607   4.105   0.258  14.130  1.0700 -0.1261  2.8646
  787MPD2    H211608   3.792   0.538  14.092  1.2576  1.7565  0.0380
  787MPD2    H311609   3.960   0.399  13.991 -1.6949 -2.5283 -0.1632
  787MPD2     N11610   4.089   0.230  14.396 -0.9505 -0.0761  0.8050
  787MPD2    H511611   4.059   0.223  14.493 -1.7435 -0.5104  0.5299
  787MPD2    N111612   3.735   0.556  14.342  0.3557  0.5941 -0.0390
  787MPD2    H711613   3.686   0.617  14.277 -1.8944  0.0626  1.1573
  788MPD2     C11614   1.085   3.589   0.063  0.1960 -0.3665  0.3774
  788MPD2    C111615   1.026   3.477   0.013  0.3005 -0.1715  0.4356
  788MPD2    C211616   0.951   3.484  17.596  0.7813  0.4804  0.3674
  788MPD2    C311617   0.936   3.605  17.542 -0.1567  0.1541  0.3777
  788MPD2    C411618   1.006   3.713  17.586 -0.7729 -0.9172  0.2139
  788MPD2    C511619   1.078   3.707   0.001  0.5678  0.8866 -0.2230
  788MPD2     H11620   0.896   3.400  17.554  0.1144 -0.1626  2.5144
  788MPD2    H111621   1.005   3.813  17.544  1.7283 -1.9933 -2.3392
  788MPD2    H211622   1.150   3.587   0.149 -0.0572 -0.1646  0.5754
  788MPD2    H311623   1.129   3.794   0.042 -1.4838  1.8086  0.4250
  788MPD2     N11624   0.852   3.612  17.433 -0.4834  0.1941  0.4043
  788MPD2    H511625   0.799   3.528  17.413  0.4144 -0.3376  0.2894
  788MPD2    N111626   1.023   3.351   0.077  0.1111 -0.7775  0.6821
  788MPD2    H711627   0.984   3.274   0.023  2.8897 -0.3588 -1.9964
  789MPD2     C11628   0.852   3.554  16.081 -0.7538  0.0061  0.2226
  789MPD2    C111629   0.798   3.445  16.145 -0.8996  0.5969 -0.1931
  789MPD2    C211630   0.671   3.459  16.189  0.3588 -0.0866  0.4712
  789MPD2    C311631   0.597   3.578  16.178 -0.0228 -0.4485 -0.1536
  789MPD2    C411632   0.657   3.684  16.129 -0.1121  0.2573  0.0060
  789MPD2    C511633   0.787   3.674  16.083 -0.2978  0.0692 -0.7153
  789MPD2     H11634   0.633   3.375  16.245 -1.6417  1.2596  1.1266
  789MPD2    H111635   0.619   3.785  16.136  0.3285  0.4869 -0.9890
  789MPD2    H211636   0.951   3.563  16.038 -0.5968  0.4272  0.6730
  789MPD2    H311637   0.838   3.756  16.033  2.4694 -0.8107  0.6641
  789MPD2     N11638   0.476   3.591  16.257 -0.0802  0.2013  0.1595
  789MPD2    H511639   0.448   3.687  16.273 -0.0617 -0.0031  1.3974
  789MPD2    N111640   0.865   3.324  16.162  0.0538  0.2197  0.0670
  789MPD2    H711641   0.813   3.252  16.211  0.5906  0.9807  1.7613
  790MPD2     C11642   1.904   0.141  13.696 -0.0377  0.0363  0.0816
  790MPD2    C111643   1.996   0.246  13.692 -0.7322 -0.6110  0.2625
  790MPD2    C211644   2.026   0.320  13.574  0.0459 -0.5864 -0.0469
  790MPD2    C311645   1.964   0.282  13.461 -0.1887  0.2587 -0.3147
  790MPD2    C411646   1.884   0.167  13.463 -0.2612  0.8479 -0.0795
  790MPD2    C511647   1.856   0.094  13.578  0.2829  0.6876  0.0278
  790MPD2     H11648   2.086   0.410  13.580 -1.4444  0.5802 -2.5361
  790MPD2    H111649   1.847   0.123  13.371 -0.5154 -0.8752  0.8573
  790MPD2    H211650   1.893   0.097  13.794  0.2311  1.3417  0.7040
  790MPD2    H311651   1.784   0.013  13.572  1.5752 -0.2330 -2.6230
  790MPD2     N11652   1.984   0.348  13.338  0.2272 -0.1268  0.1457
  790MPD2    H511653   1.950   0.301  13.255 -0.0551  0.6497 -0.1749
  790MPD2    N111654   2.056   0.257  13.810 -0.3868  0.2436  0.0959
  790MPD2    H711655   2.006   0.211  13.885 -4.8529 -0.3483 -3.2181
  791MPD2     C11656   1.612   0.847  12.760  0.4839  0.1696 -0.3567
  791MPD2    C111657   1.627   0.721  12.803  0.5440  0.2313 -0.2270
  791MPD2    C211658   1.533   0.619  12.779  0.2108 -0.4647  0.0225
  791MPD2    C311659   1.426   0.660  12.703 -0.6812  0.1144 -0.0525
  791MPD2    C411660   1.413   0.788  12.657  0.9233  0.1736  0.3106
  791MPD2    C511661   1.498   0.890  12.694  0.0708 -0.3771  0.1018
  791MPD2     H11662   1.539   0.518  12.817 -4.1946 -0.9187 -0.5706
  791MPD2    H111663   1.330   0.824  12.597 -0.4325 -0.7537  1.6209
  791MPD2    H211664   1.688   0.924  12.762 -1.5818  2.2234 -1.2022
  791MPD2    H311665   1.498   0.992  12.656  0.5300 -0.3201  0.2595
  791MPD2     N11666   1.340   0.552  12.664  1.0469  0.1827 -0.0964
  791MPD2    H511667   1.366   0.459  12.698 -1.9769 -0.6304  0.0263
  791MPD2    N111668   1.753   0.693  12.862  0.1727  0.2518 -0.5200
  791MPD2    H711669   1.819   0.770  12.858 -1.3570  1.4689 -1.8081
  792MPD2     C11670   2.973   0.642  10.684  1.1940  0.4009  0.0695
  792MPD2    C111671   2.846   0.695  10.693  0.8248  0.5067  0.5780
  792MPD2    C211672   2.735   0.640  10.627  0.6921  0.3154  0.0863
  792MPD2    C311673   2.752   0.516  10.571 -0.7529 -1.0686  0.1054
  792MPD2    C411674   2.873   0.458  10.568  0.0659 -0.2158  0.0664
  792MPD2    C511675   2.983   0.516  10.630 -0.3014  0.4440 -0.5311
  792MPD2     H11676   2.643   0.697  10.622  0.3857 -0.0915  1.1955
  792MPD2    H111677   2.886   0.359  10.526 -0.8750 -0.8877  1.3429
  792MPD2    H211678   3.063   0.682  10.728  0.6619  1.9661 -0.2895
  792MPD2    H311679   3.077   0.462  10.624 -0.1145  0.9169 -1.9987
  792MPD2     N11680   2.643   0.444  10.524  0.6514  0.5626  0.4631
  792MPD2    H511681   2.663   0.355  10.478  2.4863  0.7631  0.8896
  792MPD2    N111682   2.835   0.820  10.761  0.1753 -0.3018 -0.2372
  792MPD2    H711683   2.923   0.862  10.788 -0.2455  0.8011 -0.6015
  793MPD2     C11684   2.230   0.460   9.671 -0.3661  0.0274 -0.0978
  793MPD2    C111685   2.333   0.539   9.734  0.5319  0.1272  0.1616
  793MPD2    C211686   2.342   0.529   9.873 -0.0290  0.5733  0.5113
  793MPD2    C311687   2.253   0.456   9.947 -0.4567 -0.1702  0.2435
  793MPD2    C411688   2.155   0.381   9.879  0.2004 -0.0700 -0.8072
  793MPD2    C511689   2.139   0.394   9.746  0.2766  0.5246 -0.2288
  793MPD2     H11690   2.409   0.593   9.928  1.0801 -1.5408  1.6146
  793MPD2    H111691   2.078   0.322   9.929 -0.0671  1.5089  0.6102
  793MPD2    H211692   2.211   0.475   9.565  2.8081 -0.2453 -0.7061
  793MPD2    H311693   2.062   0.336   9.697  0.7243  0.4448 -0.8370
  793MPD2     N11694   2.272   0.451  10.088 -0.0243  0.0122  0.0517
  793MPD2    H511695   2.352   0.499  10.129  0.0190  0.0302 -0.0529
  793MPD2    N111696   2.423   0.626   9.672 -0.2573  0.4353  0.1660
  793MPD2    H711697   2.486   0.674   9.736 -0.4323  1.7414 -0.6238
  794MPD2     C11698   2.130   4.566  17.069  0.3079  0.1463 -0.4827
  794MPD2    C111699   2.024   4.485  17.096 -0.0943 -0.0512 -0.3125
  794MPD2    C211700   1.911   4.498  17.020 -0.3308  0.5013  0.0105
  794MPD2    C311701   1.903   4.597  16.926  0.5268  0.7458  0.7262
  794MPD2    C411702   2.010   4.680  16.907 -0.7142  0.4851 -0.1956
  794MPD2    C511703   2.123   4.669  16.979  0.6430  0.2587 -0.1197
  794MPD2     H11704   1.826   4.434  17.039  1.2206 -2.0408 -1.4500
  794MPD2    H111705   2.010   0.022  16.822  2.0846 -0.4909 -0.9663
  794MPD2    H211706   2.225   4.565  17.121 -1.3487  1.0685  2.5200
  794MPD2    H311707   2.202   0.019  16.974 -1.9185  2.7710 -3.3369
  794MPD2     N11708   1.802   4.602  16.823  0.0343  0.4710 -0.8003
  794MPD2    H511709   1.799   4.688  16.769  0.7098  1.5621  0.9206
  794MPD2    N111710   2.022   4.388  17.203 -0.6847  0.4642 -0.1836
  794MPD2    H711711   1.940   4.328  17.211  2.1918 -3.2928  1.3094
  795MPD2     C11712   0.024   2.099  13.197  0.9649  1.0097 -0.1180
  795MPD2    C111713   0.005   1.963  13.196  0.0477 -0.3505  0.4875
  795MPD2    C211714   0.114   1.893  13.244 -1.3517  1.4915  0.1561
  795MPD2    C311715   0.228   1.955  13.290 -0.0271 -0.0738  0.2981
  795MPD2    C411716   0.244   2.092  13.282 -0.7750  0.4341 -0.4689
  795MPD2    C511717   0.132   2.163  13.251 -0.1121 -0.0309 -0.1380
  795MPD2     H11718   0.096   1.788  13.261  0.5129  1.1288 -0.1127
  795MPD2    H111719   0.320   2.149  13.336  0.4693 -0.0408 -1.7354
  795MPD2    H211720   4.663   2.158  13.167  0.5605 -0.5792 -2.0647
  795MPD2    H311721   0.132   2.271  13.261  2.4138 -0.2388  2.1314
  795MPD2     N11722   0.327   1.870  13.346 -0.9450  0.0233  0.7439
  795MPD2    H511723   0.299   1.773  13.347 -1.6867  0.2045 -2.2437
  795MPD2    N111724   4.625   1.884  13.155  0.3924  0.0379  0.0870
  795MPD2    H711725   4.631   1.785  13.177  1.2607 -0.2621 -1.5118
  796MPD2     C11726   3.911   3.690  15.628  0.1319  0.4927  0.0110
  796MPD2    C111727   3.945   3.724  15.757 -0.1408  0.2101 -0.2510
  796MPD2    C211728   3.953   3.860  15.792  0.0344  0.0231  0.0193
  796MPD2    C311729   3.919   3.957  15.704  0.4064 -0.9249  0.1090
  796MPD2    C411730   3.891   3.923  15.569 -0.2920 -0.3708  0.5597
  796MPD2    C511731   3.892   3.789  15.536 -0.3773  0.9672  0.4032
  796MPD2     H11732   3.959   3.887  15.897  2.9082  0.7418 -0.3191
  796MPD2    H111733   3.855   3.997  15.499 -1.4362 -0.3937  1.1296
  796MPD2    H211734   3.891   3.588  15.599 -1.2590  1.2526 -1.6970
  796MPD2    H311735   3.864   3.753  15.438 -1.4625  0.2458  0.9855
  796MPD2     N11736   3.915   4.089  15.760  0.2233  0.5227  0.6995
  796MPD2    H511737   3.933   4.092  15.860  1.7798 -4.3474  0.5440
  796MPD2    N111738   3.944   3.627  15.859 -0.2297 -0.3344 -0.3903
  796MPD2    H711739   3.900   3.540  15.830  2.4184 -2.4801  2.0426
  797MPD2     C11740   0.135   2.834  16.981 -0.9285 -0.4074  0.5344
  797MPD2    C111741   0.058   2.831  17.090  0.6243 -0.0774 -0.2282
  797MPD2    C211742   4.650   2.864  17.077 -0.0438 -0.7808  0.1241
  797MPD2    C311743   4.594   2.919  16.960  0.5428 -0.5274  0.8803
  797MPD2    C411744   4.676   2.912  16.849 -0.7029  0.0996  0.0846
  797MPD2    C511745   0.077   2.855  16.860 -0.0799  0.1184  0.3474
  797MPD2     H11746   4.584   2.860  17.163  0.1457  1.3827  0.3670
  797MPD2    H111747   4.631   2.944  16.755  0.5567 -0.9111 -0.8556
  797MPD2    H211748   0.240   2.809  16.986 -0.5548  1.1485  0.1267
  797MPD2    H311749   0.144   2.840  16.777 -1.7362 -1.4874 -0.7152
  797MPD2     N11750   4.466   2.980  16.958 -0.1326 -0.4682  0.0595
  797MPD2    H511751   4.448   3.046  16.882  2.8201  1.1323  0.7442
  797MPD2    N111752   0.111   2.794  17.213  0.3830 -0.0384 -0.3357
  797MPD2    H711753   0.049   2.783  17.292  0.5604  2.5250  0.1621
  798MPD2     C11754   4.275   2.939  17.636 -0.2701  0.0891  0.0501
  798MPD2    C111755   4.357   3.010  17.559  0.9698  0.2799  0.4652
  798MPD2    C211756   4.488   3.003  17.559 -0.2092  0.8956  1.0793
  798MPD2    C311757   4.545   2.915  17.645  0.4382 -0.3584 -0.0388
  798MPD2    C411758   4.467   2.835   0.031  0.2347 -0.3160  0.1909
  798MPD2    C511759   4.327   2.844   0.020  0.4951  0.4961  0.1056
  798MPD2     H11760   4.549   3.062  17.492 -0.4002 -0.4018 -0.2424
  798MPD2    H111761   4.515   2.763   0.096  1.3252  0.5227  0.3198
  798MPD2    H211762   4.170   2.951  17.609 -0.6274 -1.3779  0.7937
  798MPD2    H311763   4.272   2.775   0.083  0.6998  2.2015  2.1401
  798MPD2     N11764   4.682   2.900  17.625 -0.5187  0.9192 -0.6894
  798MPD2    H511765   0.005   2.972  17.571 -1.3326  2.1449  0.2458
  798MPD2    N111766   4.299   3.093  17.469  0.1010  0.4114 -0.3864
  798MPD2    H711767   4.208   3.061  17.438 -0.2526 -1.9239  3.0626
  799MPD2     C11768   3.714   0.047  14.719 -0.1248 -0.1510 -0.8721
  799MPD2    C111769   3.650   4.680  14.634  0.2878  0.1450 -0.7920
  799MPD2    C211770   3.585   0.007  14.529 -0.1142 -0.0442 -0.1015
  799MPD2    C311771   3.562   0.142  14.510 -0.4888 -0.2896 -0.4296
  799MPD2    C411772   3.618   0.227  14.602 -0.0992 -0.2354 -0.3571
  799MPD2    C511773   3.692   0.183  14.715 -1.2058  0.0459  0.5185
  799MPD2     H11774   3.536   4.664  14.460  0.1992  0.4751 -0.8335
  799MPD2    H111775   3.607   0.335  14.591 -0.9651 -0.2342  0.4720
  799MPD2    H211776   3.771   0.026  14.809 -1.6288 -1.3475 -0.2028
  799MPD2    H311777   3.721   0.246  14.799 -2.7852  0.9726  0.3626
  799MPD2     N11778   3.482   0.193  14.399 -0.2028 -0.0505 -0.1150
  799MPD2    H511779   3.460   0.292  14.396 -2.2263 -0.5104 -0.5316
  799MPD2    N111780   3.636   4.540  14.659 -0.7967  0.1915  0.4376
  799MPD2    H711781   3.597   4.487  14.582 -0.5625  0.1751  0.3334
  800MPD2     C11782   4.487   1.671  14.084 -0.3877  0.5116  0.1740
  800MPD2    C111783   4.620   1.652  14.082  0.2643  0.2356 -0.5969
  800MPD2    C211784   4.664   1.519  14.074  0.3095 -0.3166 -0.1874
  800MPD2    C311785   4.572   1.414  14.068  0.4632 -1.2497 -0.0600
  800MPD2    C411786   4.442   1.440  14.075 -0.5230  0.2392 -0.0969
  800MPD2    C511787   4.396   1.566  14.075 -0.0058 -0.0476 -0.8026
  800MPD2     H11788   0.044   1.490  14.074 -0.0069 -1.4591  1.9665
  800MPD2    H111789   4.362   1.367  14.078 -0.3348 -0.0624 -2.0693
  800MPD2    H211790   4.441   1.766  14.108  1.5197  1.1768  1.2014
  800MPD2    H311791   4.293   1.582  14.102 -0.6210 -1.9445 -2.0007
  800MPD2     N11792   4.621   1.279  14.065  0.1421  0.3528  0.3892
  800MPD2    H511793   4.720   1.259  14.081  0.1843  0.1706 -0.0956
  800MPD2    N111794   4.697   1.766  14.105 -0.3010 -0.3061  0.4242
  800MPD2    H711795   4.647   1.855  14.103 -0.0476 -0.2305 -1.8450
  801MPD2     C11796   4.588   2.404  14.448  0.0141 -0.1068 -0.1677
  801MPD2    C111797   4.569   2.294  14.369  0.1947 -0.3009 -0.3042
  801MPD2    C211798   4.437   2.254  14.338  0.4284 -0.3127 -0.0908
  801MPD2    C311799   4.326   2.322  14.385  0.5341  0.1279 -0.0145
  801MPD2    C411800   4.349   2.431  14.459 -0.8853  0.5212  0.5433
  801MPD2    C511801   4.474   2.471  14.488 -0.1648  0.4025 -0.9114
  801MPD2     H11802   4.419   2.165  14.277 -1.1907  0.2060 -0.3782
  801MPD2    H111803   4.269   2.487  14.506 -1.1974  1.3750 -0.9790
  801MPD2    H211804   4.685   2.439  14.481 -0.1133  0.2249 -0.1410
  801MPD2    H311805   4.485   2.553  14.559  0.7251 -2.1716  1.8990
  801MPD2     N11806   4.195   2.280  14.372 -0.5583  0.3756 -0.1434
  801MPD2    H511807   4.126   2.329  14.428 -0.3048  0.1237  0.3908
  801MPD2    N111808   4.670   2.207  14.328  0.3206 -0.4803 -0.3655
  801MPD2    H711809   4.655   2.157  14.240 -1.1149  1.2642 -1.0968
  802MPD2     C11810   3.756   0.765   0.119  0.3421  0.8410 -0.3944
  802MPD2    C111811   3.711   0.871   0.038  0.1976  0.5047  0.4642
  802MPD2    C211812   3.715   0.854  17.596  0.2196  0.4609 -0.4675
  802MPD2    C311813   3.741   0.728  17.539  0.2428 -0.4162 -0.3620
  802MPD2    C411814   3.781   0.628  17.624  0.1833  0.4871 -0.0208
  802MPD2    C511815   3.799   0.651   0.058 -1.0081 -0.3016  0.0899
  802MPD2     H11816   3.687   0.931  17.525  3.0658 -0.1423 -2.2551
  802MPD2    H111817   3.803   0.526  17.594 -0.2413  0.2197  0.5755
  802MPD2    H211818   3.775   0.778   0.225 -0.2456  0.1588 -0.2004
  802MPD2    H311819   3.839   0.572   0.121 -0.1521  0.6463  0.7497
  802MPD2     N11820   3.745   0.726  17.393  0.5506  0.3332 -0.0522
  802MPD2    H511821   3.721   0.810  17.342 -0.3789 -0.3663 -0.7582
  802MPD2    N111822   3.684   0.996   0.086  0.2158 -0.0064  0.3246
  802MPD2    H711823   3.644   1.060   0.018  0.4792  1.0174  1.1278
  803MPD2     C11824   0.102   0.827  11.776  0.0347  0.5834  0.1935
  803MPD2    C111825   0.167   0.827  11.901 -0.4978  0.4623  0.1078
  803MPD2    C211826   0.144   0.735  11.998  0.2251  0.0391  0.5461
  803MPD2    C311827   0.057   0.631  11.971  0.7349 -0.1256  0.1947
  803MPD2    C411828   4.713   0.624  11.850 -0.5380 -0.3429  0.1214
  803MPD2    C511829   0.009   0.726  11.756  0.4790  0.0196 -0.4998
  803MPD2     H11830   0.203   0.733  12.089  1.7160  0.5119 -0.4153
  803MPD2    H111831   4.640   0.545  11.835 -1.3016  0.5398 -0.7996
  803MPD2    H211832   0.127   0.905  11.705 -0.7863  1.0533  0.4227
  803MPD2    H311833   4.676   0.725  11.664 -0.9634 -1.9593  0.4196
  803MPD2     N11834   0.046   0.516  12.049  0.2672  0.4840  0.4666
  803MPD2    H511835   4.695   0.452  12.027  0.9680 -0.2985  0.3204
  803MPD2    N111836   0.269   0.918  11.938  0.3539 -0.0835 -0.5702
  803MPD2    H711837   0.304   0.915  12.033  0.2687 -0.3250 -0.5450
  804MPD2     C11838   3.856   1.813  16.887  0.2888 -0.4690 -0.4828
  804MPD2    C111839   3.931   1.794  16.999  0.3626 -0.4769  0.3905
  804MPD2    C211840   3.975   1.906  17.064  0.0571 -0.3430  0.8422
  804MPD2    C311841   3.931   2.030  17.021 -0.1123  0.4831  0.5789
  804MPD2    C411842   3.841   2.045  16.912  0.4156  0.1130  0.4956
  804MPD2    C511843   3.802   1.929  16.853 -0.3942 -0.0882 -0.3977
  804MPD2     H11844   4.060   1.904  17.132 -1.1078  1.4703  2.3358
  804MPD2    H111845   3.798   2.137  16.875  0.0077  0.0591  0.8324
  804MPD2    H211846   3.811   1.728  16.838 -0.5687  0.1610 -0.7906
  804MPD2    H311847   3.729   1.927  16.773  0.5876  2.3872 -1.3570
  804MPD2     N11848   3.993   2.141  17.076 -0.2489  0.4051 -0.0902
  804MPD2    H511849   4.066   2.123  17.144 -0.3368 -0.0888 -0.1211
  804MPD2    N111850   3.988   1.669  17.049 -0.3941  0.4401 -0.3201
  804MPD2    H711851   4.057   1.674  17.123 -0.1197 -0.0142 -0.5433
  805MPD2     C11852   3.357   0.152  15.468 -0.4556 -0.2166 -0.1721
  805MPD2    C111853   3.435   0.169  15.360 -0.0908 -0.6013 -0.3532
  805MPD2    C211854   3.575   0.168  15.371  0.3385  0.2434 -0.8297
  805MPD2    C311855   3.634   0.145  15.493 -0.4191 -0.6450 -0.2134
  805MPD2    C411856   3.546   0.134  15.602  0.1396  0.3670  0.0306
  805MPD2    C511857   3.413   0.146  15.589 -0.8047  0.4832  0.3589
  805MPD2     H11858   3.642   0.178  15.286  1.1903  0.0158 -0.1777
  805MPD2    H111859   3.591   0.123  15.700  0.6015  0.6008 -0.1554
  805MPD2    H211860   3.248   0.155  15.468 -0.5262 -2.7457 -2.1700
  805MPD2    H311861   3.340   0.133  15.669  0.2981  0.0565  1.2918
  805MPD2     N11862   3.774   0.154  15.506 -0.4227  0.1320 -0.2264
  805MPD2    H511863   3.818   0.168  15.415 -2.0639 -0.6280 -1.1306
  805MPD2    N111864   3.388   0.187  15.227  0.1250 -0.2707  0.3767
  805MPD2    H711865   3.456   0.194  15.151 -1.3662  1.0070 -0.8313
  806MPD2     C11866   3.367   3.585   0.679  0.3124 -0.3103  0.1779
  806MPD2    C111867   3.500   3.534   0.691  0.1578 -0.0221 -0.3811
  806MPD2    C211868   3.588   3.530   0.590  0.2367  0.0314  0.1792
  806MPD2    C311869   3.552   3.593   0.472  0.1653  0.7391 -0.4585
  806MPD2    C411870   3.428   3.643   0.456 -0.0880  0.3824 -0.0655
  806MPD2    C511871   3.335   3.635   0.560 -0.0191 -0.1044  0.0767
  806MPD2     H11872   3.689   3.494   0.604  0.6327  1.2016  0.3531
  806MPD2    H111873   3.419   3.701   0.365 -0.6380 -0.4083 -0.5143
  806MPD2    H211874   3.290   3.599   0.755 -0.6294  0.8207 -0.9849
  806MPD2    H311875   3.239   3.682   0.540 -0.5577 -0.1353  2.6132
  806MPD2     N11876   3.657   3.610   0.378  0.3056  0.0792 -0.0782
  806MPD2    H511877   3.749   3.579   0.407 -0.1635 -0.0607  1.2825
  806MPD2    N111878   3.535   3.471   0.813 -0.0928 -0.2732 -0.3780
  806MPD2    H711879   3.462   3.459   0.884  0.0563 -2.0725 -0.5277
  807MPD2     C11880   3.317   3.195   1.490 -0.3324 -0.3613 -0.2826
  807MPD2    C111881   3.452   3.147   1.485 -0.1674  0.8657  0.3986
  807MPD2    C211882   3.507   3.086   1.598  0.4729 -0.3868 -0.3400
  807MPD2    C311883   3.430   3.064   1.705  0.2003 -0.4160 -0.0754
  807MPD2    C411884   3.304   3.126   1.713  0.2083 -0.1047  0.1123
  807MPD2    C511885   3.246   3.184   1.603  0.1896 -0.3447  0.9249
  807MPD2     H11886   3.607   3.045   1.598  0.9651  0.8475  0.6786
  807MPD2    H111887   3.238   3.128   1.799 -2.0207 -0.3245 -1.6232
  807MPD2    H211888   3.265   3.259   1.420 -0.0062 -1.7240 -1.7680
  807MPD2    H311889   3.149   3.231   1.610 -0.7850 -2.2218  0.0719
  807MPD2     N11890   3.498   2.992   1.806  0.3945 -0.6953  0.6950
  807MPD2    H511891   3.585   2.946   1.777  0.3383 -0.1711 -0.3096
  807MPD2    N111892   3.536   3.175   1.377 -0.4702  0.4753  0.0500
  807MPD2    H711893   3.635   3.160   1.395 -0.0713  0.6917 -1.9658
  808MPD2     C11894   0.487   1.365  10.089 -0.1903 -0.0141  0.6285
  808MPD2    C111895   0.374   1.437  10.051  0.3114 -0.0018 -0.1688
  808MPD2    C211896   0.385   1.578  10.045 -0.3421 -0.9620  0.6698
  808MPD2    C311897   0.506   1.635  10.075  0.0358 -0.0594 -0.2080
  808MPD2    C411898   0.618   1.554  10.106  0.1600 -0.0273 -0.0563
  808MPD2    C511899   0.604   1.423  10.118  0.4996 -0.2410  0.7903
  808MPD2     H11900   0.305   1.641  10.010 -1.4176 -1.6963  1.7965
  808MPD2    H111901   0.716   1.598  10.127 -1.2586  2.0844  2.1453
  808MPD2    H211902   0.503   1.258  10.086 -0.3640 -0.0554  1.0943
  808MPD2    H311903   0.689   1.359  10.142 -0.6299 -1.2189  2.1864
  808MPD2     N11904   0.538   1.772  10.075  0.4542 -0.4976  0.4909
  808MPD2    H511905   0.635   1.799  10.090  0.2915  0.8678 -0.8924
  808MPD2    N111906   0.257   1.375   9.997 -0.7174 -0.4067 -0.3591
  808MPD2    H711907   0.187   1.437   9.958 -0.7686 -0.9721 -1.1761
  809MPD2     C11908   1.135   2.345   9.534  0.6807 -0.5021 -0.1594
  809MPD2    C111909   1.120   2.217   9.584  0.1839  0.4321 -0.6448
  809MPD2    C211910   1.029   2.203   9.686  0.1985 -0.3832 -0.2234
  809MPD2    C311911   0.941   2.299   9.734 -0.2734 -0.5567  0.3057
  809MPD2    C411912   0.957   2.428   9.684 -0.6009  0.1038  0.1259
  809MPD2    C511913   1.052   2.447   9.587  0.0556  0.4235 -0.2079
  809MPD2     H11914   1.016   2.105   9.730 -0.3828 -0.0845  0.2710
  809MPD2    H111915   0.895   2.504   9.730 -0.5941  1.6108 -2.3891
  809MPD2    H211916   1.214   2.384   9.470 -0.2651 -0.5140 -1.3263
  809MPD2    H311917   1.057   2.552   9.559  1.6492  0.9624  2.1152
  809MPD2     N11918   0.844   2.270   9.835 -0.0398 -0.2507  0.0332
  809MPD2    H511919   0.782   2.347   9.860  1.1387  0.6309  0.2216
  809MPD2    N111920   1.203   2.105   9.535 -0.0426 -0.0423 -0.8005
  809MPD2    H711921   1.177   2.014   9.570 -1.2693  0.6490  0.0978
  810MPD2     C11922   0.058   0.907  10.366 -0.2247 -0.4762  0.1229
  810MPD2    C111923   4.658   0.952  10.323 -0.1142  0.2400  0.6686
  810MPD2    C211924   4.638   1.085  10.300 -0.5369 -0.0047 -0.1616
  810MPD2    C311925   0.014   1.176  10.292 -0.0162  0.1909  0.3949
  810MPD2    C411926   0.136   1.135  10.332  0.2588  0.6256  0.0384
  810MPD2    C511927   0.156   1.002  10.371  0.3822  0.6023  0.5814
  810MPD2     H11928   4.536   1.119  10.288  0.0649  1.8631 -0.0617
  810MPD2    H111929   0.215   1.209  10.337 -0.5071  1.4795 -0.5482
  810MPD2    H211930   0.086   0.804  10.384 -0.1569 -0.5371 -0.3396
  810MPD2    H311931   0.257   0.973  10.398  0.0597 -1.8423 -0.8094
  810MPD2     N11932   4.719   1.314  10.266 -1.1128  0.5896 -0.7232
  810MPD2    H511933   0.073   1.378  10.260 -0.0285 -0.6300  0.3941
  810MPD2    N111934   4.550   0.862  10.300  1.4851 -0.0745  0.5230
  810MPD2    H711935   4.569   0.767  10.331  0.1421 -1.7406 -3.7385
  811MPD2     C11936   4.143   0.801   9.575 -0.6949 -0.0247 -0.4948
  811MPD2    C111937   4.216   0.867   9.675  0.5865 -0.1261 -0.2697
  811MPD2    C211938   4.261   0.997   9.653 -0.2730  0.3481 -0.2312
  811MPD2    C311939   4.226   1.059   9.534 -0.5592  0.0146  0.0602
  811MPD2    C411940   4.164   0.986   9.436  0.3631 -0.3655 -0.0635
  811MPD2    C511941   4.117   0.861   9.456 -0.1302 -0.2585  0.8641
  811MPD2     H11942   4.304   1.054   9.735 -0.1636  0.7910 -0.5995
  811MPD2    H111943   4.146   1.031   9.339  1.8784  0.1670 -0.0954
  811MPD2    H211944   4.104   0.703   9.600 -0.9055 -0.0275 -0.8294
  811MPD2    H311945   4.052   0.804   9.391  3.0804 -0.9109 -1.7627
  811MPD2     N11946   4.252   1.198   9.522  0.9283 -0.2657 -0.3614
  811MPD2    H511947   4.312   1.243   9.591 -0.4271  1.4464 -0.2820
  811MPD2    N111948   4.239   0.818   9.803  0.1349  0.3305 -0.3115
  811MPD2    H711949   4.307   0.870   9.858  0.1651 -1.3323  1.1984
  812MPD2     C11950   3.129   0.788  12.456  0.3882  0.4176  0.0391
  812MPD2    C111951   3.023   0.793  12.539  0.6406  0.9356 -0.0576
  812MPD2    C211952   2.953   0.675  12.569 -0.0708  0.3046  0.2571
  812MPD2    C311953   3.000   0.560  12.509  0.1506 -0.5972  0.0938
  812MPD2    C411954   3.104   0.560  12.418 -0.5300 -0.0619  0.3171
  812MPD2    C511955   3.176   0.672  12.400  0.3074 -0.4613 -0.1389
  812MPD2     H11956   2.873   0.673  12.642  1.1439 -0.5987  1.5504
  812MPD2    H111957   3.146   0.467  12.383 -0.0526 -0.0495  0.8558
  812MPD2    H211958   3.189   0.876  12.434 -0.3838  0.1738 -3.0035
  812MPD2    H311959   3.271   0.677  12.349  0.3354 -0.7810 -0.1179
  812MPD2     N11960   2.930   0.437  12.534 -0.1061  0.0594  0.1755
  812MPD2    H511961   2.883   0.440  12.623  0.4267  0.3536  0.4439
  812MPD2    N111962   2.985   0.922  12.596  0.0860  0.5507 -0.6679
  812MPD2    H711963   3.050   0.998  12.582 -0.8158  1.5142  0.2949
  813MPD2     C11964   2.070   2.296  12.974  0.0379 -1.0953 -0.0464
  813MPD2    C111965   2.018   2.425  12.960  0.0853  0.2354 -0.3678
  813MPD2    C211966   1.933   2.471  13.055  0.5522  0.0864  0.3123
  813MPD2    C311967   1.885   2.394  13.159  0.6278 -0.8097 -0.0295
  813MPD2    C411968   1.944   2.266  13.175  0.5351  0.7989  0.1680
  813MPD2    C511969   2.029   2.220  13.080 -0.4172  0.4439  0.6031
  813MPD2     H11970   1.902   2.575  13.058  0.3590  0.0538 -0.6925
  813MPD2    H111971   1.914   2.199  13.255 -1.6360  0.8448 -0.6157
  813MPD2    H211972   2.142   2.245  12.911 -1.8091 -1.8557 -1.5729
  813MPD2    H311973   2.080   2.125  13.087  0.5698  0.7414 -2.4079
  813MPD2     N11974   1.795   2.457  13.252  0.0597  0.4737  0.3841
  813MPD2    H511975   1.776   2.556  13.246 -3.0608 -0.1231  0.2482
  813MPD2    N111976   2.074   2.510  12.866  0.5428  0.0308  0.2084
  813MPD2    H711977   2.152   2.464  12.820  0.2510  0.8901 -1.1380
  814MPD2     C11978   3.125   3.827  12.055 -0.5546  0.1672  0.5532
  814MPD2    C111979   3.082   3.905  11.948  0.8883 -0.6061  0.3344
  814MPD2    C211980   3.088   4.048  11.968 -0.3784 -0.1321 -0.0390
  814MPD2    C311981   3.139   4.105  12.087  0.1626 -0.5404 -0.1519
  814MPD2    C411982   3.187   4.024  12.187 -0.3998  0.0941  0.2854
  814MPD2    C511983   3.184   3.891  12.161  0.1954 -0.5197  0.1261
  814MPD2     H11984   3.051   4.107  11.885 -0.5713  0.4621  0.4767
  814MPD2    H111985   3.223   4.058  12.284 -0.3180  1.4612 -0.2333
  814MPD2    H211986   3.128   3.719  12.051  0.0437  0.2090 -0.1336
  814MPD2    H311987   3.231   3.823  12.231  2.8844  0.9626 -0.2032
  814MPD2     N11988   3.137   4.243  12.119 -0.1012 -0.7441  0.1368
  814MPD2    H511989   3.154   4.275  12.214  2.2624 -2.4654  0.2855
  814MPD2    N111990   3.031   3.855  11.831  0.7950 -0.1269 -0.0826
  814MPD2    H711991   3.022   3.923  11.756 -1.3494  0.8411  1.0378
  815MPD2     C11992   3.617   1.823  11.911 -0.8017  0.6147  0.5903
  815MPD2    C111993   3.481   1.826  11.887  0.2988 -0.0673  0.0373
  815MPD2    C211994   3.403   1.876  11.985 -0.6829  0.2069  0.0855
  815MPD2    C311995   3.451   1.897  12.115  0.2393 -0.4374  0.0145
  815MPD2    C411996   3.590   1.894  12.135  0.5307 -0.3392 -0.4384
  815MPD2    C511997   3.671   1.859  12.030  0.2345 -0.6833  0.7849
  815MPD2     H11998   3.296   1.885  11.970 -0.8345  0.4347  1.2524
  815MPD2    H111999   3.630   1.909  12.235 -0.8010  0.7710 -0.0677
  815MPD2    H212000   3.683   1.789  11.832 -0.7222 -0.4645  1.1206
  815MPD2    H312001   3.775   1.830  12.039  0.1709 -0.6963  1.4631
  815MPD2     N12002   3.348   1.925  12.207 -0.6485 -0.1685  0.3050
  815MPD2    H512003   3.256   1.911  12.165 -0.2136 -1.6380 -0.1453
  815MPD2    N112004   3.427   1.770  11.770  0.5027  0.5084 -0.4518
  815MPD2    H712005   3.484   1.736  11.693  0.5538  2.2390 -1.1905
  816MPD2     C12006   3.252   1.001   0.000  0.1312  0.1128 -0.7836
  816MPD2    C112007   3.147   0.995  17.615 -0.2530  0.0052  0.7141
  816MPD2    C212008   3.157   0.909  17.511 -0.2384  0.3443 -0.3063
  816MPD2    C312009   3.259   0.831  17.488  0.7742 -0.4632  0.0112
  816MPD2    C412010   3.364   0.830  17.575  0.4558 -0.1669  0.3229
  816MPD2    C512011   3.363   0.920  17.678 -0.6158 -0.0416  0.0715
  816MPD2     H12012   3.074   0.902  17.441  0.8190 -1.1685 -1.4135
  816MPD2    H112013   3.453   0.772  17.553  0.9706  0.1872  1.4282
  816MPD2    H212014   3.250   1.072   0.081  1.1778 -0.0427 -0.6258
  816MPD2    H312015   3.443   0.919   0.051 -2.1225  2.6327  1.7470
  816MPD2     N12016   3.246   0.743  17.372  0.4116 -0.7801  0.8826
  816MPD2    H512017   3.170   0.754  17.306  1.5321 -0.2562 -0.3338
  816MPD2    N112018   3.029   1.065  17.648 -0.0348  0.1132 -0.2638
  816MPD2    H712019   3.042   1.115   0.035 -0.4212 -1.6899  0.8434
  817MPD2     C12020   2.612   2.950  10.357  0.0737 -0.4464  0.2404
  817MPD2    C112021   2.704   2.976  10.255 -0.5346  0.2455 -0.4764
  817MPD2    C212022   2.686   3.090  10.182  0.6883  0.2610 -0.0318
  817MPD2    C312023   2.573   3.177  10.202  0.5564  0.2089  0.4175
  817MPD2    C412024   2.479   3.141  10.297  0.7074  0.2940 -0.0135
  817MPD2    C512025   2.504   3.027  10.370  0.2604  0.2114  0.8745
  817MPD2     H12026   2.763   3.113  10.109  3.0638  0.1862  2.4483
  817MPD2    H112027   2.404   3.206  10.339  0.5055 -1.9992  3.1232
  817MPD2    H212028   2.619   2.865  10.424 -0.4487 -2.1682 -1.8989
  817MPD2    H312029   2.438   3.015  10.455 -1.4679  1.1206 -0.3142
  817MPD2     N12030   2.572   3.297  10.131  0.6903  0.2380 -0.5178
  817MPD2    H512031   2.642   3.313  10.058  0.8631  1.6238 -0.0455
  817MPD2    N112032   2.824   2.906  10.232  0.5141  0.8551  0.7217
  817MPD2    H712033   2.882   2.933  10.152  0.7775  0.1648  0.6752
  818MPD2     C12034   2.261   2.519   9.805  0.1753  0.1583  0.2507
  818MPD2    C112035   2.126   2.485   9.808  0.0032  0.0150  0.2118
  818MPD2    C212036   2.092   2.353   9.786 -0.7914 -0.1696  1.0206
  818MPD2    C312037   2.190   2.261   9.744 -0.5131  0.3509  0.2994
  818MPD2    C412038   2.316   2.300   9.735  0.1729  0.6260 -0.0249
  818MPD2    C512039   2.359   2.428   9.769 -0.1312  0.0984 -0.4116
  818MPD2     H12040   1.989   2.322   9.800 -1.5921  1.2772 -1.6707
  818MPD2    H112041   2.397   2.232   9.710  0.5214  0.8230  0.5839
  818MPD2    H212042   2.294   2.616   9.838 -2.5796  0.2927  2.6013
  818MPD2    H312043   2.464   2.453   9.768  0.2333 -1.3901  1.0699
  818MPD2     N12044   2.151   2.124   9.717  0.3218  0.0964  0.2123
  818MPD2    H512045   2.220   2.059   9.680 -0.8403 -0.2366 -1.3337
  818MPD2    N112046   2.023   2.569   9.855 -0.5602 -0.7579  0.6954
  818MPD2    H712047   1.930   2.535   9.874 -0.7173 -1.6334 -1.6509
  819MPD2     C12048   4.103   4.558  15.416 -0.1823  0.3945 -0.0218
  819MPD2    C112049   4.119   4.424  15.438  0.5982 -0.0905  0.1092
  819MPD2    C212050   4.240   4.395  15.504 -0.4853  0.0159 -0.7773
  819MPD2    C312051   4.337   4.482  15.528  0.1092 -0.0805  0.2061
  819MPD2    C412052   4.323   4.615  15.501 -0.3058  0.4039 -0.1711
  819MPD2    C512053   4.206   4.649  15.438  0.3150 -0.6732 -0.0895
  819MPD2     H12054   4.256   4.291  15.533 -0.6193  0.5216  1.0912
  819MPD2    H112055   4.405   4.681  15.527 -0.1015  0.6851 -1.5245
  819MPD2    H212056   4.011   4.597  15.375 -0.9845  0.4691  1.8654
  819MPD2    H312057   4.189   0.027  15.409  0.1091  0.0478  2.5928
  819MPD2     N12058   4.449   4.427  15.592  0.6016  0.2860  0.0124
  819MPD2    H512059   4.442   4.335  15.634 -1.7820 -0.0125 -1.0387
  819MPD2    N112060   4.024   4.334  15.388 -0.3071  0.1165 -0.4522
  819MPD2    H712061   3.949   4.375  15.333 -0.9045  0.9560  1.0024
  820MPD2     C12062   3.229   4.345  14.833  1.0138  0.3675  1.0587
  820MPD2    C112063   3.326   4.429  14.888  0.1946 -0.0429 -0.3098
  820MPD2    C212064   3.424   4.379  14.961  0.1777 -0.0177  0.2898
  820MPD2    C312065   3.429   4.238  14.991 -0.4932 -0.2640 -0.1878
  820MPD2    C412066   3.332   4.158  14.941 -0.9286 -0.5848  0.6266
  820MPD2    C512067   3.234   4.204  14.866  0.5668 -0.2662  0.1616
  820MPD2     H12068   3.505   4.441  14.999  0.1510 -0.1504  0.5688
  820MPD2    H112069   3.331   4.053  14.967  1.6524 -0.1839  2.3593
  820MPD2    H212070   3.144   4.372  14.771  0.7151 -1.3696  0.7054
  820MPD2    H312071   3.166   4.128  14.828  0.4522 -0.4015  0.6336
  820MPD2     N12072   3.533   4.175  15.056 -0.2384  0.1992  0.3218
  820MPD2    H512073   3.547   4.076  15.069 -0.7805 -0.1429 -1.6668
  820MPD2    N112074   3.313   4.571  14.853  0.2602  0.4383  0.1926
  820MPD2    H712075   3.251   4.590  14.775 -0.3128 -0.1606  0.5047
  821MPD2     C12076   0.049   1.014  13.386  0.2022  0.1651 -1.3129
  821MPD2    C112077   0.152   0.984  13.477  0.4671  0.1875  0.3642
  821MPD2    C212078   0.279   0.975  13.417  0.0113  0.3359  0.4579
  821MPD2    C312079   0.299   1.009  13.283  0.4686 -0.2525 -0.0323
  821MPD2    C412080   0.196   1.041  13.199  0.4677  0.4831  0.3901
  821MPD2    C512081   0.070   1.049  13.254  0.0482  0.3266  0.8006
  821MPD2     H12082   0.362   0.944  13.479  0.6647  1.2562  0.0285
  821MPD2    H112083   0.216   1.068  13.096  0.5475 -0.1016  0.2559
  821MPD2    H212084   4.671   1.032  13.414  0.1728  0.2556 -1.4760
  821MPD2    H312085   4.706   1.090  13.206  0.9354 -0.6248 -1.6265
  821MPD2     N12086   0.420   1.006  13.218  0.0169 -0.0631  0.6293
  821MPD2    H512087   0.429   1.041  13.123  1.5938  2.0074  1.5266
  821MPD2    N112088   0.136   0.980  13.618 -0.4131 -0.3352 -0.2960
  821MPD2    H712089   0.227   0.981  13.664 -1.5005 -3.5162  1.9258
  822MPD2     C12090   0.241   1.096  15.565 -0.5467 -0.1723  0.3203
  822MPD2    C112091   0.156   1.061  15.667 -0.2665  0.1660 -0.4188
  822MPD2    C212092   0.075   1.157  15.720  0.2060  0.2799  0.6590
  822MPD2    C312093   0.092   1.290  15.684 -0.8022  0.0330  0.6326
  822MPD2    C412094   0.177   1.326  15.586 -0.5231  0.1249 -0.5294
  822MPD2    C512095   0.248   1.225  15.523 -0.3544 -0.1557 -0.2722
  822MPD2     H12096   0.005   1.130  15.798 -0.0390  2.6285  1.2461
  822MPD2    H112097   0.185   1.426  15.544 -1.0611  0.1745 -0.5051
  822MPD2    H212098   0.292   1.020  15.507 -1.3195 -2.7424  3.0012
  822MPD2    H312099   0.317   1.240  15.441 -0.6193 -0.0632 -0.4784
  822MPD2     N12100   0.028   1.385  15.770  0.0290  0.0304  0.2213
  822MPD2    H512101   4.712   1.351  15.857 -0.3445  2.4535  1.0026
  822MPD2    N112102   0.157   0.927  15.719 -0.0864 -0.9540 -0.2478
  822MPD2    H712103   0.109   0.915  15.808 -1.0134 -1.6076 -0.8425
  823MPD2     C12104   4.337   1.636  16.447 -0.4177 -0.4300  0.0826
  823MPD2    C112105   4.398   1.551  16.357 -0.1520 -0.0472  0.1201
  823MPD2    C212106   4.452   1.437  16.405  0.2060 -0.1328 -0.0656
  823MPD2    C312107   4.472   1.417  16.543 -0.2234 -0.1387 -0.3342
  823MPD2    C412108   4.408   1.500  16.632 -0.7377 -0.4462 -0.0508
  823MPD2    C512109   4.346   1.613  16.582  0.0954 -0.4800 -0.6777
  823MPD2     H12110   4.472   1.357  16.334 -1.7881 -0.5089 -0.2061
  823MPD2    H112111   4.412   1.484  16.739  0.5547 -0.3859 -0.0839
  823MPD2    H212112   4.290   1.729  16.419  1.0807 -0.3599 -2.2044
  823MPD2    H312113   4.306   1.690  16.648  0.8254  0.0004 -0.7915
  823MPD2     N12114   4.530   1.303  16.597 -0.0929 -0.1135  0.1920
  823MPD2    H512115   4.535   1.300  16.698  2.3490 -0.7977  0.0561
  823MPD2    N112116   4.405   1.580  16.219  0.0734  0.3565  0.1097
  823MPD2    H712117   4.412   1.680  16.200 -3.4132  0.5728  0.0052
  824MPD2     C12118   0.432   0.088  15.580 -0.1226 -0.1145  0.4607
  824MPD2    C112119   0.510   0.161  15.669  0.2051 -0.2891 -0.4279
  824MPD2    C212120   0.637   0.131  15.702 -0.9992 -0.2855 -0.4954
  824MPD2    C312121   0.692   0.020  15.641 -0.2830  0.4517  0.3922
  824MPD2    C412122   0.611   4.663  15.564 -0.5509 -1.2658  0.1784
  824MPD2    C512123   0.483   4.694  15.529 -0.2714  0.4806  0.4626
  824MPD2     H12124   0.691   0.203  15.763  1.0179 -0.1766 -2.4383
  824MPD2    H112125   0.652   4.571  15.524 -2.5567 -1.3838 -1.6231
  824MPD2    H212126   0.332   0.116  15.550 -0.0108 -0.0102  0.1806
  824MPD2    H312127   0.428   4.627  15.463 -3.1782  1.9559  1.3985
  824MPD2     N12128   0.837   4.724  15.663  0.4435 -0.0436 -0.0883
  824MPD2    H512129   0.886   0.068  15.719 -2.1347  0.3356  1.7248
  824MPD2    N112130   0.462   0.283  15.718 -0.7268  0.2100 -0.3051
  824MPD2    H712131   0.523   0.328  15.786 -0.9267  0.1956 -0.1150
  825MPD2     C12132   1.600   4.722  15.315 -0.0895 -0.0876  0.1871
  825MPD2    C112133   1.511   0.064  15.399 -0.2330  0.2512 -0.3580
  825MPD2    C212134   1.497   0.201  15.372 -0.2058 -1.1782 -0.2801
  825MPD2    C312135   1.582   0.262  15.274 -0.4515  0.5482 -0.1401
  825MPD2    C412136   1.670   0.180  15.198 -0.1339 -0.0058 -0.1102
  825MPD2    C512137   1.677   0.051  15.220  0.2814 -0.5878  0.1664
  825MPD2     H12138   1.424   0.261  15.424  0.8073  0.7492 -1.0896
  825MPD2    H112139   1.721   0.215  15.110  0.7102 -0.6941  0.1045
  825MPD2    H212140   1.617   4.615  15.324  2.0731  0.2737  0.3068
  825MPD2    H312141   1.735   4.714  15.152  2.1186  2.1019 -0.7144
  825MPD2     N12142   1.579   0.397  15.245 -0.2913  0.2585  0.2930
  825MPD2    H512143   1.639   0.424  15.168 -1.3496  1.6055 -0.0590
  825MPD2    N112144   1.429   4.714  15.486 -0.0771 -0.4871 -0.0999
  825MPD2    H712145   1.437   4.613  15.493  0.2966 -0.4016  0.7808
  826MPD2     C12146   1.189   0.332  13.699 -0.3441  1.1071  0.3915
  826MPD2    C112147   1.092   0.343  13.612 -0.9711 -0.1886 -0.2515
  826MPD2    C212148   0.980   0.426  13.639  1.2467  0.0894 -0.3760
  826MPD2    C312149   0.971   0.498  13.758 -0.0597  0.3881 -0.0349
  826MPD2    C412150   1.070   0.477  13.849 -0.9971  0.7771 -0.2799
  826MPD2    C512151   1.174   0.392  13.821 -0.3957 -0.1266 -0.0909
  826MPD2     H12152   0.891   0.414  13.578  0.8622 -0.2512  0.2511
  826MPD2    H112153   1.072   0.525  13.946 -0.6889 -0.1025  0.1502
  826MPD2    H212154   1.275   0.266  13.694 -1.8598 -0.9527  1.4137
  826MPD2    H312155   1.246   0.380  13.901  1.0765  0.1016 -1.3897
  826MPD2     N12156   0.855   0.566  13.800  0.4029 -0.3056  0.1681
  826MPD2    H512157   0.866   0.605  13.892 -1.2680 -2.8967  1.4946
  826MPD2    N112158   1.095   0.273  13.494 -0.3586  0.5844  0.3861
  826MPD2    H712159   1.178   0.214  13.496 -0.6848  0.1033 -0.1650
  827MPD2     C12160   2.409   1.547  10.233 -0.4742 -0.2403  0.5569
  827MPD2    C112161   2.323   1.536  10.342 -0.0235  0.1156  0.4538
  827MPD2    C212162   2.219   1.452  10.329  0.2628 -0.3127  0.1041
  827MPD2    C312163   2.191   1.387  10.208  0.0718  0.6296 -0.5049
  827MPD2    C412164   2.265   1.414  10.094  0.2572 -0.3138 -0.2657
  827MPD2    C512165   2.380   1.491  10.114  0.5400  0.3509 -0.3281
  827MPD2     H12166   2.155   1.436  10.415 -0.8919 -0.3640 -0.7671
  827MPD2    H112167   2.236   1.362  10.004  2.4182 -0.1827 -1.0531
  827MPD2    H212168   2.501   1.605  10.244  0.1003 -1.0251 -0.1478
  827MPD2    H312169   2.444   1.516  10.030 -1.1301  1.6478 -1.2130
  827MPD2     N12170   2.078   1.306  10.213  0.3103  0.2565  0.2159
  827MPD2    H512171   2.045   1.286  10.307  0.4985 -1.0172  0.0109
  827MPD2    N112172   2.362   1.595  10.466 -0.4113 -0.2580  0.2833
  827MPD2    H712173   2.455   1.635  10.478 -1.3023  1.6557  0.7557
  828MPD2     C12174   0.227   1.476  12.499  0.1536 -0.1129 -0.2440
  828MPD2    C112175   0.198   1.503  12.367 -0.2809 -0.0464 -0.4201
  828MPD2    C212176   0.304   1.525  12.289 -0.8828 -0.2310  0.0789
  828MPD2    C312177   0.431   1.491  12.331 -0.1497 -0.8806 -0.1454
  828MPD2    C412178   0.456   1.467  12.469 -0.4792  0.6341  0.2131
  828MPD2    C512179   0.354   1.468  12.551  0.0680  0.8077  0.0934
  828MPD2     H12180   0.281   1.546  12.186 -0.5430  0.4510  0.1390
  828MPD2    H112181   0.554   1.442  12.509 -0.9100  1.5320  1.8274
  828MPD2    H212182   0.144   1.450  12.564 -0.3846 -0.6052 -1.1241
  828MPD2    H312183   0.371   1.439  12.654 -0.3506 -0.2210 -0.1335
  828MPD2     N12184   0.545   1.479  12.250  0.4289 -0.3175 -0.4099
  828MPD2    H512185   0.630   1.468  12.304 -1.4541  0.5896  2.7703
  828MPD2    N112186   0.069   1.505  12.304 -0.4551  0.4260 -0.2877
  828MPD2    H712187   0.067   1.508  12.202  0.6430 -0.5024 -0.3373
  829MPD2     C12188   4.632   1.505  11.456  0.3589 -0.3532 -0.3512
  829MPD2    C112189   4.510   1.456  11.497 -0.4478  0.1756  0.7298
  829MPD2    C212190   4.483   1.479  11.631 -0.2263 -0.0415 -0.1477
  829MPD2    C312191   4.572   1.535  11.719  0.3549  0.4237  0.2409
  829MPD2    C412192   4.687   1.586  11.669  0.5178  0.5831  0.0707
  829MPD2    C512193   4.720   1.566  11.547  0.1059 -0.0556  0.5718
  829MPD2     H12194   4.385   1.459  11.672 -0.1240  0.5064  0.3771
  829MPD2    H112195   0.042   1.626  11.731  2.2871 -1.0239 -1.1553
  829MPD2    H212196   4.671   1.501  11.355  0.7731  0.4391 -0.2225
  829MPD2    H312197   0.089   1.604  11.509 -0.4828  0.6259 -0.1853
  829MPD2     N12198   4.554   1.536  11.867  0.7108  0.2952  0.0260
  829MPD2    H512199   4.633   1.561  11.926  0.8172  0.0988 -0.0347
  829MPD2    N112200   4.421   1.403  11.401 -0.7509  0.0397  0.0076
  829MPD2    H712201   4.445   1.405  11.303  3.3004 -1.4488  0.9754
  830MPD2     C12202   0.625   4.180  15.635  0.4190  0.8429  0.6277
  830MPD2    C112203   0.539   4.245  15.559  0.7079 -0.0314 -0.0555
  830MPD2    C212204   0.581   4.309  15.446 -0.1358  0.0496 -0.6723
  830MPD2    C312205   0.721   4.306  15.420 -0.1048  0.2802  0.4163
  830MPD2    C412206   0.805   4.230  15.499 -0.2955  0.1225 -0.5376
  830MPD2    C512207   0.756   4.167  15.609  0.6538  0.0972  0.3791
  830MPD2     H12208   0.509   4.367  15.390 -0.2832 -0.0807 -0.6201
  830MPD2    H112209   0.912   4.230  15.480 -0.0913 -2.3000  0.5573
  830MPD2    H212210   0.589   4.138  15.728  0.0998 -1.8202 -0.6880
  830MPD2    H312211   0.812   4.103  15.676 -1.1250 -1.5937  0.2461
  830MPD2     N12212   0.778   4.388  15.323 -0.0471 -0.3838 -0.3834
  830MPD2    H512213   0.879   4.391  15.316 -0.1332  1.4955 -0.7884
  830MPD2    N112214   0.408   4.256  15.613 -0.1626 -0.2432 -0.1317
  830MPD2    H712215   0.391   4.223  15.707  0.6139 -0.2577 -0.0024
  831MPD2     C12216   0.239   1.406  16.061  0.4620  0.0327  0.6225
  831MPD2    C112217   0.258   1.277  16.006  0.5356 -0.7233 -0.3765
  831MPD2    C212218   0.165   1.182  16.021  0.3766 -0.0459  0.6609
  831MPD2    C312219   0.053   1.207  16.102 -0.4375  0.0508  0.3046
  831MPD2    C412220   0.048   1.322  16.171 -0.9351 -0.1145 -0.0183
  831MPD2    C512221   0.139   1.423  16.152 -0.2810 -0.0034 -0.8287
  831MPD2     H12222   0.170   1.087  15.970  2.1642  0.2466  0.2650
  831MPD2    H112223   4.697   1.361  16.238 -1.9872 -2.0123 -0.0913
  831MPD2    H212224   0.306   1.491  16.051 -1.0354  1.1149 -0.1201
  831MPD2    H312225   0.120   1.523  16.188 -0.6359 -0.8433  1.2897
  831MPD2     N12226   4.666   1.123  16.111  0.9917 -0.0005  0.5164
  831MPD2    H512227   4.593   1.162  16.170  0.2485 -0.7701  0.1046
  831MPD2    N112228   0.358   1.265  15.903  0.8490 -0.5561  0.1582
  831MPD2    H712229   0.413   1.346  15.879 -0.0810  0.0569  0.0722
  832MPD2     C12230   3.270   1.699  17.289  0.7386 -0.0001 -0.1327
  832MPD2    C112231   3.278   1.826  17.246  0.1360  0.4433  0.1004
  832MPD2    C212232   3.166   1.878  17.177 -0.3829 -0.0039 -0.4852
  832MPD2    C312233   3.045   1.806  17.167 -0.1148 -0.5770  0.2245
  832MPD2    C412234   3.035   1.677  17.224  0.5860 -0.7464 -0.4671
  832MPD2    C512235   3.150   1.630  17.288 -0.0767 -0.3005  0.4261
  832MPD2     H12236   3.174   1.981  17.142 -1.5032  0.5547  0.9204
  832MPD2    H112237   2.940   1.625  17.215 -0.3529  0.4935  2.3039
  832MPD2    H212238   3.351   1.653  17.344  0.9979  0.8038  0.1645
  832MPD2    H312239   3.136   1.536  17.340  0.4590 -2.9510 -4.2539
  832MPD2     N12240   2.932   1.851  17.097  0.0309  0.2114 -0.0324
  832MPD2    H512241   2.856   1.785  17.092  0.4674 -0.3891  1.4356
  832MPD2    N112242   3.394   1.897  17.269  0.2224  0.0480 -0.4278
  832MPD2    H712243   3.472   1.843  17.304 -0.2469 -0.8343 -0.7501
  833MPD2     C12244   0.727   3.768  12.181  0.6243 -1.0131  0.1674
  833MPD2    C112245   0.738   3.884  12.106  0.3423 -0.4674  0.1294
  833MPD2    C212246   0.795   3.884  11.979 -0.4767 -0.2369 -0.4066
  833MPD2    C312247   0.845   3.763  11.930 -0.2684 -0.4639  0.5678
  833MPD2    C412248   0.828   3.646  12.003  0.2803  0.9024  0.4545
  833MPD2    C512249   0.768   3.647  12.126 -0.0811  0.4262  0.6554
  833MPD2     H12250   0.782   3.969  11.914  1.0162  0.4230  0.1527
  833MPD2    H112251   0.859   3.546  11.973 -1.7144  1.3334 -2.9899
  833MPD2    H212252   0.676   3.765  12.277 -1.0752 -0.3647 -0.7294
  833MPD2    H312253   0.759   3.553  12.178 -1.5704 -0.4588 -1.1801
  833MPD2     N12254   0.917   3.753  11.806 -0.1093  0.1931  0.0110
  833MPD2    H512255   0.942   3.662  11.771  0.0064 -0.0103  0.6163
  833MPD2    N112256   0.690   4.004  12.159 -0.2824 -0.3048 -0.4682
  833MPD2    H712257   0.627   4.009  12.238 -2.0973  0.5836 -1.9759
  834MPD2     C12258   0.685   3.443  10.866 -0.3519  0.0033  0.0082
  834MPD2    C112259   0.813   3.486  10.861  0.2635 -0.1250  0.2010
  834MPD2    C212260   0.869   3.559  10.961 -0.0726  0.5386  0.3932
  834MPD2    C312261   0.802   3.598  11.079  0.3261 -0.2226  1.0259
  834MPD2    C412262   0.669   3.566  11.082  0.1667 -0.2408 -0.2719
  834MPD2    C512263   0.611   3.497  10.977 -0.0310 -0.1150 -0.2561
  834MPD2     H12264   0.973   3.591  10.958  0.5360 -1.5698 -0.8569
  834MPD2    H112265   0.593   3.613  11.145  0.5153  0.6256 -0.4914
  834MPD2    H212266   0.636   3.381  10.792  2.0159 -1.9470  0.0710
  834MPD2    H312267   0.504   3.481  10.982  0.0946 -1.1094 -0.7730
  834MPD2     N12268   0.871   3.677  11.174 -0.2170  0.5235  0.1737
  834MPD2    H512269   0.955   3.726  11.144 -0.0328 -1.2981 -2.2943
  834MPD2    N112270   0.888   3.436  10.749 -0.5247 -0.3539 -0.1042
  834MPD2    H712271   0.840   3.381  10.679  0.2219  1.1272 -1.7669
  835MPD2     C12272   1.142   1.538  11.681  0.1713  0.7952  0.1121
  835MPD2    C112273   1.133   1.673  11.710  0.2280 -0.1838 -0.4254
  835MPD2    C212274   1.177   1.720  11.839  0.1720  0.3311  1.2513
  835MPD2    C312275   1.229   1.626  11.926 -1.1091 -0.0182 -0.1402
  835MPD2    C412276   1.233   1.493  11.890  0.1870  0.3738  0.4060
  835MPD2    C512277   1.193   1.448  11.770  0.0889  0.1060 -1.0333
  835MPD2     H12278   1.162   1.824  11.865  0.3352  0.1334  2.1382
  835MPD2    H112279   1.283   1.416  11.947  0.5995  0.8685  0.7209
  835MPD2    H212280   1.109   1.503  11.583  0.5793  2.1181 -0.5031
  835MPD2    H312281   1.207   1.347  11.733  0.7046 -0.1955  0.0364
  835MPD2     N12282   1.279   1.658  12.050  0.4597  0.1605  0.1886
  835MPD2    H512283   1.329   1.588  12.104  0.9258 -1.0975 -1.8681
  835MPD2    N112284   1.094   1.774  11.616 -0.5269  0.1759 -0.2191
  835MPD2    H712285   1.064   1.865  11.648  2.2934  0.7599  0.7467
  836MPD2     C12286   1.396   1.862  12.864 -0.5292  0.4717 -0.1941
  836MPD2    C112287   1.339   1.932  12.766  0.3409  0.1641  0.1416
  836MPD2    C212288   1.224   2.013  12.790  0.2203 -0.5608 -0.3494
  836MPD2    C312289   1.165   1.995  12.916 -0.0435 -0.8757 -0.3628
  836MPD2    C412290   1.215   1.908  13.012  0.3859  0.3235  0.1611
  836MPD2    C512291   1.335   1.852  12.987 -0.8727  0.3691  0.5316
  836MPD2     H12292   1.176   2.065  12.708  1.5409 -1.1245 -1.5006
  836MPD2    H112293   1.173   1.903  13.112 -0.2878  1.2305 -0.0814
  836MPD2    H212294   1.487   1.804  12.849 -1.2723 -0.9870  0.9051
  836MPD2    H312295   1.389   1.798  13.064 -0.7769 -0.2614  0.0260
  836MPD2     N12296   1.041   2.058  12.946  0.0688 -0.7860  0.5292
  836MPD2    H512297   0.996   2.009  13.023 -2.4128  0.9953  0.2229
  836MPD2    N112298   1.402   1.911  12.638 -0.3586  0.4072  0.6447
  836MPD2    H712299   1.477   1.844  12.630  0.5588  1.6226 -1.0084
  837MPD2     C12300   0.053   1.793   9.405  0.1419  0.2389 -0.0996
  837MPD2    C112301   4.664   1.832   9.463  0.3393 -0.0411  0.5890
  837MPD2    C212302   4.643   1.969   9.489 -0.2704 -0.4423  0.5670
  837MPD2    C312303   0.024   2.061   9.460  0.3356  0.7885 -0.2415
  837MPD2    C412304   0.143   2.011   9.407 -0.1536  0.0123 -0.1386
  837MPD2    C512305   0.149   1.879   9.385 -0.4685  0.2562  0.0981
  837MPD2     H12306   4.549   2.011   9.523  0.9021  0.4323  2.7040
  837MPD2    H112307   0.230   2.076   9.402  0.9674 -1.5397 -0.9238
  837MPD2    H212308   0.071   1.691   9.375  1.0131 -0.2894  2.2720
  837MPD2    H312309   0.244   1.847   9.345 -1.5858 -0.5420 -1.9365
  837MPD2     N12310   4.704   2.191   9.477  0.5431  0.6149  0.5124
  837MPD2    H512311   4.616   2.207   9.526 -0.8795 -1.2162 -1.4273
  837MPD2    N112312   4.552   1.745   9.481 -0.8305  0.2124  0.8108
  837MPD2    H712313   4.470   1.785   9.525 -0.5276  1.3983  0.2970
  838MPD2     C12314   3.313   4.601  11.250  0.4339 -0.4848  0.4630
  838MPD2    C112315   3.208   4.516  11.231 -0.1294 -1.1199  0.4560
  838MPD2    C212316   3.119   4.492  11.333 -0.3942 -0.1519 -0.4382
  838MPD2    C312317   3.132   4.562  11.450  0.3908  0.4490 -0.3406
  838MPD2    C412318   3.236   4.647  11.477 -0.2152  0.5021 -0.1498
  838MPD2    C512319   3.325   4.661  11.378 -0.1436  0.1936 -0.4973
  838MPD2     H12320   3.039   4.421  11.317 -0.8655  0.0482  1.0104
  838MPD2    H112321   3.241   4.704  11.569 -0.1596  0.2534  0.0007
  838MPD2    H212322   3.374   4.631  11.165  1.4304 -0.8743  1.0549
  838MPD2    H312323   3.408   0.002  11.400  0.6267 -0.6033 -1.0116
  838MPD2     N12324   3.027   4.556  11.546 -0.0121  0.0978 -0.0027
  838MPD2    H512325   3.028   4.633  11.612 -1.4336  1.8603 -2.0389
  838MPD2    N112326   3.171   4.454  11.106 -0.9137 -0.2756  0.1821
  838MPD2    H712327   3.087   4.398  11.115 -0.9178 -0.5432 -1.4259
  839MPD2     C12328   2.415   4.598  11.142  0.2273  0.3034 -0.0898
  839MPD2    C112329   2.454   4.468  11.117 -0.1857 -0.7171  0.7193
  839MPD2    C212330   2.570   4.450  11.048 -0.5173 -0.0151 -0.1563
  839MPD2    C312331   2.656   4.547  11.004 -0.9966 -0.5144 -0.4246
  839MPD2    C412332   2.612   4.673  11.021 -0.8035 -0.4188  0.0273
  839MPD2    C512333   2.495   4.698  11.093 -0.4315  0.2865 -0.1955
  839MPD2     H12334   2.594   4.345  11.036 -2.4168 -0.8029  2.9624
  839MPD2    H112335   2.670   0.026  10.974  0.4799 -1.4701 -0.1172
  839MPD2    H212336   2.322   4.621  11.193 -0.1930 -0.7352 -0.4102
  839MPD2    H312337   2.473   0.080  11.102  2.1400  0.6987  1.4108
  839MPD2     N12338   2.771   4.537  10.923 -0.3423  0.2376 -0.2240
  839MPD2    H512339   2.829   4.617  10.900 -0.4661  1.5158  3.9135
  839MPD2    N112340   2.373   4.363  11.160 -0.2326  0.2725 -0.3700
  839MPD2    H712341   2.402   4.270  11.132 -2.0726 -0.9729  1.8321
  840MPD2     C12342   2.926   1.759  10.611 -0.2050 -0.0384 -0.0573
  840MPD2    C112343   2.859   1.811  10.722 -0.1364 -0.4511 -0.2718
  840MPD2    C212344   2.941   1.881  10.811  0.4227  0.3046 -0.2138
  840MPD2    C312345   3.077   1.898  10.802  0.4887  0.7958 -0.3619
  840MPD2    C412346   3.127   1.854  10.685  0.7069  0.7661 -0.1153
  840MPD2    C512347   3.053   1.787  10.593 -0.3675 -0.2822 -0.1362
  840MPD2     H12348   2.897   1.900  10.909 -0.3833  0.6281 -0.6387
  840MPD2    H112349   3.234   1.864  10.669  1.0743 -2.6830  0.3476
  840MPD2    H212350   2.874   1.700  10.538  1.4325  0.7398 -1.8617
  840MPD2    H312351   3.098   1.739  10.507  1.0636 -0.9523  0.9812
  840MPD2     N12352   3.164   1.964  10.895 -0.2325 -0.5910 -0.0853
  840MPD2    H512353   3.261   1.975  10.865 -1.0526  2.3142 -1.6943
  840MPD2    N112354   2.717   1.783  10.731  0.2721  0.6786 -0.8680
  840MPD2    H712355   2.666   1.734  10.659 -0.5180 -0.7642  0.6609
  841MPD2     C12356   1.851   1.089  15.165  0.5538  0.4409  0.3401
  841MPD2    C112357   1.833   1.088  15.033  0.1974 -0.5914 -0.0097
  841MPD2    C212358   1.780   1.194  14.970  0.3693 -0.1395 -0.7136
  841MPD2    C312359   1.742   1.303  15.042  0.6584  0.1622  0.5298
  841MPD2    C412360   1.774   1.310  15.177 -0.1724  0.0671  0.8178
  841MPD2    C512361   1.835   1.202  15.235 -0.2331  0.1480  0.5503
  841MPD2     H12362   1.764   1.192  14.862  1.9452  0.0139 -0.9611
  841MPD2    H112363   1.760   1.398  15.239  1.7069 -0.0158  1.3650
  841MPD2    H212364   1.912   1.013  15.212 -0.6175  0.8649  2.5283
  841MPD2    H312365   1.853   1.206  15.342 -1.6072  0.3935  0.7737
  841MPD2     N12366   1.694   1.419  14.975  0.7143 -0.0079  0.3478
  841MPD2    H512367   1.684   1.421  14.874  0.5925 -0.9333  0.3493
  841MPD2    N112368   1.884   0.979  14.954 -0.3111  0.3715 -0.2671
  841MPD2    H712369   1.874   0.975  14.853 -3.3403  0.9926  0.0066
  842MPD2     C12370   2.488   2.307  16.665  0.3835  0.2063  0.4892
  842MPD2    C112371   2.416   2.222  16.748 -0.1659  0.0151 -0.4109
  842MPD2    C212372   2.461   2.211  16.882 -0.1727  0.3665  0.7462
  842MPD2    C312373   2.565   2.289  16.927  0.2056 -0.3100  0.0095
  842MPD2    C412374   2.636   2.366  16.839 -0.2998  0.0867 -0.2757
  842MPD2    C512375   2.596   2.370  16.710 -0.3209 -0.0670  0.7481
  842MPD2     H12376   2.394   2.170  16.957  0.6942 -0.7801  0.8940
  842MPD2    H112377   2.729   2.417  16.861  1.6345 -2.1378 -3.1712
  842MPD2    H212378   2.463   2.307  16.559  1.9479 -0.5029  0.1029
  842MPD2    H312379   2.660   2.427  16.643 -1.1159 -0.8703 -0.6866
  842MPD2     N12380   2.611   2.288  17.059 -0.0422 -0.0837  0.4145
  842MPD2    H512381   2.685   2.355  17.079  1.5632 -1.5184 -0.7455
  842MPD2    N112382   2.295   2.177  16.696  1.1413 -0.0384 -0.6433
  842MPD2    H712383   2.291   2.201  16.598  0.2225 -2.1838 -1.1245
  843MPD2     C12384   0.418   2.463   0.919 -0.9287  0.0920 -0.1164
  843MPD2    C112385   0.307   2.507   0.847  0.2310  0.2663 -0.1007
  843MPD2    C212386   0.329   2.574   0.732 -0.1668  0.3077 -0.1898
  843MPD2    C312387   0.454   2.595   0.680  0.5053  0.4212  0.3312
  843MPD2    C412388   0.560   2.557   0.753  0.4934 -0.0443  0.5637
  843MPD2    C512389   0.548   2.482   0.868 -0.4213  0.3489 -0.4003
  843MPD2     H12390   0.244   2.598   0.668 -1.3712 -0.8241  0.9820
  843MPD2    H112391   0.660   2.588   0.726 -0.2860  0.1738 -2.0747
  843MPD2    H212392   0.406   2.409   1.012 -0.4062  1.1814  0.5677
  843MPD2    H312393   0.627   2.431   0.920  0.0712  0.1964 -1.3028
  843MPD2     N12394   0.483   2.674   0.568 -0.3227 -0.3710 -0.4921
  843MPD2    H512395   0.583   2.686   0.554 -0.3277  0.6669  0.3291
  843MPD2    N112396   0.174   2.488   0.896 -0.5458  0.7799 -0.2988
  843MPD2    H712397   0.166   2.451   0.991  0.8670  0.2819 -0.3676
  844MPD2     C12398   2.443   1.357  16.704  0.2527  0.1268  0.9139
  844MPD2    C112399   2.533   1.262  16.733  0.4562 -1.0233 -0.2191
  844MPD2    C212400   2.666   1.306  16.744  0.3102  0.2033 -0.3170
  844MPD2    C312401   2.710   1.433  16.749 -0.6038  0.6211  0.5021
  844MPD2    C412402   2.608   1.523  16.748  0.1400  0.1083  0.2465
  844MPD2    C512403   2.481   1.488  16.716  0.0997  0.6350 -0.3429
  844MPD2     H12404   2.743   1.230  16.746  0.6069  0.5280  0.6230
  844MPD2    H112405   2.618   1.630  16.764  2.7295 -0.1445  0.2000
  844MPD2    H212406   2.341   1.336  16.677  0.3269 -0.7670  1.3409
  844MPD2    H312407   2.413   1.572  16.711  0.0027  0.6500  1.2123
  844MPD2     N12408   2.849   1.457  16.780 -0.0536  0.7905  0.1960
  844MPD2    H512409   2.911   1.377  16.779 -2.6280 -1.1885 -0.7348
  844MPD2    N112410   2.503   1.122  16.731 -0.2136  0.5154  0.6739
  844MPD2    H712411   2.578   1.054  16.739  0.0039  0.6890  0.0931
  845MPD2     C12412   3.468   2.275  16.833 -0.1333 -0.4810 -0.3084
  845MPD2    C112413   3.348   2.271  16.892 -0.9206 -0.0157  1.2649
  845MPD2    C212414   3.282   2.154  16.916  0.2928  0.0417  0.3837
  845MPD2    C312415   3.337   2.038  16.872 -0.3257 -0.1254  0.3447
  845MPD2    C412416   3.462   2.038  16.809 -0.8607 -0.2921 -0.0533
  845MPD2    C512417   3.526   2.155  16.802  0.0704  0.1120  0.2179
  845MPD2     H12418   3.182   2.152  16.959 -0.9180 -1.4081 -2.5186
  845MPD2    H112419   3.516   1.950  16.777  0.4932  1.0063 -1.3650
  845MPD2    H212420   3.515   2.371  16.812 -0.5599 -0.2800 -0.3340
  845MPD2    H312421   3.630   2.164  16.772  0.1475 -3.2999 -0.4338
  845MPD2     N12422   3.264   1.914  16.887 -0.0254 -0.2631  0.7293
  845MPD2    H512423   3.169   1.931  16.920  0.0064  1.7039 -0.1908
  845MPD2    N112424   3.292   2.396  16.920  0.1492 -0.0516 -0.6174
  845MPD2    H712425   3.341   2.481  16.893 -1.0248  0.5754 -0.7710
  846MPD2     C12426   0.024   3.358  13.332  0.0093  0.0672 -0.0785
  846MPD2    C112427   4.683   3.474  13.372 -0.9858  0.1868 -0.2172
  846MPD2    C212428   4.630   3.477  13.500 -0.1334 -0.0888 -0.3456
  846MPD2    C312429   4.665   3.382  13.600 -0.3631  0.0927 -0.1274
  846MPD2    C412430   0.016   3.272  13.556  0.6575  0.4453  0.6257
  846MPD2    C512431   0.050   3.263  13.424  0.0848 -0.3680 -0.1670
  846MPD2     H12432   4.577   3.567  13.530  0.4710  0.3597 -0.6214
  846MPD2    H112433   0.052   3.187  13.613 -0.4777 -0.5999 -0.2111
  846MPD2    H212434   0.080   3.348  13.240 -1.4696 -0.2502 -0.9379
  846MPD2    H312435   0.118   3.186  13.390  2.8447  1.4496  1.2171
  846MPD2     N12436   4.635   3.414  13.736 -0.2154  0.4810  0.6678
  846MPD2    H512437   4.599   3.507  13.753 -1.8751 -0.2960  1.5065
  846MPD2    N112438   4.667   3.591  13.292  0.0941 -0.3034 -0.1372
  846MPD2    H712439   4.637   3.675  13.341 -0.3692  0.7423 -2.2134
  847MPD2     C12440   0.783   0.236  13.931 -0.2162 -0.5369  0.2913
  847MPD2    C112441   0.674   0.217  14.011 -0.3455 -0.6530  0.4798
  847MPD2    C212442   0.578   0.118  13.989  0.3038 -1.4297  0.2153
  847MPD2    C312443   0.601   0.026  13.893 -0.3504 -0.5027 -0.2278
  847MPD2    C412444   0.712   0.051  13.813 -0.5363  1.0328  0.4630
  847MPD2    C512445   0.799   0.146  13.833 -0.7503 -0.5711 -0.0969
  847MPD2     H12446   0.493   0.127  14.056  0.8077  0.4040  0.5923
  847MPD2    H112447   0.744   4.708  13.735 -2.6095  0.5790  0.0111
  847MPD2    H212448   0.865   0.303  13.956  0.6935 -0.0069 -3.9942
  847MPD2    H312449   0.886   0.145  13.768  0.8574 -0.7179  2.0679
  847MPD2     N12450   0.514   4.644  13.882 -0.1003  0.1088 -0.3537
  847MPD2    H512451   0.554   4.579  13.816  0.6544  1.2103 -0.9807
  847MPD2    N112452   0.655   0.290  14.124 -1.2024  0.0598 -0.1278
  847MPD2    H712453   0.578   0.272  14.188 -1.6717  1.7129 -0.2286
  848MPD2     C12454   2.595   1.966  16.355  0.4492  0.0466  0.4773
  848MPD2    C112455   2.648   2.054  16.449  0.2340 -0.6632 -0.3214
  848MPD2    C212456   2.686   2.181  16.399  0.3283 -0.3461 -1.0488
  848MPD2    C312457   2.662   2.216  16.262  0.3034  0.8837 -0.0996
  848MPD2    C412458   2.614   2.124  16.174  0.0057  0.1544  0.4228
  848MPD2    C512459   2.580   2.005  16.222  0.1669 -0.2986  0.4361
  848MPD2     H12460   2.707   2.262  16.468 -1.0861 -1.3395  0.5530
  848MPD2    H112461   2.610   2.138  16.066 -0.2044 -1.9290  0.1522
  848MPD2    H212462   2.556   1.870  16.384  0.0919  0.3150  0.8880
  848MPD2    H312463   2.529   1.939  16.152 -1.9152  0.2008  1.4700
  848MPD2     N12464   2.695   2.345  16.215  0.1751 -0.0052 -0.0958
  848MPD2    H512465   2.676   2.372  16.119  4.7718 -1.2093 -1.3390
  848MPD2    N112466   2.665   2.038  16.590  0.2814 -0.2049  0.0001
  848MPD2    H712467   2.712   2.105  16.650  1.3157 -0.0838 -0.9427
  849MPD2     C12468   1.915   2.373  13.906  0.1725  0.4185  0.0343
  849MPD2    C112469   2.033   2.323  13.962 -0.5121  0.2689 -0.1599
  849MPD2    C212470   2.035   2.247  14.077 -0.0748 -0.2244  0.0450
  849MPD2    C312471   1.915   2.176  14.113 -1.0574 -0.5889  0.3291
  849MPD2    C412472   1.797   2.217  14.050 -0.1368  0.4921  0.8147
  849MPD2    C512473   1.803   2.312  13.951  0.3579  0.9167  0.1253
  849MPD2     H12474   2.129   2.223  14.124 -0.4338 -0.6569  0.5437
  849MPD2    H112475   1.700   2.176  14.076 -0.7814  2.3129  1.2702
  849MPD2    H212476   1.905   2.429  13.814 -1.4827 -0.0045 -0.0455
  849MPD2    H312477   1.709   2.331  13.902  0.7490 -0.0467 -0.9870
  849MPD2     N12478   1.899   2.081  14.218 -0.4468  0.0157  0.3167
  849MPD2    H512479   1.816   2.026  14.234  0.9399 -2.0838  0.3502
  849MPD2    N112480   2.160   2.365  13.912 -0.4210  0.0495  0.0884
  849MPD2    H712481   2.243   2.328  13.956 -1.7862 -0.0096  2.6065
  850MPD2     C12482   0.592   0.790  14.651  0.6235  0.0266 -0.6035
  850MPD2    C112483   0.570   0.712  14.760  0.4105 -0.4020 -0.5174
  850MPD2    C212484   0.658   0.615  14.808  0.0776 -0.2494 -0.5165
  850MPD2    C312485   0.776   0.596  14.732  0.5389  0.3242 -0.1346
  850MPD2    C412486   0.800   0.674  14.622  0.0878  1.0057 -0.6384
  850MPD2    C512487   0.710   0.771  14.585  0.3425 -0.6327  0.6015
  850MPD2     H12488   0.640   0.559  14.899 -1.2697 -0.3448 -0.8407
  850MPD2    H112489   0.893   0.661  14.567 -0.4275  1.6515 -1.6383
  850MPD2    H212490   0.518   0.863  14.619 -1.5103 -1.4445  0.9917
  850MPD2    H312491   0.726   0.823  14.492  0.0309 -0.9981  0.3444
  850MPD2     N12492   0.877   0.509  14.770 -1.0763 -0.1995 -0.7934
  850MPD2    H512493   0.960   0.515  14.711  1.5112  0.3176  2.8669
  850MPD2    N112494   0.452   0.741  14.820 -0.0965  0.3223 -0.3058
  850MPD2    H712495   0.396   0.819  14.789  1.0236  1.3513  0.2821
  851MPD2     C12496   0.648   0.542  15.522  0.1133  0.4912 -0.3776
  851MPD2    C112497   0.566   0.495  15.419  0.8278 -0.3793 -0.1205
  851MPD2    C212498   0.607   0.378  15.356 -0.2725  0.3706  0.4767
  851MPD2    C312499   0.723   0.319  15.388  0.2520 -0.3794  1.0925
  851MPD2    C412500   0.799   0.360  15.498 -0.4081  0.4952  0.5528
  851MPD2    C512501   0.750   0.465  15.573  0.1637 -0.7286  0.2290
  851MPD2     H12502   0.539   0.332  15.286 -0.8999  0.0190  1.3199
  851MPD2    H112503   0.894   0.314  15.522 -0.9758 -0.5402  0.8424
  851MPD2    H212504   0.641   0.643  15.559 -1.8880 -0.1006  0.8189
  851MPD2    H312505   0.802   0.509  15.658  2.0655 -0.1408 -1.2195
  851MPD2     N12506   0.759   0.218  15.303 -0.0834  0.3116  0.2392
  851MPD2    H512507   0.702   0.192  15.223  0.3175  0.2830 -0.0385
  851MPD2    N112508   0.450   0.569  15.389 -0.5314 -0.0291  0.0485
  851MPD2    H712509   0.433   0.644  15.455  0.6135 -0.8283  1.2222
  852MPD2     C12510   0.921   3.449   9.512 -0.6483  0.4851 -0.1314
  852MPD2    C112511   0.997   3.520   9.602  0.0832 -0.1281  0.1917
  852MPD2    C212512   0.997   3.657   9.593  0.1467  0.0829  0.7407
  852MPD2    C312513   0.924   3.730   9.502 -0.5667  0.1863 -0.3715
  852MPD2    C412514   0.842   3.657   9.419  0.2171 -0.8249 -0.1407
  852MPD2    C512515   0.840   3.521   9.423 -0.5629 -0.3115  0.0159
  852MPD2     H12516   1.061   3.705   9.666  1.2764  0.7282 -0.6628
  852MPD2    H112517   0.774   3.694   9.343  0.2274 -1.4466 -0.4522
  852MPD2    H212518   0.923   3.341   9.504 -1.8769  0.4419  0.1331
  852MPD2    H312519   0.789   3.472   9.342  0.5037  0.8160 -1.3425
  852MPD2     N12520   0.913   3.873   9.518 -0.8494 -0.2668  0.2269
  852MPD2    H512521   0.952   3.917   9.600 -1.7423 -0.4121  0.7253
  852MPD2    N112522   1.068   3.457   9.708  0.3141 -0.1164  0.0170
  852MPD2    H712523   1.118   3.516   9.774  0.6067  0.7055 -0.9422
  853MPD2     C12524   1.858   2.872  12.551 -0.2943  1.2347  0.0971
  853MPD2    C112525   1.829   3.008  12.533 -0.0801 -0.3595  0.2128
  853MPD2    C212526   1.917   3.090  12.458 -0.2105 -0.4633  0.0393
  853MPD2    C312527   2.016   3.035  12.386 -0.4456 -0.0810  0.1563
  853MPD2    C412528   2.037   2.897  12.405 -0.3963  0.2780  0.7590
  853MPD2    C512529   1.960   2.811  12.483 -0.0770 -0.2761  0.1575
  853MPD2     H12530   1.886   3.191  12.434 -2.1923 -1.1402 -0.1708
  853MPD2    H112531   2.119   2.865  12.343 -0.2588 -3.0854  2.6813
  853MPD2    H212532   1.804   2.808  12.619  2.7727  0.0399  1.4369
  853MPD2    H312533   1.990   2.708  12.486  0.5692 -0.1261 -1.2554
  853MPD2     N12534   2.082   3.094  12.278  0.0589  0.5866 -0.6962
  853MPD2    H512535   2.155   3.037  12.235 -1.1195  0.4053 -2.4175
  853MPD2    N112536   1.708   3.062  12.592 -0.2184 -0.0177  0.0665
  853MPD2    H712537   1.652   3.001  12.651  0.1957 -0.2116  0.2629
  854MPD2     C12538   3.291   2.401  12.610 -0.4720  0.3097  0.2969
  854MPD2    C112539   3.365   2.371  12.495 -0.3408 -0.5923  0.3373
  854MPD2    C212540   3.501   2.339  12.509  0.1837  0.1239 -0.8693
  854MPD2    C312541   3.560   2.353  12.638  0.4285 -0.3384  0.0690
  854MPD2    C412542   3.494   2.406  12.742  0.1773 -0.2695  0.6997
  854MPD2    C512543   3.357   2.428  12.732  0.2534  0.1124 -0.5169
  854MPD2     H12544   3.555   2.304  12.422  2.0397  1.4157 -0.2462
  854MPD2    H112545   3.539   2.446  12.832  0.0338  1.5312 -0.0297
  854MPD2    H212546   3.183   2.408  12.604 -0.5254 -1.0047 -0.2597
  854MPD2    H312547   3.307   2.462  12.823  0.8527  3.1151 -1.3022
  854MPD2     N12548   3.695   2.321  12.671 -0.4279 -0.4509  0.2094
  854MPD2    H512549   3.721   2.340  12.767 -0.4655 -0.8537  0.2997
  854MPD2    N112550   3.290   2.369  12.372  0.1034 -0.3340 -0.4652
  854MPD2    H712551   3.190   2.380  12.381  0.4620  3.1097 -0.7756
  855MPD2     C12552   4.294   2.674  13.249  0.2920 -0.4111  0.3951
  855MPD2    C112553   4.248   2.553  13.287 -0.2037 -0.6413 -0.1570
  855MPD2    C212554   4.210   2.467  13.186  0.1659 -0.1428 -0.0375
  855MPD2    C312555   4.212   2.505  13.054 -0.0271  0.3021  0.0564
  855MPD2    C412556   4.260   2.633  13.018 -0.7316  0.1060 -0.5020
  855MPD2    C512557   4.304   2.719  13.115  0.4446 -0.0282  0.8401
  855MPD2     H12558   4.170   2.369  13.212 -0.0626  0.0109  0.1908
  855MPD2    H112559   4.243   2.660  12.915 -2.3853  1.7144  0.2065
  855MPD2    H212560   4.342   2.734  13.326 -0.0146 -0.8962  0.9611
  855MPD2    H312561   4.351   2.815  13.097  1.4167 -0.8487 -0.9167
  855MPD2     N12562   4.150   2.428  12.953 -0.0185  0.1087  0.3997
  855MPD2    H512563   4.174   2.443  12.856  0.0259  0.2801  0.4371
  855MPD2    N112564   4.249   2.505  13.423 -0.0314  0.5369 -0.4058
  855MPD2    H712565   4.220   2.409  13.440 -0.0568  0.4215 -1.0918
  856MPD2     C12566   0.948   3.458  13.999  0.0296  0.3125  0.2926
  856MPD2    C112567   1.026   3.570  14.014  0.6687  0.7245  0.7508
  856MPD2    C212568   0.987   3.691  13.965 -0.1267  0.4939 -0.1543
  856MPD2    C312569   0.859   3.712  13.912  0.8186 -0.3717 -0.5133
  856MPD2    C412570   0.778   3.604  13.912  0.3782 -0.5740 -0.1652
  856MPD2    C512571   0.821   3.477  13.949  0.5433  0.1775 -0.7063
  856MPD2     H12572   1.062   3.769  13.966  0.5769 -0.2064  2.0509
  856MPD2    H112573   0.682   3.601  13.862  0.5148  1.6939 -0.5467
  856MPD2    H212574   0.972   3.362  14.042 -1.3516 -0.5021 -0.7651
  856MPD2    H312575   0.748   3.399  13.931  0.8986 -0.3442  0.0646
  856MPD2     N12576   0.816   3.833  13.853 -0.4050 -0.6020 -0.1447
  856MPD2    H512577   0.719   3.840  13.824 -0.0886  0.6562 -0.8894
  856MPD2    N112578   1.150   3.565  14.073  0.1126 -0.3971 -0.1731
  856MPD2    H712579   1.188   3.659  14.072  1.2105 -0.8624 -1.7158
  857MPD2     C12580   2.918   1.112  13.437 -0.4929 -0.4456 -0.4355
  857MPD2    C112581   3.025   1.124  13.356  0.6266  0.1967 -0.4155
  857MPD2    C212582   3.131   1.209  13.390 -0.8514 -0.5571  0.1669
  857MPD2    C312583   3.124   1.281  13.507  0.4915 -0.3010 -0.4081
  857MPD2    C412584   3.016   1.263  13.593 -0.1672 -0.6635 -0.8104
  857MPD2    C512585   2.915   1.180  13.555 -0.0325  0.2918 -0.8849
  857MPD2     H12586   3.223   1.220  13.332  0.6842  0.2148  2.7810
  857MPD2    H112587   3.001   1.315  13.687  2.2864 -0.7249 -0.3893
  857MPD2    H212588   2.835   1.043  13.424 -0.9967  0.2538 -0.9320
  857MPD2    H312589   2.829   1.160  13.618  1.0820  2.0388  1.2072
  857MPD2     N12590   3.233   1.355  13.544 -0.3934 -0.2936  0.2278
  857MPD2    H512591   3.324   1.339  13.503  0.1631  2.3503  0.4332
  857MPD2    N112592   3.022   1.037  13.239 -0.6886  0.1434  0.2405
  857MPD2    H712593   2.952   0.963  13.240 -0.5576  0.0151 -0.0384
  858MPD2     C12594   3.297   0.060  17.229  0.2292  0.6612 -0.6185
  858MPD2    C112595   3.402   4.701  17.203 -0.0928  0.1241 -0.5354
  858MPD2    C212596   3.505   4.690  17.298 -0.0505  0.2216  0.0912
  858MPD2    C312597   3.498   0.035  17.413  0.3803 -0.0827  0.3161
  858MPD2    C412598   3.402   0.134  17.425  0.3420  0.4862 -0.3149
  858MPD2    C512599   3.303   0.152  17.331 -0.8085 -0.5117 -0.3806
  858MPD2     H12600   3.580   4.612  17.288 -0.0657  0.3164 -0.7307
  858MPD2    H112601   3.408   0.217  17.494  0.0423 -0.5808  0.9850
  858MPD2    H212602   3.222   0.073  17.152 -0.8818  1.5067  0.5973
  858MPD2    H312603   3.232   0.232  17.347 -0.0636 -0.5288  3.0488
  858MPD2     N12604   3.598   0.029  17.513 -0.1870 -0.6965  0.1605
  858MPD2    H512605   3.599   0.105  17.581  0.2223  0.1135 -0.7514
  858MPD2    N112606   3.406   4.641  17.074 -0.1224  0.1532 -0.7839
  858MPD2    H712607   3.325   4.648  17.013 -0.7401 -0.7668 -0.0731
  859MPD2     C12608   1.712   2.103  15.462 -0.3257  0.4739 -0.1107
  859MPD2    C112609   1.835   2.115  15.403  0.1555  0.0728 -0.4875
  859MPD2    C212610   1.897   2.001  15.368 -0.9669 -0.7810 -0.2569
  859MPD2    C312611   1.837   1.879  15.379  0.2887  0.9163  0.3346
  859MPD2    C412612   1.709   1.867  15.426 -0.0009  0.1177 -0.3276
  859MPD2    C512613   1.647   1.980  15.470  0.3974 -0.0325 -0.5224
  859MPD2     H12614   1.999   2.008  15.331 -0.2877  0.0374  1.7554
  859MPD2    H112615   1.659   1.772  15.411 -0.7780  0.7137 -1.6203
  859MPD2    H212616   1.668   2.194  15.500  0.2484 -0.1878  2.2028
  859MPD2    H312617   1.546   1.980  15.512  1.0841  0.0511  1.1426
  859MPD2     N12618   1.909   1.761  15.344 -0.2652 -0.1791  0.2820
  859MPD2    H512619   1.999   1.772  15.298 -0.5861 -1.7275 -0.6989
  859MPD2    N112620   1.888   2.240  15.374 -0.5687  0.1697 -0.1901
  859MPD2    H712621   1.833   2.326  15.378 -1.3592 -0.2700 -1.6649
  860MPD2     C12622   0.096   2.772  11.265  0.2238  0.5648 -0.2859
  860MPD2    C112623   0.124   2.715  11.385 -0.0927 -0.0444  0.0134
  860MPD2    C212624   0.026   2.628  11.440 -0.1544  0.0587 -0.1018
  860MPD2    C312625   4.623   2.622  11.385 -0.5845  0.2411 -0.2055
  860MPD2    C412626   4.604   2.666  11.257 -0.0534  0.5737  0.0488
  860MPD2    C512627   4.703   2.748  11.203 -0.4065 -0.4279  0.8197
  860MPD2     H12628   0.039   2.578  11.535 -0.4927  2.0478  1.0015
  860MPD2    H112629   4.503   2.667  11.217  0.3857 -1.0902 -1.1078
  860MPD2    H212630   0.159   2.849  11.221  1.6301 -0.1758  0.4306
  860MPD2    H312631   4.690   2.801  11.109 -0.4267  0.5421  1.3729
  860MPD2     N12632   4.518   2.561  11.462  0.6400  0.6949 -0.0174
  860MPD2    H512633   4.545   2.545  11.559 -0.7627 -1.6188 -0.0189
  860MPD2    N112634   0.251   2.729  11.451 -0.2440 -0.0784  0.2701
  860MPD2    H712635   0.254   2.682  11.540  1.0146 -0.2895  0.1136
  861MPD2     C12636   3.560   0.699  10.815  0.0597  0.0852  0.7943
  861MPD2    C112637   3.437   0.719  10.872  0.5633 -0.8613  0.8837
  861MPD2    C212638   3.346   0.806  10.820 -0.6598 -0.4147 -0.7314
  861MPD2    C312639   3.380   0.877  10.700 -0.1517 -0.3616 -0.1527
  861MPD2    C412640   3.504   0.850  10.640 -0.3927  0.3426  0.1964
  861MPD2    C512641   3.595   0.762  10.697 -0.3171 -0.4376  0.1536
  861MPD2     H12642   3.257   0.822  10.881 -0.0425 -2.2034  0.6274
  861MPD2    H112643   3.530   0.888  10.542 -1.4983  0.6327  0.0123
  861MPD2    H212644   3.637   0.632  10.852 -1.0189 -0.3438  2.2425
  861MPD2    H312645   3.684   0.738  10.641  0.8053 -3.8581  3.4042
  861MPD2     N12646   3.301   0.969  10.626  0.0909 -0.2898 -0.2651
  861MPD2    H512647   3.341   1.013  10.543 -1.1404  0.7181 -0.3234
  861MPD2    N112648   3.394   0.653  10.986  0.0954  0.0654 -0.4394
  861MPD2    H712649   3.299   0.673  11.015 -1.1174 -2.2966 -2.8259
  862MPD2     C12650   3.103   1.456   9.994  0.1254  0.0122  0.4031
  862MPD2    C112651   3.200   1.398  10.076  0.0002 -0.0063 -0.1861
  862MPD2    C212652   3.332   1.376  10.034 -0.9099 -0.2658  0.4192
  862MPD2    C312653   3.363   1.399   9.904 -0.3242 -0.3428  0.6110
  862MPD2    C412654   3.267   1.468   9.825  0.5099 -0.0336 -0.7913
  862MPD2    C512655   3.138   1.489   9.862 -0.1319 -0.0346  0.6106
  862MPD2     H12656   3.411   1.345  10.103  1.6339  0.2709 -2.2517
  862MPD2    H112657   3.287   1.502   9.724 -1.9077  3.3257 -0.1436
  862MPD2    H212658   2.999   1.463  10.024  0.5001  2.1374  1.2276
  862MPD2    H312659   3.065   1.544   9.806  2.0155  0.7344 -1.4199
  862MPD2     N12660   3.496   1.369   9.853 -0.1940  0.1819  0.5698
  862MPD2    H512661   3.515   1.398   9.758 -0.7746 -1.4681 -0.0408
  862MPD2    N112662   3.155   1.356  10.204  0.4242 -0.0938  0.5732
  862MPD2    H712663   3.061   1.377  10.234  0.8926 -0.0729  2.0595
  863MPD2     C12664   2.102   3.975  16.491  0.6499 -0.1005 -0.2956
  863MPD2    C112665   2.005   3.955  16.590 -0.6037 -0.3345  0.0639
  863MPD2    C212666   2.040   3.886  16.707  0.5889  0.3713  0.0751
  863MPD2    C312667   2.169   3.839  16.726  0.0613  0.2480 -0.2648
  863MPD2    C412668   2.262   3.857  16.627  0.2862  1.0244  0.3452
  863MPD2    C512669   2.230   3.933  16.516  0.3139 -0.3018  0.2919
  863MPD2     H12670   1.964   3.885  16.785  1.9433  1.6895  1.4349
  863MPD2    H112671   2.356   3.804  16.640 -0.0414  0.4279  0.2575
  863MPD2    H212672   2.075   4.037  16.405  0.1975 -1.2169 -0.9523
  863MPD2    H312673   2.308   3.946  16.443  1.3655  1.0133  1.6498
  863MPD2     N12674   2.212   3.755  16.834 -0.5001 -0.3194 -0.9893
  863MPD2    H512675   2.309   3.725  16.825 -0.4025 -0.5570  0.8003
  863MPD2    N112676   1.873   3.996  16.557  0.4758 -0.2738 -0.1725
  863MPD2    H712677   1.865   4.030  16.461  1.1604  0.5703  0.0673
  864MPD2     C12678   2.759   4.560  17.607 -0.6062  0.5321  0.1665
  864MPD2    C112679   2.677   4.598  17.503  0.0994  0.5823 -0.1557
  864MPD2    C212680   2.650   0.008  17.484  0.0870  0.5539  0.0750
  864MPD2    C312681   2.721   0.096  17.560  0.1227 -0.5030 -0.2286
  864MPD2    C412682   2.817   0.055  17.651 -0.5479 -0.3825  0.0166
  864MPD2    C512683   2.834   4.647  17.673 -0.1227  0.3452 -0.3362
  864MPD2     H12684   2.580   0.041  17.409 -0.0109  2.5249  1.0348
  864MPD2    H112685   2.857   0.118   0.029  1.0540 -1.5327  0.1413
  864MPD2    H212686   2.770   4.453  17.622  0.6797  0.5364 -0.7174
  864MPD2    H312687   2.905   4.624   0.051 -0.8103  0.8462  0.4322
  864MPD2     N12688   2.730   0.236  17.526 -0.3208  0.0540 -0.3689
  864MPD2    H512689   2.808   0.284  17.569 -0.6269 -0.6622  0.9980
  864MPD2    N112690   2.629   4.494  17.416 -0.4949 -0.0241 -0.6915
  864MPD2    H712691   2.645   4.400  17.451 -2.4835 -0.5422 -1.1912
  865MPD2     C12692   2.252   0.569  16.636  0.0666  0.4324  0.9592
  865MPD2    C112693   2.364   0.488  16.622  0.2207 -0.8335  0.0750
  865MPD2    C212694   2.445   0.479  16.731  0.4626 -0.8768 -0.0161
  865MPD2    C312695   2.431   0.547  16.849 -0.0795  0.5282  0.9210
  865MPD2    C412696   2.320   0.623  16.867 -0.6660 -0.5376  0.5360
  865MPD2    C512697   2.234   0.622  16.762  0.7629  0.4070  0.1064
  865MPD2     H12698   2.534   0.417  16.721  0.0284 -1.5332  0.2190
  865MPD2    H112699   2.286   0.659  16.964 -1.4613  0.3787 -0.0806
  865MPD2    H212700   2.177   0.573  16.558  1.4157  0.2996 -0.3455
  865MPD2    H312701   2.139   0.670  16.783 -0.8346 -2.1476 -1.3445
  865MPD2     N12702   2.523   0.511  16.955  0.5396 -0.4765  0.1179
  865MPD2    H512703   2.589   0.439  16.928  1.9506 -0.1973  2.7614
  865MPD2    N112704   2.380   0.417  16.506  0.0361  1.0178  0.2850
  865MPD2    H712705   2.312   0.423  16.431 -0.3853  0.2422  0.5983
  866MPD2     C12706   4.487   0.681  10.938  0.2984  0.2930  0.0721
  866MPD2    C112707   4.477   0.820  10.947  0.4587  0.0170  0.4346
  866MPD2    C212708   4.353   0.876  10.933 -0.0041  0.4016 -0.3174
  866MPD2    C312709   4.240   0.803  10.904  0.6761  0.5057  0.0697
  866MPD2    C412710   4.246   0.669  10.907  0.3772 -0.5034 -0.1560
  866MPD2    C512711   4.368   0.614  10.932 -0.2316 -0.2805  0.5439
  866MPD2     H12712   4.350   0.984  10.930 -0.7040  0.3452 -1.7267
  866MPD2    H112713   4.162   0.604  10.884  1.3150 -1.7849  0.0615
  866MPD2    H212714   4.579   0.629  10.960  0.7167  1.0979  0.2315
  866MPD2    H312715   4.381   0.507  10.943  1.9341 -0.2791 -2.0988
  866MPD2     N12716   4.122   0.868  10.855  0.1637  0.1171 -0.6700
  866MPD2    H512717   4.040   0.811  10.840 -1.5500  2.3878  0.1716
  866MPD2    N112718   4.593   0.900  10.961 -0.4109 -0.0312 -0.8965
  866MPD2    H712719   4.581   0.999  10.975  1.3351 -0.2360  2.0702
  867MPD2     C12720   1.084   0.263  16.552 -0.5188 -0.3523 -0.1516
  867MPD2    C112721   1.220   0.260  16.601  0.3168  0.3737 -0.2742
  867MPD2    C212722   1.277   0.380  16.652 -0.0271 -0.0715 -0.7480
  867MPD2    C312723   1.196   0.489  16.656  0.6222 -0.1814  0.2786
  867MPD2    C412724   1.072   0.489  16.603  0.5666 -0.5722 -0.7360
  867MPD2    C512725   1.011   0.375  16.557  0.2800 -0.5508  0.0378
  867MPD2     H12726   1.372   0.389  16.704 -0.2034 -1.3001 -0.2025
  867MPD2    H112727   1.011   0.578  16.599  2.5097  0.8324  0.8902
  867MPD2    H212728   1.023   0.175  16.535 -0.1515 -0.3584 -1.4558
  867MPD2    H312729   0.914   0.376  16.509  0.8072 -0.2557 -1.0248
  867MPD2     N12730   1.243   0.618  16.698 -0.1008  0.2368 -0.3010
  867MPD2    H512731   1.176   0.695  16.700  0.6058  0.8426  0.1576
  867MPD2    N112732   1.287   0.134  16.613 -0.1233 -0.6060 -0.0044
  867MPD2    H712733   1.234   0.055  16.577 -0.5353  0.0533 -0.8442
  868MPD2     C12734   3.239   4.088  12.868  0.5310 -0.6366 -0.0276
  868MPD2    C112735   3.284   4.036  12.988  0.4332  0.0713 -0.0550
  868MPD2    C212736   3.205   4.051  13.097 -1.0663 -0.7249  0.1086
  868MPD2    C312737   3.079   4.103  13.092 -0.2105  0.1375  0.1564
  868MPD2    C412738   3.030   4.145  12.967 -0.3107 -0.1555 -0.0344
  868MPD2    C512739   3.106   4.140  12.861  0.0902 -0.2683 -0.6118
  868MPD2     H12740   3.255   4.048  13.194  0.0103 -0.4749 -0.4354
  868MPD2    H112741   2.933   4.192  12.968 -0.6531 -0.9015  2.6480
  868MPD2    H212742   3.301   4.081  12.779 -0.4064 -0.4972 -0.6925
  868MPD2    H312743   3.080   4.189  12.768  0.9231  0.3976 -0.4987
  868MPD2     N12744   3.007   4.105  13.210  0.9781 -0.2998 -0.6995
  868MPD2    H512745   3.052   4.053  13.285  1.2357 -2.0655 -2.0519
  868MPD2    N112746   3.409   3.972  13.002 -0.3001 -0.0433  0.3001
  868MPD2    H712747   3.468   3.989  12.922 -2.0511 -1.5743 -1.3374
  869MPD2     C12748   4.572   1.770   2.349  0.0999  0.3259 -0.4860
  869MPD2    C112749   4.435   1.785   2.371  0.5814  0.1968  0.3523
  869MPD2    C212750   4.367   1.896   2.322  0.0514 -0.1955 -0.1753
  869MPD2    C312751   4.425   1.987   2.236  0.9870 -0.7572 -0.2466
  869MPD2    C412752   4.558   1.977   2.212  0.1195 -0.0264  0.3635
  869MPD2    C512753   4.625   1.867   2.261  0.2282 -0.2021  0.4218
  869MPD2     H12754   4.259   1.901   2.316  0.0494 -0.5258 -0.3936
  869MPD2    H112755   4.604   2.053   2.149  2.0065 -0.4789  1.1894
  869MPD2    H212756   4.632   1.686   2.381 -0.3964  1.2067  2.8104
  869MPD2    H312757   0.008   1.856   2.252  0.5743  3.1162  0.2689
  869MPD2     N12758   4.360   2.090   2.161 -0.5992 -0.0347 -0.6284
  869MPD2    H512759   4.417   2.146   2.099  0.0763 -0.9871 -0.8742
  869MPD2    N112760   4.377   1.677   2.438  0.0132  0.2911  0.2273
  869MPD2    H712761   4.438   1.600   2.464 -1.9545 -1.0069  1.0460
  870MPD2     C12762   3.392   0.266   1.825 -0.5125  0.1183  1.0239
  870MPD2    C112763   3.484   0.334   1.899 -0.3209 -0.2874  0.2843
  870MPD2    C212764   3.563   0.422   1.820 -0.8502 -0.2336  0.3935
  870MPD2    C312765   3.550   0.438   1.682 -0.6323 -0.0535  0.2763
  870MPD2    C412766   3.454   0.365   1.615 -1.0540  0.5212  0.7081
  870MPD2    C512767   3.375   0.283   1.693  0.0739  0.3107 -0.0838
  870MPD2     H12768   3.633   0.487   1.872  0.4119 -0.6582 -0.7560
  870MPD2    H112769   3.440   0.366   1.507 -0.3810 -2.1547  0.6006
  870MPD2    H212770   3.327   0.192   1.871 -0.0804 -0.9239 -0.0511
  870MPD2    H312771   3.304   0.216   1.645  1.2790  0.4918 -2.1110
  870MPD2     N12772   3.636   0.530   1.616  0.1377 -0.2311 -0.0890
  870MPD2    H512773   3.713   0.567   1.671 -0.5482 -1.8773  1.9727
  870MPD2    N112774   3.479   0.324   2.036 -0.2096 -0.2410  0.6940
  870MPD2    H712775   3.388   0.292   2.066 -1.0458  2.7129  1.3403
  871MPD2     C12776   4.636   0.626  16.198  0.1942  0.1104  0.2807
  871MPD2    C112777   4.638   0.612  16.336 -0.7420  0.5578  0.3683
  871MPD2    C212778   4.624   0.480  16.384 -0.9196  0.7082  0.2235
  871MPD2    C312779   4.615   0.373  16.296  0.2875  0.7301  0.1753
  871MPD2    C412780   4.599   0.397  16.162  0.2069 -0.3380  0.4813
  871MPD2    C512781   4.613   0.525  16.114 -0.0390 -0.6826  0.0361
  871MPD2     H12782   4.637   0.463  16.490  1.0360  1.2689  0.0809
  871MPD2    H112783   4.587   0.323  16.084  0.3855 -0.0226  0.1525
  871MPD2    H212784   4.645   0.723  16.151  0.5372  1.2618  2.7400
  871MPD2    H312785   4.610   0.540  16.007  2.0840 -1.4558 -0.1326
  871MPD2     N12786   4.615   0.239  16.350  0.0832  0.0741  0.5034
  871MPD2    H512787   4.634   0.230  16.450  2.6681  0.4466  0.0562
  871MPD2    N112788   4.659   0.727  16.424  0.0339  0.1798  0.5109
  871MPD2    H712789   4.684   0.814  16.378  0.5243 -0.3686 -0.2668
  872MPD2     C12790   0.762   2.969  14.345  0.2687 -0.3729 -0.6446
  872MPD2    C112791   0.688   3.020  14.242  0.4167 -0.0322 -0.0321
  872MPD2    C212792   0.550   3.025  14.267  0.3730  0.4789  0.0589
  872MPD2    C312793   0.492   2.970  14.377  0.0694 -0.1381 -0.1807
  872MPD2    C412794   0.573   2.922  14.476  0.4143 -0.2065 -0.1480
  872MPD2    C512795   0.708   2.923  14.465  0.5209  0.4532  0.5552
  872MPD2     H12796   0.491   3.049  14.180 -1.3989 -1.5790  0.6987
  872MPD2    H112797   0.534   2.882  14.569  2.2881  1.8600  1.5024
  872MPD2    H212798   0.870   2.957  14.335 -0.1492 -3.4850 -1.3845
  872MPD2    H312799   0.775   2.889  14.543  1.1448  0.8063  0.1748
  872MPD2     N12800   0.346   2.952  14.402  0.0840  0.3742  0.2181
  872MPD2    H512801   0.319   2.916  14.493  1.6254  0.0455  0.5439
  872MPD2    N112802   0.743   3.066  14.120  0.0078  0.2812  0.1471
  872MPD2    H712803   0.683   3.111  14.052 -0.5775  0.4371  0.7684
  873MPD2     C12804   2.266   3.070   0.578 -0.6647  0.2716  0.2124
  873MPD2    C112805   2.351   3.017   0.672  0.3898  0.0150  0.0753
  873MPD2    C212806   2.405   2.890   0.652  0.2365 -0.5770  0.0143
  873MPD2    C312807   2.388   2.828   0.527 -0.6368 -0.0126 -0.1176
  873MPD2    C412808   2.318   2.894   0.431 -0.0592  0.4936  0.4787
  873MPD2    C512809   2.249   3.010   0.460  0.0658  0.4964 -0.1023
  873MPD2     H12810   2.459   2.840   0.731 -0.6903 -4.1654 -1.6436
  873MPD2    H112811   2.291   2.845   0.339  0.0258 -0.9463  1.2303
  873MPD2    H212812   2.211   3.162   0.591  0.7466  0.9486  1.4461
  873MPD2    H312813   2.189   3.062   0.386 -0.6893 -3.4721 -2.2723
  873MPD2     N12814   2.435   2.694   0.497  0.2963 -0.1393  0.3559
  873MPD2    H512815   2.414   2.657   0.405  2.0607  3.3349 -1.4781
  873MPD2    N112816   2.364   3.090   0.792 -0.3442 -0.3632 -0.3440
  873MPD2    H712817   2.297   3.165   0.808  0.4459  0.3248 -0.3039
  874MPD2     C12818   1.989   2.489  16.165  0.1439  0.0039 -0.3711
  874MPD2    C112819   2.076   2.435  16.250 -0.6471 -0.0425 -0.3554
  874MPD2    C212820   2.198   2.487  16.270  0.2888  0.2258  0.0758
  874MPD2    C312821   2.235   2.596  16.200  0.4855 -0.3429 -0.1667
  874MPD2    C412822   2.146   2.664  16.122  0.8201 -0.1926 -0.6095
  874MPD2    C512823   2.024   2.606  16.100  0.3975  0.0330 -0.6708
  874MPD2     H12824   2.257   2.456  16.356  0.1748 -1.9483 -0.6430
  874MPD2    H112825   2.172   2.748  16.059 -1.8913  0.9451 -0.2040
  874MPD2    H212826   1.902   2.434  16.133 -1.9116  0.8143  3.8824
  874MPD2    H312827   1.961   2.652  16.025  0.1386 -1.2775 -1.2460
  874MPD2     N12828   2.374   2.633  16.204  0.5915 -0.5892  0.1830
  874MPD2    H512829   2.434   2.583  16.269  0.8018  0.5965  0.9043
  874MPD2    N112830   2.032   2.316  16.314 -0.5198  0.3470  0.5133
  874MPD2    H712831   1.937   2.283  16.301 -0.4588  0.4913 -0.2952
  875MPD2     C12832   3.621   1.247  14.547  0.1869 -0.5498 -0.4391
  875MPD2    C112833   3.507   1.260  14.619 -0.1926 -0.0276  0.7573
  875MPD2    C212834   3.508   1.315  14.748 -0.9120 -0.1289 -0.0029
  875MPD2    C312835   3.627   1.329  14.812 -0.4349 -0.0758  1.1751
  875MPD2    C412836   3.740   1.318  14.736  0.0924  0.0766  0.4560
  875MPD2    C512837   3.738   1.271  14.607  1.0363  0.1272  0.6209
  875MPD2     H12838   3.414   1.342  14.796 -0.8307 -0.1369  0.1581
  875MPD2    H112839   3.836   1.334  14.784  0.5083 -0.6415 -0.1197
  875MPD2    H212840   3.620   1.213  14.444  0.0748 -1.0256 -0.2799
  875MPD2    H312841   3.831   1.260  14.552  1.3542  0.4838  1.0934
  875MPD2     N12842   3.642   1.368  14.949  0.0702 -0.7665 -1.1470
  875MPD2    H512843   3.735   1.389  14.984 -0.6873  1.3685 -0.4204
  875MPD2    N112844   3.377   1.243  14.569  0.3387 -0.0481  0.8902
  875MPD2    H712845   3.304   1.274  14.632  0.9783  0.3150  1.4499
  876MPD2     C12846   2.056   2.581  15.696  0.2833 -0.0014  0.2967
  876MPD2    C112847   2.179   2.550  15.745  0.4293  0.3203 -0.2778
  876MPD2    C212848   2.204   2.422  15.792  0.3050 -0.3878  0.5993
  876MPD2    C312849   2.109   2.323  15.806  0.5546 -0.1016  0.7951
  876MPD2    C412850   1.987   2.351  15.744  0.2167  0.2035 -0.0502
  876MPD2    C512851   1.968   2.477  15.690  0.1238 -0.2861  0.1421
  876MPD2     H12852   2.309   2.405  15.813  0.6141  0.2107 -0.4704
  876MPD2    H112853   1.910   2.275  15.748  0.7491 -0.3790 -0.9697
  876MPD2    H212854   2.031   2.675  15.649  2.4084 -1.4173 -3.6998
  876MPD2    H312855   1.872   2.491  15.640 -0.2676 -1.1422  0.6430
  876MPD2     N12856   2.146   2.190  15.841 -0.1242  0.1692  0.2349
  876MPD2    H512857   2.244   2.172  15.859 -0.3670 -0.3793  0.9853
  876MPD2    N112858   2.279   2.652  15.741 -0.0281  0.2234  0.5297
  876MPD2    H712859   2.255   2.737  15.691  0.3328 -0.6234 -1.0825
  877MPD2     C12860   2.341   2.946  15.145 -0.8128  0.4978 -0.2749
  877MPD2    C112861   2.480   2.938  15.177 -0.0133 -0.5284 -0.6487
  877MPD2    C212862   2.565   2.915  15.065  0.3262 -0.2227 -0.2812
  877MPD2    C312863   2.521   2.905  14.930  0.2535  0.5273  0.3855
  877MPD2    C412864   2.380   2.912  14.910  0.0145  0.3494 -0.3869
  877MPD2    C512865   2.296   2.924  15.019  0.0794 -0.4156  0.2163
  877MPD2     H12866   2.668   2.886  15.083  0.4051  1.5916  2.2541
  877MPD2    H112867   2.348   2.902  14.807 -1.7292  2.4460 -0.0378
  877MPD2    H212868   2.264   2.973  15.216 -0.3651  1.4394 -0.1475
  877MPD2    H312869   2.189   2.926  15.008  0.4343  0.6356 -2.9885
  877MPD2     N12870   2.607   2.855  14.826  0.2955  0.7624  1.0162
  877MPD2    H512871   2.555   2.827  14.743 -0.6876  1.3094  1.4543
  877MPD2    N112872   2.533   2.933  15.304 -0.6284 -0.0591 -0.7682
  877MPD2    H712873   2.632   2.915  15.319 -0.2972  2.4410  0.0306
  878MPD2     C12874   2.672   2.475  13.063 -0.9144 -0.1624  0.0716
  878MPD2    C112875   2.560   2.536  13.109 -0.1657  0.7404 -0.0579
  878MPD2    C212876   2.503   2.501  13.224 -0.3319  0.5435 -0.1351
  878MPD2    C312877   2.559   2.395  13.298  0.5703 -0.0089  0.0480
  878MPD2    C412878   2.669   2.324  13.255 -0.1982  0.3221  0.6295
  878MPD2    C512879   2.731   2.374  13.137 -0.5072  0.0629  0.3958
  878MPD2     H12880   2.421   2.559  13.264 -0.7182  0.8817 -1.4377
  878MPD2    H112881   2.722   2.253  13.317  1.2944 -0.0802 -1.1054
  878MPD2    H212882   2.730   2.508  12.978 -1.0527 -2.2406 -0.8058
  878MPD2    H312883   2.823   2.332  13.100 -1.1778 -1.8965  0.9580
  878MPD2     N12884   2.498   2.371  13.427  0.1395  0.0753  0.5551
  878MPD2    H512885   2.423   2.437  13.449  0.9810  1.6124 -1.1806
  878MPD2    N112886   2.495   2.635  13.030 -0.4080 -0.6624 -0.0933
  878MPD2    H712887   2.406   2.671  13.062  0.5097 -0.7330  2.5151
  879MPD2     C12888   3.123   3.583  16.629  0.2588  0.2977 -0.2910
  879MPD2    C112889   3.020   3.558  16.723  1.2805  0.1651  0.6688
  879MPD2    C212890   2.923   3.467  16.681 -0.0489  0.2087  0.2916
  879MPD2    C312891   2.912   3.422  16.550  0.3805 -0.1781 -0.0110
  879MPD2    C412892   3.008   3.463  16.459 -0.1356  0.0696 -0.3217
  879MPD2    C512893   3.112   3.542  16.499  0.2212  0.3777 -0.0735
  879MPD2     H12894   2.855   3.426  16.755  1.9773 -0.7238  1.6406
  879MPD2    H112895   3.004   3.425  16.358  1.0872 -0.9528  0.0132
  879MPD2    H212896   3.214   3.635  16.654  0.9305 -1.1174  0.2039
  879MPD2    H312897   3.200   3.558  16.438  0.1414 -0.8760 -0.5116
  879MPD2     N12898   2.810   3.340  16.498 -0.1032  0.0848  0.3291
  879MPD2    H512899   2.805   3.338  16.396 -2.0507 -0.1402  0.4308
  879MPD2    N112900   3.035   3.620  16.848  0.3131  0.2844 -0.2341
  879MPD2    H712901   3.103   3.694  16.861  1.6337 -0.9820  0.1422
  880MPD2     C12902   4.077   0.399  17.596 -0.6851 -0.0016 -0.2064
  880MPD2    C112903   4.114   0.385   0.030 -0.2424 -0.1696 -0.9339
  880MPD2    C212904   4.149   0.261   0.081  0.2121  0.4410  0.1356
  880MPD2    C312905   4.151   0.152   0.004  0.5109 -0.4742  0.5989
  880MPD2    C412906   4.121   0.171  17.563 -0.0194 -0.3281 -0.2591
  880MPD2    C512907   4.080   0.291  17.515  0.5872 -0.1911  0.5381
  880MPD2     H12908   4.180   0.247   0.184  0.9044  1.6777  0.1036
  880MPD2    H112909   4.129   0.085  17.498 -1.1699 -0.2008 -0.5805
  880MPD2    H212910   4.038   0.493  17.560  0.3824 -0.2820 -2.0717
  880MPD2    H312911   4.053   0.311  17.412 -0.4943  2.0862  1.2850
  880MPD2     N12912   4.182   0.024   0.060  0.2149  0.0677  0.0871
  880MPD2    H512913   4.208   0.026   0.158  1.9562  0.4219 -0.3744
  880MPD2    N112914   4.127   0.506   0.103 -0.2363  0.5208 -0.0254
  880MPD2    H712915   4.119   0.591   0.049  0.9602 -0.9275 -2.4681
  881MPD2     C12916   4.056   1.477  17.667 -0.0916  0.2095  0.4762
  881MPD2    C112917   4.007   1.368  17.609 -0.1196 -0.0941 -0.0495
  881MPD2    C212918   4.036   1.246  17.672 -0.1852 -0.0284 -0.1171
  881MPD2    C312919   4.070   1.241   0.107  0.4256 -0.2128  0.2066
  881MPD2    C412920   4.082   1.358   0.179 -0.4241  0.5874 -1.1115
  881MPD2    C512921   4.084   1.477   0.107  0.7599  0.5570  0.1279
  881MPD2     H12922   4.010   1.151  17.627 -3.9599  1.8427 -1.8818
  881MPD2    H112923   4.116   1.370   0.282  0.5063  1.9864 -1.5821
  881MPD2    H212924   4.053   1.573  17.616  0.3355  0.0449  0.1492
  881MPD2    H312925   4.112   1.565   0.162  1.7819  1.1525 -1.3574
  881MPD2     N12926   4.070   1.120   0.176 -0.4295  0.0967 -0.9576
  881MPD2    H512927   4.074   1.123   0.277  0.8784  0.5363 -1.0218
  881MPD2    N112928   3.991   1.367  17.464 -0.2288 -0.4639 -0.1157
  881MPD2    H712929   3.994   1.453  17.410  0.0088  1.1340  2.4585
  882MPD2     C12930   2.367   2.657  14.150 -0.0544 -0.3125 -0.6934
  882MPD2    C112931   2.363   2.659  14.289  0.4051  0.5566  0.2038
  882MPD2    C212932   2.250   2.687  14.359  0.1124  0.1513 -0.3971
  882MPD2    C312933   2.135   2.706  14.281  0.3399  0.7419 -0.9540
  882MPD2    C412934   2.135   2.713  14.144 -0.0570  0.7982 -0.1194
  882MPD2    C512935   2.253   2.681  14.080  0.1068 -0.0436  0.0840
  882MPD2     H12936   2.247   2.699  14.467  1.1064 -1.2360 -0.2145
  882MPD2    H112937   2.053   2.751  14.085 -0.9299 -0.2851  0.4035
  882MPD2    H212938   2.465   2.639  14.106 -0.5043 -2.6511 -0.7552
  882MPD2    H312939   2.262   2.690  13.972  0.6873 -0.3085  0.1090
  882MPD2     N12940   2.006   2.729  14.344  0.4376 -0.4450 -0.4193
  882MPD2    H512941   1.924   2.764  14.296 -0.3851 -1.0955  0.4943
  882MPD2    N112942   2.494   2.639  14.352 -0.4080  0.3752 -0.1587
  882MPD2    H712943   2.569   2.599  14.297 -0.2628  0.0624  0.2737
  883MPD2     C12944   3.961   3.036  16.432  0.2345 -0.4619  0.8029
  883MPD2    C112945   4.034   3.066  16.323 -0.5163  0.4935  0.1336
  883MPD2    C212946   4.167   3.095  16.324  0.1746 -0.7014  0.5716
  883MPD2    C312947   4.230   3.110  16.447 -0.9659 -0.0144 -0.0741
  883MPD2    C412948   4.168   3.070  16.563  0.5011  0.1120  0.0514
  883MPD2    C512949   4.025   3.048  16.556 -0.2633  0.1474  0.2117
  883MPD2     H12950   4.220   3.124  16.234  1.8011 -3.6868  0.5837
  883MPD2    H112951   4.209   3.079  16.662 -1.0925 -0.8656  0.7940
  883MPD2    H212952   3.854   3.016  16.436 -0.4261  3.1172  0.4009
  883MPD2    H312953   3.969   3.024  16.646 -0.4352 -0.0211  0.0599
  883MPD2     N12954   4.361   3.153  16.447  0.7058 -0.1013  0.4014
  883MPD2    H512955   4.402   3.167  16.355 -1.7267  2.7810 -0.2513
  883MPD2    N112956   3.976   3.063  16.191 -0.2286 -0.8532 -0.5010
  883MPD2    H712957   4.048   3.091  16.126 -1.3558  1.4918 -0.7462
  884MPD2     C12958   1.413   3.306  15.054  0.7751  0.1247  0.1168
  884MPD2    C112959   1.404   3.432  14.998 -0.1097 -0.8272 -0.5302
  884MPD2    C212960   1.317   3.524  15.059  0.1617  0.3235 -0.3239
  884MPD2    C312961   1.240   3.492  15.163  0.3000  0.0717  0.3945
  884MPD2    C412962   1.238   3.362  15.209 -0.3499  0.3836 -0.1984
  884MPD2    C512963   1.327   3.275  15.160  0.8115  0.5993  0.4629
  884MPD2     H12964   1.316   3.629  15.034  2.1896  1.0371  2.6239
  884MPD2    H112965   1.181   3.323  15.292 -0.0370  2.8286  1.1623
  884MPD2    H212966   1.464   3.223  15.005 -1.8258 -2.2709  1.5011
  884MPD2    H312967   1.334   3.179  15.210  3.7820  1.1295  1.0591
  884MPD2     N12968   1.172   3.608  15.221 -0.0528  0.1492 -0.1358
  884MPD2    H512969   1.167   3.684  15.154  1.1692 -1.5239 -2.1201
  884MPD2    N112970   1.469   3.481  14.884 -0.2015 -0.2921 -0.0439
  884MPD2    H712971   1.456   3.578  14.857  0.8271 -0.1377  0.0143
  885MPD2     C12972   4.703   3.068   0.365 -0.9126 -0.6094 -0.1421
  885MPD2    C112973   4.714   3.188   0.430  0.2593  0.2218  0.1226
  885MPD2    C212974   4.720   3.307   0.351 -0.1406  0.9038 -0.0973
  885MPD2    C312975   4.705   3.303   0.216  0.3040  0.3931  0.1280
  885MPD2    C412976   4.678   3.188   0.161 -0.5544 -0.5344  0.1808
  885MPD2    C512977   4.682   3.071   0.228 -0.0982 -0.4247  0.5041
  885MPD2     H12978   0.016   3.400   0.402 -0.2993 -0.1682  1.9080
  885MPD2    H112979   4.645   3.180   0.058  2.2988  2.5849 -0.9521
  885MPD2    H212980   4.708   2.971   0.412 -0.1635 -0.1322  0.7538
  885MPD2    H312981   4.667   2.980   0.173 -0.0849  0.6822 -1.3341
  885MPD2     N12982   4.708   3.424   0.146 -0.3250  0.1542 -0.4544
  885MPD2    H512983   4.697   3.504   0.207  0.8793 -0.6069  0.7540
  885MPD2    N112984   0.022   3.175   0.568 -0.2088 -0.1851  0.4497
  885MPD2    H712985   0.045   3.083   0.604 -0.0844 -1.4341 -2.8410
  886MPD2     C12986   0.915   2.283  15.516 -0.2546 -0.2647 -0.9063
  886MPD2    C112987   0.907   2.278  15.376 -0.3313 -0.4285  0.0361
  886MPD2    C212988   0.909   2.389  15.298 -0.2800  0.4097 -0.3711
  886MPD2    C312989   0.925   2.510  15.355  0.5210 -0.5004  0.4506
  886MPD2    C412990   0.934   2.519  15.494  0.2799 -0.2686  0.1588
  886MPD2    C512991   0.923   2.407  15.571 -0.6334 -0.0161  0.4447
  886MPD2     H12992   0.894   2.380  15.191 -0.1716 -1.2985 -0.2395
  886MPD2    H112993   0.960   2.610  15.548 -1.3834  0.8202 -0.8580
  886MPD2    H212994   0.910   2.194  15.577 -1.2438  0.1314 -0.4261
  886MPD2    H312995   0.930   2.409  15.679  1.0316 -2.0552  0.3619
  886MPD2     N12996   0.940   2.632  15.281 -0.2347  0.1862  0.6627
  886MPD2    H512997   0.964   2.714  15.337  0.4052  1.3364 -1.3190
  886MPD2    N112998   0.936   2.160  15.310  0.0361 -0.1615  1.0278
  886MPD2    H712999   0.962   2.172  15.212 -3.7659 -2.0785 -0.2251
  887MPD2     C13000   1.553   2.158  15.129  0.3484 -0.1981  0.1361
  887MPD2    C113001   1.453   2.154  15.226  0.4819 -0.4447 -0.0547
  887MPD2    C213002   1.450   2.251  15.317 -0.1500  0.1944  0.3617
  887MPD2    C313003   1.536   2.364  15.310  0.0715 -0.1221 -0.8659
  887MPD2    C413004   1.621   2.372  15.199  0.3480 -0.1108  0.3015
  887MPD2    C513005   1.631   2.266  15.109 -0.6496 -0.6351 -0.5334
  887MPD2     H13006   1.380   2.239  15.398  0.1046 -0.3174  0.5031
  887MPD2    H113007   1.679   2.462  15.182  2.4475 -1.5102  0.0413
  887MPD2    H213008   1.561   2.080  15.054  1.6662 -0.8189  0.9211
  887MPD2    H313009   1.690   2.274  15.019  1.0899  3.4532  0.9804
  887MPD2     N13010   1.530   2.467  15.407  0.9956  0.0180 -0.6827
  887MPD2    H513011   1.457   2.449  15.476  0.5619  0.0019 -1.1418
  887MPD2    N113012   1.360   2.052  15.235  0.6909 -0.1269  0.3766
  887MPD2    H713013   1.313   2.040  15.324 -1.3361 -0.8750 -0.7910
  888MPD2     C13014   3.561   2.623  14.686 -0.4066  0.4859  0.7646
  888MPD2    C113015   3.539   2.646  14.816 -0.6965  0.2717 -0.0909
  888MPD2    C213016   3.577   2.772  14.859 -0.1142 -0.0531 -0.4719
  888MPD2    C313017   3.629   2.864  14.769  0.8018 -0.2696  0.4825
  888MPD2    C413018   3.657   2.828  14.639  0.2791 -0.6588 -0.7074
  888MPD2    C513019   3.633   2.702  14.604 -0.0767  0.0648  0.1241
  888MPD2     H13020   3.561   2.791  14.965  1.1568 -1.2060 -0.0758
  888MPD2    H113021   3.712   2.889  14.569 -0.0056  1.4605  0.9329
  888MPD2    H213022   3.575   2.522  14.650 -1.6722  1.1156 -1.4877
  888MPD2    H313023   3.638   2.671  14.500  0.2609  1.8944 -0.3941
  888MPD2     N13024   3.657   3.002  14.815  0.1007 -0.2302  0.2037
  888MPD2    H513025   3.654   3.025  14.914  2.5331 -1.4541  0.5526
  888MPD2    N113026   3.491   2.549  14.906 -0.3296  0.0686 -0.4078
  888MPD2    H713027   3.492   2.579  15.003  1.4662 -1.7622  0.1404
  889MPD2     C13028   3.486   2.082  13.498 -0.9015  0.0147  0.4781
  889MPD2    C113029   3.376   2.006  13.527 -0.4295 -0.2339 -0.2313
  889MPD2    C213030   3.254   2.060  13.512  0.0462  0.6969 -0.1113
  889MPD2    C313031   3.237   2.186  13.465  0.5955 -0.8036  0.0971
  889MPD2    C413032   3.348   2.262  13.434 -0.4226  0.2104  0.3059
  889MPD2    C513033   3.473   2.208  13.440 -0.1510  0.4765 -0.0086
  889MPD2     H13034   3.162   2.012  13.546  0.8269  0.4978  1.6972
  889MPD2    H113035   3.347   2.369  13.413  1.1121 -0.0269 -0.9859
  889MPD2    H213036   3.584   2.037  13.494 -1.5756 -1.4213 -0.0159
  889MPD2    H313037   3.556   2.274  13.417 -2.2380  2.8917 -0.6175
  889MPD2     N13038   3.114   2.244  13.466  0.2955  0.3416 -0.0743
  889MPD2    H513039   3.047   2.182  13.510  0.4495 -1.2674 -2.1246
  889MPD2    N113040   3.389   1.881  13.596 -0.0098 -0.4677  0.0176
  889MPD2    H713041   3.301   1.838  13.622  0.5229 -1.9023 -0.5640
  890MPD2     C13042   2.483   3.436  14.518 -0.1190 -0.1233  0.3443
  890MPD2    C113043   2.569   3.496  14.607 -0.1374 -0.7943  0.1727
  890MPD2    C213044   2.565   3.465  14.741 -0.3323 -0.0304 -0.2848
  890MPD2    C313045   2.475   3.371  14.790  0.1842  0.0453  0.5669
  890MPD2    C413046   2.391   3.310  14.700  0.2210 -0.2440  0.4851
  890MPD2    C513047   2.396   3.342  14.570 -0.5093 -0.0514  0.5611
  890MPD2     H13048   2.633   3.501  14.818 -1.3476 -0.3192  0.7338
  890MPD2    H113049   2.310   3.242  14.724 -0.3406 -0.0254 -0.8165
  890MPD2    H213050   2.466   3.468  14.416  0.1588  0.7919  0.5840
  890MPD2    H313051   2.317   3.317  14.499 -0.3365 -0.3477  0.4716
  890MPD2     N13052   2.472   3.354  14.927  0.1279  0.3788  0.1951
  890MPD2    H513053   2.532   3.415  14.981  2.9179 -2.2397  0.0526
  890MPD2    N113054   2.648   3.605  14.556 -0.2381 -0.4485 -0.0068
  890MPD2    H713055   2.619   3.639  14.465  3.0613 -0.5545 -1.0830
  891MPD2     C13056   4.597   1.812  16.482 -0.2549  0.1025  0.0725
  891MPD2    C113057   4.580   1.925  16.562  0.0003 -0.2562  0.0882
  891MPD2    C213058   4.676   1.942  16.660 -0.1218  0.0968  0.0004
  891MPD2    C313059   0.070   1.872  16.657  0.3654 -0.1587  0.0389
  891MPD2    C413060   0.100   1.777  16.565 -1.5279 -0.1076  0.8095
  891MPD2    C513061   4.715   1.743  16.483 -0.1301  0.2843  0.0817
  891MPD2     H13062   4.665   2.025  16.729  0.4459 -0.4436  0.7445
  891MPD2    H113063   0.197   1.729  16.554 -1.2147  0.2591  1.9772
  891MPD2    H213064   4.535   1.786  16.397 -2.6677  0.8231  1.6161
  891MPD2    H313065   0.017   1.682  16.397 -1.1987 -0.9291  0.6100
  891MPD2     N13066   0.158   1.907  16.767  0.6931 -0.1810  0.8380
  891MPD2    H513067   0.146   1.988  16.826 -0.2802 -0.8739  1.5913
  891MPD2    N113068   4.460   2.003  16.542 -0.1683  0.3427 -0.1985
  891MPD2    H713069   4.406   1.984  16.458  0.5918  0.2362 -0.6618
  892MPD2     C13070   1.541   3.481  14.418  0.1987  0.0154 -0.2386
  892MPD2    C113071   1.452   3.386  14.461 -0.6391  0.6852 -0.6036
  892MPD2    C213072   1.485   3.254  14.463  0.4384 -0.3447  0.1404
  892MPD2    C313073   1.617   3.218  14.427 -0.3365 -0.8240  0.3477
  892MPD2    C413074   1.706   3.318  14.397  0.0786 -0.2852  0.6562
  892MPD2    C513075   1.668   3.449  14.390 -0.1012 -0.1770  0.3261
  892MPD2     H13076   1.415   3.174  14.479  0.0130 -0.1647 -0.8320
  892MPD2    H113077   1.807   3.284  14.378  0.7090  3.2860 -2.3697
  892MPD2    H213078   1.518   3.586  14.434  0.0725  0.1040 -1.0110
  892MPD2    H313079   1.740   3.526  14.365  0.3899 -0.7312  0.0397
  892MPD2     N13080   1.666   3.085  14.427 -0.3331  0.3514  0.3613
  892MPD2    H513081   1.767   3.084  14.422 -0.4505 -0.2838 -2.4001
  892MPD2    N113082   1.323   3.410  14.516 -0.3633 -0.2638 -0.7198
  892MPD2    H713083   1.259   3.333  14.530 -0.5325  0.0612  0.3174
  893MPD2     C13084   3.357   0.582   2.485  0.0830  0.1658 -0.5516
  893MPD2    C113085   3.336   0.567   2.347 -0.5301 -0.3184  0.0332
  893MPD2    C213086   3.255   0.461   2.311  0.6116 -0.8515  0.1892
  893MPD2    C313087   3.205   0.366   2.404  0.3235 -0.3348 -0.9368
  893MPD2    C413088   3.233   0.388   2.535 -0.3880 -0.0948  0.1909
  893MPD2    C513089   3.307   0.496   2.580  0.2466 -0.2576  0.4406
  893MPD2     H13090   3.244   0.438   2.206  0.8581  1.3224 -0.3066
  893MPD2    H113091   3.210   0.320   2.616  0.8813  1.0091  1.4920
  893MPD2    H213092   3.417   0.664   2.523  0.8641  0.7810 -3.1091
  893MPD2    H313093   3.331   0.496   2.686  1.3465  0.7925  0.1891
  893MPD2     N13094   3.144   0.243   2.368 -0.5031  0.1299 -0.4433
  893MPD2    H513095   3.112   0.179   2.440  2.2726  0.6964  1.2995
  893MPD2    N113096   3.402   0.651   2.259  0.1444  0.3209 -0.3208
  893MPD2    H713097   3.473   0.711   2.299 -0.9268  1.2848  0.1158
  894MPD2     C13098   1.498   4.190   0.499 -0.4274  0.2898  0.8300
  894MPD2    C113099   1.554   4.188   0.629  0.7804  0.2047  0.1937
  894MPD2    C213100   1.638   4.296   0.671 -0.5073  0.0605  0.3172
  894MPD2    C313101   1.670   4.397   0.586  0.2424 -0.0372 -0.6798
  894MPD2    C413102   1.613   4.398   0.458 -0.2395  0.2527  0.0398
  894MPD2    C513103   1.529   4.298   0.417 -0.0409  0.0455 -0.3370
  894MPD2     H13104   1.683   4.296   0.770  0.5470  0.4538 -0.1588
  894MPD2    H113105   1.635   4.479   0.389 -0.8710 -1.9058 -2.6919
  894MPD2    H213106   1.438   4.111   0.456  1.4699 -0.9049  0.4191
  894MPD2    H313107   1.496   4.305   0.315 -1.2178 -2.2642 -0.1036
  894MPD2     N13108   1.750   4.494   0.644  0.2733  0.0237  0.3530
  894MPD2    H513109   1.798   4.471   0.730 -3.3565 -0.8187  2.1892
  894MPD2    N113110   1.527   4.081   0.715  0.3320  0.3605  0.1218
  894MPD2    H713111   1.585   4.074   0.797 -0.6391 -0.5603  0.7328
  895MPD2     C13112   0.551   2.753  13.894 -0.2060 -0.4012  0.1293
  895MPD2    C113113   0.571   2.777  13.756  0.1771  0.3225 -0.0905
  895MPD2    C213114   0.705   2.787  13.720  0.1953 -0.1477 -0.5533
  895MPD2    C313115   0.809   2.749  13.809 -0.0348  0.3719 -0.1474
  895MPD2    C413116   0.785   2.727  13.941 -0.7137  0.4413 -0.2292
  895MPD2    C513117   0.650   2.732  13.982 -0.0580  0.7021 -0.7833
  895MPD2     H13118   0.719   2.785  13.613 -1.0390 -0.1479 -0.7118
  895MPD2    H113119   0.865   2.708  14.011 -0.9392 -1.3775 -0.4750
  895MPD2    H213120   0.450   2.753  13.934 -0.2669  0.9108 -0.0160
  895MPD2    H313121   0.638   2.720  14.090  0.1101 -3.6380 -1.2651
  895MPD2     N13122   0.943   2.735  13.765 -0.5228 -0.3456  0.1427
  895MPD2    H513123   1.014   2.695  13.826  0.2579 -1.9059 -1.8103
  895MPD2    N113124   0.460   2.795  13.663  0.6332  0.5930 -0.8558
  895MPD2    H713125   0.488   2.810  13.567  2.1991 -1.4685 -0.7214
  896MPD2     C13126   2.589   4.381   1.930  0.1375 -0.1430  0.5743
  896MPD2    C113127   2.651   4.324   1.824 -0.0784 -0.2748 -0.7391
  896MPD2    C213128   2.604   4.356   1.698  0.2224 -0.3214 -0.6444
  896MPD2    C313129   2.501   4.442   1.678 -0.6299  0.0431 -0.3857
  896MPD2    C413130   2.439   4.499   1.787 -0.3721  0.1553  0.3657
  896MPD2    C513131   2.483   4.463   1.909 -0.2006  0.3996  0.3601
  896MPD2     H13132   2.668   4.335   1.613  1.5318  0.9353  0.0381
  896MPD2    H113133   2.361   4.573   1.779 -1.8373 -1.4766 -0.5423
  896MPD2    H213134   2.620   4.363   2.033  0.2124 -3.0028  0.0572
  896MPD2    H313135   2.429   4.498   1.996 -2.1166 -1.1189 -0.2133
  896MPD2     N13136   2.463   4.462   1.545 -0.4830 -0.1625  0.6729
  896MPD2    H513137   2.485   4.392   1.474  1.0234 -1.4691  2.4291
  896MPD2    N113138   2.767   4.245   1.853 -0.0260 -0.4822 -0.4022
  896MPD2    H713139   2.798   4.245   1.950  1.7444  0.8182 -0.9682
  897MPD2     C13140   0.059   1.822  10.312  0.3075  0.5440 -0.6155
  897MPD2    C113141   4.718   1.932  10.270  0.3618 -0.3737 -0.6491
  897MPD2    C213142   4.599   1.973  10.322 -0.1923 -0.1411  0.1146
  897MPD2    C313143   4.537   1.893  10.419 -0.1449  0.6542 -0.2582
  897MPD2    C413144   4.607   1.779  10.463 -0.4610  0.2033  0.1861
  897MPD2    C513145   0.001   1.743  10.412  0.5494  0.2477  0.0701
  897MPD2     H13146   4.561   2.072  10.299 -0.3733 -0.2510 -0.0563
  897MPD2    H113147   4.566   1.721  10.545 -0.4101  0.1733  0.1900
  897MPD2    H213148   0.154   1.798  10.266  0.4420 -3.5691  1.8263
  897MPD2    H313149   0.050   1.649  10.436  0.2102  0.0422 -0.0460
  897MPD2     N13150   4.401   1.915  10.471  0.2006 -0.2650 -0.3527
  897MPD2    H513151   4.365   1.848  10.538  0.9359 -0.2329  0.0709
  897MPD2    N113152   0.079   2.000  10.180  0.0114 -0.3697 -0.1995
  897MPD2    H713153   0.167   1.957  10.151 -0.0776  0.5471 -1.8446
  898MPD2     C13154   1.299   2.283  17.176 -0.0691  0.3814  0.2954
  898MPD2    C113155   1.383   2.389  17.145 -0.3694 -0.9575 -0.1555
  898MPD2    C213156   1.353   2.461  17.033 -0.4166 -0.2761  0.4025
  898MPD2    C313157   1.243   2.431  16.956  0.7218  0.4754  0.2516
  898MPD2    C413158   1.161   2.327  16.992 -0.5443 -0.6386  0.1872
  898MPD2    C513159   1.186   2.260  17.102 -0.2001  0.1308  0.1402
  898MPD2     H13160   1.422   2.539  17.003  0.2177 -1.4795 -1.2694
  898MPD2    H113161   1.068   2.305  16.942 -0.4070  0.1168 -0.4118
  898MPD2    H213162   1.316   2.215  17.259 -0.2873 -0.0541 -0.0185
  898MPD2    H313163   1.118   2.182  17.133 -1.1637  0.0966 -2.0628
  898MPD2     N13164   1.211   2.497  16.836  0.2023 -0.6742 -0.5360
  898MPD2    H513165   1.280   2.563  16.802 -0.2441 -1.2980 -2.6645
  898MPD2    N113166   1.509   2.411  17.205  0.5631 -0.1872 -0.3211
  898MPD2    H713167   1.568   2.478  17.157 -1.0108  1.1026 -0.4545
  899MPD2     C13168   1.969   3.117  17.272  0.1211  0.2539 -0.1721
  899MPD2    C113169   2.043   3.217  17.333 -0.1398 -0.1440 -0.0525
  899MPD2    C213170   2.022   3.226  17.474  0.1468  0.1492 -0.3260
  899MPD2    C313171   1.928   3.153  17.540  0.4435  0.0233  0.7268
  899MPD2    C413172   1.869   3.040  17.476  0.3159  0.1436  0.7833
  899MPD2    C513173   1.897   3.033  17.342  0.7590 -0.0003 -0.5714
  899MPD2     H13174   2.060   3.313  17.527 -1.0379  0.2994  0.2751
  899MPD2    H113175   1.801   2.966  17.517 -2.0399 -0.2060 -3.6651
  899MPD2    H213176   1.977   3.102  17.165 -0.6296  0.1970 -0.2160
  899MPD2    H313177   1.837   2.959  17.291 -0.1509 -0.8753  1.7302
  899MPD2     N13178   1.888   3.182  17.678 -0.0954  0.5008  0.0498
  899MPD2    H513179   1.946   3.254   0.019  0.4738  1.2625 -2.1036
  899MPD2    N113180   2.127   3.304  17.256  0.3013  0.2107  0.2502
  899MPD2    H713181   2.121   3.296  17.155 -1.0491 -1.5162  0.4567
  900MPD2     C13182   1.934   0.805  12.538  0.1856  0.2269 -0.1459
  900MPD2    C113183   1.901   0.678  12.508 -0.0771 -0.2345  0.7245
  900MPD2    C213184   1.778   0.661  12.446  0.0397 -0.0335  0.1575
  900MPD2    C313185   1.691   0.761  12.416  0.1672  0.2165  0.6142
  900MPD2    C413186   1.726   0.887  12.465  0.5975  0.7443  0.0662
  900MPD2    C513187   1.850   0.909  12.517 -0.1067 -1.3852 -0.4440
  900MPD2     H13188   1.747   0.561  12.416 -0.4715  0.1988 -0.0990
  900MPD2    H113189   1.659   0.971  12.452 -0.6545 -0.2980 -0.1752
  900MPD2    H213190   2.029   0.827  12.585 -0.3312 -1.1304  1.5591
  900MPD2    H313191   1.878   1.011  12.540 -0.0994 -1.5564  0.2968
  900MPD2     N13192   1.571   0.722  12.352  0.4206 -0.5541 -0.1648
  900MPD2    H513193   1.563   0.621  12.353  0.6371 -0.5402  2.5482
  900MPD2    N113194   1.988   0.570  12.544 -0.1952 -0.0568  1.0636
  900MPD2    H713195   2.081   0.592  12.578 -0.2350  1.3209  0.3155
  901MPD2     C13196   2.147   4.316  12.978 -0.0218  0.4148 -0.0605
  901MPD2    C113197   2.196   4.329  12.854  0.2577  0.6324 -0.2283
  901MPD2    C213198   2.197   4.455  12.790 -0.0308  0.1081  0.1110
  901MPD2    C313199   2.134   4.561  12.853 -0.9029  0.2976 -0.7513
  901MPD2    C413200   2.078   4.545  12.970  0.8032  0.6120  0.6112
  901MPD2    C513201   2.076   4.421  13.029 -0.0424  0.2713  0.4926
  901MPD2     H13202   2.237   4.476  12.692  0.5493  2.8008  0.9011
  901MPD2    H113203   2.023   4.625  13.017  0.5031 -0.3919  1.9459
  901MPD2    H213204   2.147   4.220  13.029 -2.9762 -0.2905 -1.3815
  901MPD2    H313205   2.023   4.410  13.123  0.2305 -0.8861  0.5136
  901MPD2     N13206   2.128   4.682  12.779  0.0259  0.0130 -0.2222
  901MPD2    H513207   2.173   4.676  12.689 -0.7991 -1.1947 -0.5571
  901MPD2    N113208   2.246   4.214  12.795 -0.1407  0.4262 -0.2470
  901MPD2    H713209   2.232   4.131  12.852 -0.3437  1.4412  1.1710
  902MPD2     C13210   0.884   3.135  12.742  0.8467 -0.1870  0.3500
  902MPD2    C113211   0.852   3.174  12.614  0.2068  0.0321 -0.4883
  902MPD2    C213212   0.946   3.136  12.520 -0.2731  0.3953  0.7343
  902MPD2    C313213   1.060   3.065  12.545 -0.9223  0.0899 -0.1533
  902MPD2    C413214   1.086   3.033  12.675  0.4001  0.1295  0.5936
  902MPD2    C513215   0.996   3.077  12.768 -0.1447 -0.7441  0.0364
  902MPD2     H13216   0.923   3.168  12.419  2.5129  2.2713  0.7221
  902MPD2    H113217   1.171   2.973  12.705  0.7300  0.9269  1.2262
  902MPD2    H213218   0.828   3.170  12.828 -2.2906 -1.6092 -1.1011
  902MPD2    H313219   1.011   3.054  12.873  1.3997 -0.6850 -0.1633
  902MPD2     N13220   1.149   3.043  12.436 -0.3999  0.8286 -0.0601
  902MPD2    H513221   1.123   3.078  12.344  2.9186  0.4653 -1.1402
  902MPD2    N113222   0.736   3.241  12.572  0.5120  0.2597 -0.4914
  902MPD2    H713223   0.734   3.284  12.480 -2.7928 -0.5989 -0.7998
  903MPD2     C13224   1.315   2.956  11.631 -0.1181  0.3025 -0.4396
  903MPD2    C113225   1.245   3.002  11.736 -0.2598 -0.3564  0.0913
  903MPD2    C213226   1.100   3.009  11.720  0.6058  0.0517 -0.5785
  903MPD2    C313227   1.039   2.956  11.607  0.3583 -0.5445 -0.3618
  903MPD2    C413228   1.116   2.901  11.508 -0.0387  0.0647  0.5144
  903MPD2    C513229   1.253   2.905  11.519 -0.1700  0.2212 -0.0816
  903MPD2     H13230   1.041   3.044  11.804  1.3988 -0.0488  0.0185
  903MPD2    H113231   1.063   2.856  11.424 -1.5953 -0.9337  2.0183
  903MPD2    H213232   1.422   2.939  11.635  0.1196  1.9968  0.2913
  903MPD2    H313233   1.321   2.858  11.449  0.6704 -0.8808  1.4815
  903MPD2     N13234   0.899   2.947  11.616  0.5618  0.5899  0.4002
  903MPD2    H513235   0.856   2.978  11.702 -2.2483 -0.6075 -0.5727
  903MPD2    N113236   1.318   3.033  11.854  0.3723 -0.3463  0.6828
  903MPD2    H713237   1.419   3.030  11.844  0.6206  1.2515  2.5708
  904MPD2     C13238   0.698   1.869  14.021  0.0472 -0.9402 -0.2673
  904MPD2    C113239   0.696   2.005  14.044 -0.2184  0.3363 -0.2167
  904MPD2    C213240   0.787   2.065  14.134  0.2808 -0.2363  0.6002
  904MPD2    C313241   0.880   1.995  14.201  0.2021  0.4699  0.3453
  904MPD2    C413242   0.880   1.860  14.180  0.2984  0.2012  0.6845
  904MPD2    C513243   0.791   1.794  14.091  0.1930  0.7550  0.0193
  904MPD2     H13244   0.783   2.173  14.136  3.7059 -0.0844 -0.5146
  904MPD2    H113245   0.938   1.793  14.242  1.5474  0.6115 -0.0618
  904MPD2    H213246   0.612   1.827  13.969  0.0213 -0.9509 -0.2160
  904MPD2    H313247   0.791   1.686  14.082  1.9490  0.7925 -0.4488
  904MPD2     N13248   0.979   2.061  14.282 -0.1342 -0.3704  0.2280
  904MPD2    H513249   1.007   2.152  14.248 -0.8488 -0.0272  0.5633
  904MPD2    N113250   0.595   2.085  13.987  0.1287  0.3721  0.7935
  904MPD2    H713251   0.588   2.182  14.016  0.6523  0.0774  1.9161
  905MPD2     C13252   0.420   2.558  13.364  0.2080 -0.2201  0.2221
  905MPD2    C113253   0.503   2.492  13.459 -0.0246 -0.6060 -0.0640
  905MPD2    C213254   0.638   2.490  13.446  0.4329 -0.2988 -0.1223
  905MPD2    C313255   0.704   2.572  13.353  0.0179  0.7106 -0.4637
  905MPD2    C413256   0.622   2.645  13.266 -0.0744  0.2585  0.2491
  905MPD2    C513257   0.476   2.635  13.266  0.3657  0.9981 -0.2647
  905MPD2     H13258   0.703   2.434  13.513 -2.2167 -1.7996  1.1786
  905MPD2    H113259   0.665   2.719  13.200 -0.5481 -1.7639 -2.3386
  905MPD2    H213260   0.312   2.543  13.361  0.2463 -0.2136 -1.3280
  905MPD2    H313261   0.408   2.673  13.191 -0.7726  0.1941  0.3632
  905MPD2     N13262   0.850   2.574  13.326 -0.1364  0.5941  0.0373
  905MPD2    H513263   0.894   2.639  13.262  0.0062  1.3917  0.9459
  905MPD2    N113264   0.454   2.408  13.564  0.0819  0.0540  0.5206
  905MPD2    H713265   0.530   2.366  13.616 -0.8748 -4.3272 -1.6738
  906MPD2     C13266   3.318   2.163  11.701  0.1330  0.2815 -0.3061
  906MPD2    C113267   3.237   2.098  11.615 -0.1410  1.0668  0.2446
  906MPD2    C213268   3.122   2.031  11.662 -0.0224  0.1259 -0.1656
  906MPD2    C313269   3.083   2.053  11.792 -0.3326 -0.3655 -0.0606
  906MPD2    C413270   3.163   2.121  11.881 -1.1640 -0.8824 -0.0565
  906MPD2    C513271   3.280   2.173  11.830 -0.8224  0.4982  0.2499
  906MPD2     H13272   3.058   1.984  11.589 -0.5800 -0.5778  0.7782
  906MPD2    H113273   3.139   2.135  11.986  0.1457  1.7152 -0.1002
  906MPD2    H213274   3.410   2.215  11.677 -0.2349  1.6949  1.3574
  906MPD2    H313275   3.347   2.228  11.894  1.4842 -1.6808 -0.3139
  906MPD2     N13276   2.965   1.992  11.844 -0.8290 -0.1862 -0.9597
  906MPD2    H513277   2.935   2.012  11.939 -2.0389  0.7344 -1.5379
  906MPD2    N113278   3.264   2.088  11.476 -0.0054 -0.3785 -1.2238
  906MPD2    H713279   3.198   2.034  11.422 -1.0751 -0.5764  0.3049
  907MPD2     C13280   1.211   1.084  15.621 -0.0668  0.3999 -0.4411
  907MPD2    C113281   1.337   1.043  15.579 -0.3011 -0.0618  0.7065
  907MPD2    C213282   1.446   1.089  15.649 -0.2148  0.4254  0.4481
  907MPD2    C313283   1.435   1.172  15.761 -0.2872  0.1867 -0.4759
  907MPD2    C413284   1.315   1.211  15.796 -0.0255 -0.2855 -0.7963
  907MPD2    C513285   1.204   1.157  15.736 -0.6637 -0.8376 -0.2456
  907MPD2     H13286   1.541   1.054  15.611 -1.3736 -0.6753 -1.4590
  907MPD2    H113287   1.288   1.279  15.876 -0.3511  0.4728 -1.5489
  907MPD2    H213288   1.129   1.037  15.567 -0.5834  0.9724 -0.1483
  907MPD2    H313289   1.108   1.183  15.780 -1.0318 -1.3362 -0.7556
  907MPD2     N13290   1.557   1.220  15.819  0.5130 -0.1543 -0.7733
  907MPD2    H513291   1.646   1.175  15.798  0.3019 -0.2216 -1.4966
  907MPD2    N113292   1.350   0.956  15.470  0.6115 -0.2820  1.0211
  907MPD2    H713293   1.277   0.886  15.465  0.9379 -0.5046 -0.6272
  908MPD2     C13294   0.574   1.661   9.636 -0.2246 -0.5512 -0.1479
  908MPD2    C113295   0.439   1.637   9.639 -0.2894 -0.8588  0.1614
  908MPD2    C213296   0.352   1.744   9.662  0.0611 -0.6549  0.3014
  908MPD2    C313297   0.407   1.871   9.686 -0.4814 -0.2468  0.6220
  908MPD2    C413298   0.543   1.893   9.661 -0.5786  0.0226  0.0276
  908MPD2    C513299   0.622   1.786   9.639 -1.2284 -0.0150 -0.1888
  908MPD2     H13300   0.247   1.725   9.679  0.0867 -0.6979  0.4178
  908MPD2    H113301   0.596   1.987   9.669  1.2723 -0.9723 -0.5424
  908MPD2    H213302   0.645   1.586   9.604  0.5697 -0.1583  0.6861
  908MPD2    H313303   0.725   1.815   9.625 -1.0955  0.3026  1.4935
  908MPD2     N13304   0.317   1.968   9.732 -0.4507 -0.1448 -0.1180
  908MPD2    H513305   0.221   1.938   9.741  1.1110 -4.2897  2.8871
  908MPD2    N113306   0.400   1.501   9.614 -0.1361 -0.3033  0.7408
  908MPD2    H713307   0.473   1.438   9.583  0.6496  1.3213 -0.7174
  909MPD2     C13308   4.585   0.234  11.822 -0.3343 -0.2937  0.3343
  909MPD2    C113309   4.520   0.331  11.745  0.5683  0.1278 -0.1686
  909MPD2    C213310   4.416   0.399  11.804 -0.1483 -0.0799 -0.3035
  909MPD2    C313311   4.378   0.375  11.939  0.3089 -0.3834 -0.1101
  909MPD2    C413312   4.440   0.278  12.003  0.3522  0.2357  0.1935
  909MPD2    C513313   4.538   0.203  11.946 -0.7377  0.0960  0.4542
  909MPD2     H13314   4.380   0.489  11.755 -1.3295 -0.6738 -0.5252
  909MPD2    H113315   4.420   0.246  12.105  2.1527  2.1190  1.1537
  909MPD2    H213316   4.668   0.173  11.786 -0.7014 -1.4895  1.5108
  909MPD2    H313317   4.579   0.127  12.011 -2.0220 -1.1017 -0.1534
  909MPD2     N13318   4.269   0.447  11.994 -0.8546  0.0560 -0.5855
  909MPD2    H513319   4.232   0.524  11.939  2.7283  1.3781 -1.1051
  909MPD2    N113320   4.551   0.367  11.613  0.4183 -0.3541 -0.1443
  909MPD2    H713321   4.506   0.453  11.584  0.6532 -0.0747  0.3135
  910MPD2     C13322   0.390   1.790  16.332 -0.1225  0.7506  0.4006
  910MPD2    C113323   0.463   1.718  16.231  0.0854  0.3268  0.3473
  910MPD2    C213324   0.437   1.753  16.101  0.4548 -0.8046 -0.6681
  910MPD2    C313325   0.347   1.849  16.070  0.3173  0.7155 -0.0965
  910MPD2    C413326   0.287   1.925  16.165 -0.2259 -0.0732  0.8906
  910MPD2    C513327   0.314   1.897  16.297 -0.0789 -0.4161 -0.1513
  910MPD2     H13328   0.483   1.694  16.021  0.8215 -1.7806  0.2573
  910MPD2    H113329   0.208   1.993  16.136  0.5916  1.5252  2.4262
  910MPD2    H213330   0.384   1.760  16.436 -2.1420 -0.4699 -0.0711
  910MPD2    H313331   0.280   1.953  16.383  2.1774  1.2096 -0.3087
  910MPD2     N13332   0.304   1.890  15.940 -0.2122  0.0043  0.0794
  910MPD2    H513333   0.242   1.970  15.943  0.3242  0.3952  0.7668
  910MPD2    N113334   0.536   1.604  16.258  0.3542 -0.5884 -0.1171
  910MPD2    H713335   0.586   1.564  16.179  0.9033  0.6731 -0.4114
  911MPD2     C13336   3.561   1.305  16.185 -0.4542 -0.5752  0.2716
  911MPD2    C113337   3.553   1.408  16.278 -0.0953 -0.4551  0.2731
  911MPD2    C213338   3.437   1.433  16.339  0.5661 -0.1488 -0.1324
  911MPD2    C313339   3.323   1.355  16.315 -0.7025  0.2484  0.2307
  911MPD2    C413340   3.327   1.253  16.224 -0.0605  0.0186  0.8907
  911MPD2    C513341   3.446   1.229  16.167  0.1033  0.3045  0.0256
  911MPD2     H13342   3.428   1.512  16.413 -1.6544 -0.5753  0.0460
  911MPD2    H113343   3.245   1.187  16.199  1.1932 -1.3053  0.2295
  911MPD2    H213344   3.654   1.283  16.134 -1.0780 -1.0689 -0.6540
  911MPD2    H313345   3.451   1.153  16.090  0.5672  0.9679 -0.5968
  911MPD2     N13346   3.199   1.385  16.377  0.0568  0.6623 -0.4638
  911MPD2    H513347   3.115   1.342  16.341 -0.5440  0.0606  1.6757
  911MPD2    N113348   3.669   1.493  16.290  0.2543  0.4776 -0.3692
  911MPD2    H713349   3.747   1.453  16.239 -0.4912  0.1668 -1.2806
  912MPD2     C13350   2.373   1.479  16.298 -0.0226  0.5174  0.0815
  912MPD2    C113351   2.476   1.395  16.342 -0.8169  0.3707 -0.6608
  912MPD2    C213352   2.453   1.260  16.356  0.3749 -0.2791 -0.7566
  912MPD2    C313353   2.333   1.202  16.326 -0.6592 -0.3240 -0.7177
  912MPD2    C413354   2.227   1.288  16.294 -0.0316 -0.0268  0.3623
  912MPD2    C513355   2.254   1.423  16.275 -0.3140  0.3976  0.8261
  912MPD2     H13356   2.523   1.187  16.396 -0.9411 -1.3029 -0.2955
  912MPD2    H113357   2.133   1.246  16.260 -0.8033  2.3176 -0.4384
  912MPD2    H213358   2.379   1.587  16.286 -1.1063  0.6982  1.2260
  912MPD2    H313359   2.172   1.482  16.236  0.4431  0.2636 -0.9588
  912MPD2     N13360   2.325   1.070  16.362 -0.3605  0.4045 -0.0491
  912MPD2    H513361   2.411   1.016  16.371 -0.6685 -0.2655 -1.1785
  912MPD2    N113362   2.603   1.459  16.361  0.2363  0.3547 -0.0011
  912MPD2    H713363   2.597   1.553  16.324 -0.4899  0.5440  0.5883
  913MPD2     C13364   4.322   3.249  10.197  1.2971 -0.2531 -0.2598
  913MPD2    C113365   4.397   3.264  10.085  0.5027  0.6683 -0.0963
  913MPD2    C213366   4.395   3.392  10.021 -0.1650 -0.1304  0.0539
  913MPD2    C313367   4.341   3.499  10.087 -0.5887 -0.2914 -0.1826
  913MPD2    C413368   4.276   3.486  10.206 -1.1659 -0.6234 -0.0272
  913MPD2    C513369   4.268   3.359  10.257  0.0820  0.6331 -0.2041
  913MPD2     H13370   4.441   3.404   9.923 -3.2622 -2.8248 -1.7436
  913MPD2    H113371   4.243   3.569  10.268 -1.1498 -0.0839 -0.7465
  913MPD2    H213372   4.326   3.158  10.256  2.4694 -1.4560 -2.1882
  913MPD2    H313373   4.237   3.337  10.359  0.3080  2.1359  0.1992
  913MPD2     N13374   4.348   3.631  10.037 -0.0176 -0.4881  0.1186
  913MPD2    H513375   4.275   3.688  10.080  0.9015  1.2401 -0.5997
  913MPD2    N113376   4.474   3.154  10.040  0.1473 -0.0483  0.0562
  913MPD2    H713377   4.454   3.070  10.093 -3.3873 -0.1046 -1.3315
  914MPD2     C13378   2.728   3.966  11.927  0.6129  0.3041  0.0571
  914MPD2    C113379   2.681   4.087  11.976  0.1452 -0.0514 -0.8375
  914MPD2    C213380   2.615   4.081  12.102 -0.3130  0.1565  0.7630
  914MPD2    C313381   2.584   3.965  12.167  0.2514  0.4586 -0.0320
  914MPD2    C413382   2.611   3.847  12.110 -0.1885 -0.1188  0.3191
  914MPD2    C513383   2.680   3.853  11.991  0.0265 -0.4570 -0.1208
  914MPD2     H13384   2.584   4.175  12.146 -0.6170 -0.6585  2.2866
  914MPD2    H113385   2.588   3.754  12.161 -1.9424 -0.0895 -0.3956
  914MPD2    H213386   2.792   3.947  11.841  1.4903 -1.0558  1.0017
  914MPD2    H313387   2.704   3.754  11.955  2.3376  0.3886 -0.8881
  914MPD2     N13388   2.539   3.977  12.300  0.1615  0.3850 -0.4214
  914MPD2    H513389   2.512   4.069  12.333 -3.0806 -1.2248  1.3493
  914MPD2    N113390   2.703   4.202  11.899 -0.2533 -0.0774  0.5830
  914MPD2    H713391   2.738   4.192  11.804  0.4463  0.4142  0.7850
  915MPD2     C13392   0.144   3.666  15.428 -0.8186  0.1177  0.9758
  915MPD2    C113393   0.038   3.749  15.387 -0.0879 -0.1397  0.5242
  915MPD2    C213394   4.683   3.813  15.478 -0.3813 -0.2322 -0.2426
  915MPD2    C313395   4.693   3.779  15.612  0.0888 -0.6232  0.0810
  915MPD2    C413396   0.064   3.693  15.644 -0.3313 -0.0457 -0.6873
  915MPD2    C513397   0.144   3.632  15.560  0.0201 -0.0239 -0.4058
  915MPD2     H13398   4.601   3.877  15.447  0.6616  1.1059 -0.2330
  915MPD2    H113399   0.071   3.648  15.742  2.9680 -4.3058 -2.8876
  915MPD2    H213400   0.202   3.610  15.356 -1.5099 -1.1429  1.4150
  915MPD2    H313401   0.212   3.557  15.598  1.0000  1.7458  1.3432
  915MPD2     N13402   4.600   3.833  15.709 -0.1852 -0.2586  0.2943
  915MPD2    H513403   4.534   3.889  15.658 -0.0323  0.4906  0.9188
  915MPD2    N113404   0.024   3.762  15.244  0.2820  1.2464 -0.0898
  915MPD2    H713405   0.064   3.686  15.189 -1.5820  0.1262  0.0855
  916MPD2     C13406   2.670   1.959  15.688 -0.8734  0.1144 -0.4291
  916MPD2    C113407   2.611   1.847  15.744 -0.7384 -0.2131  0.6614
  916MPD2    C213408   2.660   1.715  15.718 -0.2170  0.1985  0.1939
  916MPD2    C313409   2.773   1.696  15.633 -0.0901  0.2620 -0.1514
  916MPD2    C413410   2.828   1.807  15.577  0.4231  0.3384  0.2471
  916MPD2    C513411   2.775   1.934  15.598 -0.5139  0.0315 -0.1112
  916MPD2     H13412   2.613   1.630  15.766  0.2497  0.0630  0.4069
  916MPD2    H113413   2.910   1.797  15.507  0.5772  0.3763  0.4234
  916MPD2    H213414   2.634   2.061  15.685  0.0088  0.4865  1.4101
  916MPD2    H313415   2.837   2.012  15.556  1.3815 -0.8850  0.9352
  916MPD2     N13416   2.816   1.565  15.625 -0.0621  0.0941  0.1611
  916MPD2    H513417   2.762   1.490  15.667 -1.4351  0.2391 -1.3375
  916MPD2    N113418   2.499   1.873  15.826  0.5539 -0.0373  0.1910
  916MPD2    H713419   2.479   1.971  15.841 -0.6946 -0.1258 -0.8784
  917MPD2     C13420   3.580   4.650  10.688 -0.4495  0.1238  0.5269
  917MPD2    C113421   3.668   4.668  10.790  0.2316 -0.3082 -0.2601
  917MPD2    C213422   3.771   0.029  10.780  0.2408  0.7162 -0.1487
  917MPD2    C313423   3.804   0.087  10.658 -0.1818  0.0827 -0.1125
  917MPD2    C413424   3.711   0.072  10.556 -0.3097 -0.1851 -0.1072
  917MPD2    C513425   3.596   4.719  10.578 -0.0410 -0.4800  0.1590
  917MPD2     H13426   3.841   0.042  10.862 -0.5317 -3.4302  1.1865
  917MPD2    H113427   3.717   0.147  10.478 -0.7455  0.1270  0.1601
  917MPD2    H213428   3.493   4.585  10.694  1.0180 -1.8035  0.8170
  917MPD2    H313429   3.521   4.714  10.501  1.9215 -1.1672 -1.6984
  917MPD2     N13430   3.914   0.178  10.638  0.2645  0.3531  0.2720
  917MPD2    H513431   3.919   0.218  10.545  1.2033  1.0695  0.6350
  917MPD2    N113432   3.632   4.606  10.909 -0.0686 -0.2798 -0.1011
  917MPD2    H713433   3.553   4.543  10.914 -1.5720  1.6596  0.7613
  918MPD2     C13434   3.917   4.416  11.953 -0.3759 -0.3756  0.2691
  918MPD2    C113435   3.895   4.296  11.888  0.3080 -0.4674 -0.6242
  918MPD2    C213436   3.833   4.306  11.769  0.4059 -0.3560  0.7854
  918MPD2    C313437   3.796   4.424  11.710 -0.8455  0.3451  0.1609
  918MPD2    C413438   3.815   4.543  11.778  0.1986 -0.0326 -0.5961
  918MPD2    C513439   3.870   4.531  11.902  0.1040 -0.4984 -0.3073
  918MPD2     H13440   3.803   4.217  11.713 -0.7456  1.0870 -0.8855
  918MPD2    H113441   3.799   4.640  11.734  0.7473 -0.9471 -2.8062
  918MPD2    H213442   3.980   4.408  12.041 -0.8247 -2.1040  0.4457
  918MPD2    H313443   3.904   4.621  11.952  1.4883 -0.0656 -2.0165
  918MPD2     N13444   3.735   4.408  11.585 -0.4394  0.8071 -0.4451
  918MPD2    H513445   3.714   4.314  11.553 -1.6224  0.6649  0.7184
  918MPD2    N113446   3.951   4.178  11.928 -0.6512 -0.0443  0.0495
  918MPD2    H713447   3.942   4.102  11.862 -1.3018 -0.5000  0.6631
  919MPD2     C13448   3.740   3.483  10.890  0.5418  0.6475 -0.8641
  919MPD2    C113449   3.798   3.361  10.871  0.0854 -0.6265  0.2562
  919MPD2    C213450   3.843   3.327  10.744  0.7881  0.1373 -1.0071
  919MPD2    C313451   3.856   3.425  10.643 -0.4284 -0.4355 -0.1253
  919MPD2    C413452   3.803   3.555  10.666  0.3332 -0.7213 -0.3591
  919MPD2    C513453   3.737   3.574  10.786 -0.4390 -0.0396  0.0755
  919MPD2     H13454   3.863   3.222  10.727 -0.0807 -0.3867  1.2114
  919MPD2    H113455   3.810   3.644  10.604 -1.4062 -0.1397  0.2534
  919MPD2    H213456   3.701   3.511  10.987  1.5130  2.0681 -0.8865
  919MPD2    H313457   3.689   3.668  10.809 -0.4354 -0.8774  3.4450
  919MPD2     N13458   3.902   3.400  10.518  0.2157  0.1688  0.3088
  919MPD2    H513459   3.893   3.481  10.457  2.7930  0.7186  0.6514
  919MPD2    N113460   3.802   3.265  10.975  0.3236 -0.3338  0.1073
  919MPD2    H713461   3.812   3.168  10.951 -1.3045 -0.1303 -1.3864
  920MPD2     C13462   3.685   3.842   9.843 -0.1304  0.2135  0.2649
  920MPD2    C113463   3.609   3.787   9.939 -0.3697  0.3757  0.6522
  920MPD2    C213464   3.666   3.697  10.018  0.1937 -0.0134  0.4342
  920MPD2    C313465   3.799   3.652  10.000  0.7523 -0.2743 -0.7327
  920MPD2    C413466   3.872   3.717   9.911 -0.4909  0.8023  0.0463
  920MPD2    C513467   3.818   3.807   9.826 -0.1547 -0.3386 -0.5848
  920MPD2     H13468   3.613   3.638  10.092  0.0567 -1.0265 -0.4643
  920MPD2    H113469   3.975   3.693   9.889 -1.1825 -0.2865 -1.9361
  920MPD2    H213470   3.649   3.921   9.779  1.4267 -0.6910 -1.7164
  920MPD2    H313471   3.870   3.859   9.746  0.0496  0.1075 -0.1683
  920MPD2     N13472   3.852   3.544  10.075  0.2610  1.1441 -0.2556
  920MPD2    H513473   3.789   3.526  10.153  1.4361  0.1925  0.4591
  920MPD2    N113474   3.474   3.824   9.966 -0.1002 -0.5075 -0.0694
  920MPD2    H713475   3.434   3.791  10.054  0.2541  1.4119  0.8107
  921MPD2     C13476   3.746   2.419  16.597 -0.0597  0.0989 -0.0599
  921MPD2    C113477   3.864   2.368  16.644 -0.6618 -0.0723 -0.5886
  921MPD2    C213478   3.885   2.228  16.629  1.0028  0.4309 -0.1530
  921MPD2    C313479   3.797   2.155  16.552 -0.2305  0.2297  0.4545
  921MPD2    C413480   3.687   2.211  16.508 -0.0652 -0.2317  0.2914
  921MPD2    C513481   3.652   2.340  16.533  0.4482  0.2038  0.0139
  921MPD2     H13482   3.964   2.172  16.677  0.4186 -0.0424  0.2537
  921MPD2    H113483   3.612   2.152  16.456 -0.1326 -1.1424  1.4265
  921MPD2    H213484   3.722   2.523  16.616  1.3729  0.2309  1.0614
  921MPD2    H313485   3.560   2.384  16.496 -0.0247  0.0368  0.9975
  921MPD2     N13486   3.839   2.032  16.497 -0.7099  0.7856  0.7770
  921MPD2    H513487   3.777   1.990  16.428  2.2389 -0.1391 -1.3085
  921MPD2    N113488   3.951   2.450  16.716  0.1348 -0.1833  0.5507
  921MPD2    H713489   3.923   2.546  16.736  2.6638  0.4832  0.8977
  922MPD2     C13490   0.807   4.649  17.509 -0.6799 -1.3053 -0.4888
  922MPD2    C113491   0.799   0.057  17.460  0.1797 -0.5844  0.3366
  922MPD2    C213492   0.675   0.116  17.456  0.2129  0.5680 -0.3975
  922MPD2    C313493   0.561   0.042  17.492  0.6861 -0.2384  0.2488
  922MPD2    C413494   0.570   4.636  17.546  0.0956  0.1476  0.2414
  922MPD2    C513495   0.695   4.582  17.552 -0.4832  0.8171 -0.0816
  922MPD2     H13496   0.661   0.215  17.416 -1.0802  0.4104 -0.3398
  922MPD2    H113497   0.488   4.573  17.579  0.3395 -0.7477 -0.8518
  922MPD2    H213498   0.904   4.602  17.506 -0.7426 -1.5742  1.5786
  922MPD2    H313499   0.702   4.479  17.586 -0.6560  1.1422  0.9107
  922MPD2     N13500   0.438   0.093  17.452 -0.3480 -0.4721 -0.4731
  922MPD2    H513501   0.434   0.185  17.410 -0.6836  0.3086  1.3048
  922MPD2    N113502   0.904   0.130  17.407 -0.2995  0.2295  0.2784
  922MPD2    H713503   0.877   0.225  17.382 -0.8277 -0.0313 -0.1613
  923MPD2     C13504   2.020   1.818   9.309 -0.6228  0.7977  0.4302
  923MPD2    C113505   2.140   1.855   9.357 -0.4207 -0.5940 -0.1087
  923MPD2    C213506   2.226   1.766   9.413 -0.1046 -0.2471  0.1781
  923MPD2    C313507   2.193   1.632   9.402 -0.1352 -0.0189  0.2133
  923MPD2    C413508   2.073   1.594   9.342  0.2656 -0.1211  0.8721
  923MPD2    C513509   1.984   1.691   9.306 -0.0914 -0.1304  0.0581
  923MPD2     H13510   2.322   1.798   9.451 -1.0076  2.1781  0.3856
  923MPD2    H113511   2.050   1.490   9.323 -0.5670  0.3442 -0.7269
  923MPD2    H213512   1.942   1.882   9.271  0.8992  2.5133  0.1668
  923MPD2    H313513   1.883   1.668   9.274 -0.0464 -0.3311  0.0584
  923MPD2     N13514   2.280   1.534   9.445  0.3167 -0.2087  0.0335
  923MPD2    H513515   2.245   1.439   9.442  1.2005 -0.5668  1.1148
  923MPD2    N113516   2.161   1.996   9.353  0.1636  0.9633 -0.5876
  923MPD2    H713517   2.091   2.048   9.302 -0.0011 -0.7174 -2.1022
  924MPD2     C13518   1.654   0.688  15.632 -0.3072  0.2251  0.1062
  924MPD2    C113519   1.656   0.687  15.770 -0.7449  0.1323 -0.2150
  924MPD2    C213520   1.709   0.800  15.836  0.0843  0.8084 -0.0565
  924MPD2    C313521   1.759   0.902  15.764 -0.2562 -0.3036 -0.0533
  924MPD2    C413522   1.762   0.897  15.628 -0.1230 -0.3788  0.8657
  924MPD2    C513523   1.712   0.791  15.565 -0.4678  0.6460  0.1936
  924MPD2     H13524   1.696   0.807  15.943  2.0353 -1.8666  0.3497
  924MPD2    H113525   1.796   0.982  15.571  0.8274 -2.5025 -1.7311
  924MPD2    H213526   1.609   0.602  15.584 -1.8258  0.4568  1.0978
  924MPD2    H313527   1.721   0.795  15.457 -1.7032  0.5352  0.0842
  924MPD2     N13528   1.815   1.021  15.828 -0.5182 -0.5320 -1.0192
  924MPD2    H513529   1.858   1.091  15.769 -2.5489  3.4540  2.3126
  924MPD2    N113530   1.586   0.585  15.839 -0.2120 -0.1309  0.5593
  924MPD2    H713531   1.526   0.519  15.792  0.5592 -0.4968  0.0839
  925MPD2     C13532   4.397   3.244  14.710 -0.6686  0.4824 -0.1291
  925MPD2    C113533   4.514   3.186  14.747  0.0752  0.3155  0.3421
  925MPD2    C213534   4.573   3.211  14.871  0.4913  1.0530 -0.2562
  925MPD2    C313535   4.520   3.306  14.958  0.1621 -0.3339  0.6555
  925MPD2    C413536   4.402   3.364  14.922 -0.3417 -0.4459 -0.0611
  925MPD2    C513537   4.341   3.326  14.803 -0.2964 -0.7939 -0.2735
  925MPD2     H13538   4.663   3.154  14.894 -0.4329 -0.7236 -1.0280
  925MPD2    H113539   4.350   3.436  14.984  2.7740  2.2104 -0.5101
  925MPD2    H213540   4.348   3.220  14.617 -1.0391  0.5899  0.0390
  925MPD2    H313541   4.244   3.369  14.783  0.2264  1.1539  1.3804
  925MPD2     N13542   4.582   3.328  15.076  0.5901  0.0577 -0.8222
  925MPD2    H513543   4.657   3.261  15.089 -1.0445 -2.3367 -3.8200
  925MPD2    N113544   4.558   3.098  14.644  0.1419  0.0847 -0.2326
  925MPD2    H713545   4.502   3.101  14.560  0.8137 -2.7077 -0.7781
  926MPD2     C13546   4.419   1.176  13.170 -0.2524  0.6685 -0.0104
  926MPD2    C113547   4.506   1.255  13.241 -0.4767  0.2167  0.9723
  926MPD2    C213548   4.586   1.345  13.170  0.5525 -0.3886 -0.1352
  926MPD2    C313549   4.564   1.380  13.034  0.5156  0.2539  0.2983
  926MPD2    C413550   4.471   1.305  12.965  0.6932  0.0763 -0.0736
  926MPD2    C513551   4.401   1.210  13.037  0.6413 -0.1869 -0.7406
  926MPD2     H13552   4.658   1.400  13.229 -0.1639  0.9630 -0.5030
  926MPD2    H113553   4.454   1.316  12.859  0.4369  0.3531 -0.0046
  926MPD2    H213554   4.360   1.102  13.222  1.1466 -1.0837 -0.9286
  926MPD2    H313555   4.322   1.160  12.982 -0.3519  0.7131 -0.1289
  926MPD2     N13556   4.641   1.481  12.963 -0.0623 -0.0536  0.0238
  926MPD2    H513557   4.610   1.507  12.871 -1.0633 -2.7658 -0.4181
  926MPD2    N113558   4.513   1.253  13.383 -0.4844 -0.6781 -0.0631
  926MPD2    H713559   4.565   1.332  13.419  1.8480 -1.5231 -1.5621
  927MPD2     C13560   3.114   3.071   0.080  0.7483  0.7465 -0.0219
  927MPD2    C113561   3.233   3.124   0.130  0.5896  0.5914  0.3117
  927MPD2    C213562   3.343   3.161   0.050 -0.1931 -0.6616  0.5685
  927MPD2    C313563   3.325   3.148  17.614  0.4802 -0.6504  0.5102
  927MPD2    C413564   3.207   3.101  17.562 -0.0724  0.7451 -0.7603
  927MPD2    C513565   3.102   3.066  17.643  0.1904  0.3193 -0.5080
  927MPD2     H13566   3.422   3.213   0.102 -0.3956 -0.0010  0.2117
  927MPD2    H113567   3.184   3.091  17.457 -1.1992  2.5089 -0.6780
  927MPD2    H213568   3.035   3.037   0.147  0.3250  1.1322 -0.3303
  927MPD2    H313569   3.012   3.037  17.589  0.6078 -0.2620 -0.8934
  927MPD2     N13570   3.424   3.178  17.519  0.1097  0.2671 -0.3622
  927MPD2    H513571   3.408   3.159  17.421  1.0929 -0.2827 -0.4221
  927MPD2    N113572   3.236   3.156   0.268 -0.3973  0.2054 -0.3036
  927MPD2    H713573   3.144   3.147   0.309  0.8720 -0.0028  2.5095
  928MPD2     C13574   1.395   1.889   0.750  0.6106  0.2487 -0.2265
  928MPD2    C113575   1.505   1.961   0.782  0.2438  0.2906 -0.7718
  928MPD2    C213576   1.631   1.936   0.725 -0.1695 -0.8487 -0.5322
  928MPD2    C313577   1.641   1.833   0.643 -0.3161  0.2008  0.1787
  928MPD2    C413578   1.529   1.748   0.618  0.3055 -0.0975  0.6797
  928MPD2    C513579   1.406   1.781   0.669 -0.5772  0.8248  0.0335
  928MPD2     H13580   1.718   1.995   0.749 -0.1860 -1.0377  0.0185
  928MPD2    H113581   1.524   1.662   0.552  1.3482  1.1169 -0.9965
  928MPD2    H213582   1.296   1.909   0.789 -0.0349 -0.7401 -1.3715
  928MPD2    H313583   1.314   1.729   0.648  0.6157 -1.2257 -0.1077
  928MPD2     N13584   1.758   1.798   0.579 -0.0460 -0.4962 -0.3405
  928MPD2    H513585   1.751   1.719   0.517 -1.2575 -2.4058  2.2031
  928MPD2    N113586   1.513   2.060   0.884 -0.1844 -0.5733  0.4458
  928MPD2    H713587   1.604   2.092   0.915  0.7103 -1.4232 -1.2735
  929MPD2     C13588   2.469   2.133   9.971 -1.4013 -0.2720 -0.8111
  929MPD2    C113589   2.351   2.077  10.002 -0.2385 -0.2392  0.3379
  929MPD2    C213590   2.330   1.941   9.965 -0.5980  0.2643  0.0182
  929MPD2    C313591   2.407   1.878   9.870 -0.1018 -0.1704  0.4003
  929MPD2    C413592   2.528   1.944   9.837 -0.1062  0.1303 -0.8763
  929MPD2    C513593   2.562   2.066   9.892 -0.7257  0.5122  0.3155
  929MPD2     H13594   2.233   1.897   9.984 -0.6345  0.4379  0.2335
  929MPD2    H113595   2.586   1.901   9.757  0.9797 -1.2041  0.6169
  929MPD2    H213596   2.506   2.226  10.013  1.6540 -0.9554 -1.9988
  929MPD2    H313597   2.652   2.113   9.854  0.6495 -0.6177  2.1943
  929MPD2     N13598   2.383   1.746   9.817 -0.4338  0.1070 -0.2191
  929MPD2    H513599   2.465   1.702   9.776  0.5302  1.4470  0.2264
  929MPD2    N113600   2.247   2.153  10.063 -0.3284 -0.4477 -0.1068
  929MPD2    H713601   2.270   2.244  10.100 -2.4995  0.0347  0.0975
  930MPD2     C13602   3.245   4.376  14.190  0.0654  0.7402  0.2073
  930MPD2    C113603   3.367   4.375  14.129  0.3000  0.7196  0.1583
  930MPD2    C213604   3.392   4.272  14.029  0.4712 -0.0779  0.3807
  930MPD2    C313605   3.286   4.194  13.980 -0.4993  0.6750 -0.2129
  930MPD2    C413606   3.162   4.207  14.042 -0.7651 -0.1019  0.8794
  930MPD2    C513607   3.148   4.295  14.145 -0.3205 -0.0602 -0.0414
  930MPD2     H13608   3.492   4.266  13.986  0.3351  1.3981 -0.1492
  930MPD2    H113609   3.076   4.162  13.992 -1.5241  1.8960  0.3912
  930MPD2    H213610   3.216   4.449  14.264 -1.9613  0.8709 -0.7264
  930MPD2    H313611   3.050   4.305  14.190  1.0750 -0.1670  2.9975
  930MPD2     N13612   3.297   4.132  13.853 -0.4425  0.3185 -0.4115
  930MPD2    H513613   3.212   4.115  13.800 -2.1119  1.4908  1.8794
  930MPD2    N113614   3.456   4.483  14.150 -0.0890 -0.4413  0.2761
  930MPD2    H713615   3.412   4.564  14.193  2.2809  0.3385  1.2161
  931MPD2     C13616   3.670   2.980   0.920  0.1826  0.3922 -0.4558
  931MPD2    C113617   3.539   2.998   0.931 -1.2565  0.1607  0.8659
  931MPD2    C213618   3.472   2.948   1.043  0.9672 -0.3841 -0.1576
  931MPD2    C313619   3.546   2.895   1.147 -0.0975  0.0894  0.2834
  931MPD2    C413620   3.681   2.885   1.132  0.0467 -0.4226 -0.3717
  931MPD2    C513621   3.747   2.934   1.024 -0.1039 -0.0889  0.4100
  931MPD2     H13622   3.367   2.957   1.066  1.7727 -1.1171  3.8641
  931MPD2    H113623   3.739   2.824   1.201  0.2476 -1.8905 -1.8509
  931MPD2    H213624   3.723   3.030   0.840  0.9317  1.8928  0.9817
  931MPD2    H313625   3.853   2.914   1.014 -0.0102  0.0204  1.1864
  931MPD2     N13626   3.491   2.848   1.276  0.2720 -0.2171 -0.3895
  931MPD2    H513627   3.556   2.791   1.329  1.2376  0.9746 -0.2933
  931MPD2    N113628   3.465   3.065   0.829 -0.4710 -0.3527  0.2857
  931MPD2    H713629   3.522   3.088   0.748 -2.0141  3.7350  0.3732
  932MPD2     C13630   0.997   2.695  10.837 -0.3983 -0.2922  0.5708
  932MPD2    C113631   1.107   2.767  10.875  0.6774 -0.1781  0.9239
  932MPD2    C213632   1.195   2.710  10.961  0.2236  0.4030 -0.2453
  932MPD2    C313633   1.170   2.588  11.019  0.2635 -0.4077  0.0913
  932MPD2    C413634   1.061   2.514  10.976  0.4659  0.3629 -0.1529
  932MPD2    C513635   0.973   2.566  10.889 -0.0788 -0.0795 -0.1297
  932MPD2     H13636   1.282   2.771  10.983  0.7527 -0.2579 -0.5341
  932MPD2    H113637   1.034   2.420  11.023  1.5424 -0.9544 -2.1702
  932MPD2    H213638   0.924   2.728  10.764  0.5492  0.6344  0.0393
  932MPD2    H313639   0.882   2.512  10.864  0.5949 -0.6082 -1.4765
  932MPD2     N13640   1.260   2.530  11.107  0.0055  0.2050 -0.6490
  932MPD2    H513641   1.238   2.432  11.122  1.1904 -0.0906 -0.8591
  932MPD2    N113642   1.141   2.892  10.820 -0.0875  0.3978 -0.0962
  932MPD2    H713643   1.231   2.934  10.841 -0.8023  0.7555  2.2329
  933MPD2     C13644   0.948   2.460   1.266  0.4169 -0.2980 -0.1369
  933MPD2    C113645   1.058   2.531   1.233  0.0164  0.3871  0.3635
  933MPD2    C213646   1.050   2.664   1.211 -0.0056  0.7552 -0.5367
  933MPD2    C313647   0.932   2.733   1.229 -0.6548 -0.2743 -0.2318
  933MPD2    C413648   0.819   2.658   1.252 -0.2645 -0.5509 -0.4313
  933MPD2    C513649   0.828   2.526   1.277 -0.2232 -0.2690  0.2078
  933MPD2     H13650   1.143   2.712   1.185 -0.1721  0.9490 -0.7749
  933MPD2    H113651   0.719   2.701   1.246  0.1618  0.4787 -0.2624
  933MPD2    H213652   0.960   2.354   1.285  0.9357 -0.0629  0.8730
  933MPD2    H313653   0.736   2.474   1.299  0.1716 -1.6435 -1.4140
  933MPD2     N13654   0.936   2.872   1.201 -0.0065  0.1760 -0.4713
  933MPD2    H513655   1.028   2.905   1.176  1.1333 -1.6597  1.2402
  933MPD2    N113656   1.175   2.455   1.207 -0.0333  0.1028  0.1880
  933MPD2    H713657   1.173   2.355   1.225 -0.2103  0.1878  0.6433
  934MPD2     C13658   1.969   4.043   2.186 -0.3876  0.1053  0.3737
  934MPD2    C113659   2.071   3.964   2.139 -0.1076 -0.0042 -0.4672
  934MPD2    C213660   2.089   3.946   2.002  0.1552  0.0570 -0.2029
  934MPD2    C313661   2.001   4.012   1.914 -0.4630 -0.6419 -0.4039
  934MPD2    C413662   1.905   4.096   1.962  0.3748  1.0480 -0.3671
  934MPD2    C513663   1.884   4.110   2.094  0.0196  0.1299  0.4002
  934MPD2     H13664   2.184   3.898   1.979  1.0213  0.6344  2.1648
  934MPD2    H113665   1.844   4.152   1.892  1.5866  1.4165 -1.1390
  934MPD2    H213666   1.961   4.065   2.292 -2.5963  2.3453 -0.2348
  934MPD2    H313667   1.815   4.180   2.139 -0.8569 -0.7231  0.3721
  934MPD2     N13668   2.016   4.007   1.769  0.5952  0.1308  0.0034
  934MPD2    H513669   1.950   4.064   1.716  2.2250  1.8269 -0.1864
  934MPD2    N113670   2.160   3.892   2.227  0.0899  0.2179  0.4478
  934MPD2    H713671   2.238   3.841   2.187 -0.8261 -0.3126 -0.6609
  935MPD2     C13672   2.654   3.383   1.325 -0.4856 -0.2957 -0.1031
  935MPD2    C113673   2.636   3.474   1.230 -0.0335 -0.2690  0.0695
  935MPD2    C213674   2.566   3.587   1.261 -0.4062  0.1906 -0.3395
  935MPD2    C313675   2.511   3.602   1.389  0.3542 -0.1052 -1.1271
  935MPD2    C413676   2.528   3.509   1.483 -0.2552 -0.0611  0.0353
  935MPD2    C513677   2.599   3.398   1.451 -0.3557  0.2581 -0.3675
  935MPD2     H13678   2.573   3.669   1.191  1.1212 -0.3593 -0.8263
  935MPD2    H113679   2.502   3.528   1.587 -3.0587  0.5394 -0.7794
  935MPD2    H213680   2.717   3.297   1.305 -0.1937 -0.0573 -0.2036
  935MPD2    H313681   2.609   3.315   1.521 -1.2975  0.4415 -0.0060
  935MPD2     N13682   2.424   3.712   1.424  0.0945 -0.1751 -0.0277
  935MPD2    H513683   2.386   3.717   1.518  0.3191 -1.4450  0.1352
  935MPD2    N113684   2.677   3.461   1.093 -0.0644 -0.3315  0.4114
  935MPD2    H713685   2.645   3.534   1.030 -1.2106 -0.4176  0.8832
  936MPD2     C13686   1.889   1.193  12.754  0.1944  0.7156 -0.9925
  936MPD2    C113687   1.974   1.224  12.852  0.6762  0.1953 -0.3023
  936MPD2    C213688   2.055   1.338  12.842  0.5377 -0.0608  0.3986
  936MPD2    C313689   2.041   1.424  12.737 -0.2577 -0.4604  0.2232
  936MPD2    C413690   1.938   1.404  12.652  0.4979  0.6731 -0.1295
  936MPD2    C513691   1.862   1.288  12.659  0.2238 -0.4836 -0.1254
  936MPD2     H13692   2.115   1.359  12.929  0.8435 -0.1017  0.1974
  936MPD2    H113693   1.913   1.472  12.571 -0.8060 -0.9378 -1.0534
  936MPD2    H213694   1.834   1.100  12.742 -0.6131  0.9399  1.0381
  936MPD2    H313695   1.793   1.269  12.577 -0.8554  0.8788  0.4674
  936MPD2     N13696   2.102   1.546  12.738  0.6390  0.1736 -0.0384
  936MPD2    H513697   2.061   1.612  12.673  0.8762  0.3578 -0.0023
  936MPD2    N113698   1.988   1.144  12.972 -0.2610 -0.4311  0.1680
  936MPD2    H713699   2.045   1.170  13.052  1.9644  1.3315 -1.9735
  937MPD2     C13700   4.220   2.755  11.115 -0.2151  0.3101  0.0665
  937MPD2    C113701   4.233   2.890  11.142 -0.4082  0.4430  0.3173
  937MPD2    C213702   4.328   2.965  11.079  0.1518 -0.1463 -1.3615
  937MPD2    C313703   4.413   2.900  10.999  0.1025 -0.0720  0.3065
  937MPD2    C413704   4.411   2.766  10.981  0.0393 -0.0618 -0.5705
  937MPD2    C513705   4.315   2.698  11.044  0.0319 -0.1411  0.3789
  937MPD2     H13706   4.325   3.073  11.082  1.0640 -0.1002 -2.0655
  937MPD2    H113707   4.481   2.716  10.915  1.6047  0.4899  0.6784
  937MPD2    H213708   4.137   2.689  11.137 -1.5670  1.9886 -0.0071
  937MPD2    H313709   4.307   2.591  11.025  2.8517 -0.3385  0.2470
  937MPD2     N13710   4.506   2.984  10.927 -0.0458 -0.0566  0.1379
  937MPD2    H513711   4.512   3.078  10.964  0.7923  0.0583 -0.2821
  937MPD2    N113712   4.122   2.959  11.192 -0.6244  0.4127  0.7174
  937MPD2    H713713   4.124   3.060  11.182  1.1339  0.0116 -2.9065
  938MPD2     C13714   1.400   3.853   0.308  0.2531  0.2528 -0.0896
  938MPD2    C113715   1.524   3.839   0.371 -0.5115  0.3207  0.3348
  938MPD2    C213716   1.537   3.742   0.472 -0.6009  0.1557 -0.8180
  938MPD2    C313717   1.431   3.658   0.504  0.3468  0.1327 -0.0360
  938MPD2    C413718   1.309   3.673   0.442  0.2865  0.1571 -1.0669
  938MPD2    C513719   1.297   3.769   0.341 -0.7452  0.1282  0.5210
  938MPD2     H13720   1.627   3.725   0.530 -1.2986 -2.1872 -0.4066
  938MPD2    H113721   1.218   3.625   0.476 -0.2414  1.9490  0.0593
  938MPD2    H213722   1.394   3.925   0.227 -0.7295 -0.7619 -0.9269
  938MPD2    H313723   1.200   3.790   0.298 -1.9802 -3.8669  1.3565
  938MPD2     N13724   1.433   3.560   0.605 -0.3269  0.1229 -0.3508
  938MPD2    H513725   1.341   3.527   0.632  0.2193 -0.1895  1.1385
  938MPD2    N113726   1.625   3.918   0.332  0.4371 -0.1690 -0.0037
  938MPD2    H713727   1.601   3.999   0.275  0.4952 -0.1844 -0.0498
  939MPD2     C13728   2.703   0.515   0.700  0.7791  0.8477  0.3337
  939MPD2    C113729   2.778   0.535   0.817 -0.1096 -0.2648  0.5831
  939MPD2    C213730   2.868   0.442   0.855 -0.1518 -0.1771  0.3135
  939MPD2    C313731   2.896   0.330   0.773  0.1639  0.1436  0.2938
  939MPD2    C413732   2.811   0.306   0.664 -0.1700  0.4866 -0.0919
  939MPD2    C513733   2.715   0.395   0.630  0.0232 -0.3048  0.2258
  939MPD2     H13734   2.934   0.462   0.938  1.4336  1.6317 -1.3936
  939MPD2    H113735   2.824   0.226   0.592  1.2569  0.3679  0.2948
  939MPD2    H213736   2.632   0.586   0.659 -0.9746  1.0938  3.8022
  939MPD2    H313737   2.642   0.373   0.552  0.5711 -1.0870 -0.0702
  939MPD2     N13738   2.991   0.236   0.812 -0.0411  0.1193 -0.0049
  939MPD2    H513739   3.042   0.252   0.899  0.1657 -0.5545  0.0042
  939MPD2    N113740   2.748   0.655   0.886  0.2555 -0.2400  1.0452
  939MPD2    H713741   2.689   0.719   0.834  0.9629 -0.9699 -0.6777
  940MPD2     C13742   2.311   1.643  13.488 -0.6320 -0.1056  0.1861
  940MPD2    C113743   2.243   1.521  13.473  0.7103 -0.3909 -0.2975
  940MPD2    C213744   2.264   1.446  13.360  0.4807  0.3401 -0.5612
  940MPD2    C313745   2.355   1.479  13.261 -0.1346  0.2889  0.0125
  940MPD2    C413746   2.419   1.602  13.271  0.4607 -0.4297  0.4465
  940MPD2    C513747   2.398   1.677  13.386  0.5592  0.1340  0.6302
  940MPD2     H13748   2.222   1.346  13.356 -1.1847  0.9385  2.1536
  940MPD2    H113749   2.483   1.636  13.190 -1.1094 -1.5361 -1.2361
  940MPD2    H213750   2.304   1.707  13.575 -0.8653 -0.5225  0.4744
  940MPD2    H313751   2.448   1.773  13.394  2.7116 -1.1848  2.9208
  940MPD2     N13752   2.389   1.394  13.161  0.7666  0.3031  0.3712
  940MPD2    H513753   2.462   1.419  13.095  0.2988  0.6126 -0.0378
  940MPD2    N113754   2.152   1.470  13.570 -0.1661 -0.2937 -0.6444
  940MPD2    H713755   2.097   1.389  13.544 -1.7973  0.7139 -0.3043
  941MPD2     C13756   1.452   4.618   8.830  0.0688  0.8201 -0.6771
  941MPD2    C113757   1.438   0.022   8.876  0.0962  0.4723  0.1258
  941MPD2    C213758   1.340   0.048   8.967 -0.0771 -0.0222 -0.6364
  941MPD2    C313759   1.261   4.674   9.018 -0.3889  0.0817 -0.6557
  941MPD2    C413760   1.293   4.542   8.977 -0.1256  0.1492 -0.7801
  941MPD2    C513761   1.388   4.516   8.883  0.4254 -0.1437 -0.0784
  941MPD2     H13762   1.335   0.148   9.008 -1.3150 -0.3193 -0.0704
  941MPD2    H113763   1.235   4.461   9.020 -0.7516  0.5353 -0.8959
  941MPD2    H213764   1.526   4.594   8.755  0.4380 -1.2162  0.3346
  941MPD2    H313765   1.409   4.415   8.851  2.2335 -0.2063  1.2717
  941MPD2     N13766   1.160   4.686   9.127  0.6290  0.0576 -0.0394
  941MPD2    H513767   1.115   4.598   9.150 -2.5138  1.7969  0.3921
  941MPD2    N113768   1.534   0.123   8.849 -0.4565  0.2201  0.0608
  941MPD2    H713769   1.504   0.217   8.876 -0.2272 -0.0477  1.2231
  942MPD2     C13770   1.904   1.143   8.636 -0.4208  0.7364 -0.0297
  942MPD2    C113771   1.769   1.137   8.600 -0.3359  0.7247 -0.0733
  942MPD2    C213772   1.691   1.247   8.639 -0.1562  0.5726  0.2148
  942MPD2    C313773   1.742   1.347   8.717 -0.0319 -0.0551 -0.8375
  942MPD2    C413774   1.876   1.342   8.754  0.3416 -0.5856 -0.5428
  942MPD2    C513775   1.956   1.239   8.718  0.3334  0.7537  1.0606
  942MPD2     H13776   1.587   1.245   8.607  0.3239  2.1839 -1.4777
  942MPD2    H113777   1.923   1.426   8.803 -0.7852 -0.1757 -0.1550
  942MPD2    H213778   1.974   1.061   8.622 -2.8333 -1.1831 -0.7587
  942MPD2    H313779   2.061   1.236   8.747 -0.2505 -2.1246  2.8900
  942MPD2     N13780   1.666   1.460   8.758  0.6522 -0.2885 -0.3974
  942MPD2    H513781   1.705   1.521   8.828  0.6889 -0.8347  0.0555
  942MPD2    N113782   1.714   1.039   8.519  0.1678  0.4241 -0.0164
  942MPD2    H713783   1.617   1.059   8.496 -0.3102  1.1912  2.6254
  943MPD2     C13784   0.453   0.091   8.803 -0.3144  0.0871  0.3442
  943MPD2    C113785   0.345   0.017   8.836 -0.5014  0.3177  0.5277
  943MPD2    C213786   0.222   0.082   8.827  0.2027 -0.4071 -0.3082
  943MPD2    C313787   0.211   0.217   8.795 -0.1279  0.8226 -0.1407
  943MPD2    C413788   0.325   0.284   8.758 -0.1830  0.3850  0.2558
  943MPD2    C513789   0.445   0.216   8.767  0.2083  0.3321  0.2405
  943MPD2     H13790   0.131   0.032   8.860 -0.0247 -0.2467 -0.6947
  943MPD2    H113791   0.332   0.389   8.731  0.5604  0.0308 -0.9406
  943MPD2    H213792   0.548   0.037   8.799 -1.0467 -1.2699  1.1126
  943MPD2    H313793   0.541   0.265   8.752  0.5290  0.2712  2.0340
  943MPD2     N13794   0.093   0.294   8.784 -0.0096  0.6303 -1.2226
  943MPD2    H513795   0.105   0.390   8.754 -1.0993  0.9396 -0.6626
  943MPD2    N113796   0.373   4.605   8.879  0.4579 -0.1513  0.1975
  943MPD2    H713797   0.472   4.586   8.876  0.4874  0.1141 -0.4628
  944MPD2     C13798   4.560   3.376  10.609 -0.5858 -0.9875 -0.3268
  944MPD2    C113799   4.557   3.510  10.644  0.6625  0.4058 -0.2196
  944MPD2    C213800   4.455   3.563  10.717  0.0438  0.4224 -0.2069
  944MPD2    C313801   4.355   3.480  10.765 -0.5559 -0.1106 -0.1164
  944MPD2    C413802   4.355   3.347  10.732  0.6709  0.2570  0.6221
  944MPD2    C513803   4.457   3.296  10.653  0.2576 -0.2717 -0.5198
  944MPD2     H13804   4.440   3.670  10.733 -1.3164 -0.1940  2.6097
  944MPD2    H113805   4.291   3.275  10.781  1.1493 -0.6537 -0.0771
  944MPD2    H213806   4.640   3.333  10.549  0.0344  0.2671 -0.3761
  944MPD2    H313807   4.456   3.194  10.616  2.7384 -0.3545 -0.4013
  944MPD2     N13808   4.246   3.533  10.836  0.2905  0.2300  0.1250
  944MPD2    H513809   4.236   3.634  10.838  1.6711  0.4005 -1.1816
  944MPD2    N113810   4.660   3.595  10.598  0.0918 -0.2967 -0.2552
  944MPD2    H713811   0.006   3.549  10.541 -0.4309 -0.7869 -0.5091
    1TCq1    O113812   2.384   4.675  14.038 -0.4309  0.0310 -0.1004
    1TCq1    C113813   2.507   4.694  14.081 -0.0596 -0.6061 -0.5355
    1TCq1    O213814   2.596   0.036  14.018 -0.4516  0.3983  0.3551
    1TCq1    C213815   2.509   4.658  14.222  0.4554  0.2235 -1.3084
    1TCq1    C313816   2.437   4.543  14.264  0.2742  0.4011 -0.4899
    1TCq1    C413817   2.456   4.509  14.396  0.5905 -0.1250 -0.2174
    1TCq1    C513818   2.548   4.575  14.480  0.2259 -1.2553 -0.0883
    1TCq1    C613819   2.602   4.696  14.432  0.0127 -0.2530 -0.2262
    1TCq1    C713820   2.597   0.008  14.300 -0.2156  0.4895  0.2886
    1TCq1    C813821   2.663   0.060  14.528 -0.2984 -0.0903 -0.2361
    1TCq1    O413822   2.703   0.003  14.626 -0.0446  0.4890 -0.0105
    1TCq1    C913823   2.404   4.389  14.450  0.2862  0.2548 -0.0824
    1TCq1    O513824   2.302   4.348  14.393 -0.2398 -0.2049  0.4309
    1TCq1    O613825   2.439   4.366  14.569  0.1575 -0.2604 -0.1140
    1TCq1    H113826   2.329   4.624  14.102  1.7784 -0.1707  1.6164
    1TCq1    H213827   2.374   4.474  14.208 -0.8537  2.8299 -2.2292
    1TCq1    H313828   2.557   4.541  14.583 -1.0638 -1.7514 -0.1444
    1TCq1    H413829   2.646   0.097  14.263 -0.7581  0.3208 -0.8296
    2MPD2     C13830   2.783   0.500  14.757 -0.3082 -0.4968 -0.3238
    2MPD2    C113831   2.692   0.528  14.658 -0.4125 -0.3495 -0.4089
    2MPD2    C213832   2.649   0.427  14.579 -0.1368  0.3606  0.1308
    2MPD2    C313833   2.693   0.299  14.605 -0.4820 -0.3281  0.5994
    2MPD2    C413834   2.780   0.270  14.713  0.6226  0.0192 -0.6762
    2MPD2    C513835   2.818   0.373  14.790  0.4816 -0.1689  0.3844
    2MPD2     H13836   2.584   0.439  14.493 -0.6585 -0.7117  0.3601
    2MPD2    H113837   2.819   0.171  14.735  1.8918  1.1408  2.0211
    2MPD2    H213838   2.810   0.583  14.822  0.3318  0.8558 -2.2965
    2MPD2    H313839   2.871   0.335  14.877 -1.7493 -1.7098  1.0591
    2MPD2     N13840   2.642   0.194  14.519 -0.4614 -0.4305  0.0977
    2MPD2    H513841   2.588   0.225  14.439 -0.8366 -1.0397  0.1182
    2MPD2    N113842   2.654   0.668  14.635  0.2843  0.4764  0.6438
    2MPD2    H713843   2.722   0.738  14.664 -0.6822  1.1755  1.2195
    3TMC2    C113844   2.541   0.867  14.569 -0.0319 -0.4530 -0.5644
    3TMC2    C213845   2.643   0.940  14.622  1.0177  0.5232 -0.3444
    3TMC2    C313846   2.656   1.064  14.573 -0.3770  0.4698  0.2464
    3TMC2    C413847   2.460   0.924  14.473 -0.8117 -0.0920  0.0630
    3TMC2    C513848   2.477   1.052  14.435  0.1255  0.1931  0.2507
    3TMC2    C613849   2.568   1.130  14.495 -0.4836  0.3905 -0.4807
    3TMC2     C13850   2.537   0.720  14.592 -0.1952 -0.3547 -0.1202
    3TMC2     O13851   2.442   0.658  14.547 -0.0890  0.0162 -0.1922
    3TMC2     H13852   2.711   0.910  14.700 -0.3007  0.9400  0.9800
    3TMC2    H113853   2.387   0.863  14.421 -1.2251 -1.2782  2.0351
    3TMC2    H213854   2.583   1.233  14.466 -1.7673  0.5815 -0.4484
    3TMC2    C713855   2.354   1.118  14.386 -0.2029  0.9339  0.8016
    3TMC2    C813856   2.773   1.134  14.621  0.0937  0.4431  0.1546
    3TMC2    O113857   2.254   1.113  14.454  0.0675  0.0177 -0.5345
    3TMC2    O213858   2.780   1.255  14.616  0.0882 -0.5583 -0.3610
    3TMC2    O513859   2.878   1.053  14.596  0.0663  0.1129 -0.1936
    3TMC2    H513860   2.858   0.958  14.612 -1.4175  0.3964 -0.3999
    4MPD2     C13861   1.768   2.090  13.623  0.5827  1.0603  0.0491
    4MPD2    C113862   1.781   1.960  13.667  0.5033  0.2762 -0.1212
    4MPD2    C213863   1.904   1.906  13.706 -0.2925  0.3172  0.2277
    4MPD2    C313864   2.022   1.975  13.691  0.1606 -0.2512 -0.7660
    4MPD2    C413865   2.010   2.109  13.650  0.8638  0.1956 -0.8767
    4MPD2    C513866   1.891   2.160  13.608  0.2279  0.1325  0.8397
    4MPD2     H13867   1.919   1.810  13.754  0.1060 -0.2049 -0.9304
    4MPD2    H113868   2.097   2.172  13.636  1.9009 -1.1455 -0.4754
    4MPD2    H213869   1.673   2.130  13.591  0.2781 -0.7732 -1.3947
    4MPD2    H313870   1.897   2.262  13.574 -0.6789 -0.0540  0.1456
    4MPD2     N13871   2.156   1.918  13.724 -0.5543  0.1260 -0.2319
    4MPD2    H513872   2.149   1.820  13.750 -1.5720  0.7304  1.7893
    4MPD2    N113873   1.662   1.889  13.672  0.6101  0.6446 -0.0677
    4MPD2    H713874   1.580   1.938  13.635  2.2767  4.5113  1.3536
    5TCq2    C113875   2.277   1.973  13.698 -0.3753  0.6371 -0.4842
    5TCq2    O213876   2.300   2.068  13.624 -0.5558  0.4733  0.4829
    5TCq2    C213877   2.389   1.897  13.745  0.2235 -0.5646 -0.4307
    5TCq2    C313878   2.496   1.887  13.661 -0.5727  0.5518 -0.4178
    5TCq2    C413879   2.591   1.794  13.678 -0.4329  0.0970 -0.0288
    5TCq2    C513880   2.558   1.690  13.768  0.1462 -0.2600  0.6139
    5TCq2    C613881   2.444   1.693  13.840 -0.1070  0.0781 -0.6731
    5TCq2    C713882   2.358   1.806  13.841  0.6028  0.2289 -0.9201
    5TCq2    C813883   2.428   1.581  13.933 -0.3212  0.1360  0.2346
    5TCq2    O413884   2.517   1.499  13.941 -0.1946 -0.1325  0.3510
    5TCq2    C913885   2.696   1.774  13.581 -0.4070  0.0814  0.0007
    5TCq2    O513886   2.758   1.668  13.581 -0.0117  0.1015 -0.1421
    5TCq2    O613887   2.702   1.863  13.488 -0.1481  0.2143  0.4647
    5TCq2    H213888   2.511   1.963  13.585  0.6014  0.1500 -0.5782
    5TCq2    H313889   2.617   1.600  13.760 -1.3294 -1.2002  0.1863
    5TCq2    H413890   2.278   1.811  13.915  0.3911  0.7472 -1.1847
    6MPD1     C13891   2.097   2.397  12.156  0.4246 -0.4072 -0.5256
    6MPD1    C113892   2.013   2.482  12.226  0.1139  0.5241 -0.7847
    6MPD1    C213893   1.960   2.447  12.351 -0.5856  0.3811 -0.4059
    6MPD1    C313894   1.978   2.322  12.401  0.3244 -0.1438 -0.3291
    6MPD1    C413895   2.072   2.242  12.332  0.2531 -0.4459 -0.4717
    6MPD1    C513896   2.130   2.274  12.210 -0.1002  0.1256 -0.1075
    6MPD1     H13897   1.882   2.511  12.389 -0.4524  0.0309  0.4719
    6MPD1    H113898   2.097   2.145  12.374  0.5705 -0.5002 -0.7921
    6MPD1    H213899   2.149   2.432  12.068  2.2051 -0.8906  0.3399
    6MPD1    H313900   2.197   2.210  12.154 -1.3389 -0.8497 -0.4678
    6MPD1     N13901   1.912   2.263  12.514  0.0909  0.0850 -0.4513
    6MPD1    H513902   1.927   2.165  12.534  0.7527 -0.1382 -2.0952
    6MPD1    N113903   2.015   2.613  12.175  0.0356  0.3282 -0.4341
    6MPD1    H613904   2.032   2.624  12.075 -0.6743  0.4810 -0.5370
    6MPD1    H713905   1.928   2.663  12.192 -0.0406  0.4714 -1.2780
    7MPD2     C13906   1.267   2.273  13.132  0.3275  0.7902 -0.6902
    7MPD2    C113907   1.386   2.222  13.179 -0.3811 -0.1728 -0.6373
    7MPD2    C213908   1.377   2.137  13.292 -0.1307 -0.6721 -0.1002
    7MPD2    C313909   1.256   2.105  13.341  0.2379 -0.3957  0.4327
    7MPD2    C413910   1.141   2.155  13.283  0.2739 -0.6618 -0.1485
    7MPD2    C513911   1.147   2.240  13.186 -0.2296 -0.5345  0.2624
    7MPD2     H13912   1.463   2.088  13.336  0.7184  0.5900 -0.3677
    7MPD2    H113913   1.049   2.115  13.325  0.6572 -0.7738  0.5822
    7MPD2    H213914   1.274   2.331  13.041 -1.5188 -0.9845 -1.9866
    7MPD2    H313915   1.057   2.287  13.145  1.9507  2.2287 -1.3587
    7MPD2     N13916   1.233   2.007  13.440 -0.1741  0.0779  0.0881
    7MPD2    H513917   1.139   1.972  13.453  0.1048  1.0605  4.5727
    7MPD2    N113918   1.508   2.231  13.104  0.4319 -0.0441  0.4151
    7MPD2    H713919   1.584   2.169  13.129 -0.2809 -0.4102  1.6865
    8TMC3    C113920   1.310   1.821  13.578  0.5930 -0.8241 -0.5390
    8TMC3    C213921   1.404   1.812  13.673  0.0745  0.8115  0.2776
    8TMC3    C313922   1.504   1.714  13.658 -0.0229 -0.0688 -0.9464
    8TMC3    C413923   1.315   1.727  13.480 -0.9793  0.4399  0.2097
    8TMC3    C513924   1.415   1.629  13.466  0.4013  0.2119  0.5327
    8TMC3    C613925   1.512   1.619  13.564 -0.7214 -0.8593 -0.0974
    8TMC3     C13926   1.325   1.965  13.533  0.7620  0.0980 -0.7228
    8TMC3     O13927   1.435   2.013  13.563 -0.7264  0.1124  0.1507
    8TMC3     H13928   1.406   1.889  13.750 -1.5542  0.0350  1.1032
    8TMC3    H113929   1.249   1.735  13.394 -1.5637 -0.9669  0.5245
    8TMC3    H213930   1.601   1.566  13.530 -0.2155 -0.5875  0.7913
    8TMC3    C713931   1.483   1.662  13.337 -0.1530  0.3306  0.3059
    8TMC3    C813932   1.635   1.755  13.704 -0.1909 -0.1548 -1.0320
    8TMC3    O113933   1.466   1.782  13.312 -0.7513  0.1869 -0.2291
    8TMC3    O213934   1.712   1.673  13.750 -0.0456 -0.8657 -0.0241
    9TMC3    C113935   1.779   2.250  12.709 -0.1646  0.0056 -0.0255
    9TMC3    C213936   1.796   2.112  12.713 -0.0918  0.3909 -0.1882
    9TMC3    C313937   1.725   2.042  12.807 -0.2422 -0.0835 -0.0195
    9TMC3    C413938   1.708   2.317  12.811 -0.6114  0.8834  0.4941
    9TMC3    C513939   1.639   2.240  12.903 -0.1463 -0.2180  0.4360
    9TMC3    C613940   1.645   2.105  12.905  0.3172 -0.2150 -0.4945
    9TMC3     C13941   1.827   2.331  12.595  0.5484 -0.1488 -0.0729
    9TMC3     O13942   1.797   2.450  12.592  0.0038  0.0601 -0.2559
    9TMC3     H13943   1.851   2.062  12.634 -0.5268 -0.6012  0.1375
    9TMC3    H113944   1.689   2.424  12.805  1.2815  1.2891  1.9457
    9TMC3    H213945   1.581   2.049  12.973  1.3477  0.9866  1.4863
    9TMC3    C713946   1.532   2.300  12.987 -0.6787 -0.3876 -0.5346
    9TMC3    C813947   1.759   1.901  12.819  0.6070 -0.7820  0.0683
    9TMC3    O113948   1.461   2.385  12.935  0.0525  0.8321  0.0196
    9TMC3    O213949   1.791   1.846  12.720 -0.5563 -0.0437  0.7997
   10MPD2     C13950   1.668   1.464  13.070 -0.3751  0.1816  0.3841
   10MPD2    C113951   1.628   1.576  13.147  0.4162  0.4642  0.0066
   10MPD2    C213952   1.665   1.704  13.106  0.6353 -0.3573 -0.2823
   10MPD2    C313953   1.718   1.724  12.978  0.0701  0.5017 -0.2337
   10MPD2    C413954   1.750   1.614  12.899  0.2309 -0.5043 -0.1084
   10MPD2    C513955   1.727   1.487  12.945 -0.3164 -0.1988  0.0304
   10MPD2     H13956   1.642   1.786  13.173 -0.4108  0.0125 -1.1060
   10MPD2    H113957   1.779   1.620  12.795 -0.8146 -3.7355 -0.5847
   10MPD2    H213958   1.640   1.363  13.097 -0.6710 -0.3260 -1.8268
   10MPD2    H313959   1.738   1.399  12.884 -2.6177 -0.1488 -0.4625
   10MPD2     N13960   1.731   1.857  12.940 -0.3046  0.0847 -0.4195
   10MPD2    H513961   1.699   1.923  13.011 -0.9122  1.7256 -2.2317
   10MPD2    N113962   1.551   1.558  13.268  0.1973 -0.9610  0.4399
   10MPD2    H713963   1.538   1.462  13.295 -0.8329 -0.5622  1.3642
   11MPD2     C13964   2.169   1.332  14.296 -0.6979  0.0166 -0.0644
   11MPD2    C113965   2.302   1.324  14.261  0.4125 -0.5753  0.1408
   11MPD2    C213966   2.342   1.402  14.157 -0.0961  0.4760 -0.0295
   11MPD2    C313967   2.261   1.488  14.089 -0.0301  0.0733 -0.0591
   11MPD2    C413968   2.136   1.500  14.135 -0.2570 -0.5870 -0.0246
   11MPD2    C513969   2.088   1.420  14.235 -0.4252 -0.1745  0.4660
   11MPD2     H13970   2.448   1.396  14.136  0.0193  1.8420  0.1760
   11MPD2    H113971   2.070   1.572  14.088 -0.0466  0.5147  1.3615
   11MPD2    H213972   2.126   1.278  14.380 -1.1827 -0.2442 -0.4768
   11MPD2    H313973   1.988   1.442  14.270  0.4663  1.3587  2.0757
   11MPD2     N13974   2.302   1.578  13.993  0.0021  0.6747 -0.5488
   11MPD2    H513975   2.238   1.651  13.963  0.3392  2.2919  2.7616
   11MPD2    N113976   2.389   1.226  14.311  0.3857 -0.1266  0.6372
   11MPD2    H713977   2.477   1.213  14.263  1.7108 -0.3487  3.1564
    1MPD1     C13978   0.015   2.499  17.479 -0.3281 -0.0932 -0.0723
    1MPD1    C113979   4.627   2.556  17.429  0.6100  0.1983  0.3925
    1MPD1    C213980   4.591   2.531  17.293  0.3519 -0.3012 -0.4730
    1MPD1    C313981   4.687   2.476  17.213  0.0412 -0.4509 -0.0584
    1MPD1    C413982   0.083   2.427  17.260 -0.4476 -0.9862 -0.6927
    1MPD1    C513983   0.099   2.428  17.399 -0.5325 -0.8204  0.2015
    1MPD1     H13984   4.507   2.579  17.245  0.6994  0.2509 -0.5343
    1MPD1    H113985   0.161   2.373  17.208  0.8985 -0.6645  0.9945
    1MPD1    H213986   0.026   2.496  17.587 -0.9198 -2.5201 -0.0789
    1MPD1    H313987   0.179   2.371  17.445  1.8482  2.8504  0.5926
    1MPD1     N13988   4.680   2.484  17.074 -0.7314  0.0977 -0.1756
    1MPD1    H513989   0.037   2.469  17.017 -0.0281  1.2696  0.5147
    1MPD1    N113990   4.530   2.599  17.522  1.0585 -0.0676  0.2888
    1MPD1    H613991   4.580   2.667  17.578  2.0754 -0.5273 -0.0582
    1MPD1    H713992   4.460   2.653  17.472 -1.3152 -2.2311  1.2624
    2MPD1     C13993   0.664   2.541  16.613 -0.5154  0.2462  0.6926
    2MPD1    C113994   0.626   2.518  16.745  0.6185  0.5445 -0.6709
    2MPD1    C213995   0.488   2.531  16.776  0.5121  0.1341 -0.3027
    2MPD1    C313996   0.387   2.552  16.671  0.1696 -0.0662  0.3233
    2MPD1    C413997   0.431   2.568  16.539  0.5197 -0.1704  1.0171
    2MPD1    C513998   0.571   2.570  16.514  1.2735 -0.7859  0.2700
    2MPD1     H13999   0.446   2.510  16.874 -1.4271  0.1628 -1.1411
    2MPD1    H114000   0.363   2.589  16.457  3.2515 -0.6195 -1.3405
    2MPD1    H214001   0.768   2.545  16.584 -0.3064 -0.4731  1.3401
    2MPD1    H314002   0.597   2.591  16.411  2.5807  3.3771  1.4888
    2MPD1     N14003   0.253   2.556  16.713  0.5039 -0.9593  0.3860
    2MPD1    H514004   0.242   2.527  16.810 -0.1027 -2.7719 -0.2348
    2MPD1    N114005   0.715   2.504  16.850 -0.3945 -0.0935 -0.0580
    2MPD1    H614006   0.685   2.446  16.928  0.0566  1.2393  1.1158
    2MPD1    H714007   0.800   2.463  16.811 -0.1824 -0.7193  1.0775
    3TMC3    C114008   0.019   2.558  16.676 -0.1157 -0.3057  0.1655
    3TMC3    C214009   4.637   2.597  16.598  0.3242  0.5341  0.1679
    3TMC3    C314010   4.514   2.605  16.650 -0.2085  0.4372  0.2787
    3TMC3    C414011   0.000   2.518  16.807  0.3569  0.5878 -0.2301
    3TMC3    C514012   4.592   2.524  16.859  0.0679 -0.3703  0.2173
    3TMC3    C614013   4.489   2.575  16.781 -0.4370 -0.2791 -0.9856
    3TMC3     C14014   0.150   2.549  16.620  0.1712 -0.2322 -0.0033
    3TMC3     O14015   0.158   2.545  16.496 -0.4695  0.7455 -0.7620
    3TMC3     H14016   4.660   2.604  16.492 -0.2194  1.6044  0.1181
    3TMC3    H114017   0.076   2.457  16.854 -2.4949 -1.9017  1.1034
    3TMC3    H214018   4.389   2.585  16.822 -0.0529 -2.0381  0.3599
    3TMC3    C714019   4.568   2.533  17.003  0.0481 -0.1140 -0.3024
    3TMC3    C814020   4.395   2.639  16.564 -0.0056 -0.1533 -0.6098
    3TMC3    O114021   4.452   2.560  17.038  0.7066 -0.4494 -0.3196
    3TMC3    O214022   4.286   2.667  16.619  0.4255 -0.7391  0.0938
    4MPD1     C14023   4.168   2.666  16.121 -0.8716  0.3679  0.0675
    4MPD1    C114024   4.265   2.572  16.100  0.3117 -0.5267 -0.4182
    4MPD1    C214025   4.342   2.535  16.206  0.2371 -0.2167 -0.0789
    4MPD1    C314026   4.318   2.608  16.330 -0.0863  1.0550  0.1872
    4MPD1    C414027   4.219   2.699  16.341 -0.4470  0.1616 -0.9311
    4MPD1    C514028   4.135   2.724  16.241  0.0777 -0.1936 -0.0850
    4MPD1     H14029   4.409   2.451  16.212 -0.3427 -0.5957  1.1646
    4MPD1    H114030   4.194   2.740  16.439 -1.0872  1.4230 -1.6245
    4MPD1    H214031   4.090   2.676  16.046  0.2770 -0.7316 -1.2719
    4MPD1    H314032   4.045   2.784  16.243  0.1666 -0.0589 -0.0827
    4MPD1     N14033   4.411   2.590  16.435  0.4233  0.0751  0.1593
    4MPD1    H514034   4.495   2.535  16.420  0.7187  0.5694 -0.0080
    4MPD1    N114035   4.263   2.487  15.989 -0.3511 -0.3956 -0.6817
    4MPD1    H614036   4.229   2.537  15.908 -0.5046 -1.5132 -1.3116
    4MPD1    H714037   4.349   2.436  15.972 -0.7400 -1.5170  0.6870
    1TCq1    O114038   2.062   2.096  11.714 -0.2440 -0.1930  0.5632
    1TCq1    C114039   2.156   2.195  11.721  0.1291  0.5108 -0.0702
    1TCq1    O214040   2.255   2.208  11.794 -0.5439 -0.3766  0.7278
    1TCq1    C214041   2.085   2.308  11.679 -0.3910 -0.8538 -0.0748
    1TCq1    C314042   2.026   2.310  11.552 -0.4470 -0.5972  0.5103
    1TCq1    C414043   1.977   2.427  11.503 -0.3018  0.1830 -0.5502
    1TCq1    C514044   1.979   2.537  11.577  0.0977 -0.7034  0.5221
    1TCq1    C614045   2.028   2.536  11.704  0.7730  1.0554 -0.4943
    1TCq1    C714046   2.079   2.421  11.764 -0.4252 -0.3169 -0.4248
    1TCq1    C814047   2.022   2.647  11.787  0.0729  0.3661 -0.3800
    1TCq1    O414048   2.104   2.657  11.882 -0.0632 -0.6957  0.1409
    1TCq1    C914049   1.966   2.442  11.366  0.2997 -0.5719 -0.4634
    1TCq1    O514050   2.012   2.551  11.321  0.2214 -1.0486  0.6909
    1TCq1    O614051   1.945   2.339  11.299  0.5995  0.2965  0.5556
    1TCq1    H114052   1.987   2.122  11.657  0.4994 -2.1245 -1.3040
    1TCq1    H214053   2.049   2.227  11.486  0.3820  0.8332 -1.0177
    1TCq1    H314054   1.942   2.629  11.533  0.1979  0.3750  2.7075
    1TCq1    H414055   2.117   2.417  11.866 -2.4281 -1.4165  0.2739
    2MPD1     C14056   1.758   3.063  11.954  0.6146 -0.6828 -0.0694
    2MPD1    C114057   1.712   3.024  11.829 -0.1933  0.9990  0.6533
    2MPD1    C214058   1.770   2.910  11.772 -0.6232  0.0168  0.1124
    2MPD1    C314059   1.873   2.840  11.829 -0.7098  0.0254  0.1518
    2MPD1    C414060   1.926   2.884  11.954 -0.0567 -0.2567 -0.1415
    2MPD1    C514061   1.861   2.986  12.016 -1.3695 -0.3266 -0.1934
    2MPD1     H14062   1.729   2.865  11.682 -0.1510 -2.1790  0.9701
    2MPD1    H114063   2.009   2.827  11.994 -0.3232 -0.6910 -0.2148
    2MPD1    H214064   1.725   3.154  12.003 -1.8735 -0.7036 -1.7232
    2MPD1    H314065   1.897   3.011  12.115 -0.1012  2.7116 -1.4388
    2MPD1     N14066   1.916   2.729  11.756  0.3602 -0.2536  0.0461
    2MPD1    H514067   1.857   2.718  11.674 -0.0659  2.3623  0.0227
    2MPD1    N114068   1.592   3.083  11.787 -0.1228  0.6932 -0.1689
    2MPD1    H614069   1.582   3.181  11.812 -1.0666  0.5788 -0.1158
    2MPD1    H714070   1.583   3.082  11.686  1.0622  1.6614 -0.2918
    1TCq1    O114071   4.078   2.845   1.133 -0.0301 -0.1359  0.0732
    1TCq1    C114072   4.082   2.952   1.216  0.0610 -1.1125  0.0665
    1TCq1    O214073   3.981   2.995   1.271  0.3283  0.4441 -0.1164
    1TCq1    C214074   4.207   2.967   1.274  0.0319 -0.0003 -0.4920
    1TCq1    C314075   4.219   3.026   1.397 -0.3690 -0.2031  0.3271
    1TCq1    C414076   4.336   3.035   1.468 -0.2192 -0.0941  0.3767
    1TCq1    C514077   4.441   2.969   1.416  0.0161  0.1605 -0.1736
    1TCq1    C614078   4.433   2.930   1.286  0.2290 -0.0436 -0.3171
    1TCq1    C714079   4.320   2.913   1.213 -0.0005  0.4446  0.0656
    1TCq1    C814080   4.551   2.877   1.228 -0.1340  0.2366  0.5860
    1TCq1    O414081   4.624   2.817   1.304 -0.4503  0.4978  0.3062
    1TCq1    C914082   4.343   3.063   1.612  0.3686  0.5037  0.5149
    1TCq1    O514083   4.456   3.085   1.665  0.9440 -0.6187  0.1530
    1TCq1    O614084   4.236   3.076   1.673 -0.3126 -0.2829  0.1937
    1TCq1    H114085   4.152   2.818   1.076  2.9974  1.6986  3.1327
    1TCq1    H214086   4.131   3.061   1.449  0.9223 -1.1557  3.1777
    1TCq1    H314087   4.537   2.974   1.465 -1.3353  3.0320  2.2264
    1TCq1    H414088   4.326   2.878   1.110 -1.4181  2.2762 -0.6361
    2MPD1     C14089   0.193   2.844   0.867 -0.2518  0.4242  0.0805
    2MPD1    C114090   0.078   2.889   0.802  1.2235  0.3353 -0.2731
    2MPD1    C214091   4.690   2.908   0.884 -0.2613 -0.2511  0.0299
    2MPD1    C314092   4.682   2.880   1.019 -0.2749  0.1972 -0.0211
    2MPD1    C414093   0.068   2.810   1.069  0.0894  0.4138  0.7595
    2MPD1    C514094   0.179   2.801   0.995 -0.5118 -0.5822  0.9032
    2MPD1     H14095   4.598   2.950   0.846  1.5297 -0.0773 -4.1953
    2MPD1    H114096   0.083   2.787   1.174  0.0252  0.5782  0.8059
    2MPD1    H214097   0.292   2.840   0.823 -0.6152  0.8227 -0.7710
    2MPD1    H314098   0.272   2.761   1.036  0.1190 -0.9846 -0.8912
    2MPD1     N14099   4.568   2.913   1.095 -0.8011 -0.0747 -0.1393
    2MPD1    H514100   4.508   2.976   1.043  1.5405  1.6013 -0.7724
    2MPD1    N114101   0.083   2.912   0.662 -1.2519 -0.5333  0.2724
    2MPD1    H614102   4.724   2.877   0.617 -1.0306 -3.2914  1.9765
    2MPD1    H714103   0.164   2.863   0.624 -0.1919  1.1612  0.3707
    1MPD1     C14104   2.673   3.854  10.737 -0.0414 -0.3873 -0.5288
    1MPD1    C114105   2.801   3.890  10.693 -0.5915  0.3533  0.0314
    1MPD1    C214106   2.886   3.784  10.676  0.0838 -0.1634 -0.2567
    1MPD1    C314107   2.850   3.657  10.716 -0.1651  0.1970  0.1377
    1MPD1    C414108   2.738   3.639  10.783  0.0535  0.2572 -0.4068
    1MPD1    C514109   2.640   3.729  10.786 -0.0838  0.0834 -0.1257
    1MPD1     H14110   2.994   3.798  10.669  0.0432 -0.2155 -0.9195
    1MPD1    H114111   2.706   3.538  10.806 -0.3064  0.7568  1.3315
    1MPD1    H214112   2.598   3.933  10.746  0.1914 -0.4182  1.6893
    1MPD1    H314113   2.543   3.698  10.823  0.0312  1.5588  1.4116
    1MPD1     N14114   2.953   3.561  10.692  0.2993  0.0204 -0.0004
    1MPD1    H514115   3.035   3.599  10.646  2.3206 -2.4483  1.5366
    1MPD1    N114116   2.839   4.026  10.688 -0.0581  0.3769  0.0973
    1MPD1    H614117   2.923   4.059  10.641 -1.2838  2.3025 -0.7464
    1MPD1    H714118   2.767   4.089  10.653  0.5658  0.6644 -0.6779
    2MPD1     C14119   2.227   2.770  11.050  0.7200  0.8050  0.2564
    2MPD1    C114120   2.343   2.745  11.130  0.2568  0.0826 -0.4771
    2MPD1    C214121   2.437   2.649  11.096 -0.7141  0.5248 -0.4274
    2MPD1    C314122   2.429   2.586  10.971  0.3901  0.4623  0.1533
    2MPD1    C414123   2.316   2.610  10.896 -0.4446  0.2187 -0.1631
    2MPD1    C514124   2.213   2.692  10.936  0.0441 -0.6561 -0.4367
    2MPD1     H14125   2.527   2.642  11.156 -1.2426  0.8167  0.4069
    2MPD1    H114126   2.299   2.554  10.805  1.9325 -1.4784  0.4264
    2MPD1    H214127   2.146   2.829  11.090 -0.5670 -0.4953 -0.4647
    2MPD1    H314128   2.127   2.704  10.870 -0.7062  2.3205  1.0726
    2MPD1     N14129   2.515   2.484  10.923  0.1673 -0.4209  0.1947
    2MPD1    H514130   2.493   2.430  10.839  3.4036  0.0762 -0.9780
    2MPD1    N114131   2.338   2.818  11.251 -0.0258  0.2506  0.6494
    2MPD1    H614132   2.429   2.822  11.297 -0.0874 -0.3468  0.8305
    2MPD1    H714133   2.322   2.914  11.223  1.0278  1.4846  4.2288
    3MPD1     C14134   2.273   1.922  10.341 -0.3191 -0.2882  0.1612
    3MPD1    C114135   2.215   1.992  10.447  0.2238  0.2266 -0.3264
    3MPD1    C214136   2.289   2.052  10.545  0.8474 -0.0480  0.1018
    3MPD1    C314137   2.427   2.048  10.528  0.7319 -0.8995  0.1549
    3MPD1    C414138   2.482   1.966  10.428 -0.2381 -0.1351 -0.0902
    3MPD1    C514139   2.406   1.910  10.334 -0.3729 -0.2271 -0.2198
    3MPD1     H14140   2.234   2.108  10.620  1.0167 -1.1526  1.0703
    3MPD1    H114141   2.587   1.942  10.414  0.2244 -0.1370  3.5549
    3MPD1    H214142   2.207   1.870  10.273 -0.7924 -1.3810  1.4598
    3MPD1    H314143   2.451   1.839  10.265 -0.5710 -0.8896  0.3268
    3MPD1     N14144   2.512   2.109  10.623 -0.5274  0.1826  0.4481
    3MPD1    H514145   2.465   2.157  10.700 -1.9100  0.3337 -0.4863
    3MPD1    N114146   2.078   1.971  10.469 -0.4901  0.0348 -0.2660
    3MPD1    H614147   2.075   1.881  10.515 -2.3978  0.9083  1.3084
    3MPD1    H714148   2.042   2.035  10.540 -2.2907 -0.8889 -0.3686
    4MPD2     C14149   3.546   3.199  10.412  0.7796 -0.6693 -0.2972
    4MPD2    C114150   3.545   3.216  10.546  0.2920 -0.6388 -0.2144
    4MPD2    C214151   3.615   3.126  10.624  0.5203 -0.0646 -0.4651
    4MPD2    C314152   3.689   3.026  10.563  0.0458  0.3105  0.3187
    4MPD2    C414153   3.701   3.017  10.428  0.3303 -0.2282  0.3634
    4MPD2    C514154   3.630   3.102  10.354  0.0972 -0.3487  0.4033
    4MPD2     H14155   3.606   3.137  10.731  2.3476  1.5748 -0.4788
    4MPD2    H114156   3.761   2.942  10.379 -1.7635 -1.9692  0.4258
    4MPD2    H214157   3.499   3.271  10.346 -0.0920 -1.1396 -0.1844
    4MPD2    H314158   3.627   3.100  10.246  1.6251 -1.0604  0.3685
    4MPD2     N14159   3.755   2.935  10.649  0.0056 -0.1121 -0.0413
    4MPD2    H514160   3.751   2.957  10.748  0.7310 -1.7379  0.3491
    4MPD2    N114161   3.460   3.308  10.612 -0.7415 -0.7095 -0.0784
    4MPD2    H714162   3.463   3.309  10.714 -1.5046 -2.0992 -0.0435
    5TMC3    C114163   3.302   3.473  10.651  0.1413 -0.3377  0.0547
    5TMC3    C214164   3.169   3.447  10.621  0.0684 -0.7793  0.3533
    5TMC3    C314165   3.089   3.383  10.713  0.5554 -0.2819  0.3655
    5TMC3    C414166   3.351   3.451  10.780  0.5641  0.5767 -0.5686
    5TMC3    C514167   3.269   3.385  10.870 -0.1098 -0.4661 -0.6653
    5TMC3    C614168   3.143   3.354  10.832  0.1242  0.7013 -0.5550
    5TMC3     C14169   3.384   3.405  10.556 -0.5066  0.3430  0.1033
    5TMC3     O14170   3.389   3.453  10.443 -0.6162  0.7694 -0.3794
    5TMC3     H14171   3.123   3.465  10.525  2.4788 -0.6921 -0.8034
    5TMC3    H114172   3.453   3.484  10.795  0.4495  0.2128  1.0464
    5TMC3    H214173   3.080   3.304  10.905 -1.5417  1.5080 -1.4388
    5TMC3    C714174   3.354   3.298  10.946  0.3493 -0.3525 -0.0747
    5TMC3    C814175   2.956   3.433  10.731  0.5921  0.2391 -0.6387
    5TMC3    O114176   3.464   3.280  10.891  0.0547  0.1691  0.4888
    5TMC3    O214177   2.870   3.357  10.776 -0.2894 -0.5216  0.0694
    6TMC3    C114178   2.705   2.358  10.896 -0.3760  0.2069 -0.0541
    6TMC3    C214179   2.629   2.271  10.822 -0.3478 -0.3299  0.1424
    6TMC3    C314180   2.701   2.197  10.727  0.9456  0.8385  0.0738
    6TMC3    C414181   2.843   2.359  10.890 -0.2156 -0.2106  0.4361
    6TMC3    C514182   2.907   2.278  10.800 -0.5724  0.2031 -1.0693
    6TMC3    C614183   2.842   2.201  10.712  0.5044  0.5578 -0.2849
    6TMC3     C14184   2.639   2.458  10.974  0.3009  0.5338 -0.3476
    6TMC3     O14185   2.695   2.504  11.070  0.2032 -0.4977  0.0333
    6TMC3     H14186   2.527   2.241  10.841 -1.2748  2.0903 -1.0066
    6TMC3    H114187   2.898   2.432  10.949  1.1248 -0.9181  0.0538
    6TMC3    H214188   2.893   2.127  10.651 -0.8913  1.2189 -2.2276
    6TMC3    C714189   3.051   2.299  10.799 -0.8421  0.3135 -0.3241
    6TMC3    C814190   2.641   2.122  10.617  0.1445  0.0709  0.3685
    6TMC3    O114191   3.108   2.362  10.888 -0.6842  0.5149 -0.2302
    6TMC3    O214192   2.711   2.070  10.532 -0.2510  0.1077 -0.9140
    7MPD2     C14193   3.391   2.840  11.180  0.6088 -0.3533  0.5026
    7MPD2    C114194   3.479   2.906  11.093 -0.4699 -0.2937 -0.1475
    7MPD2    C214195   3.445   3.035  11.051 -0.3848 -0.8748 -0.0205
    7MPD2    C314196   3.322   3.094  11.081 -0.7336  0.4261  0.3609
    7MPD2    C414197   3.236   3.031  11.172  0.0750 -0.6135 -0.0326
    7MPD2    C514198   3.273   2.906  11.223 -0.5760  0.2919 -0.2665
    7MPD2     H14199   3.516   3.091  10.991  2.0303 -0.2027  3.4634
    7MPD2    H114200   3.137   3.069  11.192 -0.0058 -0.0478 -1.5168
    7MPD2    H214201   3.399   2.737  11.211 -0.7227 -0.9276 -1.0643
    7MPD2    H314202   3.206   2.840  11.277  0.6379 -1.8490 -1.3527
    7MPD2     N14203   3.282   3.218  11.033  0.6140  0.3616  1.1064
    7MPD2    H514204   3.189   3.235  11.068  0.9147  1.8194  1.1941
    7MPD2    N114205   3.596   2.832  11.053  0.2134 -0.2789  0.0835
    7MPD2    H714206   3.610   2.742  11.097  0.4616 -0.6927 -0.8333
    8TMC3    C114207   3.778   2.763  10.928 -0.4091  0.3469 -0.1242
    8TMC3    C214208   3.700   2.655  10.916  0.1200 -0.2787  0.6818
    8TMC3    C314209   3.705   2.577  10.802  0.8951 -0.0812  0.0745
    8TMC3    C414210   3.855   2.807  10.827 -0.4951 -0.0966 -0.1376
    8TMC3    C514211   3.849   2.735  10.708  0.0918 -0.1725  0.3250
    8TMC3    C614212   3.784   2.617  10.695  0.1683 -0.5317 -0.4627
    8TMC3     C14213   3.698   2.874  10.972 -0.3823 -0.0206 -0.4818
    8TMC3     O14214   3.726   2.979  10.918  0.1003  0.6607  0.1579
    8TMC3     H14215   3.640   2.619  10.998 -1.0617  0.7699  0.2707
    8TMC3    H114216   3.937   2.875  10.848  0.2182 -1.1712  0.5659
    8TMC3    H214217   3.791   2.563  10.601  0.5696  0.0920 -0.7842
    8TMC3    C714218   3.813   2.821  10.603 -0.2227  0.4431  0.4310
    8TMC3    C814219   3.581   2.508  10.777  0.7611 -0.4162 -0.3623
    8TMC3    O114220   3.806   2.762  10.496  0.0741 -0.1440 -0.3571
    8TMC3    O214221   3.493   2.528  10.863  0.4003  0.0608 -0.4545
    9MPD2     C14222   3.509   2.249  10.536 -0.6646 -0.3100 -0.5490
    9MPD2    C114223   3.475   2.339  10.636  0.5087 -0.3633 -0.2164
    9MPD2    C214224   3.344   2.334  10.697 -0.0254  0.5782 -0.5311
    9MPD2    C314225   3.253   2.242  10.652  0.1904 -0.2422  0.5806
    9MPD2    C414226   3.294   2.151  10.550 -0.2164  0.1035 -0.4164
    9MPD2    C514227   3.420   2.155  10.489 -0.0036 -0.4665  0.2052
    9MPD2     H14228   3.308   2.393  10.781 -1.2984  0.0185 -0.6923
    9MPD2    H114229   3.217   2.088  10.507 -0.6836  1.7428 -1.9554
    9MPD2    H214230   3.607   2.263  10.493 -0.9062 -1.4316 -1.4744
    9MPD2    H314231   3.443   2.114  10.391 -0.7554 -0.2641 -0.0549
    9MPD2     N14232   3.114   2.241  10.686 -0.9449 -0.0746  0.0409
    9MPD2    H514233   3.060   2.183  10.622  0.1480 -0.6326 -0.3689
    9MPD2    N114234   3.575   2.434  10.663 -0.4203 -0.2500 -0.2049
    9MPD2    H714235   3.662   2.424  10.610 -0.1157 -0.1083  0.2691
    1MPD1     C14236   2.819   1.152  17.021 -0.3763  0.7884  0.4183
    1MPD1    C114237   2.748   1.253  17.077  0.2404 -0.0045 -0.5282
    1MPD1    C214238   2.793   1.310  17.196 -0.2146 -0.4150  0.4875
    1MPD1    C314239   2.912   1.279  17.256 -0.2278  0.2073 -0.5634
    1MPD1    C414240   2.986   1.179  17.188 -0.0444 -0.3563 -0.0986
    1MPD1    C514241   2.936   1.121  17.078 -0.4356 -1.1593  0.2205
    1MPD1     H14242   2.726   1.374  17.252  1.6271 -0.3332  2.6216
    1MPD1    H114243   3.083   1.138  17.212 -0.6407 -1.4348  0.4523
    1MPD1    H214244   2.782   1.103  16.932 -0.0073  0.0526  0.6706
    1MPD1    H314245   2.996   1.040  17.038  0.3473 -1.1582  1.4073
    1MPD1     N14246   2.962   1.345  17.375 -0.2210  0.5717  0.7179
    1MPD1    H514247   3.050   1.298  17.395  0.2894 -0.0689 -3.1147
    1MPD1    N114248   2.615   1.267  17.040  0.0642 -0.0750  0.5341
    1MPD1    H614249   2.588   1.364  17.060 -1.1839 -0.1059 -0.9512
    1MPD1    H714250   2.604   1.241  16.942 -0.4218 -2.1457  1.1512
    2MPD1     C14251   3.303   2.308  17.648 -0.4387 -0.8828 -0.2734
    2MPD1    C114252   3.254   2.242  17.535 -0.2487 -0.2944  1.0072
    2MPD1    C214253   3.190   2.120  17.546  0.2307  0.4412  0.4418
    2MPD1    C314254   3.215   2.054  17.668 -0.4669  0.2116  0.3366
    2MPD1    C414255   3.275   2.119   0.079  0.3685  0.1059 -0.3977
    2MPD1    C514256   3.316   2.251   0.067  0.3528 -0.4067 -0.0559
    2MPD1     H14257   3.137   2.078  17.461  1.1386 -1.3541  0.7644
    2MPD1    H114258   3.282   2.076   0.178  3.5740  1.3425 -0.0974
    2MPD1    H214259   3.334   2.412  17.642 -2.9728 -0.1096  0.0806
    2MPD1    H314260   3.351   2.299   0.157 -0.5649  0.5811 -0.2188
    2MPD1     N14261   3.171   1.923  17.688  0.8609  0.0267 -0.5487
    2MPD1    H514262   3.199   1.875   0.072 -4.0234 -0.0073  1.0945
    2MPD1    N114263   3.252   2.319  17.414  0.3640  0.8513  0.4086
    2MPD1    H614264   3.235   2.256  17.336  1.2089 -0.1861  1.0667
    2MPD1    H714265   3.319   2.393  17.397  1.0904 -0.4710 -2.4624
    3TCq2    C114266   3.078   1.858  17.608  0.2353  0.3409 -0.6209
    3TCq2    O214267   2.998   1.905  17.530  0.0674  0.2149  0.0902
    3TCq2    C214268   3.068   1.713  17.636 -0.0522  0.2693  0.2598
    3TCq2    C314269   3.183   1.654  17.691  0.0622 -0.4141 -0.3611
    3TCq2    C414270   3.196   1.515  17.673 -0.3832  0.6731 -0.1188
    3TCq2    C514271   3.100   1.443  17.608  1.0374  0.1602  0.9133
    3TCq2    C614272   2.991   1.511  17.549 -0.2347 -0.3892  0.3162
    3TCq2    C714273   2.971   1.646  17.565 -0.4012  0.1533 -0.2600
    3TCq2    C814274   2.901   1.446  17.451 -0.4312  0.1289 -0.3648
    3TCq2    O414275   2.791   1.491  17.437  0.1272 -0.5524 -0.0693
    3TCq2    C914276   3.316   1.448   0.021 -0.0911  0.5918  0.2409
    3TCq2    O514277   3.333   1.475   0.142 -0.1807 -0.5827  0.0369
    3TCq2    O614278   3.350   1.348  17.660  0.1536  0.0408 -0.8920
    3TCq2    H214279   3.257   1.714   0.043  0.5051 -1.2754 -0.0028
    3TCq2    H314280   3.113   1.337  17.591  0.6338  0.4210 -1.0481
    3TCq2    H414281   2.900   1.709  17.511  1.0686  1.2811 -0.8783
    1TCq1    O114282   0.538   0.482  12.414  0.6320 -0.5607 -0.7454
    1TCq1    C114283   0.461   0.492  12.524  0.4136  0.4178 -0.0440
    1TCq1    O214284   0.345   0.458  12.524  0.1399 -0.4697 -0.1559
    1TCq1    C214285   0.546   0.482  12.644 -0.0314  0.3843  0.8194
    1TCq1    C314286   0.502   0.391  12.730  0.6781 -0.1280 -0.5737
    1TCq1    C414287   0.588   0.357  12.836  0.5257 -0.0186 -0.3718
    1TCq1    C514288   0.700   0.429  12.862  0.0623  0.0554 -0.3937
    1TCq1    C614289   0.747   0.512  12.757 -0.4071  0.0328  0.5442
    1TCq1    C714290   0.666   0.542  12.650  0.2906  0.2798  0.1962
    1TCq1    C814291   0.843   0.619  12.795 -0.4135 -0.5970  0.0541
    1TCq1    O414292   0.817   0.729  12.752  0.3565 -0.4025  0.0543
    1TCq1    C914293   0.546   0.258  12.938 -1.0528  0.1972  0.3553
    1TCq1    O514294   0.620   0.233  13.034  0.4272  0.3940  0.2840
    1TCq1    O614295   0.422   0.232  12.948  0.3689 -0.0033  0.0222
    1TCq1    H114296   0.634   0.466  12.428  0.6612 -1.3558 -1.7987
    1TCq1    H214297   0.413   0.329  12.721  1.1837 -0.8410 -0.6408
    1TCq1    H314298   0.753   0.434  12.957  1.9469  4.4389 -1.6791
    1TCq1    H414299   0.684   0.628  12.586  2.5870 -0.5702 -0.2665
    2MPD2     C14300   1.092   0.774  12.861 -0.3879  0.1451 -0.1175
    2MPD2    C114301   1.060   0.649  12.906 -1.0357  0.0178 -0.2266
    2MPD2    C214302   1.146   0.582  12.992 -0.0080 -0.4484  0.1346
    2MPD2    C314303   1.269   0.633  13.029 -0.1221  0.4436  0.4000
    2MPD2    C414304   1.300   0.759  12.985 -0.2797 -0.7003  0.0417
    2MPD2    C514305   1.212   0.830  12.900  0.4342 -0.0192 -0.5750
    2MPD2     H14306   1.123   0.482  13.028 -1.4107 -0.9358 -2.0918
    2MPD2    H114307   1.390   0.813  13.011  0.0482 -1.5210  0.6116
    2MPD2    H214308   1.032   0.834  12.795 -1.1482 -0.0771  0.3716
    2MPD2    H314309   1.229   0.933  12.868  0.5771  0.2255  0.2807
    2MPD2     N14310   1.362   0.562  13.109  0.4329 -0.2228  0.3562
    2MPD2    H514311   1.429   0.624  13.153 -1.7153  2.6600 -0.4311
    2MPD2    N114312   0.947   0.577  12.861 -0.3468 -0.0202  0.2475
    2MPD2    H714313   0.952   0.476  12.876 -0.7457 -0.5872 -3.3674
    3TCq1    O114314   1.771   0.537  13.577 -0.0328  0.1481  0.1487
    3TCq1    C114315   1.728   0.547  13.449 -0.1188  0.0022 -0.5338
    3TCq1    O214316   1.771   0.632  13.374  0.4459 -0.5599 -0.2690
    3TCq1    C214317   1.623   0.455  13.417  0.2423 -0.1556  0.4621
    3TCq1    C314318   1.595   0.346  13.501  0.0321 -0.0963  0.1934
    3TCq1    C414319   1.482   0.269  13.473  0.2387 -0.6826 -0.4047
    3TCq1    C514320   1.407   0.300  13.363 -0.8654 -0.1946  0.1627
    3TCq1    C614321   1.436   0.411  13.286  0.4107 -0.0915 -0.0765
    3TCq1    C714322   1.539   0.498  13.323 -0.0191 -0.5601  0.2633
    3TCq1    C814323   1.351   0.435  13.168  0.5295  0.0231 -0.2114
    3TCq1    O414324   1.291   0.335  13.131  0.0179  0.3035 -0.1787
    3TCq1    C914325   1.449   0.160  13.550 -0.0422 -0.1226 -0.0047
    3TCq1    O514326   1.511   0.143  13.661  0.4815  0.5593  0.5091
    3TCq1    O614327   1.337   0.108  13.522  0.2151  0.1990 -0.1233
    3TCq1    H114328   1.725   0.466  13.626 -0.8426  0.0984 -0.6786
    3TCq1    H214329   1.663   0.317  13.580  1.0375  2.1480  0.1515
    3TCq1    H314330   1.319   0.240  13.343 -0.5490  0.1839 -2.3846
    3TCq1    H414331   1.568   0.583  13.261 -0.7572  1.3964  2.6085
    1MPD2     C14332   0.836   1.808  14.759 -0.2299 -0.5242  0.5200
    1MPD2    C114333   0.784   1.692  14.823  0.4789  0.1482 -0.6140
    1MPD2    C214334   0.872   1.627  14.906 -0.1925 -0.2261 -0.1146
    1MPD2    C314335   1.008   1.656  14.912 -0.4597  0.4481 -0.1156
    1MPD2    C414336   1.058   1.767  14.839  0.0951 -0.1714  0.3970
    1MPD2    C514337   0.970   1.839  14.763  0.3775 -0.5630 -0.7590
    1MPD2     H14338   0.844   1.534  14.956  0.5327 -0.8169 -0.8046
    1MPD2    H114339   1.161   1.800  14.848 -0.3256  0.4830  2.7645
    1MPD2    H214340   0.771   1.879  14.708 -0.2215 -0.8663  0.0287
    1MPD2    H314341   0.995   1.931  14.712 -0.2371 -1.3979 -2.5787
    1MPD2     N14342   1.085   1.572  14.995 -0.2538 -0.3454 -0.0930
    1MPD2    H514343   1.025   1.518  15.056  0.6648 -1.5697 -0.2720
    1MPD2    N114344   0.642   1.671  14.830 -0.0778  0.7419  0.5027
    1MPD2    H714345   0.575   1.733  14.785 -0.9685 -0.6118 -0.0147
    2TMC3    C114346   0.441   1.546  14.857  1.1551  0.0232 -0.4671
    2TMC3    C214347   0.402   1.434  14.927 -1.4528  0.4344  0.2558
    2TMC3    C314348   0.353   1.332  14.861  0.7311  0.6180 -0.1578
    2TMC3    C414349   0.413   1.563  14.721 -0.5289 -0.1715 -0.6345
    2TMC3    C514350   0.346   1.458  14.662  0.5440 -0.3596  0.1563
    2TMC3    C614351   0.318   1.347  14.728  0.5562  0.1080  0.0086
    2TMC3     C14352   0.581   1.565  14.888  0.1029  1.1366  0.7122
    2TMC3     O14353   0.633   1.465  14.940  0.0074 -0.0631 -0.2626
    2TMC3     H14354   0.421   1.431  15.033 -1.5074 -0.5846  0.2296
    2TMC3    H114355   0.447   1.650  14.665  0.2034 -1.3279 -1.9701
    2TMC3    H214356   0.258   1.267  14.685 -0.5357  0.2892  1.2188
    2TMC3    C714357   0.229   1.494  14.586  0.3954  0.1946 -0.2878
    2TMC3    C814358   0.420   1.203  14.886 -0.0420 -0.0084  0.4188
    2TMC3    O114359   0.189   1.407  14.508  0.5979  0.2907 -0.9687
    2TMC3    O214360   0.380   1.097  14.834  0.2754  0.4058 -0.5840
    3TCq1    O114361   4.184   2.404  14.785 -0.2195  0.3070  0.4083
    3TCq1    C114362   4.300   2.467  14.804 -0.9913 -0.0197  0.8960
    3TCq1    O214363   4.320   2.589  14.793 -0.5631 -0.3943 -0.5489
    3TCq1    C214364   4.406   2.373  14.815  0.2527  0.1203  0.8105
    3TCq1    C314365   4.525   2.430  14.856  0.3911 -0.3373 -0.1359
    3TCq1    C414366   4.643   2.359  14.828  0.0462 -0.8320 -0.5981
    3TCq1    C514367   4.650   2.239  14.757  0.2480  0.3862 -0.4303
    3TCq1    C614368   4.521   2.198  14.715 -0.7907 -0.1177  0.5692
    3TCq1    C714369   4.405   2.261  14.736  0.2525  0.0938  0.8619
    3TCq1    C814370   4.512   2.070  14.648 -0.1568 -0.2413 -0.0760
    3TCq1    O414371   4.402   2.031  14.607  0.3970  0.0243  0.4866
    3TCq1    C914372   0.046   2.421  14.869 -0.5329  0.2063  0.0677
    3TCq1    O514373   0.035   2.537  14.920  0.6530  0.1730 -0.5398
    3TCq1    O614374   0.150   2.351  14.877 -0.2368 -0.0305  1.0151
    3TCq1    H114375   4.183   2.314  14.825 -2.1100  0.0104 -0.2941
    3TCq1    H214376   4.528   2.521  14.916  0.5497  0.2214 -0.9846
    3TCq1    H314377   0.022   2.196  14.737  1.4764  3.2223 -0.6887
    3TCq1    H414378   4.316   2.211  14.700  0.9668  0.4522 -1.4060
    4MPD2     C14379   4.564   1.816  14.493 -0.1416 -0.7358  0.1828
    4MPD2    C114380   4.651   1.877  14.579 -0.7838 -0.0002 -0.1720
    4MPD2    C214381   0.043   1.812  14.613  0.5185 -0.1829  0.0873
    4MPD2    C314382   0.067   1.685  14.565 -0.0298  0.1552 -0.4864
    4MPD2    C414383   4.717   1.631  14.467 -0.0285 -0.1726 -0.1233
    4MPD2    C514384   4.596   1.692  14.429 -0.2603  0.4688 -0.1851
    4MPD2     H14385   0.106   1.852  14.692 -0.5915  0.0494  0.8570
    4MPD2    H114386   0.019   1.534  14.426 -0.5456 -0.0565 -0.7203
    4MPD2    H214387   4.474   1.874  14.477  0.4581  1.5597  4.9461
    4MPD2    H314388   4.528   1.639  14.364 -0.2805  1.6640 -1.1201
    4MPD2     N14389   0.178   1.618  14.624  0.1031  0.4890 -0.0449
    4MPD2    H514390   0.221   1.667  14.701 -1.1998  0.5644  0.6364
    4MPD2    N114391   4.633   2.010  14.631 -0.1347 -0.5424 -0.2076
    4MPD2    H714392   4.718   2.055  14.665  0.6160 -2.6552  0.6882
    5TMC2    C114393   1.187   1.257  15.185  0.5173 -0.4274  0.5676
    5TMC2    C214394   1.294   1.264  15.268  0.2902  0.0114  0.7646
    5TMC2    C314395   1.389   1.365  15.254  0.0469  0.6457  0.4263
    5TMC2    C414396   1.171   1.339  15.075  0.5694  0.4376 -0.4075
    5TMC2    C514397   1.255   1.443  15.069 -0.2588 -0.4753 -0.0980
    5TMC2    C614398   1.360   1.460  15.162 -0.0026  0.2878 -0.7416
    5TMC2     C14399   1.086   1.145  15.199 -0.7098 -0.4763  0.4274
    5TMC2     O14400   1.123   1.031  15.215 -0.6320 -0.0889 -0.5720
    5TMC2     H14401   1.293   1.185  15.343 -1.7345 -0.3685  0.3406
    5TMC2    H114402   1.108   1.307  14.993  0.4433  2.8690 -1.2634
    5TMC2    H214403   1.422   1.549  15.159  1.1241 -0.4919 -0.7646
    5TMC2    C714404   1.222   1.558  14.989  0.2692  0.1958  0.2454
    5TMC2    C814405   1.430   1.410  15.386 -1.1838  0.0376  0.0539
    5TMC2    O114406   1.305   1.620  14.921  0.3656 -0.0920  0.8536
    5TMC2    O214407   1.419   1.530  15.416  0.0864 -0.6890  0.0759
    5TMC2    O514408   1.503   1.316  15.442 -0.1498  0.1786  0.3382
    5TMC2    H514409   1.511   1.232  15.392  0.3161  1.1836 -1.2523
    6MPD2     C14410   0.635   1.007  14.983 -0.4409 -0.0547 -0.0564
    6MPD2    C114411   0.634   1.142  15.004  0.7967  0.1734 -0.1265
    6MPD2    C214412   0.745   1.194  15.065 -0.8645 -0.3239  0.0730
    6MPD2    C314413   0.850   1.114  15.106  0.3741  0.2480  0.5967
    6MPD2    C414414   0.845   0.982  15.099  0.2675 -0.3495 -0.2140
    6MPD2    C514415   0.729   0.926  15.039 -0.2166 -0.9198  0.9212
    6MPD2     H14416   0.758   1.299  15.088  2.1212 -0.3871 -1.2157
    6MPD2    H114417   0.922   0.921  15.146 -0.0203 -1.0066 -0.5822
    6MPD2    H214418   0.558   0.965  14.920 -0.5971  1.1553 -0.6595
    6MPD2    H314419   0.727   0.819  15.026  0.0147 -0.8250  0.0712
    6MPD2     N14420   0.962   1.188  15.165  0.7207 -0.1643 -0.2520
    6MPD2    H514421   0.961   1.288  15.147 -1.2199 -0.0773  0.3212
    6MPD2    N114422   0.528   1.227  14.966 -0.5983  0.0433 -0.2984
    6MPD2    H714423   0.552   1.325  14.976 -2.3060  0.2839  1.4455
  945NH4     N114424   2.874   0.733  12.150  0.1542 -0.0072 -0.0022
  945NH4     H214425   2.838   0.636  12.147  0.9054 -0.2969  0.2939
  945NH4     H314426   2.828   0.796  12.218 -2.3070 -1.9956  0.1546
  945NH4     H414427   2.880   0.778  12.056  1.6993  1.0486  0.5997
  945NH4     H514428   2.969   0.728  12.192  0.0750 -0.5321  0.1011
  946SOD     NA14429   1.952   2.189   8.767  0.3347  0.0529  0.1219
  947SOD     NA14430   3.356   1.778  13.012  0.0902 -0.0850  0.3213
  948SOD     NA14431   2.795   4.307   0.820 -0.4550 -0.3127 -0.0112
  949SOD     NA14432   2.355   0.938  17.355  0.1652 -0.0565  0.4174
  950SOD     NA14433   1.742   0.894   2.113  0.4884 -0.2569 -0.3737
  951SOD     NA14434   3.213   3.385   3.040 -0.0345 -0.1680 -0.1442
  952SOD     NA14435   3.863   2.346   9.003  0.1143 -0.1377  0.0099
  953SOD     NA14436   2.376   4.398  12.397  0.1037  0.0047 -0.2112
  954SOD     NA14437   2.183   2.671  11.333 -0.2612 -0.0356 -0.1095
  955SOD     NA14438   1.245   4.621  12.227 -0.2596  0.1039  0.1562
  956SOD     NA14439   0.705   3.915   9.126  0.0259  0.2282  0.3856
  957SOD     NA14440   1.632   0.178  11.832  0.0672 -0.3064  0.1398
  958SOD     NA14441   2.159   0.288  14.549 -0.0759  0.0238 -0.3487
  959SOD     NA14442   1.858   2.166  11.208  0.2916  0.4605  0.1618
  960SOD     NA14443   3.597   2.019  12.910  0.1854  0.2787  0.7280
  961SOD     NA14444   0.066   2.563   0.483  0.0654  0.2896 -0.2440
  962SOD     NA14445   4.352   4.571  14.983 -0.2025  0.2136 -0.2173
  963SOD     NA14446   3.785   3.826   2.267 -0.6769  0.3193  0.3895
  964SOD     NA14447   1.512   0.172  12.736 -0.2424  0.5531  0.5040
  965SOD     NA14448   4.333   1.785  11.164 -0.0677  0.0365 -0.2553
  966SOD     NA14449   4.705   1.590   9.706 -0.1852 -0.2784  0.7323
  967SOD     NA14450   4.031   3.138   3.074  0.5628  0.0193 -0.0834
  968SOD     NA14451   3.181   3.107   1.175  0.4413  0.1051  0.1722
  969SOD     NA14452   4.693   0.428  13.242  0.4087 -0.3562  0.1017
  970SOD     NA14453   0.712   3.814   5.458  0.1828  0.1370 -0.0005
  971SOD     NA14454   2.777   2.812   0.661  0.0043 -0.7696  0.1279
  972SOD     NA14455   4.434   3.204   9.191  0.1454 -0.1144  0.0796
  973SOD     NA14456   2.842   4.500  13.154 -0.1722  0.3315  0.2187
  974SOD     NA14457   0.318   4.490  11.341  0.3579 -0.2864 -0.1962
  975SOD     NA14458   0.330   4.295  10.767 -0.0820 -0.4851  0.2313
  976SOD     NA14459   1.053   0.947  11.763  0.4154  0.1932 -0.2573
  977SOD     NA14460   1.828   2.861  16.716 -0.6045  0.2508 -0.0126
  978SOD     NA14461   2.914   4.623   1.428 -0.3457  0.1157  0.1598
  979SOD     NA14462   4.280   4.720  12.547 -0.2913  0.1043  0.2851
  980SOD     NA14463   1.682   0.449   2.119 -0.1659 -0.4097  0.2532
  981SOD     NA14464   2.840   2.509   6.124  0.0342  0.0062  0.1620
  982SOD     NA14465   3.156   0.958  14.926 -0.1202 -0.1637  0.7033
  983SOD     NA14466   4.488   0.162  12.732 -0.1577 -0.3748  0.5596
  984SOD     NA14467   4.354   4.582   9.074 -1.0047 -0.0420 -0.3909
  985SOD     NA14468   4.222   1.325   9.919 -0.1462 -0.3255  0.5022
  986SOD     NA14469   1.403   3.153  16.507  0.4978 -0.2365  0.5682
  987SOD     NA14470   2.870   3.086  15.040 -0.0574 -0.4339  0.4500
  988SOD     NA14471   3.188   3.862  15.263  0.1745  0.2997 -0.2906
  989SOD     NA14472   0.462   0.363   1.467 -0.0173  0.0287  0.6497
  990SOD     NA14473   0.790   0.431   6.683  0.2658 -0.1628  0.1381
  991SOD     NA14474   4.723   0.429  10.770 -0.0118 -0.2040 -0.1186
  992SOD     NA14475   0.513   0.359  14.903  0.4192 -0.0215 -0.0028
  993SOD     NA14476   3.174   1.366  15.104  0.0892  0.1933 -0.4226
  994SOD     NA14477   0.249   2.233  15.049  0.5915 -0.5629  0.2848
  995SOD     NA14478   3.055   0.716   6.419 -0.4633 -0.2302  0.2061
  996SOD     NA14479   1.498   0.038  10.848  0.0640 -0.2707  0.1797
  997SOD     NA14480   2.331   0.759   1.405 -0.4575  0.0936 -0.1525
  998SOD     NA14481   4.362   2.677  12.564 -0.8711  0.2330  0.1223
  999SOD     NA14482   3.992   2.681   1.781 -0.0701  0.4957  0.7331
 1000SOD     NA14483   1.801   4.595   9.619  0.0426  0.2055 -0.4681
 1001SOD     NA14484   2.211   2.251  14.448 -0.1801 -0.1251 -0.2908
 1002SOD     NA14485   0.571   4.038   0.013 -0.3333  0.4234 -0.5010
 1003SOD     NA14486   1.286   0.399  11.831 -0.3091  0.6856  0.0675
 1004SOD     NA14487   1.875   0.422  14.530  0.4166  0.2608  0.0070
 1005SOD     NA14488   0.881   0.108  10.027  0.0225 -0.0143  0.0915
 1006SOD     NA14489   1.520   2.826  12.960 -0.1026  0.0527 -0.0886
 1007SOD     NA14490   2.557   2.131   3.112  0.5073 -0.3525  0.4108
 1008SOD     NA14491   4.616   0.319   4.507  0.1041  0.0683  0.0793
 1009SOD     NA14492   3.501   0.574   3.021  0.1636 -0.1598  0.1193
 1010SOD     NA14493   0.658   0.539   9.409  0.1841  0.2542 -0.1772
 1011SOL     OW14494   0.859   0.813   5.511  0.2372 -0.3000  0.7427
 1011SOL    HW114495   0.843   0.905   5.534  0.8631 -0.1056  0.3985
 1011SOL    HW214496   0.944   0.804   5.553  1.6779 -0.0896 -2.1677
 1012SOL     OW14497   3.753   1.453  12.016 -0.4164 -0.4915  0.3652
 1012SOL    HW114498   3.677   1.501  11.986  1.2701  1.5240 -0.6936
 1012SOL    HW214499   3.714   1.397  12.083 -1.2797  0.4886  0.6757
 1013SOL     OW14500   1.092   1.348   8.366  0.0355 -0.6505  0.1415
 1013SOL    HW114501   1.011   1.305   8.395 -0.3690  0.4842  0.6711
 1013SOL    HW214502   1.154   1.304   8.424 -1.3560 -0.6129  1.6738
 1014SOL     OW14503   2.260   3.159   3.414  0.6675  0.2816 -0.1181
 1014SOL    HW114504   2.240   3.136   3.505  1.8462 -0.5060 -0.0601
 1014SOL    HW214505   2.173   3.143   3.378  0.5626 -2.1295  1.1794
 1015SOL     OW14506   3.745   2.248   7.762 -0.3194 -0.2560  0.4664
 1015SOL    HW114507   3.812   2.222   7.825  0.4107  0.5562  0.0222
 1015SOL    HW214508   3.669   2.269   7.816 -1.3364 -1.8637 -0.3122
 1016SOL     OW14509   4.386   2.475   2.155  0.1563 -0.2494  0.1294
 1016SOL    HW114510   4.306   2.518   2.124 -1.0425 -0.5438  2.8551
 1016SOL    HW214511   4.441   2.487   2.077  1.2200  1.5605  1.1664
 1017SOL     OW14512   0.552   1.391   7.922 -0.0677  0.1383 -0.4264
 1017SOL    HW114513   0.577   1.325   7.987  1.9341 -1.4575 -2.8031
 1017SOL    HW214514   0.634   1.441   7.924 -0.1538  0.1939  1.5537
 1018SOL     OW14515   4.519   1.756   5.386 -0.0410  0.1673 -0.1151
 1018SOL    HW114516   4.435   1.748   5.339  0.0160 -2.3622  0.1901
 1018SOL    HW214517   4.551   1.841   5.357 -0.1417 -0.9127 -3.3482
 1019SOL     OW14518   3.441   4.341  10.520 -0.4343 -0.8715 -0.3408
 1019SOL    HW114519   3.399   4.421  10.489 -0.6088 -0.5242  0.8006
 1019SOL    HW214520   3.518   4.340  10.463 -0.8998  0.3563 -0.9947
 1020SOL     OW14521   0.923   2.946   6.507 -0.0204  0.1890  0.1375
 1020SOL    HW114522   0.961   2.862   6.482 -1.0689 -0.4567  0.7186
 1020SOL    HW214523   0.833   2.929   6.481 -1.3134  2.3298  3.1945
 1021SOL     OW14524   3.511   2.508  13.192 -0.9476 -0.2912  0.5552
 1021SOL    HW114525   3.603   2.503  13.216 -0.6087 -0.4931 -0.7681
 1021SOL    HW214526   3.458   2.548  13.261 -2.5468 -1.9586  0.3000
 1022SOL     OW14527   3.060   3.032  10.813  0.1424 -0.2402  1.1029
 1022SOL    HW114528   3.118   3.005  10.742 -0.8005 -2.2380  1.1000
 1022SOL    HW214529   3.072   2.952  10.863  0.5683  0.1418  1.6065
 1023SOL     OW14530   0.799   0.935   2.302  0.1897  0.2306  0.3556
 1023SOL    HW114531   0.719   0.963   2.258  0.1512  0.1983  0.4043
 1023SOL    HW214532   0.813   0.872   2.231  1.6988  0.9711  0.0050
 1024SOL     OW14533   4.505   3.179   6.867  0.1121 -0.0506  0.9655
 1024SOL    HW114534   4.410   3.173   6.874 -0.1302  1.0471 -1.2243
 1024SOL    HW214535   4.509   3.214   6.778 -0.2904 -1.3009  0.4592
 1025SOL     OW14536   4.225   4.248   7.021 -0.0727 -0.2697  0.4829
 1025SOL    HW114537   4.308   4.296   7.024 -0.9332  1.2521 -0.0556
 1025SOL    HW214538   4.178   4.313   7.073  0.1811 -1.0638  1.6950
 1026SOL     OW14539   1.556   3.808   4.314 -0.2763 -0.0576 -0.3286
 1026SOL    HW114540   1.550   3.841   4.224 -1.0200 -0.3263 -0.3760
 1026SOL    HW214541   1.549   3.715   4.294  2.0268 -0.4231  0.6292
 1027SOL     OW14542   3.349   3.415   7.098 -0.0764 -0.0222  0.7323
 1027SOL    HW114543   3.313   3.413   7.187 -1.9069 -1.2860 -0.0374
 1027SOL    HW214544   3.362   3.509   7.086 -3.3426  0.6002  2.0278
 1028SOL     OW14545   2.814   3.273  16.180 -0.4977 -0.4141  0.2902
 1028SOL    HW114546   2.884   3.274  16.116  1.5326  1.8474  2.5127
 1028SOL    HW214547   2.814   3.182  16.207 -0.2824 -0.7258 -0.7756
 1029SOL     OW14548   3.988   2.427  12.018 -0.0793 -0.2867 -0.3199
 1029SOL    HW114549   3.977   2.340  11.980 -0.3970 -0.9384  1.2479
 1029SOL    HW214550   3.940   2.413  12.100 -0.5496 -5.0274 -1.4285
 1030SOL     OW14551   4.427   1.848  17.438  0.0131 -0.5327 -0.1917
 1030SOL    HW114552   4.497   1.911  17.455 -1.8048  1.9881 -2.1412
 1030SOL    HW214553   4.417   1.877  17.347  2.6017 -1.3778 -0.7489
 1031SOL     OW14554   2.133   3.148   8.336 -0.4282  0.2866  0.2843
 1031SOL    HW114555   2.109   3.064   8.296 -0.8372 -0.1641  1.4829
 1031SOL    HW214556   2.227   3.145   8.320 -0.7531  0.6130 -1.7486
 1032SOL     OW14557   0.084   3.732  13.733  0.1743 -0.3035 -0.1194
 1032SOL    HW114558   0.047   3.820  13.735  0.4442 -0.1769 -0.7150
 1032SOL    HW214559   0.132   3.733  13.650 -0.5318 -2.4362 -0.5479
 1033SOL     OW14560   3.343   2.192  16.043  0.0707 -0.3346 -0.2361
 1033SOL    HW114561   3.260   2.175  15.997 -0.2905 -1.1635  0.7296
 1033SOL    HW214562   3.349   2.124  16.109 -1.8017 -0.5774 -0.3154
 1034SOL     OW14563   2.470   1.054  13.958  0.1562  0.2112 -0.1727
 1034SOL    HW114564   2.427   1.022  14.038 -0.6118  0.5457 -0.4534
 1034SOL    HW214565   2.395   1.105  13.927 -0.1455  0.2829  0.6568
 1035SOL     OW14566   1.267   3.355   8.173 -0.6220 -0.4866 -0.1517
 1035SOL    HW114567   1.189   3.408   8.157  0.5072  0.6549 -1.9353
 1035SOL    HW214568   1.220   3.272   8.167 -3.1401  0.9204  0.3224
 1036SOL     OW14569   1.490   4.529  10.166  0.2177 -0.1072 -0.0065
 1036SOL    HW114570   1.530   4.521  10.252 -1.6391 -1.3806  0.7267
 1036SOL    HW214571   1.547   4.599  10.134  0.7139 -0.2054  0.6665
 1037SOL     OW14572   1.544   0.166   7.650  0.0892  0.0258  0.4726
 1037SOL    HW114573   1.635   0.173   7.679  0.2949  0.8498 -0.3558
 1037SOL    HW214574   1.505   0.124   7.726  0.0153 -0.7303  0.0125
 1038SOL     OW14575   4.468   1.928   3.004 -0.0304 -0.2713  0.6848
 1038SOL    HW114576   4.531   1.882   3.060 -0.3564 -2.8319 -1.0476
 1038SOL    HW214577   4.420   1.860   2.956  0.3352 -0.5914  0.7679
 1039SOL     OW14578   0.501   3.850   6.176 -0.3369 -0.0750 -0.1571
 1039SOL    HW114579   0.589   3.815   6.158 -0.5433 -0.3194 -0.6705
 1039SOL    HW214580   0.497   3.822   6.268  0.4164 -1.7572 -0.6333
 1040SOL     OW14581   0.242   4.358   4.716  0.0045 -0.4928 -0.0655
 1040SOL    HW114582   0.318   4.395   4.671 -0.6850  0.1879 -0.6650
 1040SOL    HW214583   0.265   4.374   4.808  3.3236 -0.7551 -0.8266
 1041SOL     OW14584   4.463   3.776  13.449  0.9997  0.2897 -0.2521
 1041SOL    HW114585   4.383   3.745  13.405  0.1977  1.2358  0.5568
 1041SOL    HW214586   4.443   3.869  13.445  2.4958  0.4964 -3.3898
 1042SOL     OW14587   2.063   4.470   4.537 -0.1734  0.6039 -0.1876
 1042SOL    HW114588   2.085   4.405   4.604 -0.2278  0.8743  0.0989
 1042SOL    HW214589   2.101   4.550   4.574 -0.3081  1.1595 -1.2396
 1043SOL     OW14590   0.469   1.881  14.840  0.2462  0.2125  0.4606
 1043SOL    HW114591   0.474   1.968  14.800 -1.7317  1.1373  2.1982
 1043SOL    HW214592   0.477   1.905  14.932 -1.0673 -1.3428  0.9763
 1044SOL     OW14593   1.419   0.736  17.626  0.8656  0.3378  0.5113
 1044SOL    HW114594   1.375   0.693  17.553  2.7191  0.2989 -0.5731
 1044SOL    HW214595   1.351   0.755  17.691  0.7226  1.1281  0.1234
 1045SOL     OW14596   0.572   3.975   6.503  0.1927  0.0656 -0.6225
 1045SOL    HW114597   0.656   4.016   6.524  0.6270 -0.4162 -1.3952
 1045SOL    HW214598   0.601   3.888   6.476 -0.3914 -0.3731  0.1957
 1046SOL     OW14599   2.345   0.226   6.735 -0.9162 -0.1083  0.0111
 1046SOL    HW114600   2.275   0.225   6.670 -1.7780 -0.0765  0.9321
 1046SOL    HW214601   2.345   0.137   6.770  1.1460 -0.7323 -1.5877
 1047SOL     OW14602   1.379   3.834  17.229 -0.4312 -0.2512  0.7801
 1047SOL    HW114603   1.475   3.834  17.229 -0.4358  0.9745  0.4947
 1047SOL    HW214604   1.355   3.921  17.260 -0.5311 -0.0520  0.1404
 1048SOL     OW14605   2.487   4.372   3.741 -0.5093 -0.1617 -0.1480
 1048SOL    HW114606   2.557   4.383   3.678  0.9242  1.0489  1.6662
 1048SOL    HW214607   2.417   4.407   3.686  0.4768 -1.6352 -2.3311
 1049SOL     OW14608   3.518   1.906   4.011 -0.1449  0.1718 -0.5878
 1049SOL    HW114609   3.577   1.833   4.026  2.2281  1.9433 -1.3120
 1049SOL    HW214610   3.451   1.896   4.078  2.2592 -2.1899  1.4269
 1050SOL     OW14611   0.035   3.178   8.111 -0.4781 -0.2727 -0.6352
 1050SOL    HW114612   0.007   3.229   8.187  1.8504  1.3945 -0.8785
 1050SOL    HW214613   0.020   3.091   8.147  1.2418 -0.0128  0.7293
 1051SOL     OW14614   0.339   2.985   1.278  1.0113  0.8643 -0.2911
 1051SOL    HW114615   0.349   3.027   1.192  1.2849  2.3687  0.4745
 1051SOL    HW214616   0.411   3.029   1.322  1.8432 -1.4263  0.6170
 1052SOL     OW14617   4.224   3.617   2.405 -0.3962  0.5065  0.0473
 1052SOL    HW114618   4.251   3.537   2.360 -3.2633 -0.0529 -0.6751
 1052SOL    HW214619   4.179   3.585   2.483  2.2906  0.5947  1.6519
 1053SOL     OW14620   4.668   4.690   9.705 -0.8052 -0.1997 -0.7754
 1053SOL    HW114621   0.016   0.006   9.658 -0.7687 -0.1068 -0.6409
 1053SOL    HW214622   4.616   4.642   9.641  0.3063 -0.6233 -1.3565
 1054SOL     OW14623   2.864   1.913   9.316  0.7535 -0.7643  0.0543
 1054SOL    HW114624   2.852   1.905   9.410 -2.4590  0.8887 -0.2008
 1054SOL    HW214625   2.777   1.887   9.286 -0.1163  2.1335  0.0082
 1055SOL     OW14626   0.118   0.850   9.019 -0.4316  0.2947 -0.5051
 1055SOL    HW114627   0.041   0.821   9.068  0.1559  0.0735  0.2838
 1055SOL    HW214628   0.096   0.810   8.935  2.2391 -1.3410 -0.4381
 1056SOL     OW14629   3.847   3.981  11.734  0.6101 -0.0368  0.6340
 1056SOL    HW114630   3.807   3.906  11.689  0.5214  1.7088 -2.1485
 1056SOL    HW214631   3.765   4.013  11.771 -0.0006 -1.3112  0.4063
 1057SOL     OW14632   3.161   3.824   6.241 -0.0627 -0.5240  0.0045
 1057SOL    HW114633   3.155   3.729   6.230 -3.1571 -0.1970 -1.3640
 1057SOL    HW214634   3.160   3.841   6.335  0.0582 -3.3271  0.5030
 1058SOL     OW14635   3.812   1.429   4.025  0.0243 -0.1610  0.1589
 1058SOL    HW114636   3.872   1.402   4.095  1.5483  0.4293 -0.9103
 1058SOL    HW214637   3.870   1.470   3.960  0.4464  1.4693  1.5437
 1059SOL     OW14638   3.439   4.515   4.126 -0.0566 -0.1095 -0.4977
 1059SOL    HW114639   3.513   4.565   4.091 -0.1822  0.3861 -0.0381
 1059SOL    HW214640   3.382   4.590   4.113 -1.5576 -0.8957  1.6327
 1060SOL     OW14641   4.283   2.133   6.365  0.0782  0.0553  0.0009
 1060SOL    HW114642   4.377   2.117   6.376  0.5669  0.5438 -3.2206
 1060SOL    HW214643   4.264   2.203   6.427  2.4869  2.0844 -1.5154
 1061SOL     OW14644   4.295   2.428   8.453 -0.1577  0.6990  0.5040
 1061SOL    HW114645   4.260   2.403   8.539 -0.0940  0.7127  0.5338
 1061SOL    HW214646   4.347   2.506   8.470  0.6392  0.2850 -0.0363
 1062SOL     OW14647   1.499   0.736   6.829  0.2261  0.2313  0.0181
 1062SOL    HW114648   1.419   0.760   6.877 -0.9980  1.8152 -2.8018
 1062SOL    HW214649   1.501   0.642   6.847  0.6885  0.5471  1.6248
 1063SOL     OW14650   3.920   3.807   9.429 -0.2386  0.2356 -0.4253
 1063SOL    HW114651   3.846   3.796   9.369 -0.8961 -1.4467  0.6864
 1063SOL    HW214652   3.894   3.881   9.484 -2.2974  1.6984 -3.3177
 1064SOL     OW14653   1.555   4.113   4.094 -0.3145  0.5552 -0.9791
 1064SOL    HW114654   1.624   4.106   4.161 -1.1032 -2.7940 -0.5168
 1064SOL    HW214655   1.588   4.046   4.034  0.6354 -0.4643  0.6513
 1065SOL     OW14656   0.965   0.355   0.095  0.3268  0.2148 -0.1947
 1065SOL    HW114657   1.060   0.344   0.095  0.1498 -1.2683 -1.4365
 1065SOL    HW214658   0.953   0.449   0.078  0.2496  0.1398 -0.5504
 1066SOL     OW14659   1.401   1.884   2.863  0.2003 -0.0897  0.2728
 1066SOL    HW114660   1.322   1.937   2.872  0.0773 -0.2228  0.0025
 1066SOL    HW214661   1.388   1.850   2.774 -1.0740  1.5555 -0.1790
 1067SOL     OW14662   2.233   3.707   7.695  0.4465  0.4394  0.0833
 1067SOL    HW114663   2.319   3.685   7.659  0.2550  0.4631 -0.3899
 1067SOL    HW214664   2.259   3.704   7.787 -1.0050  1.8116  0.5394
 1068SOL     OW14665   1.227   1.344  11.400  0.2700  0.1125  0.2308
 1068SOL    HW114666   1.291   1.376  11.463  0.0225 -0.7760  0.9398
 1068SOL    HW214667   1.275   1.271  11.360  2.1472  1.8373 -0.6717
 1069SOL     OW14668   1.453   2.364   5.277 -0.5531 -0.0318  0.8826
 1069SOL    HW114669   1.455   2.459   5.263 -0.8355 -0.0527  0.7005
 1069SOL    HW214670   1.465   2.364   5.372 -1.5152  0.4043  1.0003
 1070SOL     OW14671   0.806   3.298  12.207  0.3139 -0.2458  0.0415
 1070SOL    HW114672   0.853   3.215  12.198  1.6791  0.4805  0.5568
 1070SOL    HW214673   0.735   3.287  12.144  0.2933  2.6115 -0.4616
 1071SOL     OW14674   0.719   1.542   6.541 -0.5234 -0.0196 -0.5069
 1071SOL    HW114675   0.702   1.464   6.593  0.5042 -0.5168 -0.9173
 1071SOL    HW214676   0.639   1.595   6.550 -0.1653  0.6557 -1.2257
 1072SOL     OW14677   0.041   0.311   1.160 -0.2288  0.0899  0.6070
 1072SOL    HW114678   0.060   0.255   1.085 -0.0314  1.9827 -0.7555
 1072SOL    HW214679   4.713   0.378   1.117  1.7289  0.4180 -1.2610
 1073SOL     OW14680   3.774   4.049   4.350  0.0533 -0.2701 -0.0534
 1073SOL    HW114681   3.855   4.088   4.317 -0.1424  1.9274  2.0819
 1073SOL    HW214682   3.802   3.957   4.345 -1.0265 -0.4804 -2.0934
 1074SOL     OW14683   1.730   3.410  16.931 -0.1970 -0.2559 -0.2232
 1074SOL    HW114684   1.746   3.458  16.850  1.5646  1.2532  1.0070
 1074SOL    HW214685   1.766   3.323  16.916  0.8600 -0.1384  1.7007
 1075SOL     OW14686   1.984   2.045   8.386 -0.2647  0.0318  0.2394
 1075SOL    HW114687   2.004   2.113   8.323  1.1007  2.0416  2.8510
 1075SOL    HW214688   2.022   1.972   8.337 -0.8961  0.4304 -0.8510
 1076SOL     OW14689   4.247   1.579   0.447  0.0758  0.1198  0.6974
 1076SOL    HW114690   4.183   1.611   0.511  0.4922  0.0127  1.1663
 1076SOL    HW214691   4.258   1.659   0.396 -1.4816 -0.6820 -0.9123
 1077SOL     OW14692   3.640   2.046   6.530 -0.2375  0.3432  0.1653
 1077SOL    HW114693   3.693   2.106   6.583 -0.5416  1.6722 -1.0395
 1077SOL    HW214694   3.586   2.104   6.476  1.0795 -0.1812 -1.6816
 1078SOL     OW14695   4.594   0.829  12.121  0.4117  0.5766 -0.4311
 1078SOL    HW114696   4.638   0.887  12.059 -0.6018 -0.2718 -1.9264
 1078SOL    HW214697   4.505   0.839  12.087  0.4725  0.6942 -0.5555
 1079SOL     OW14698   0.303   3.500  11.280  0.1344 -0.1923 -0.4092
 1079SOL    HW114699   0.346   3.517  11.364 -0.7058  0.0403 -0.0241
 1079SOL    HW214700   0.319   3.409  11.255 -0.9696 -0.4353 -0.2299
 1080SOL     OW14701   0.619   3.777   3.997  0.1284 -0.7088 -0.7098
 1080SOL    HW114702   0.647   3.789   4.088 -0.7343  1.4432 -0.7343
 1080SOL    HW214703   0.668   3.844   3.950 -0.8389  1.6627  1.7309
 1081SOL     OW14704   0.575   0.981   5.748  0.3629 -0.2655  0.0941
 1081SOL    HW114705   0.544   0.946   5.664  0.4725  0.3630 -0.2053
 1081SOL    HW214706   0.662   1.013   5.725  0.4839  0.1335  1.1235
 1082SOL     OW14707   3.634   4.192  12.110  0.3012  0.1925  0.9617
 1082SOL    HW114708   3.683   4.158  12.185  1.1932  0.8015  0.6548
 1082SOL    HW214709   3.627   4.282  12.142  1.0221  0.4700  0.3339
 1083SOL     OW14710   3.792   0.131   1.784  0.3589  0.2867  0.2109
 1083SOL    HW114711   3.818   0.165   1.698  1.0908 -0.6915  0.0455
 1083SOL    HW214712   3.737   0.057   1.762  1.2372 -0.0906 -0.7454
 1084SOL     OW14713   1.229   3.571   2.170 -0.6428  0.1839  0.1356
 1084SOL    HW114714   1.267   3.490   2.204  1.8210  1.9203  1.4912
 1084SOL    HW214715   1.295   3.600   2.107  0.3730 -0.4938  0.8794
 1085SOL     OW14716   1.820   1.611   3.481 -0.4759 -0.1426 -0.1182
 1085SOL    HW114717   1.739   1.637   3.524 -1.1464 -1.8606 -0.3239
 1085SOL    HW214718   1.876   1.632   3.556 -0.1825  1.1822 -0.7151
 1086SOL     OW14719   3.559   1.456  11.785 -0.0992  0.0121  0.2929
 1086SOL    HW114720   3.635   1.398  11.777 -1.2675 -1.5632  0.7261
 1086SOL    HW214721   3.600   1.541  11.763  0.4906 -0.6270 -1.0654
 1087SOL     OW14722   2.154   0.078   0.312  0.1106 -0.3581 -0.1868
 1087SOL    HW114723   2.136   0.050   0.222  0.2021  1.7095 -0.8354
 1087SOL    HW214724   2.194   4.722   0.345 -1.3725 -0.4391  1.4216
 1088SOL     OW14725   0.393   2.195   6.031 -0.0918 -0.4534  0.3099
 1088SOL    HW114726   0.390   2.129   6.101 -1.8972  1.5586  2.1320
 1088SOL    HW214727   0.486   2.217   6.023 -0.5043  1.6014  1.2063
 1089SOL     OW14728   4.192   2.233  10.182  0.2296 -0.1483  0.6181
 1089SOL    HW114729   4.161   2.322  10.198  0.9565 -0.1205  1.8942
 1089SOL    HW214730   4.254   2.217  10.253  0.1891  0.0685  0.7024
 1090SOL     OW14731   2.035   2.596   7.966 -0.4869 -0.1487 -0.3101
 1090SOL    HW114732   1.960   2.656   7.973 -0.6269 -0.3130 -0.4219
 1090SOL    HW214733   2.103   2.660   7.942  0.1528 -1.1646 -1.1887
 1091SOL     OW14734   3.020   2.691   8.454  0.1638  0.3743  0.4337
 1091SOL    HW114735   2.951   2.692   8.520  0.7394  0.6088  1.0301
 1091SOL    HW214736   3.094   2.730   8.500  1.2071 -3.5278  2.0700
 1092SOL     OW14737   1.179   2.866   4.845 -0.3685 -0.2579  0.4123
 1092SOL    HW114738   1.161   2.959   4.857 -1.1370 -0.2398 -0.8896
 1092SOL    HW214739   1.127   2.829   4.917 -0.1057 -0.3241  0.5671
 1093SOL     OW14740   1.215   4.563  11.775 -0.7281 -0.2422  0.5710
 1093SOL    HW114741   1.226   4.469  11.765 -0.7132 -0.3111  1.2469
 1093SOL    HW214742   1.176   4.583  11.690  1.1638  0.0620 -0.2206
 1094SOL     OW14743   1.165   4.095  11.122  0.4000 -0.1356 -0.2642
 1094SOL    HW114744   1.160   4.008  11.082 -0.2342 -1.0702  1.8348
 1094SOL    HW214745   1.077   4.098  11.160  0.2016 -1.0741 -0.6474
 1095SOL     OW14746   3.286   3.278   7.357  0.0945 -0.2539 -0.1623
 1095SOL    HW114747   3.199   3.305   7.328 -0.3636 -1.0751  0.4341
 1095SOL    HW214748   3.278   3.182   7.357  0.3463 -0.2864  1.8594
 1096SOL     OW14749   4.630   1.626   1.472 -0.0935  0.9965 -0.0127
 1096SOL    HW114750   4.671   1.660   1.392 -0.9998  2.2745  0.0700
 1096SOL    HW214751   4.545   1.667   1.458  0.3555  1.0112 -2.7304
 1097SOL     OW14752   2.982   2.338  11.655  0.5188  0.5055  0.2377
 1097SOL    HW114753   2.911   2.350  11.718  0.2036  3.3896 -0.6890
 1097SOL    HW214754   3.051   2.303  11.711 -0.7489  0.0007  1.4748
 1098SOL     OW14755   4.286   0.596   8.037  0.6514  0.3274 -0.1468
 1098SOL    HW114756   4.239   0.583   8.119  0.4976  2.2837  0.0877
 1098SOL    HW214757   4.370   0.552   8.051 -0.0773 -0.4836  1.5605
 1099SOL     OW14758   3.160   1.200   2.221 -0.0587  0.8113  0.0414
 1099SOL    HW114759   3.216   1.275   2.203 -1.5570  1.8786 -0.1269
 1099SOL    HW214760   3.141   1.175   2.131  1.1811 -2.4965  0.6662
 1100SOL     OW14761   4.319   1.714   2.917  0.6028  0.0070 -0.3545
 1100SOL    HW114762   4.275   1.764   2.848 -0.0418  0.3772  0.3307
 1100SOL    HW214763   4.253   1.647   2.934  0.5130 -0.0699 -0.9785
 1101SOL     OW14764   0.382   3.399   3.614  0.3290 -0.4863  0.2444
 1101SOL    HW114765   0.290   3.384   3.592  0.6799 -1.8673 -0.2306
 1101SOL    HW214766   0.428   3.354   3.543 -2.5810 -1.1026 -1.2559
 1102SOL     OW14767   3.404   4.559  11.815  0.0016  0.1737  0.7584
 1102SOL    HW114768   3.450   4.483  11.850  0.2915 -0.0862 -0.2088
 1102SOL    HW214769   3.324   4.517  11.785 -1.2648  3.5347 -0.5981
 1103SOL     OW14770   0.140   1.437   8.724  0.0195  0.2607  0.3258
 1103SOL    HW114771   0.140   1.533   8.724  1.7398  0.2627  1.1207
 1103SOL    HW214772   0.081   1.425   8.650  0.2898 -1.4077  0.3839
 1104SOL     OW14773   4.466   2.032   3.611 -0.5076  0.0812  0.0548
 1104SOL    HW114774   4.457   2.010   3.518  1.1712  1.8931 -0.5387
 1104SOL    HW214775   4.378   2.065   3.632  0.0612  2.0048 -0.5602
 1105SOL     OW14776   1.486   2.387   0.279 -0.3070  0.3032  0.2488
 1105SOL    HW114777   1.565   2.440   0.287 -0.9770  1.3834 -0.2119
 1105SOL    HW214778   1.496   2.320   0.346 -0.4293  0.6605  0.6188
 1106SOL     OW14779   2.075   0.716   4.878  0.8750 -0.3976 -0.1510
 1106SOL    HW114780   2.006   0.769   4.838 -0.1665 -0.9231  0.9312
 1106SOL    HW214781   2.070   0.639   4.822  1.9977  0.4747 -1.4298
 1107SOL     OW14782   2.095   3.809   8.045 -0.2556  0.0756 -0.6809
 1107SOL    HW114783   2.007   3.793   8.078  0.9342 -1.9342  1.5592
 1107SOL    HW214784   2.106   3.901   8.069 -1.0027 -0.7059  2.6439
 1108SOL     OW14785   4.426   3.267  16.175 -0.0101  0.1103  0.1906
 1108SOL    HW114786   4.384   3.267  16.089  1.2971 -0.0513 -0.4493
 1108SOL    HW214787   4.506   3.218  16.160 -1.5013 -2.8582  1.8732
 1109SOL     OW14788   3.933   1.218   4.455 -0.5962 -0.2080  0.2546
 1109SOL    HW114789   3.869   1.200   4.524  0.3032  0.0726  1.1691
 1109SOL    HW214790   3.918   1.157   4.383 -1.3928 -1.3640  1.4129
 1110SOL     OW14791   0.569   0.083  12.095 -0.2306 -0.5182 -0.0507
 1110SOL    HW114792   0.641   0.045  12.044  0.4035  0.5796  0.0339
 1110SOL    HW214793   0.598   0.174  12.106 -2.1981 -0.0975  1.5268
 1111SOL     OW14794   0.186   4.007   8.951 -0.1531  0.5137 -0.0184
 1111SOL    HW114795   0.214   3.955   9.026 -0.5187  0.2368 -0.0765
 1111SOL    HW214796   0.104   3.959   8.940  1.2418 -2.4137  2.5834
 1112SOL     OW14797   2.335   0.045   3.878  0.3998 -0.2909 -0.2283
 1112SOL    HW114798   2.280   0.002   3.813  1.8188 -2.8169  0.2147
 1112SOL    HW214799   2.330   4.704   3.948 -0.0641 -0.7535 -0.6951
 1113SOL     OW14800   0.932   4.376   8.908 -0.2868 -0.6139 -0.0411
 1113SOL    HW114801   0.852   4.331   8.880 -0.0720 -1.4039  0.6115
 1113SOL    HW214802   0.992   4.349   8.839 -0.8099 -0.4591 -0.5562
 1114SOL     OW14803   2.993   3.859  16.547 -0.0704 -0.0982  0.3639
 1114SOL    HW114804   2.979   3.766  16.560  0.6912  0.0966  2.6105
 1114SOL    HW214805   2.954   3.887  16.630  0.8583 -1.9023  1.4067
 1115SOL     OW14806   0.074   0.788   5.059  0.4709 -0.4534  0.0061
 1115SOL    HW114807   0.077   0.864   5.001  0.2593  0.3329  1.0454
 1115SOL    HW214808   0.105   0.712   5.009  0.7276 -1.1259  1.1865
 1116SOL     OW14809   4.537   4.084   6.535 -0.1366  0.4194 -0.1993
 1116SOL    HW114810   4.476   4.096   6.463  0.2956 -1.6970 -0.8987
 1116SOL    HW214811   4.555   3.990   6.537 -1.1283  0.2211 -0.4036
 1117SOL     OW14812   2.814   3.837   8.002  0.3515  0.1135 -0.5431
 1117SOL    HW114813   2.872   3.768   7.970  3.4441  2.3927  0.1722
 1117SOL    HW214814   2.877   3.907   8.018 -0.9293  0.9784  0.7924
 1118SOL     OW14815   3.884   1.774   7.588  0.0901 -0.6725  0.0389
 1118SOL    HW114816   3.801   1.816   7.568  1.1613  1.1595 -0.5582
 1118SOL    HW214817   3.929   1.833   7.649  0.4253  0.3436 -1.1930
 1119SOL     OW14818   3.505   1.765   3.676 -0.3727  0.5993 -0.0008
 1119SOL    HW114819   3.546   1.791   3.594  0.9750  0.2304  0.5526
 1119SOL    HW214820   3.468   1.683   3.642  1.6486 -1.5308  2.9351
 1120SOL     OW14821   3.310   0.561  16.072  0.5904 -0.1691 -0.3922
 1120SOL    HW114822   3.334   0.479  16.116 -1.4909 -0.6009 -0.0585
 1120SOL    HW214823   3.234   0.543  16.018  1.3142  2.4776 -2.2738
 1121SOL     OW14824   1.579   4.192   1.194  0.5351  0.0099 -0.2204
 1121SOL    HW114825   1.544   4.276   1.222  0.4858  0.9960 -3.2354
 1121SOL    HW214826   1.495   4.156   1.165  0.7368  0.3459 -1.2487
 1122SOL     OW14827   3.643   1.179   5.794  0.5434 -0.2964  0.2562
 1122SOL    HW114828   3.715   1.131   5.833 -0.0900 -1.0905  0.4475
 1122SOL    HW214829   3.635   1.123   5.717  1.5958 -1.1710  0.7849
 1123SOL     OW14830   3.839   4.629   7.807 -0.8614  0.1959 -0.5455
 1123SOL    HW114831   3.837   4.549   7.860 -1.8168 -0.6648 -1.8930
 1123SOL    HW214832   3.850   4.593   7.719 -2.1912 -0.0189 -0.6126
 1124SOL     OW14833   2.960   2.313  11.193 -0.3165 -0.1923  0.3276
 1124SOL    HW114834   2.887   2.301  11.254  0.4961  1.7453  1.6732
 1124SOL    HW214835   2.930   2.252  11.126  1.4006 -0.6273 -0.0409
 1125SOL     OW14836   0.669   3.631   3.119  0.1631 -0.3766  0.5105
 1125SOL    HW114837   0.632   3.663   3.037  0.9625  0.8602  0.6231
 1125SOL    HW214838   0.759   3.662   3.108  0.8633 -2.7039 -0.3676
 1126SOL     OW14839   0.511   0.083   6.160 -0.2622 -0.4319  0.4636
 1126SOL    HW114840   0.512   0.042   6.247  0.0859  0.9364  1.1075
 1126SOL    HW214841   0.495   0.170   6.198  1.1783  0.1098 -0.1775
 1127SOL     OW14842   2.587   2.150   5.699 -0.5112 -0.0718 -0.3446
 1127SOL    HW114843   2.499   2.186   5.684  1.3773  4.1599 -1.2443
 1127SOL    HW214844   2.566   2.058   5.684 -2.0752  0.3305 -0.6587
 1128SOL     OW14845   2.094   0.884   2.763  0.3959 -0.0438  0.4430
 1128SOL    HW114846   2.110   0.976   2.740 -0.2360 -0.4236 -1.5128
 1128SOL    HW214847   2.142   0.877   2.846 -1.2899  0.2486  1.4400
 1129SOL     OW14848   2.960   2.146  14.674  0.0691  0.7308 -0.3148
 1129SOL    HW114849   3.000   2.095  14.745  0.8206 -0.0103 -1.2620
 1129SOL    HW214850   2.876   2.100  14.670  0.8580 -0.7042 -0.2542
 1130SOL     OW14851   3.433   4.466   8.091  0.5679  0.0707 -0.3523
 1130SOL    HW114852   3.507   4.445   8.147 -1.1571  1.2144  2.3755
 1130SOL    HW214853   3.364   4.405   8.117  0.0245  0.0779 -1.7443
 1131SOL     OW14854   1.249   2.689   2.881 -0.5128  0.0479 -0.0267
 1131SOL    HW114855   1.336   2.656   2.859 -0.0535  0.6210  0.9299
 1131SOL    HW214856   1.210   2.713   2.797  0.3020  0.5867 -0.2488
 1132SOL     OW14857   1.295   2.790   7.315 -1.0595  0.5879  0.3164
 1132SOL    HW114858   1.357   2.821   7.249 -0.2360 -1.6223  0.0619
 1132SOL    HW214859   1.358   2.776   7.387 -1.5700 -3.3156 -0.0197
 1133SOL     OW14860   2.807   4.087   7.213  0.7178  0.3900 -0.1168
 1133SOL    HW114861   2.745   4.159   7.223  0.0818  0.0693 -1.7422
 1133SOL    HW214862   2.816   4.058   7.303 -0.5281  3.2935  0.9467
 1134SOL     OW14863   0.096   0.705   1.370 -0.6326 -0.1347  0.1958
 1134SOL    HW114864   0.040   0.688   1.294 -2.5176  0.3883  1.4750
 1134SOL    HW214865   0.036   0.764   1.415  1.4664  0.1453  2.6139
 1135SOL     OW14866   2.377   3.933   9.540 -0.6237 -0.1188  0.3889
 1135SOL    HW114867   2.346   4.005   9.595  0.3244  0.3561  0.3047
 1135SOL    HW214868   2.462   3.913   9.580  0.4343  2.4147 -0.5519
 1136SOL     OW14869   2.924   0.451   2.609 -0.2734  0.1220 -0.3749
 1136SOL    HW114870   2.912   0.369   2.657  0.1912 -0.7204 -1.6784
 1136SOL    HW214871   2.982   0.509   2.658 -0.9183 -1.6134  2.4426
 1137SOL     OW14872   2.964   0.222   7.012  0.1939  0.5375  0.4974
 1137SOL    HW114873   3.023   0.296   7.019  2.0176 -0.5783 -3.1877
 1137SOL    HW214874   2.914   0.259   6.939 -0.0382  1.6348  1.2126
 1138SOL     OW14875   1.489   2.162   2.647  0.4906  0.1194 -0.0245
 1138SOL    HW114876   1.448   2.242   2.678 -1.3810 -0.0352 -2.1428
 1138SOL    HW214877   1.570   2.159   2.699  0.3839  1.8748  0.2310
 1139SOL     OW14878   4.222   2.236  15.656  0.0852 -0.0518 -0.1651
 1139SOL    HW114879   4.236   2.210  15.747  3.2353 -1.1381 -0.9400
 1139SOL    HW214880   4.159   2.170  15.628 -1.1234 -0.0505  2.4845
 1140SOL     OW14881   4.488   2.215   9.665 -0.1662 -0.5875  0.7265
 1140SOL    HW114882   4.508   2.292   9.718 -0.4648 -0.9750  1.4119
 1140SOL    HW214883   4.471   2.144   9.728 -1.3294 -1.5946 -0.7294
 1141SOL     OW14884   4.007   2.880   8.237 -0.0082 -0.1195  0.1773
 1141SOL    HW114885   4.002   2.899   8.331 -1.0243  1.0335 -0.1121
 1141SOL    HW214886   4.092   2.838   8.245  0.0612 -0.0464 -0.1951
 1142SOL     OW14887   0.794   3.414   2.818 -0.3034 -0.1615  0.4377
 1142SOL    HW114888   0.798   3.327   2.857 -0.0949 -0.7139 -0.8229
 1142SOL    HW214889   0.889   3.419   2.805 -0.0255 -1.1952  2.0240
 1143SOL     OW14890   0.730   4.575  16.037 -0.1382 -0.5273 -0.2566
 1143SOL    HW114891   0.638   4.560  16.057  0.1329 -4.3972 -1.9891
 1143SOL    HW214892   0.742   4.541  15.949  2.4035 -2.3485  0.7779
 1144SOL     OW14893   0.656   4.547   4.931  0.2698  0.1451  0.5530
 1144SOL    HW114894   0.683   4.576   4.844 -3.0620  0.8899 -0.2237
 1144SOL    HW214895   0.654   4.629   4.981 -0.0767  1.0714 -0.9873
 1145SOL     OW14896   0.920   4.315   4.230  0.1436  0.1326 -0.1733
 1145SOL    HW114897   0.921   4.410   4.219 -0.0061  0.4179  2.4608
 1145SOL    HW214898   1.008   4.295   4.263  0.5834  2.1814 -0.1325
 1146SOL     OW14899   1.724   3.879   7.944 -0.0440  0.2866 -0.0016
 1146SOL    HW114900   1.646   3.905   7.895 -0.1455 -0.9432 -0.4871
 1146SOL    HW214901   1.708   3.785   7.951  2.2172 -0.1243 -0.2003
 1147SOL     OW14902   2.335   2.221   5.638  0.7664  0.1402  0.3214
 1147SOL    HW114903   2.310   2.304   5.678 -1.4971 -0.2377 -0.2918
 1147SOL    HW214904   2.251   2.174   5.634  1.8467 -1.6271 -1.6926
 1148SOL     OW14905   3.002   1.703  13.978  0.8246  0.3084 -0.7879
 1148SOL    HW114906   3.065   1.634  13.999  0.6970 -0.2580 -2.3268
 1148SOL    HW214907   2.939   1.657  13.924  0.8328  0.5626 -1.0116
 1149SOL     OW14908   4.214   1.591   5.005 -0.3367  0.1795  0.1265
 1149SOL    HW114909   4.162   1.647   4.947  1.8309  1.4756 -0.5607
 1149SOL    HW214910   4.252   1.534   4.939  1.1621  0.2806  0.9108
 1150SOL     OW14911   3.644   0.971   3.040 -0.2840  0.3347 -0.3719
 1150SOL    HW114912   3.624   1.025   2.964  1.0712  1.8907  0.3664
 1150SOL    HW214913   3.698   0.903   3.000 -2.9444 -1.9890  0.0274
 1151SOL     OW14914   1.281   1.441   0.594 -0.6344 -0.1702 -0.2823
 1151SOL    HW114915   1.189   1.433   0.620  0.2317 -1.6902  2.3320
 1151SOL    HW214916   1.318   1.465   0.679 -0.4124  1.4920 -0.8593
 1152SOL     OW14917   1.631   2.531   2.842  0.3466  0.1619  0.4199
 1152SOL    HW114918   1.628   2.450   2.893  0.2252  0.4886  0.9273
 1152SOL    HW214919   1.559   2.517   2.780 -1.6217  2.5022  2.1994
 1153SOL     OW14920   0.684   0.471   3.104  0.3947 -0.4132 -0.4431
 1153SOL    HW114921   0.672   0.564   3.088 -1.2827 -0.2229  1.9963
 1153SOL    HW214922   0.649   0.459   3.192  0.7697  1.9931  0.0118
 1154SOL     OW14923   3.035   0.498   4.485  0.3924 -0.4403  0.0215
 1154SOL    HW114924   3.048   0.515   4.579 -2.1130 -2.7159  0.7607
 1154SOL    HW214925   3.129   0.507   4.471  0.9200 -2.4525  2.2870
 1155SOL     OW14926   3.973   3.459   8.876  0.6992  0.2987  0.4125
 1155SOL    HW114927   3.898   3.486   8.824  0.4480 -3.4674 -1.1881
 1155SOL    HW214928   4.036   3.475   8.806  1.2265  0.2446  0.8721
 1156SOL     OW14929   4.516   0.425  14.156 -0.0982  0.4021  0.1060
 1156SOL    HW114930   4.455   0.436  14.228 -0.8811 -1.5593 -0.2588
 1156SOL    HW214931   4.504   0.505  14.104 -0.1601  0.5527  0.3515
 1157SOL     OW14932   3.403   4.470  12.619  0.6190 -0.2289 -0.5402
 1157SOL    HW114933   3.346   4.512  12.555 -0.2801 -1.0005 -0.2539
 1157SOL    HW214934   3.446   4.542  12.663 -1.3513 -2.5596  5.1701
 1158SOL     OW14935   3.689   0.360  16.449  0.8975  0.2027  0.0633
 1158SOL    HW114936   3.609   0.336  16.404  0.0381 -0.8065  2.1287
 1158SOL    HW214937   3.645   0.374  16.533  1.1152  0.7542  0.0876
 1159SOL     OW14938   1.070   0.129  10.155  0.3351  0.0326 -0.4510
 1159SOL    HW114939   1.121   0.190  10.100 -1.5433 -0.5276 -2.8097
 1159SOL    HW214940   1.143   0.074  10.182 -1.3453 -1.7664  0.4515
 1160SOL     OW14941   0.966   1.865   5.266  0.2642 -0.2672 -0.3246
 1160SOL    HW114942   0.949   1.845   5.174 -3.5010 -2.0630  0.7406
 1160SOL    HW214943   0.923   1.948   5.284 -1.1312 -1.2766  0.9841
 1161SOL     OW14944   1.951   3.979   8.919 -0.1649  0.1158  0.0741
 1161SOL    HW114945   1.880   4.033   8.954 -2.9940 -2.0016 -2.3050
 1161SOL    HW214946   1.953   4.013   8.829  0.3199 -2.1427 -0.7704
 1162SOL     OW14947   0.720   0.383   2.687 -0.6560  0.0618 -0.0836
 1162SOL    HW114948   0.768   0.348   2.612 -0.9104  1.3200 -0.8428
 1162SOL    HW214949   0.764   0.467   2.699 -1.1263  0.4803 -1.3341
 1163SOL     OW14950   2.911   3.994   8.566 -0.3008  0.3108 -0.0570
 1163SOL    HW114951   2.846   3.983   8.497 -0.5669  0.8569  0.1123
 1163SOL    HW214952   2.857   4.059   8.611  1.6449  1.7436  0.2094
 1164SOL     OW14953   0.589   1.191   4.514  0.2538 -0.5787  0.4026
 1164SOL    HW114954   0.531   1.228   4.447  0.6893 -0.4889  0.0741
 1164SOL    HW214955   0.640   1.136   4.455 -0.2237 -1.1946  0.5584
 1165SOL     OW14956   2.678   3.058   2.323 -0.4222 -0.1104  0.0821
 1165SOL    HW114957   2.647   3.115   2.393  0.4493 -0.6398  0.9049
 1165SOL    HW214958   2.657   2.976   2.367  1.3957 -1.6100 -1.7963
 1166SOL     OW14959   0.926   0.115   6.927 -0.1172 -0.2991  0.3750
 1166SOL    HW114960   0.846   0.064   6.940 -1.4006  0.9743 -2.4700
 1166SOL    HW214961   0.993   0.071   6.979  2.0695  0.2773 -1.9485
 1167SOL     OW14962   2.906   0.145  11.421 -0.1926  0.7159  0.6125
 1167SOL    HW114963   2.978   0.189  11.466 -0.6402  1.3929  0.6652
 1167SOL    HW214964   2.954   0.069  11.387  0.9389  1.8798 -0.4421
 1168SOL     OW14965   0.639   0.046   5.090 -0.2441 -0.8070  0.0445
 1168SOL    HW114966   0.575   4.718   5.138 -0.7099 -0.8199 -0.5999
 1168SOL    HW214967   0.576   0.115   5.068  2.9836  1.8705 -0.6782
 1169SOL     OW14968   0.055   4.221   1.773  0.3740 -0.7492 -0.2024
 1169SOL    HW114969   0.038   4.196   1.864  2.0995  3.0604  1.1776
 1169SOL    HW214970   0.026   4.312   1.773 -0.2276 -0.9429  0.6853
 1170SOL     OW14971   0.297   2.939   7.183 -0.0924  0.2724 -0.1364
 1170SOL    HW114972   0.333   2.884   7.252 -1.0038  0.7842  0.7485
 1170SOL    HW214973   0.376   2.964   7.135 -0.3501  0.3245 -0.5402
 1171SOL     OW14974   2.772   3.003   8.067 -0.6658  0.4887 -0.0106
 1171SOL    HW114975   2.756   3.062   8.140 -2.4372 -1.6826  1.3333
 1171SOL    HW214976   2.714   3.038   7.999  2.9454  2.8842 -1.9019
 1172SOL     OW14977   1.302   4.136   1.768  0.1251  0.1243 -0.2728
 1172SOL    HW114978   1.268   4.053   1.803  0.0637 -0.6329 -2.1266
 1172SOL    HW214979   1.384   4.139   1.818 -1.1777 -0.4619  1.9020
 1173SOL     OW14980   1.701   0.474  14.174  0.0373 -0.0194 -0.2358
 1173SOL    HW114981   1.777   0.417  14.191  0.1621  0.1767 -0.1392
 1173SOL    HW214982   1.752   0.555  14.169 -0.6994  0.5607  1.8554
 1174SOL     OW14983   0.217   1.881   5.875  0.0647 -0.2196  0.0097
 1174SOL    HW114984   0.209   1.850   5.965 -1.9511  4.0443  1.2630
 1174SOL    HW214985   0.153   1.825   5.831 -2.7989  2.2085  1.0576
 1175SOL     OW14986   0.016   1.660   0.554 -0.1850  0.2219 -0.1096
 1175SOL    HW114987   0.106   1.632   0.571 -0.3709 -1.0010 -1.1459
 1175SOL    HW214988   0.041   1.747   0.524 -2.8719 -0.3713 -4.0892
 1176SOL     OW14989   3.713   4.644   9.476 -0.6273  0.2537  0.2472
 1176SOL    HW114990   3.683   4.720   9.526  0.1946  2.8185 -3.1867
 1176SOL    HW214991   3.655   4.576   9.510  2.3019 -0.8955  2.9080
 1177SOL     OW14992   2.617   0.962  16.214  0.0470  0.2881  0.4869
 1177SOL    HW114993   2.603   0.901  16.141  1.9167 -1.4047  1.5409
 1177SOL    HW214994   2.579   1.043  16.180  1.3508  1.3336  1.4840
 1178SOL     OW14995   2.600   0.143   8.011  0.0947  0.0749 -0.0546
 1178SOL    HW114996   2.655   0.218   8.034  2.8639 -1.3265 -2.1386
 1178SOL    HW214997   2.664   0.072   8.015  0.2218  0.2132  0.3239
 1179SOL     OW14998   1.702   2.053  13.200 -0.0489 -0.6485 -0.3108
 1179SOL    HW114999   1.684   1.999  13.277 -3.3037  2.4528  1.1314
 1179SOL    HW215000   1.726   2.131  13.249  1.5575  0.1879 -2.4129
 1180SOL     OW15001   3.765   1.362   5.326 -0.4502 -0.0090  0.1269
 1180SOL    HW115002   3.809   1.423   5.267 -0.3710 -1.2683 -1.0942
 1180SOL    HW215003   3.708   1.421   5.376 -0.7900  0.8044 -1.2148
 1181SOL     OW15004   4.277   0.701   3.452  0.1429 -0.3888 -0.5092
 1181SOL    HW115005   4.189   0.665   3.447 -1.1543  2.5776  0.8673
 1181SOL    HW215006   4.325   0.618   3.449 -1.0285 -1.1069  0.4473
 1182SOL     OW15007   1.271   0.482   1.745 -0.6823  0.1372  0.3657
 1182SOL    HW115008   1.204   0.497   1.811 -0.4866  1.8240  0.1823
 1182SOL    HW215009   1.339   0.422   1.776  1.1918  1.3251 -1.5025
 1183SOL     OW15010   1.982   0.126  14.493  0.1595 -0.2504  0.5851
 1183SOL    HW115011   1.976   0.031  14.503  1.0421 -0.9789 -5.5374
 1183SOL    HW215012   1.892   0.155  14.505  0.8348  1.9534  0.4128
 1184SOL     OW15013   1.379   2.971   2.312 -0.0217 -0.3456  0.5280
 1184SOL    HW115014   1.425   3.015   2.241 -1.2893  1.3669  0.7709
 1184SOL    HW215015   1.436   2.896   2.328  1.1162  0.3820 -0.1175
 1185SOL     OW15016   0.498   4.230   6.758 -0.4781 -0.0069  0.3199
 1185SOL    HW115017   0.549   4.232   6.677  0.6986  0.1824  1.0728
 1185SOL    HW215018   0.548   4.290   6.813 -1.5975 -0.0081  1.3352
 1186SOL     OW15019   0.122   3.871   2.809 -0.3046 -0.3919 -0.6969
 1186SOL    HW115020   0.199   3.835   2.765  0.6733  1.4917 -0.5289
 1186SOL    HW215021   0.057   3.824   2.755 -0.3116 -0.9153 -0.2284
 1187SOL     OW15022   2.464   3.719   5.156 -0.0075 -0.0850 -0.2137
 1187SOL    HW115023   2.505   3.633   5.145 -0.2129 -0.0989 -0.8572
 1187SOL    HW215024   2.536   3.779   5.176  2.4011 -3.7116  1.8670
 1188SOL     OW15025   3.342   2.495   7.973  0.3167 -0.2761  0.8578
 1188SOL    HW115026   3.431   2.510   8.003  0.7576 -1.0427 -0.0734
 1188SOL    HW215027   3.297   2.561   8.026  0.1234 -1.9655  2.7620
 1189SOL     OW15028   3.655   2.661   6.416  0.3263  0.5769 -0.2971
 1189SOL    HW115029   3.598   2.705   6.353  2.3375  0.3213 -2.2635
 1189SOL    HW215030   3.605   2.581   6.430  1.3231  0.0648  0.3172
 1190SOL     OW15031   2.687   0.262  16.907  0.6106 -0.4486  0.1941
 1190SOL    HW115032   2.647   0.217  16.833  0.0683  2.2046 -1.0995
 1190SOL    HW215033   2.688   0.193  16.974  0.7053  0.6220  1.2974
 1191SOL     OW15034   1.086   1.575   7.405 -0.0667  0.2799 -0.7420
 1191SOL    HW115035   1.082   1.594   7.499  1.0179 -0.0728 -0.6280
 1191SOL    HW215036   1.151   1.641   7.380  0.4003  0.2308  0.3494
 1192SOL     OW15037   0.809   3.932  13.190  0.3301  0.2323 -0.2977
 1192SOL    HW115038   0.850   3.920  13.276 -0.0447 -1.3248 -0.3284
 1192SOL    HW215039   0.757   3.852  13.177 -1.0235  0.9781  0.5577
 1193SOL     OW15040   3.280   0.680   7.961  0.2824 -0.3097  0.2655
 1193SOL    HW115041   3.217   0.623   7.917 -0.7838  2.0815 -1.3401
 1193SOL    HW215042   3.259   0.765   7.921 -0.2664  0.1192  1.4448
 1194SOL     OW15043   1.701   4.461   3.553 -0.4828 -0.4592  0.0946
 1194SOL    HW115044   1.703   4.422   3.640  2.3283  3.1649  1.6606
 1194SOL    HW215045   1.688   4.381   3.503  0.8389 -0.9077  0.4666
 1195SOL     OW15046   3.840   3.164   2.097 -0.5713 -0.2120  0.2188
 1195SOL    HW115047   3.889   3.106   2.155 -0.6961 -0.3665  0.1700
 1195SOL    HW215048   3.825   3.113   2.018  0.2181  1.7514 -1.1734
 1196SOL     OW15049   4.603   3.755   7.257  0.2715 -0.5814 -0.1478
 1196SOL    HW115050   4.556   3.810   7.320  2.0295  0.4523  0.2454
 1196SOL    HW215051   4.589   3.800   7.174  1.6382  0.8778  0.4127
 1197SOL     OW15052   1.978   1.628   2.404  0.2211 -0.2397 -0.3365
 1197SOL    HW115053   1.911   1.687   2.368 -0.7988 -0.4973  1.1411
 1197SOL    HW215054   1.917   1.562   2.437  0.0684 -0.5893 -1.3054
 1198SOL     OW15055   0.919   1.582   0.200 -0.3767  0.1500  0.3836
 1198SOL    HW115056   0.937   1.669   0.163 -0.3052 -0.1390 -0.2501
 1198SOL    HW215057   0.834   1.564   0.159  0.1763 -0.7363 -0.3387
 1199SOL     OW15058   4.393   1.076  17.446  0.4795  0.2227 -0.5966
 1199SOL    HW115059   4.399   1.063  17.352 -0.2474 -5.3949  0.1261
 1199SOL    HW215060   4.305   1.109  17.460  0.5409  0.5434 -0.9515
 1200SOL     OW15061   3.005   2.525  14.454  0.4039  0.4946 -0.0165
 1200SOL    HW115062   3.008   2.475  14.535 -1.9307  0.3988  0.0022
 1200SOL    HW215063   3.098   2.549  14.448  0.0381  2.0827  0.7733
 1201SOL     OW15064   4.638   3.753   3.119 -1.2343  0.1749 -0.5308
 1201SOL    HW115065   4.686   3.706   3.187 -2.5682 -0.5569 -0.0817
 1201SOL    HW215066   4.554   3.741   3.165 -1.3111 -0.4319 -0.8263
 1202SOL     OW15067   3.930   2.298   0.120 -0.2931  0.1839  0.0842
 1202SOL    HW115068   3.903   2.381   0.161 -3.0549  0.3479 -2.0788
 1202SOL    HW215069   3.854   2.285   0.064 -1.2133 -1.1529  1.6354
 1203SOL     OW15070   2.423   2.551  14.768  0.0148 -0.0645  0.0886
 1203SOL    HW115071   2.416   2.543  14.863  1.2621 -1.3741  0.0837
 1203SOL    HW215072   2.403   2.643  14.754  0.9083  0.2728  1.0362
 1204SOL     OW15073   0.988   0.367   5.628  0.4687 -0.2944  0.1368
 1204SOL    HW115074   1.033   0.283   5.617  1.4273  0.3849 -1.2545
 1204SOL    HW215075   1.035   0.399   5.705  0.8978 -0.4255 -0.0675
 1205SOL     OW15076   2.401   1.342   2.352  0.6414  0.0322  0.8759
 1205SOL    HW115077   2.317   1.308   2.384 -0.1716  2.0249  0.8892
 1205SOL    HW215078   2.375   1.434   2.342 -0.2989 -0.4057 -0.6774
 1206SOL     OW15079   2.387   2.552   6.081 -0.0852 -0.6821  0.0619
 1206SOL    HW115080   2.397   2.530   6.174 -2.6050 -0.5812  0.3559
 1206SOL    HW215081   2.478   2.529   6.061  0.2323 -0.7906  1.6548
 1207SOL     OW15082   3.817   0.579   5.232 -0.0886  0.4260  0.2244
 1207SOL    HW115083   3.771   0.634   5.296  1.3376  1.4006  0.4214
 1207SOL    HW215084   3.878   0.527   5.285 -1.2951 -0.9685  0.2393
 1208SOL     OW15085   4.330   1.758   5.199 -0.1598 -0.0381 -0.8006
 1208SOL    HW115086   4.298   1.703   5.127  1.0732  2.0462 -2.9248
 1208SOL    HW215087   4.401   1.810   5.162  0.9224 -1.0290 -0.1100
 1209SOL     OW15088   0.849   4.318   1.532  0.0603 -0.0468 -0.1361
 1209SOL    HW115089   0.927   4.296   1.582  0.9323  0.8264 -1.1083
 1209SOL    HW215090   0.784   4.357   1.590  1.4533 -2.2336  2.8838
 1210SOL     OW15091   1.185   2.482   4.109  0.2176  0.2225  0.1536
 1210SOL    HW115092   1.235   2.543   4.055  1.3010 -1.0810 -0.2924
 1210SOL    HW215093   1.254   2.417   4.120 -0.7899 -1.3141 -2.5855
 1211SOL     OW15094   0.093   3.652   3.545  0.2772 -0.6218 -0.4252
 1211SOL    HW115095   0.027   3.664   3.614  1.6114 -1.8458  1.0801
 1211SOL    HW215096   0.091   3.559   3.524 -1.7284 -0.2722 -1.7063
 1212SOL     OW15097   1.475   1.418  12.158  0.2977 -0.1786  0.0385
 1212SOL    HW115098   1.480   1.324  12.140 -1.2180 -0.2904  0.2221
 1212SOL    HW215099   1.428   1.414  12.241 -0.8056 -0.4703 -0.5942
 1213SOL     OW15100   2.577   1.515   3.246  0.3724  0.1369  0.2602
 1213SOL    HW115101   2.597   1.487   3.157 -0.9106  0.4655 -0.1379
 1213SOL    HW215102   2.647   1.579   3.261  0.4695  0.2648 -0.7481
 1214SOL     OW15103   1.182   2.845   7.716  0.4041  0.6433 -0.1552
 1214SOL    HW115104   1.158   2.937   7.708  2.1298  1.1092  0.1065
 1214SOL    HW215105   1.187   2.838   7.811  0.4536 -2.1833 -0.3558
 1215SOL     OW15106   0.637   3.278   3.698 -0.3527  0.1060 -0.2870
 1215SOL    HW115107   0.573   3.208   3.699  0.4430 -0.6293 -1.0171
 1215SOL    HW215108   0.610   3.326   3.776 -0.8859  0.4146 -0.6601
 1216SOL     OW15109   1.230   2.279   8.159 -0.8429 -0.6493  0.0573
 1216SOL    HW115110   1.174   2.328   8.219 -0.2899  1.1135 -0.8700
 1216SOL    HW215111   1.212   2.186   8.176  0.6988 -0.6556  1.6785
 1217SOL     OW15112   4.530   0.407   5.879 -0.2944 -0.1744  0.5455
 1217SOL    HW115113   4.486   0.440   5.958 -0.9651  0.2253  0.0051
 1217SOL    HW215114   4.483   0.324   5.878  2.4084 -1.6356 -2.2469
 1218SOL     OW15115   0.052   3.642   4.235 -0.3673  0.8903 -0.7753
 1218SOL    HW115116   4.718   3.681   4.299  2.3516 -1.3348  3.0538
 1218SOL    HW215117   0.136   3.641   4.281 -2.0723  1.2739  2.2883
 1219SOL     OW15118   2.827   0.793   7.517 -0.1053  0.5875 -0.1180
 1219SOL    HW115119   2.839   0.814   7.424 -3.3051 -3.1135 -1.3460
 1219SOL    HW215120   2.732   0.807   7.527  0.3603  1.7791  2.7403
 1220SOL     OW15121   1.002   3.271   6.109 -0.5676 -0.6147  0.1624
 1220SOL    HW115122   0.919   3.304   6.075 -0.5411  0.5378  1.2250
 1220SOL    HW215123   1.021   3.351   6.158  2.1595 -0.5936 -0.9295
 1221SOL     OW15124   4.250   2.643  12.375  0.3758  0.4679 -0.4613
 1221SOL    HW115125   4.183   2.576  12.370  0.8371 -0.0773  0.5725
 1221SOL    HW215126   4.305   2.628  12.298  1.5690  2.5599 -0.0302
 1222SOL     OW15127   3.747   0.811  15.882  0.2841  0.1337 -0.0389
 1222SOL    HW115128   3.706   0.888  15.843 -3.4614 -1.6240  0.5200
 1222SOL    HW215129   3.783   0.847  15.963  1.0746  0.3949 -0.5058
 1223SOL     OW15130   0.154   1.493   3.951 -0.0284  0.2006 -0.1087
 1223SOL    HW115131   0.083   1.546   3.916 -1.2294 -2.2670 -1.4126
 1223SOL    HW215132   0.207   1.476   3.873 -1.5275  0.0177 -1.0923
 1224SOL     OW15133   4.031   4.381  13.601 -0.3121 -0.3444 -0.1323
 1224SOL    HW115134   3.936   4.373  13.613 -0.4493  1.4879  0.1644
 1224SOL    HW215135   4.061   4.337  13.681 -0.9063 -0.7165 -0.1112
 1225SOL     OW15136   4.194   3.271  11.178  0.2617  0.3016  0.1514
 1225SOL    HW115137   4.174   3.274  11.085 -2.6522  0.7179  0.7870
 1225SOL    HW215138   4.271   3.328  11.183 -0.3301  1.0685  0.6326
 1226SOL     OW15139   1.503   4.115  12.383 -0.6491 -0.3949  0.5420
 1226SOL    HW115140   1.490   4.149  12.294 -1.7117  2.1582  1.6772
 1226SOL    HW215141   1.441   4.044  12.399  0.1044 -1.7250 -2.3556
 1227SOL     OW15142   1.376   2.431  10.819  0.4000  0.0634 -0.0944
 1227SOL    HW115143   1.362   2.351  10.869 -1.1168 -0.4607 -1.3650
 1227SOL    HW215144   1.317   2.488  10.869 -1.1584 -1.1872 -0.5073
 1228SOL     OW15145   1.068   2.874   8.564 -0.2236  0.4711 -1.2900
 1228SOL    HW115146   1.050   2.968   8.558 -0.1336  0.6234  1.1485
 1228SOL    HW215147   1.065   2.874   8.659  0.4846  0.7814 -1.2690
 1229SOL     OW15148   3.940   3.847   7.860 -0.8538 -0.0089  0.0904
 1229SOL    HW115149   3.947   3.829   7.767 -0.9200 -0.6588  0.2142
 1229SOL    HW215150   3.903   3.766   7.896 -2.3538 -0.3962 -2.3246
 1230SOL     OW15151   1.255   0.620   5.685  0.1054  0.0765  0.1236
 1230SOL    HW115152   1.283   0.563   5.613  0.9993 -0.5458  0.9527
 1230SOL    HW215153   1.176   0.568   5.696 -0.9749  1.6864 -0.1582
 1231SOL     OW15154   4.466   3.971  10.939  0.1168  0.7635 -0.0475
 1231SOL    HW115155   4.508   4.033  10.879  0.4925 -2.4151 -3.0474
 1231SOL    HW215156   4.463   4.017  11.023 -1.5044 -1.0303  0.8808
 1232SOL     OW15157   2.961   4.390   4.970  0.1377 -0.0560 -0.2532
 1232SOL    HW115158   3.038   4.387   5.027 -0.1886 -0.4843  0.1641
 1232SOL    HW215159   2.914   4.467   5.003 -2.4837 -1.5451 -0.4710
 1233SOL     OW15160   1.543   0.027   2.579 -0.7666  0.3687 -0.6959
 1233SOL    HW115161   1.544   4.656   2.582 -0.9218  0.4246  0.8765
 1233SOL    HW215162   1.632   0.043   2.611 -1.0336  3.5588 -1.5818
 1234SOL     OW15163   2.977   3.028  12.983  0.0775 -0.0882  0.3544
 1234SOL    HW115164   2.966   3.063  12.895 -1.6290 -0.0932  0.5809
 1234SOL    HW215165   2.909   3.071  13.034  0.7506  1.1132  0.2335
 1235SOL     OW15166   1.850   0.194   1.907 -0.3738 -0.4926  0.2100
 1235SOL    HW115167   1.804   0.218   1.987  0.5856  2.7416 -0.2088
 1235SOL    HW215168   1.771   0.182   1.854 -0.5774 -0.2969  0.4686
 1236SOL     OW15169   2.091   2.949  16.370  0.0459 -0.0202  0.6533
 1236SOL    HW115170   2.181   2.924  16.388  0.4575  1.0831  0.0917
 1236SOL    HW215171   2.096   2.984  16.281 -1.8710 -0.6496  0.2973
 1237SOL     OW15172   1.837   3.730   8.183  0.2664 -0.3579 -0.5200
 1237SOL    HW115173   1.798   3.713   8.097 -0.9615  0.7347 -0.1867
 1237SOL    HW215174   1.836   3.636   8.202 -0.0032  0.2085  2.2109
 1238SOL     OW15175   2.822   2.927   8.614  0.8546 -0.2912 -0.1208
 1238SOL    HW115176   2.884   2.899   8.681 -2.4526 -1.3266  2.5623
 1238SOL    HW215177   2.880   2.972   8.553 -0.2175  0.9939 -0.1822
 1239SOL     OW15178   1.523   3.441  16.152  0.4122  0.2140  0.2636
 1239SOL    HW115179   1.536   3.533  16.132 -0.7954  0.5878  1.2135
 1239SOL    HW215180   1.612   3.407  16.160  0.3663  0.1919  0.7129
 1240SOL     OW15181   0.125   1.299  17.154 -0.4238 -0.1181 -0.4022
 1240SOL    HW115182   0.052   1.262  17.105  0.0520 -0.5058 -0.8249
 1240SOL    HW215183   0.136   1.379  17.102  2.4543  0.4277  1.0183
 1241SOL     OW15184   2.419   0.553   3.031 -0.1842 -0.2645  0.2664
 1241SOL    HW115185   2.344   0.504   3.066  1.2401 -1.7352  1.2652
 1241SOL    HW215186   2.417   0.639   3.072 -0.4370  0.7601 -1.9214
 1242SOL     OW15187   3.013   1.822   6.258  0.1337  0.2701 -0.2394
 1242SOL    HW115188   2.954   1.747   6.250  0.3729  0.1061 -0.4582
 1242SOL    HW215189   2.943   1.886   6.270 -0.5464 -0.6077  0.4335
 1243SOL     OW15190   2.885   0.226   2.781  0.5289 -0.1077 -0.0580
 1243SOL    HW115191   2.905   0.179   2.862 -0.6350 -0.4321  0.0343
 1243SOL    HW215192   2.794   0.251   2.799 -0.5625 -2.3369 -2.5330
 1244SOL     OW15193   4.005   0.541   6.718  1.1261  0.7629  0.2776
 1244SOL    HW115194   4.049   0.524   6.801  1.2611 -2.3261 -0.4318
 1244SOL    HW215195   4.006   0.449   6.692  0.2665  1.1314 -1.0790
 1245SOL     OW15196   1.636   1.434  14.369 -0.1241  0.3717 -0.1971
 1245SOL    HW115197   1.581   1.501  14.329 -1.1483  0.4614  1.3878
 1245SOL    HW215198   1.676   1.391  14.293  0.4956  0.4075  0.1105
 1246SOL     OW15199   2.494   4.178   3.929 -0.1517 -0.1118  0.2953
 1246SOL    HW115200   2.506   4.257   3.876  2.1532  0.2095  1.3016
 1246SOL    HW215201   2.581   4.149   3.957 -0.3676 -1.5579 -0.5301
 1247SOL     OW15202   3.460   0.805   8.707  0.5685  0.0388 -0.2684
 1247SOL    HW115203   3.498   0.718   8.695 -2.0940 -1.3161  1.2048
 1247SOL    HW215204   3.541   0.852   8.729  0.4328  0.1983 -0.1067
 1248SOL     OW15205   1.412   1.299   4.822 -0.2579 -0.0982  0.3463
 1248SOL    HW115206   1.436   1.351   4.745  0.1388 -1.0420 -0.1703
 1248SOL    HW215207   1.380   1.365   4.884 -0.1121  0.4107 -0.1217
 1249SOL     OW15208   1.390   3.682   9.030  0.0812 -0.4482  0.0448
 1249SOL    HW115209   1.368   3.616   8.964  1.4624  1.2811 -2.1613
 1249SOL    HW215210   1.449   3.740   8.983 -0.3898 -1.0697 -1.3252
 1250SOL     OW15211   3.667   2.104   1.555 -0.1434  0.1941 -0.0389
 1250SOL    HW115212   3.694   2.018   1.585  1.0304  1.4983  2.5864
 1250SOL    HW215213   3.574   2.091   1.569 -0.0296 -2.0103 -1.3707
 1251SOL     OW15214   0.447   3.928   7.694  0.2592 -0.3208  0.2825
 1251SOL    HW115215   0.494   3.862   7.643 -0.1070  1.3513 -2.2399
 1251SOL    HW215216   0.511   3.999   7.689 -0.8604  0.6250 -0.4311
 1252SOL     OW15217   0.205   2.328   7.520 -0.0081  0.4748 -0.0944
 1252SOL    HW115218   0.214   2.370   7.434  0.5114  0.5024 -0.0303
 1252SOL    HW215219   0.144   2.258   7.497  0.5374 -0.1847  0.4705
 1253SOL     OW15220   4.162   2.580   2.066 -0.4414 -0.1381  0.3072
 1253SOL    HW115221   4.173   2.643   1.995  1.4838 -1.8618 -0.8963
 1253SOL    HW215222   4.068   2.587   2.084 -0.3797 -2.0426  1.4193
 1254SOL     OW15223   1.662   3.174  16.041  0.2461 -0.0237 -0.4461
 1254SOL    HW115224   1.616   3.105  15.994 -1.2786  0.2904  0.5864
 1254SOL    HW215225   1.733   3.116  16.068  1.2279  1.3478 -0.0393
 1255SOL     OW15226   4.503   1.149  15.649  0.0961  0.0590  0.0863
 1255SOL    HW115227   4.503   1.244  15.638  0.1686  0.0406 -0.0771
 1255SOL    HW215228   4.547   1.127  15.567  0.1817  0.5968 -0.0076
 1256SOL     OW15229   3.800   0.236   8.194 -0.3737 -0.2063  0.6195
 1256SOL    HW115230   3.789   0.181   8.116  0.7325  0.6087 -0.1033
 1256SOL    HW215231   3.721   0.291   8.187  1.4727  2.5654  1.5553
 1257SOL     OW15232   2.590   1.171   2.266  1.0139 -0.2690 -0.0161
 1257SOL    HW115233   2.593   1.176   2.170 -0.0484 -0.3251 -0.0462
 1257SOL    HW215234   2.512   1.219   2.295  0.6764 -0.0952 -1.2138
 1258SOL     OW15235   2.243   1.254   7.552  0.2795 -0.0077 -0.1002
 1258SOL    HW115236   2.330   1.272   7.588 -0.7276 -0.4892  2.5619
 1258SOL    HW215237   2.262   1.183   7.490  0.5513  0.3037 -0.3703
 1259SOL     OW15238   3.529   1.616   5.651 -0.4038  0.2626 -0.3681
 1259SOL    HW115239   3.485   1.668   5.719  1.7913 -0.0745  1.3343
 1259SOL    HW215240   3.461   1.549   5.652 -0.1341 -0.0095 -0.6593
 1260SOL     OW15241   3.129   1.025  13.906 -0.5333  0.4853  0.2680
 1260SOL    HW115242   3.194   0.994  13.969 -0.4209  2.1219  0.9422
 1260SOL    HW215243   3.136   1.119  13.917 -1.3005  0.6962 -1.0337
 1261SOL     OW15244   3.193   1.333   4.893 -0.0679 -0.1263 -0.1138
 1261SOL    HW115245   3.129   1.305   4.828  0.1816  0.6452 -0.6909
 1261SOL    HW215246   3.130   1.379   4.949 -0.4328  0.3725 -0.9306
 1262SOL     OW15247   0.741   1.960   6.054  0.3902 -0.7134  0.1872
 1262SOL    HW115248   0.678   1.973   5.982 -1.5567  0.1481  2.0667
 1262SOL    HW215249   0.788   2.043   6.053 -0.7593 -0.0549 -0.1386
 1263SOL     OW15250   3.550   0.123   6.919 -0.2443  0.0850  0.3291
 1263SOL    HW115251   3.641   0.132   6.889 -0.6911 -1.9288 -1.6646
 1263SOL    HW215252   3.501   0.159   6.845 -0.6978 -2.9583 -0.8671
 1264SOL     OW15253   1.755   2.228   9.624  0.0838  0.0911 -0.3009
 1264SOL    HW115254   1.809   2.204   9.700  0.7080  0.8178 -0.5220
 1264SOL    HW215255   1.823   2.256   9.562  0.8532  0.5819  0.7724
 1265SOL     OW15256   1.977   3.346   6.466  0.4062 -0.0378 -0.1199
 1265SOL    HW115257   1.908   3.288   6.498  1.6608 -0.7881  1.2405
 1265SOL    HW215258   1.923   3.375   6.393  0.8143 -2.2106 -1.2544
 1266SOL     OW15259   1.728   1.829  11.603 -0.2905  0.1056  0.3139
 1266SOL    HW115260   1.645   1.803  11.642  0.1414  0.3726  1.4406
 1266SOL    HW215261   1.783   1.752  11.615 -1.3505 -0.5342  1.0122
 1267SOL     OW15262   2.219   2.049   2.422  0.3017 -0.3063  0.2677
 1267SOL    HW115263   2.153   2.064   2.490 -0.9172  2.8341 -1.5909
 1267SOL    HW215264   2.242   2.141   2.410  1.6324 -0.4623  1.6830
 1268SOL     OW15265   0.794   0.033  11.949 -0.3759  0.3531 -0.0226
 1268SOL    HW115266   0.845   4.677  11.937 -1.2350 -0.0617 -0.9592
 1268SOL    HW215267   0.855   0.099  11.982 -1.8287  0.8789  1.6184
 1269SOL     OW15268   2.684   4.602   8.905 -0.2008  0.1080  0.7040
 1269SOL    HW115269   2.658   4.668   8.840 -0.3528  0.0336  0.6895
 1269SOL    HW215270   2.769   4.577   8.867 -0.0750 -0.6975  1.5197
 1270SOL     OW15271   4.298   3.195   2.478  0.4086 -0.7601  0.2771
 1270SOL    HW115272   4.272   3.200   2.570  0.0350  2.6891 -0.0136
 1270SOL    HW215273   4.361   3.125   2.488  1.8571  1.0002  3.4267
 1271SOL     OW15274   3.671   3.956   7.714  0.3022  0.2238 -0.2333
 1271SOL    HW115275   3.589   3.995   7.684  0.3829  0.2765 -0.3851
 1271SOL    HW215276   3.749   4.011   7.701 -0.5982  1.6940  0.5454
 1272SOL     OW15277   1.904   3.398   5.503  0.0526 -0.2680 -0.0715
 1272SOL    HW115278   1.985   3.359   5.469  0.1269 -1.1054  1.0603
 1272SOL    HW215279   1.895   3.470   5.441 -0.5485 -0.8405 -0.6458
 1273SOL     OW15280   0.857   0.922  13.786  0.6545  0.0159  0.0996
 1273SOL    HW115281   0.942   0.885  13.807  0.4159 -0.8535 -0.4848
 1273SOL    HW215282   0.848   0.980  13.861  2.2681  2.3037 -1.4499
 1274SOL     OW15283   0.516   1.567  10.799  0.4601 -0.4882  0.0483
 1274SOL    HW115284   0.442   1.571  10.738 -1.3456 -0.3501  2.2247
 1274SOL    HW215285   0.583   1.567  10.731 -1.3057  0.5808 -1.7128
 1275SOL     OW15286   4.411   4.360   4.246 -0.1615  0.3642  0.9423
 1275SOL    HW115287   4.493   4.356   4.198 -1.1776  1.2325 -0.8690
 1275SOL    HW215288   4.397   4.455   4.247 -0.2782  0.3312  2.1686
 1276SOL     OW15289   1.346   1.970  11.575  0.0779 -0.4470 -0.3717
 1276SOL    HW115290   1.352   1.903  11.506 -1.1043  0.5402 -1.4286
 1276SOL    HW215291   1.395   1.921  11.641 -0.4923  0.5277  0.7765
 1277SOL     OW15292   3.752   1.971   3.430 -0.0282 -0.6424  0.1085
 1277SOL    HW115293   3.755   1.884   3.390  1.3130 -0.5058 -0.0955
 1277SOL    HW215294   3.668   2.005   3.399 -1.0121 -2.1332  1.1453
 1278SOL     OW15295   0.218   0.533   7.233 -0.4618  0.1894 -0.1556
 1278SOL    HW115296   0.137   0.576   7.205  0.5719  0.7094 -2.2832
 1278SOL    HW215297   0.263   0.606   7.276  0.6045  0.6028 -1.9748
 1279SOL     OW15298   2.862   4.158   0.144  0.1273  0.2060 -0.1109
 1279SOL    HW115299   2.942   4.186   0.099 -0.6517 -1.5137 -2.5313
 1279SOL    HW215300   2.819   4.244   0.152  0.9292  0.4699  1.3626
 1280SOL     OW15301   1.472   4.536  12.247 -0.2710 -0.2339 -0.2025
 1280SOL    HW115302   1.524   4.600  12.199  1.7191 -0.8784  1.0842
 1280SOL    HW215303   1.520   4.521  12.329  0.5965  0.9859 -0.4805
 1281SOL     OW15304   2.430   1.071   7.927 -0.6231 -0.0484 -0.7661
 1281SOL    HW115305   2.432   1.065   8.022  0.1847 -0.3202 -0.7948
 1281SOL    HW215306   2.348   1.029   7.902 -0.2842 -0.2123 -1.6223
 1282SOL     OW15307   3.666   4.122  14.201  0.3934 -0.0549  0.4524
 1282SOL    HW115308   3.737   4.186  14.198  0.7618 -0.5122 -0.5315
 1282SOL    HW215309   3.625   4.140  14.117  0.2631  3.2976  1.1962
 1283SOL     OW15310   0.303   1.795   5.386 -0.1868  0.5318  0.3429
 1283SOL    HW115311   0.370   1.756   5.330 -1.7154 -1.6438  0.0080
 1283SOL    HW215312   0.364   1.860   5.420  1.5030 -0.3251 -1.0301
 1284SOL     OW15313   4.036   2.483  12.403 -0.4241 -0.3839  0.4487
 1284SOL    HW115314   3.972   2.541  12.445  0.4814  0.3684  0.7915
 1284SOL    HW215315   3.977   2.462  12.331 -0.5607 -2.1548  1.0782
 1285SOL     OW15316   3.850   2.645  15.453  0.3583  0.3984  0.0630
 1285SOL    HW115317   3.914   2.576  15.435 -0.7756 -0.3818 -0.9771
 1285SOL    HW215318   3.870   2.647  15.547 -0.6542 -0.9260  0.3050
 1286SOL     OW15319   1.496   1.525   0.165 -0.0026 -0.3854 -0.1053
 1286SOL    HW115320   1.404   1.549   0.153 -0.2287  0.1497  2.6706
 1286SOL    HW215321   1.492   1.503   0.259  3.2503 -0.7814 -0.0620
 1287SOL     OW15322   1.015   1.232   4.943  0.1026  0.2457  0.5923
 1287SOL    HW115323   1.052   1.180   4.873 -0.9849  1.6280 -1.0174
 1287SOL    HW215324   0.956   1.295   4.901 -0.2320  0.8213  1.8988
 1288SOL     OW15325   3.865   3.715   6.372 -0.1030 -0.0826  0.4294
 1288SOL    HW115326   3.926   3.673   6.310 -0.4634  0.7066 -0.4473
 1288SOL    HW215327   3.907   3.801   6.376  2.6168 -1.2731 -1.7708
 1289SOL     OW15328   1.121   3.975   9.173  0.5936  0.0113 -0.0268
 1289SOL    HW115329   1.044   3.921   9.151 -0.4220  1.6672 -0.4888
 1289SOL    HW215330   1.089   4.064   9.164  1.6776  0.3446 -0.4857
 1290SOL     OW15331   3.121   1.871   1.265  0.3263 -0.3411  0.6909
 1290SOL    HW115332   3.076   1.819   1.198 -2.1491  2.0840  0.5121
 1290SOL    HW215333   3.186   1.807   1.295 -0.2439 -0.8462  0.8447
 1291SOL     OW15334   0.724   4.531   0.975  0.3046  0.0705 -0.3452
 1291SOL    HW115335   0.711   4.575   0.890 -0.6977 -0.1497 -0.3086
 1291SOL    HW215336   0.711   4.441   0.942  2.3275 -0.6392  0.7778
 1292SOL     OW15337   2.601   3.553   6.054 -0.0209 -0.1712 -0.2819
 1292SOL    HW115338   2.593   3.523   6.144  2.9385  2.4152  0.8373
 1292SOL    HW215339   2.559   3.490   5.995  2.3291 -2.1782  0.2119
 1293SOL     OW15340   0.796   1.239   7.348 -0.2584 -0.2181  0.2122
 1293SOL    HW115341   0.876   1.187   7.334 -0.0567  0.5898 -1.6160
 1293SOL    HW215342   0.834   1.325   7.364 -0.1815 -0.5514  1.8188
 1294SOL     OW15343   3.149   2.165  15.793 -0.1079 -0.2523 -0.0965
 1294SOL    HW115344   3.158   2.073  15.817 -1.0059 -0.2345  0.2937
 1294SOL    HW215345   3.083   2.159  15.724  1.3031 -1.4284 -1.3504
 1295SOL     OW15346   4.118   2.647   8.750 -0.3775  0.6062 -0.0173
 1295SOL    HW115347   4.180   2.577   8.773 -1.5536 -0.5418 -0.3496
 1295SOL    HW215348   4.088   2.672   8.837 -0.6546 -2.8724  0.8799
 1296SOL     OW15349   2.710   3.754   5.700 -0.2862 -0.2226 -0.2981
 1296SOL    HW115350   2.745   3.824   5.755  0.5568 -1.0533  0.2246
 1296SOL    HW215351   2.772   3.750   5.627  0.3589 -3.1107  0.4225
 1297SOL     OW15352   0.104   1.302  13.822  0.0334  0.1405 -0.0564
 1297SOL    HW115353   0.116   1.390  13.857 -0.4233 -0.4796  1.6854
 1297SOL    HW215354   0.134   1.314  13.732 -0.2273 -0.7207 -0.2593
 1298SOL     OW15355   0.299   4.502   6.345  0.1571 -0.1568 -0.1531
 1298SOL    HW115356   0.256   4.449   6.413  0.8190  0.7813  1.0001
 1298SOL    HW215357   0.236   4.486   6.274 -1.0541 -0.3406  0.9491
 1299SOL     OW15358   4.712   3.570  12.001 -0.3364 -0.6119  0.3874
 1299SOL    HW115359   4.655   3.629  11.952 -0.4920  0.3977  1.7784
 1299SOL    HW215360   0.071   3.610  11.979  0.2775 -2.0463  0.0903
 1300SOL     OW15361   2.450   1.121   8.730  0.4253  0.0742 -0.1463
 1300SOL    HW115362   2.517   1.086   8.787  0.7017 -3.0059 -2.3740
 1300SOL    HW215363   2.405   1.037   8.725 -0.9282  0.6813  1.6076
 1301SOL     OW15364   1.892   0.326  11.106  0.4706  0.5180  0.4854
 1301SOL    HW115365   1.863   0.302  11.194 -0.3307 -1.0441 -0.1950
 1301SOL    HW215366   1.972   0.274  11.095  0.8549  1.6091 -1.8653
 1302SOL     OW15367   4.072   0.873   1.460 -0.6817  0.2434  0.7020
 1302SOL    HW115368   4.087   0.960   1.499 -0.8012 -0.1212  1.5513
 1302SOL    HW215369   4.097   0.816   1.532  1.7125  0.4502  0.0401
 1303SOL     OW15370   1.343   4.703  13.803 -0.1882 -1.1900 -0.5873
 1303SOL    HW115371   1.395   0.036  13.747  0.2637 -1.1076 -0.0850
 1303SOL    HW215372   1.350   4.619  13.758  0.3386 -1.6561  0.3651
 1304SOL     OW15373   2.126   3.133   4.808  0.2833 -0.4293 -0.2662
 1304SOL    HW115374   2.173   3.197   4.861 -0.6156 -1.1428  1.3913
 1304SOL    HW215375   2.064   3.089   4.866  0.5023 -0.5473 -0.1235
 1305SOL     OW15376   0.550   3.527   5.643  0.6035 -0.9162  0.2119
 1305SOL    HW115377   0.487   3.562   5.705  1.5469 -0.5623  0.9731
 1305SOL    HW215378   0.558   3.602   5.585 -0.5229 -1.3515 -0.4954
 1306SOL     OW15379   3.683   4.709  15.119 -0.0498  0.2719  0.0401
 1306SOL    HW115380   3.744   0.027  15.059  0.9887 -2.3679 -0.7787
 1306SOL    HW215381   3.610   4.685  15.063  1.6284 -0.7013 -1.7489
 1307SOL     OW15382   2.542   3.835   9.090 -0.1911  0.1535  0.3867
 1307SOL    HW115383   2.570   3.771   9.024 -1.3303  0.7695 -0.6929
 1307SOL    HW215384   2.447   3.827   9.099 -0.1253  0.3526  1.2569
 1308SOL     OW15385   2.004   3.492  11.190  0.1113  0.5953 -0.3997
 1308SOL    HW115386   2.060   3.430  11.143  0.4771  0.0612  0.7419
 1308SOL    HW215387   1.960   3.538  11.118 -1.0444 -1.1096 -0.7774
 1309SOL     OW15388   4.398   2.243   7.206  0.1787  0.1719  0.0275
 1309SOL    HW115389   4.409   2.326   7.159  1.6389 -0.0656 -0.0790
 1309SOL    HW215390   4.489   2.213   7.205  0.4424  0.9623 -0.1851
 1310SOL     OW15391   0.687   0.922   6.738 -0.1517 -1.0012 -0.2377
 1310SOL    HW115392   0.740   0.928   6.817 -3.4494  1.0421  1.8510
 1310SOL    HW215393   0.611   0.875   6.773 -0.8563  0.7567  0.5997
 1311SOL     OW15394   4.330   3.402   4.567 -0.1674  0.4052 -0.0800
 1311SOL    HW115395   4.358   3.330   4.511 -1.6279  0.5047 -0.9531
 1311SOL    HW215396   4.257   3.367   4.620  0.4087  0.2120  0.5878
 1312SOL     OW15397   0.925   0.866   4.613 -0.3451 -0.0933  0.1545
 1312SOL    HW115398   0.965   0.872   4.526 -0.1570  0.9401  0.3188
 1312SOL    HW215399   0.846   0.919   4.607 -0.3425 -0.2356 -1.1346
 1313SOL     OW15400   1.645   2.956  10.543  0.5650 -0.3079  0.2434
 1313SOL    HW115401   1.561   2.993  10.516  0.8621  2.0160  2.5289
 1313SOL    HW215402   1.682   2.936  10.457  0.0761  1.1562 -0.3163
 1314SOL     OW15403   4.066   0.372   5.082  0.3549 -0.5332  0.1743
 1314SOL    HW115404   4.062   0.405   5.172 -0.1747 -0.3536  0.0856
 1314SOL    HW215405   3.974   0.356   5.061  0.1436 -3.1972  3.2482
 1315SOL     OW15406   3.771   1.941  10.821 -0.0033 -0.0675 -0.0272
 1315SOL    HW115407   3.795   1.913  10.732 -0.2742 -0.4146  0.0110
 1315SOL    HW215408   3.727   2.024  10.804 -0.6288 -0.5636 -0.8082
 1316SOL     OW15409   2.483   1.949   2.611 -0.4588 -0.3402 -0.1066
 1316SOL    HW115410   2.415   1.882   2.622 -0.4016 -0.4542 -0.4482
 1316SOL    HW215411   2.433   2.021   2.573  0.1970  1.1959  1.9251
 1317SOL     OW15412   4.141   4.485   1.454 -0.6147 -0.3654 -0.0808
 1317SOL    HW115413   4.100   4.564   1.418 -3.7492 -1.3746  1.2648
 1317SOL    HW215414   4.234   4.496   1.474 -0.3862  0.5885 -1.6725
 1318SOL     OW15415   4.595   3.980   8.063 -0.1964 -0.3317 -0.3812
 1318SOL    HW115416   4.645   3.905   8.095 -0.1979 -0.2955 -0.2923
 1318SOL    HW215417   4.626   4.058   8.111  1.5319 -0.0863 -1.8628
 1319SOL     OW15418   3.833   0.034   7.158  0.0444 -0.1704  0.0362
 1319SOL    HW115419   3.748   4.721   7.181 -0.6356  0.8486 -0.8241
 1319SOL    HW215420   3.879   4.675   7.156 -0.8626 -0.5751 -3.3516
 1320SOL     OW15421   3.284   2.072  14.458 -0.0444 -0.8055 -0.0837
 1320SOL    HW115422   3.285   2.165  14.484  1.4639 -0.2691 -2.1070
 1320SOL    HW215423   3.373   2.078  14.423  0.1335 -2.1998  0.1626
 1321SOL     OW15424   4.724   1.988   4.108 -0.0910  0.1051  0.6884
 1321SOL    HW115425   4.685   2.005   4.022 -1.5354  0.2483  1.3719
 1321SOL    HW215426   4.723   2.073   4.151  1.2581  0.9434 -0.9119
 1322SOL     OW15427   0.464   3.527   5.113 -0.4904 -0.3471 -0.1525
 1322SOL    HW115428   0.372   3.507   5.094 -0.9318  1.7521 -0.2405
 1322SOL    HW215429   0.514   3.473   5.051 -1.0581 -1.4700  0.3717
 1323SOL     OW15430   1.801   1.949   5.242 -0.8106  0.4118  0.6024
 1323SOL    HW115431   1.841   1.956   5.155 -2.8808  0.1346 -0.3841
 1323SOL    HW215432   1.750   2.030   5.248  1.9831  2.3883 -2.6286
 1324SOL     OW15433   2.517   2.301   4.769  0.6071 -0.1626  0.4752
 1324SOL    HW115434   2.509   2.324   4.677  0.9392  1.0666  0.7469
 1324SOL    HW215435   2.461   2.225   4.783  0.0728  0.2421  0.5305
 1325SOL     OW15436   2.794   0.919   4.820  0.2144 -0.2564 -0.1773
 1325SOL    HW115437   2.837   0.986   4.767  0.2511  1.7088  2.3093
 1325SOL    HW215438   2.858   0.903   4.889 -0.6953 -0.4620  0.6269
 1326SOL     OW15439   4.368   3.647   9.148 -0.3604 -0.4532  0.2959
 1326SOL    HW115440   4.365   3.736   9.184 -0.0440 -1.3628  2.5468
 1326SOL    HW215441   4.307   3.655   9.074 -0.9378  2.5288  1.0993
 1327SOL     OW15442   1.135   1.068  13.830  0.0683  0.2971  0.6692
 1327SOL    HW115443   1.118   1.017  13.910 -0.3468  0.6105  0.7791
 1327SOL    HW215444   1.150   1.157  13.860 -0.0874  0.3307  0.6471
 1328SOL     OW15445   1.782   2.749  14.181  0.1124  0.5463 -0.1233
 1328SOL    HW115446   1.690   2.739  14.156 -0.7892  0.7795  3.1489
 1328SOL    HW215447   1.818   2.767  14.094 -0.2060 -0.9186 -0.5614
 1329SOL     OW15448   3.437   0.781   8.179  0.2177 -0.0440  0.6095
 1329SOL    HW115449   3.532   0.776   8.164 -0.1094 -1.7449 -0.7764
 1329SOL    HW215450   3.406   0.735   8.102 -0.3416  1.2430  0.0553
 1330SOL     OW15451   1.945   1.063   7.468 -0.0980  0.0430  0.2593
 1330SOL    HW115452   1.998   0.985   7.452  0.2197  0.2037  0.5411
 1330SOL    HW215453   1.924   1.091   7.378  1.3424  0.6998  0.1221
 1331SOL     OW15454   0.350   4.530  12.338  1.0703 -0.4404  0.0824
 1331SOL    HW115455   0.336   4.573  12.253 -0.2472  1.2465  1.1481
 1331SOL    HW215456   0.325   4.601  12.397  1.5050 -0.2721  0.0697
 1332SOL     OW15457   4.080   1.935   6.338 -0.0885 -0.1099 -0.1575
 1332SOL    HW115458   4.159   1.968   6.382  0.2442  0.1150 -0.9246
 1332SOL    HW215459   4.118   1.889   6.264  3.2165 -1.9663  2.6661
 1333SOL     OW15460   1.112   0.165   2.170 -0.5652  0.3268  0.1954
 1333SOL    HW115461   1.041   0.110   2.203 -0.2149  0.2680  0.8571
 1333SOL    HW215462   1.093   0.156   2.077 -1.2209 -0.3772  0.4001
 1334SOL     OW15463   4.492   2.201  11.046 -0.0305  0.6149 -0.3132
 1334SOL    HW115464   4.568   2.258  11.052 -0.4339  0.9268  1.7808
 1334SOL    HW215465   4.490   2.198  10.950  1.3568 -0.5984 -0.3078
 1335SOL     OW15466   4.422   2.861   5.673 -0.5597 -0.2684 -0.2752
 1335SOL    HW115467   4.356   2.795   5.652  0.5025 -1.8281  1.2784
 1335SOL    HW215468   4.381   2.948   5.680  0.8306  0.3430  0.3305
 1336SOL     OW15469   0.050   1.878   5.303  0.6636  0.2004  0.2982
 1336SOL    HW115470   0.042   1.961   5.349 -0.5467  0.5339 -0.4968
 1336SOL    HW215471   0.140   1.864   5.331  0.8724  0.2610 -0.3470
 1337SOL     OW15472   3.927   1.629   5.747 -0.2810  0.3387  0.0105
 1337SOL    HW115473   4.002   1.656   5.693 -0.9845  0.5711 -0.8512
 1337SOL    HW215474   3.963   1.565   5.808  2.1805  1.6050 -0.1183
 1338SOL     OW15475   4.444   4.064   2.317  0.1053  0.8578  0.5739
 1338SOL    HW115476   4.445   3.968   2.319 -0.5981  0.8372 -0.0662
 1338SOL    HW215477   4.360   4.084   2.277  0.2070  1.4136  0.6428
 1339SOL     OW15478   4.618   0.003  13.236  0.6677  0.6835 -0.6381
 1339SOL    HW115479   4.555   4.666  13.198  1.4892 -0.1553 -0.6500
 1339SOL    HW215480   4.684   4.668  13.271 -1.2925 -0.4216  1.1717
 1340SOL     OW15481   1.321   3.373  10.948  0.4058 -0.8134 -0.3073
 1340SOL    HW115482   1.267   3.429  10.891 -0.8468 -2.8942 -1.1780
 1340SOL    HW215483   1.258   3.335  11.009 -0.7047  0.2874 -0.7539
 1341SOL     OW15484   0.055   2.297   2.915  0.1527 -0.4351 -0.4228
 1341SOL    HW115485   0.068   2.274   2.823 -1.1499 -0.2934 -0.6515
 1341SOL    HW215486   4.720   2.372   2.908  0.3201  0.0253  2.9743
 1342SOL     OW15487   0.413   3.212  16.108  0.8061 -0.1060  0.6598
 1342SOL    HW115488   0.326   3.206  16.148  0.8351  3.2986  1.2099
 1342SOL    HW215489   0.448   3.276  16.169  0.5499 -1.0156  1.7734
 1343SOL     OW15490   2.182   0.445   7.214  0.6156  0.3187  0.2514
 1343SOL    HW115491   2.160   0.462   7.306  3.0256  1.2083  0.6627
 1343SOL    HW215492   2.277   0.435   7.217  0.4146 -1.2226  1.1663
 1344SOL     OW15493   3.355   1.094   7.434  0.3335 -0.2350  0.1029
 1344SOL    HW115494   3.308   1.164   7.480  0.6762 -1.6166  2.5627
 1344SOL    HW215495   3.338   1.020   7.492  1.1201  0.0766  0.7212
 1345SOL     OW15496   4.488   3.358  12.671 -0.1558 -0.2144 -0.5408
 1345SOL    HW115497   4.536   3.370  12.589 -0.8871 -0.1545 -0.9646
 1345SOL    HW215498   4.435   3.437  12.662 -1.5027 -1.1380 -0.7434
 1346SOL     OW15499   3.749   1.808  13.409 -0.1033 -0.7012 -0.0877
 1346SOL    HW115500   3.715   1.850  13.489  0.6106 -0.1438 -0.0790
 1346SOL    HW215501   3.677   1.802  13.346 -0.2213 -0.0109 -0.0196
 1347SOL     OW15502   1.987   0.339   5.097 -0.1113 -0.4088  0.2787
 1347SOL    HW115503   1.938   0.287   5.033  1.5701 -1.4571 -0.1595
 1347SOL    HW215504   2.033   0.397   5.036 -1.3555  0.3825  0.1018
 1348SOL     OW15505   0.492   0.904   6.242 -0.0173 -0.0743  0.1221
 1348SOL    HW115506   0.431   0.978   6.242 -1.1135 -0.9649  0.5565
 1348SOL    HW215507   0.510   0.894   6.335  0.7760  0.0016 -0.0239
 1349SOL     OW15508   1.765   3.414   3.127 -0.2051  0.1045  0.0143
 1349SOL    HW115509   1.691   3.416   3.187 -0.0724 -1.0886  0.2136
 1349SOL    HW215510   1.838   3.378   3.178  0.4896 -1.5837 -2.1484
 1350SOL     OW15511   4.057   1.837   5.330  0.3205 -0.3019  0.0480
 1350SOL    HW115512   4.148   1.822   5.306 -0.0358 -0.9936 -0.9114
 1350SOL    HW215513   4.014   1.858   5.247 -0.9295  0.6967  0.9512
 1351SOL     OW15514   2.979   2.661   4.459 -0.2031  0.1912  0.1693
 1351SOL    HW115515   2.892   2.701   4.454 -1.0554 -1.7534 -0.7393
 1351SOL    HW215516   3.019   2.704   4.384  0.6269 -0.7402  0.0769
 1352SOL     OW15517   3.461   2.141   6.880  0.1032 -0.3210  0.2468
 1352SOL    HW115518   3.488   2.214   6.824 -0.2508  0.9766  1.7787
 1352SOL    HW215519   3.429   2.187   6.958  0.6180 -0.9886  0.8407
 1353SOL     OW15520   3.454   1.120  17.284  0.1281 -0.1913 -0.0918
 1353SOL    HW115521   3.531   1.131  17.228  1.9059 -0.7970  2.2472
 1353SOL    HW215522   3.390   1.079  17.225  1.4769 -2.6256  0.1288
 1354SOL     OW15523   1.403   0.827   5.437 -0.4655 -0.1862  0.2335
 1354SOL    HW115524   1.487   0.869   5.415  0.4166 -2.4112 -0.5835
 1354SOL    HW215525   1.423   0.804   5.528 -2.0587  0.1194  0.6697
 1355SOL     OW15526   1.780   3.390  16.099 -0.2437 -0.2362 -0.4070
 1355SOL    HW115527   1.742   3.318  16.048  0.0437 -0.7429  0.0931
 1355SOL    HW215528   1.847   3.344  16.150  0.5346  0.4030 -0.8611
 1356SOL     OW15529   3.205   1.823   8.186  0.2700 -0.0691  0.2519
 1356SOL    HW115530   3.263   1.824   8.111 -0.7593  3.2410 -0.4997
 1356SOL    HW215531   3.259   1.861   8.255 -0.2485  0.8457  0.1685
 1357SOL     OW15532   1.720   2.921   5.549 -0.2227 -0.2002 -0.0386
 1357SOL    HW115533   1.643   2.971   5.520 -0.5465 -0.4868  0.3220
 1357SOL    HW215534   1.764   2.998   5.587 -0.5848 -0.5044  0.9980
 1358SOL     OW15535   4.029   3.100   3.596 -0.6639  0.3835  0.0483
 1358SOL    HW115536   3.946   3.146   3.582  1.1060  3.3484 -0.8005
 1358SOL    HW215537   4.007   3.020   3.548  0.3994 -1.3128  2.4223
 1359SOL     OW15538   3.657   4.585   6.651  0.3084 -0.1929  0.1328
 1359SOL    HW115539   3.722   4.584   6.580  0.0501 -0.5676 -0.1013
 1359SOL    HW215540   3.683   4.507   6.699 -0.7127 -1.0384 -0.6823
 1360SOL     OW15541   0.060   3.950   9.210 -0.2488  0.3521  0.4020
 1360SOL    HW115542   0.139   3.899   9.192  1.3038  3.0314 -0.5134
 1360SOL    HW215543   0.106   4.030   9.236 -1.7177  0.8320  1.4976
 1361SOL     OW15544   3.894   3.410   3.618  0.4908 -0.5116 -0.1910
 1361SOL    HW115545   3.972   3.458   3.589 -0.3211  1.3824  0.7861
 1361SOL    HW215546   3.866   3.367   3.537 -2.1900 -0.4104  0.6839
 1362SOL     OW15547   3.546   1.953   7.781 -0.1207  1.0521  0.1860
 1362SOL    HW115548   3.596   1.952   7.862 -0.5012 -1.2123  0.3839
 1362SOL    HW215549   3.538   2.048   7.769 -1.1316  0.9897  0.2870
 1363SOL     OW15550   2.427   2.751   4.669 -0.3301  0.4678  0.4440
 1363SOL    HW115551   2.447   2.745   4.575 -1.0524  1.0332  0.2637
 1363SOL    HW215552   2.358   2.817   4.668  0.0626  0.8441 -0.9980
 1364SOL     OW15553   3.098   3.976   2.636  0.0720 -0.3008  0.4764
 1364SOL    HW115554   3.066   3.909   2.695  0.4846 -0.8005  0.1277
 1364SOL    HW215555   3.152   4.031   2.693 -2.0074  0.7998  1.3814
 1365SOL     OW15556   3.883   3.605   5.763 -0.1390  0.1741 -0.4407
 1365SOL    HW115557   3.912   3.516   5.779 -0.2735  0.2409  0.1974
 1365SOL    HW215558   3.936   3.647   5.831 -0.0541  0.5330 -0.7271
 1366SOL     OW15559   0.027   1.467   4.601  0.4432 -0.1734 -0.5571
 1366SOL    HW115560   0.001   1.493   4.512 -1.1819  2.3704  0.6871
 1366SOL    HW215561   0.109   1.511   4.623  1.2121 -2.0871  0.4707
 1367SOL     OW15562   3.442   1.346   3.355  0.1978  0.2651  0.2800
 1367SOL    HW115563   3.394   1.364   3.274 -0.8039  0.2767  0.8770
 1367SOL    HW215564   3.394   1.268   3.383 -0.3203  0.7777  0.8464
 1368SOL     OW15565   0.415   3.080  17.534  0.5954 -0.1459 -0.2212
 1368SOL    HW115566   0.508   3.074  17.513  0.3732 -1.1028 -0.9528
 1368SOL    HW215567   0.362   3.123  17.467 -2.5154 -3.7961 -0.1052
 1369SOL     OW15568   2.160   3.613   0.226 -0.5853  0.0897 -0.8878
 1369SOL    HW115569   2.189   3.522   0.231  0.8053  0.4829 -1.7460
 1369SOL    HW215570   2.198   3.643   0.144 -0.4007 -2.9785 -1.9377
 1370SOL     OW15571   1.377   0.468   4.068  0.0542 -0.2816 -0.7662
 1370SOL    HW115572   1.354   0.386   4.024  3.3015 -0.9876 -1.1517
 1370SOL    HW215573   1.298   0.519   4.083 -0.9739 -1.4027 -2.3104
 1371SOL     OW15574   3.300   1.823   5.331 -0.3052 -0.0603 -0.3590
 1371SOL    HW115575   3.313   1.811   5.237  1.4282 -1.2248  0.0267
 1371SOL    HW215576   3.246   1.901   5.334 -2.2292 -1.4326  1.3662
 1372SOL     OW15577   2.441   2.066   8.329 -0.3019  0.0424  0.0554
 1372SOL    HW115578   2.426   2.050   8.236 -0.3902 -2.6828  0.5186
 1372SOL    HW215579   2.529   2.104   8.329 -0.6655  0.8421 -1.8967
 1373SOL     OW15580   0.418   3.302   0.585 -0.2758  0.0288  0.1773
 1373SOL    HW115581   0.375   3.387   0.599 -1.3703  0.0288 -3.1114
 1373SOL    HW215582   0.394   3.265   0.500 -1.3765 -0.2468  0.6104
 1374SOL     OW15583   2.307   4.083  14.799 -0.5667 -0.1694  0.1773
 1374SOL    HW115584   2.349   4.165  14.773  0.0401 -0.8849 -1.0846
 1374SOL    HW215585   2.346   4.084  14.886 -0.3776 -0.6129  0.0936
 1375SOL     OW15586   4.203   0.492  17.176 -0.9476  0.0544 -0.9443
 1375SOL    HW115587   4.150   0.559  17.220  2.1138  1.2186  0.8974
 1375SOL    HW215588   4.183   0.507  17.083 -1.6471 -1.6666 -1.0697
 1376SOL     OW15589   0.734   4.563   5.698  0.2575 -0.5085 -0.3449
 1376SOL    HW115590   0.714   4.645   5.654  1.5833 -0.5878 -1.1021
 1376SOL    HW215591   0.777   4.514   5.627  2.0426 -1.5527  1.4296
 1377SOL     OW15592   2.040   2.896  16.718 -0.4054 -0.3035  0.1897
 1377SOL    HW115593   2.097   2.972  16.728 -0.1776 -0.3415 -0.8549
 1377SOL    HW215594   2.106   2.827  16.713  1.8360  1.8179  0.4151
 1378SOL     OW15595   3.558   4.413   7.046  0.1281  0.3011  0.3551
 1378SOL    HW115596   3.502   4.488   7.026  0.5190  0.7456  0.9362
 1378SOL    HW215597   3.599   4.402   6.960 -2.3331 -0.2653 -0.7594
 1379SOL     OW15598   3.400   2.997   6.812  0.1938  0.2800 -0.4089
 1379SOL    HW115599   3.336   2.972   6.879  0.1755  1.6424  0.0850
 1379SOL    HW215600   3.465   3.050   6.858 -0.9343  2.7950 -1.6983
 1380SOL     OW15601   1.659   0.459   3.963  0.0493  0.4281 -0.1623
 1380SOL    HW115602   1.639   0.389   3.901  1.7568 -0.6002  0.4409
 1380SOL    HW215603   1.571   0.496   3.965 -0.6066 -1.1007 -0.3058
 1381SOL     OW15604   1.793   4.544  12.892 -0.1537  0.3655 -0.9239
 1381SOL    HW115605   1.807   4.451  12.910  2.3230  1.2658  1.7125
 1381SOL    HW215606   1.884   4.574  12.896 -0.4853  1.0174  1.4912
 1382SOL     OW15607   1.088   3.883   1.967  0.2274 -0.1303 -0.0651
 1382SOL    HW115608   1.182   3.868   1.967  0.1134 -0.8516  1.9233
 1382SOL    HW215609   1.058   3.795   1.943 -0.5916  0.7946 -2.4806
 1383SOL     OW15610   1.923   4.191   3.013  0.4809 -0.8932 -0.5313
 1383SOL    HW115611   1.915   4.101   3.045 -4.7375  0.0314  0.7415
 1383SOL    HW215612   1.978   4.171   2.937  1.4354  2.1602 -0.6285
 1384SOL     OW15613   3.518   0.061  12.896  0.5199 -0.2077  0.6643
 1384SOL    HW115614   3.449   0.043  12.960 -0.0059 -0.3819  0.0496
 1384SOL    HW215615   3.525   0.156  12.905  1.2923 -0.4326  2.3620
 1385SOL     OW15616   3.170   3.966   6.937  0.2360 -0.8295 -0.1035
 1385SOL    HW115617   3.105   3.976   6.868  0.2846  0.7757  0.0924
 1385SOL    HW215618   3.244   3.971   6.877  0.8148 -1.4492  0.5540
 1386SOL     OW15619   3.013   1.152   5.163 -0.0690 -0.4759 -0.0447
 1386SOL    HW115620   2.941   1.155   5.100 -1.2066  0.2036  1.2998
 1386SOL    HW215621   3.067   1.227   5.138 -0.9599 -0.3791 -1.6968
 1387SOL     OW15622   4.659   3.838   4.428  0.1518 -0.4995 -0.5207
 1387SOL    HW115623   4.628   3.907   4.370  0.0828 -1.2974 -1.4244
 1387SOL    HW215624   0.026   3.860   4.444 -0.1821  1.3649 -1.2374
 1388SOL     OW15625   3.813   4.567   1.212 -0.4323  0.1799  0.5141
 1388SOL    HW115626   3.761   4.567   1.132  0.4692 -3.2903 -0.0928
 1388SOL    HW215627   3.885   4.514   1.176  0.1857  1.9633 -0.8452
 1389SOL     OW15628   1.360   3.517   3.536  0.3385  0.1803 -0.2930
 1389SOL    HW115629   1.283   3.505   3.481  1.9932 -0.8913 -2.3854
 1389SOL    HW215630   1.362   3.613   3.537  0.4200  0.1571  2.2909
 1390SOL     OW15631   2.390   3.954   5.581  0.0054 -0.1412  0.3409
 1390SOL    HW115632   2.442   3.932   5.658 -2.6872 -1.8533  1.6959
 1390SOL    HW215633   2.318   4.004   5.620 -1.9740 -1.6765 -1.3137
 1391SOL     OW15634   0.601   4.400   5.310 -0.3282 -0.1057 -0.5469
 1391SOL    HW115635   0.585   4.494   5.306  0.3794  0.0056 -0.7947
 1391SOL    HW215636   0.518   4.374   5.271 -0.9079  0.4317  0.3089
 1392SOL     OW15637   1.606   2.788   8.757 -0.2408 -0.5310  0.0406
 1392SOL    HW115638   1.698   2.765   8.771 -0.0034  1.5951  1.9703
 1392SOL    HW215639   1.584   2.801   8.849 -0.7075  0.1380 -0.1668
 1393SOL     OW15640   2.865   3.156  10.619 -0.1174  0.4174 -0.1044
 1393SOL    HW115641   2.913   3.161  10.702  0.9294  0.6249 -0.7215
 1393SOL    HW215642   2.869   3.061  10.608  2.8026  0.4372  0.7044
 1394SOL     OW15643   3.214   2.683   8.162  0.3790  0.0649 -0.0408
 1394SOL    HW115644   3.275   2.746   8.200 -2.7731  2.8791  0.3958
 1394SOL    HW215645   3.155   2.749   8.124  1.2205  0.5047 -0.5707
 1395SOL     OW15646   2.884   0.022   6.705  0.6282 -0.2673 -0.0661
 1395SOL    HW115647   2.827   4.696   6.646 -0.6089  0.9847  0.0497
 1395SOL    HW215648   2.829   0.095   6.734 -0.9704 -0.9710 -1.2821
 1396SOL     OW15649   3.167   1.302   2.476 -0.3372  0.5393  0.0232
 1396SOL    HW115650   3.125   1.261   2.401  0.5222  0.1117 -0.2211
 1396SOL    HW215651   3.192   1.383   2.431 -0.3067  1.0356  0.9230
 1397SOL     OW15652   0.294   2.033   4.180  0.0175 -0.0830  0.5374
 1397SOL    HW115653   0.225   2.090   4.215  0.5531 -0.0455  1.5221
 1397SOL    HW215654   0.245   1.986   4.112  1.7185 -0.0769 -0.6744
 1398SOL     OW15655   3.532   2.701  10.379  0.4757 -0.3397  0.0522
 1398SOL    HW115656   3.588   2.765  10.423 -0.2055  1.6189 -1.9533
 1398SOL    HW215657   3.589   2.624  10.369 -0.9624 -1.4040  0.0785
 1399SOL     OW15658   2.177   1.859  12.212 -0.1208 -0.1261  0.4071
 1399SOL    HW115659   2.238   1.824  12.147 -0.2834  2.9383 -1.3880
 1399SOL    HW215660   2.110   1.902  12.159  0.9324 -0.1472 -0.9486
 1400SOL     OW15661   0.546   0.834   7.832  0.2393 -0.2538  0.4727
 1400SOL    HW115662   0.544   0.831   7.927  2.1173  0.9504  0.5551
 1400SOL    HW215663   0.616   0.899   7.821  0.7796 -1.0450 -0.7634
 1401SOL     OW15664   0.700   2.615   9.535  0.7042 -0.1132 -0.7343
 1401SOL    HW115665   0.707   2.541   9.594  1.2409  0.2990 -0.2809
 1401SOL    HW215666   0.643   2.670   9.588 -0.6790 -1.0918 -1.2165
 1402SOL     OW15667   2.267   4.285   6.786  0.2867 -0.2503 -0.4366
 1402SOL    HW115668   2.283   4.235   6.707 -0.0921  0.7284 -1.1350
 1402SOL    HW215669   2.354   4.310   6.816 -0.7784  3.0249 -0.1172
 1403SOL     OW15670   1.655   3.781   5.224 -0.5854 -0.1330 -0.3198
 1403SOL    HW115671   1.595   3.855   5.233 -2.2231 -1.3930 -0.7072
 1403SOL    HW215672   1.730   3.830   5.191 -1.3654  2.1498  1.2781
 1404SOL     OW15673   0.200   0.958   2.137 -0.3540  0.3295 -0.2848
 1404SOL    HW115674   0.138   0.963   2.064 -0.0450 -0.1404 -0.5827
 1404SOL    HW215675   0.155   0.905   2.202 -1.9709  1.1918 -0.7023
 1405SOL     OW15676   4.026   0.354   6.428 -0.2489  0.3184  0.3666
 1405SOL    HW115677   4.116   0.340   6.399 -0.9911 -3.0150 -0.3157
 1405SOL    HW215678   4.026   0.305   6.510  0.8340 -0.4766 -0.1177
 1406SOL     OW15679   3.591   4.139   9.672  0.4644 -0.2435  0.2204
 1406SOL    HW115680   3.647   4.201   9.718 -0.1612  0.9303 -0.5875
 1406SOL    HW215681   3.520   4.112   9.730 -1.1394  0.8128 -1.2192
 1407SOL     OW15682   3.415   1.770  10.463  1.1833  0.2232  0.1812
 1407SOL    HW115683   3.418   1.832  10.536 -0.1249  0.6531 -0.1402
 1407SOL    HW215684   3.489   1.801  10.410  0.4251  0.7477 -0.5603
 1408SOL     OW15685   4.175   0.878  12.906 -0.3556 -0.0021  0.1145
 1408SOL    HW115686   4.138   0.943  12.846  0.8883 -0.1628 -0.8222
 1408SOL    HW215687   4.103   0.872  12.969  0.4643 -0.8454  0.9733
 1409SOL     OW15688   2.219   2.902   2.598 -0.1917  0.1602  0.6845
 1409SOL    HW115689   2.285   2.930   2.661  1.3177  2.5857 -1.9521
 1409SOL    HW215690   2.206   2.814   2.634 -2.0609  0.1632  0.0689
 1410SOL     OW15691   1.543   4.112   9.433 -0.0485  0.1172 -0.1614
 1410SOL    HW115692   1.525   4.181   9.497 -1.5419  0.5365 -1.0489
 1410SOL    HW215693   1.582   4.042   9.486 -1.3801 -0.2851  0.2670
 1411SOL     OW15694   4.230   0.944   3.573 -0.3452 -0.0946 -0.2690
 1411SOL    HW115695   4.186   0.983   3.498 -0.3849  1.2005  0.4375
 1411SOL    HW215696   4.227   0.851   3.547 -1.0856 -0.6744  1.8971
 1412SOL     OW15697   0.500   4.434  10.769  0.5521 -0.5405 -0.2122
 1412SOL    HW115698   0.538   4.499  10.710  1.8740 -0.9253  0.2171
 1412SOL    HW215699   0.494   4.483  10.852 -1.5433 -0.6909 -0.2592
 1413SOL     OW15700   3.149   1.010   8.306 -0.2154  0.0100 -0.2137
 1413SOL    HW115701   3.140   0.915   8.298  0.7030 -0.2679  2.1839
 1413SOL    HW215702   3.238   1.023   8.271  0.3857  0.7971  1.6245
 1414SOL     OW15703   3.531   0.218   4.029 -0.1736  0.4421  0.4373
 1414SOL    HW115704   3.444   0.197   3.996 -0.0212  0.7250 -0.1449
 1414SOL    HW215705   3.590   0.191   3.959  1.0936 -0.1512  1.7317
 1415SOL     OW15706   1.307   3.744   3.073  0.7129 -0.1698 -0.9214
 1415SOL    HW115707   1.301   3.700   2.988 -0.9726  0.3362 -1.0662
 1415SOL    HW215708   1.258   3.825   3.063 -0.0813 -0.7904 -2.0597
 1416SOL     OW15709   4.460   2.001   4.715 -0.0192  0.1549  0.3524
 1416SOL    HW115710   4.370   1.987   4.684 -0.6002 -1.9945  3.0220
 1416SOL    HW215711   4.504   1.920   4.689 -0.0709  0.2467 -0.0285
 1417SOL     OW15712   1.222   3.526   9.350  0.4319 -0.1722 -0.1057
 1417SOL    HW115713   1.213   3.564   9.438 -0.0862  1.3855 -0.8454
 1417SOL    HW215714   1.313   3.497   9.354  0.0185 -1.2646  1.9262
 1418SOL     OW15715   1.874   0.052   9.068 -0.4422  0.1804 -0.0435
 1418SOL    HW115716   1.955   0.085   9.029  0.6962  0.2524  2.3892
 1418SOL    HW215717   1.891   0.081   9.158 -1.0098  1.1704 -0.2565
 1419SOL     OW15718   0.824   2.125   1.414 -0.2848  0.4392 -0.6368
 1419SOL    HW115719   0.792   2.064   1.348 -2.8544  0.2977  0.7343
 1419SOL    HW215720   0.918   2.107   1.410 -0.4618 -0.2960 -1.3861
 1420SOL     OW15721   1.608   1.193  12.394 -0.3282 -0.5936  0.1715
 1420SOL    HW115722   1.607   1.101  12.418  0.5494 -0.8198 -0.6558
 1420SOL    HW215723   1.651   1.191  12.308 -0.2335  2.7619  0.1511
 1421SOL     OW15724   4.516   3.871   7.033  0.5490  0.1135  0.0843
 1421SOL    HW115725   4.478   3.957   7.052 -1.9474 -1.0950  0.5226
 1421SOL    HW215726   4.444   3.813   7.058  0.6839  0.6046  1.6616
 1422SOL     OW15727   3.786   3.387  16.659  0.1069  0.1641  0.1533
 1422SOL    HW115728   3.704   3.436  16.656  0.2333  0.1149 -3.9604
 1422SOL    HW215729   3.843   3.427  16.593  0.0094 -1.3522 -0.8478
 1423SOL     OW15730   1.386   2.439   3.658 -0.6601 -0.2318 -0.1906
 1423SOL    HW115731   1.356   2.393   3.580  2.6868 -0.3051 -1.4529
 1423SOL    HW215732   1.481   2.424   3.652 -0.5584 -0.5865  2.1743
 1424SOL     OW15733   1.287   2.749   9.382  0.0339  0.4113  0.2552
 1424SOL    HW115734   1.244   2.835   9.383 -2.7958 -1.0197  0.8423
 1424SOL    HW215735   1.369   2.768   9.428  0.7428 -1.3289 -0.2985
 1425SOL     OW15736   2.580   2.442   3.723 -0.3262  0.3600 -0.1304
 1425SOL    HW115737   2.585   2.469   3.815 -3.2177 -0.3018  0.2279
 1425SOL    HW215738   2.518   2.505   3.688 -0.0194  1.7327  1.8076
 1426SOL     OW15739   2.266   2.140   4.319  0.4120 -0.0221  0.1935
 1426SOL    HW115740   2.286   2.121   4.227  0.8037 -0.7107  0.4219
 1426SOL    HW215741   2.183   2.188   4.316  1.1412  1.2056 -0.1315
 1427SOL     OW15742   4.716   2.932   3.821 -0.7663  0.0049 -0.4826
 1427SOL    HW115743   4.670   2.926   3.904 -0.0669  1.3421 -0.0022
 1427SOL    HW215744   4.642   2.966   3.771 -0.8513 -2.2616 -1.9169
 1428SOL     OW15745   2.732   1.781   6.807 -0.3847 -0.1236  0.0916
 1428SOL    HW115746   2.733   1.871   6.838 -0.2833 -0.3650  0.7692
 1428SOL    HW215747   2.744   1.796   6.713 -0.9026 -1.3405 -0.1734
 1429SOL     OW15748   2.035   4.091  14.850  0.1809 -0.2067 -0.7630
 1429SOL    HW115749   2.018   4.014  14.904 -0.3108  1.5810  1.6714
 1429SOL    HW215750   2.130   4.080  14.846 -0.0600 -1.9709 -1.5714
 1430SOL     OW15751   1.346   3.023   9.230 -0.5402 -0.0701  0.3029
 1430SOL    HW115752   1.411   2.960   9.261  0.2677  1.6853  2.2055
 1430SOL    HW215753   1.301   3.036   9.314  1.7846 -2.3235  1.8669
 1431SOL     OW15754   0.383   3.627   8.798  0.4218 -0.0066  0.0957
 1431SOL    HW115755   0.411   3.681   8.724 -1.0191 -0.7460 -0.9818
 1431SOL    HW215756   0.380   3.538   8.761  0.4641  0.5508 -1.2275
 1432SOL     OW15757   0.215   3.380  10.468  0.8282 -0.7627  0.1681
 1432SOL    HW115758   0.265   3.299  10.457  0.0527 -1.2655  0.2889
 1432SOL    HW215759   0.201   3.407  10.378 -0.1450  1.5728  1.0097
 1433SOL     OW15760   2.412   0.655   0.475 -0.4988 -0.3032 -0.0178
 1433SOL    HW115761   2.399   0.719   0.545 -2.0058  0.6351 -1.1568
 1433SOL    HW215762   2.508   0.661   0.470 -0.5917  1.1279  0.0871
 1434SOL     OW15763   4.308   2.049   8.215 -0.4344 -0.3753 -0.5551
 1434SOL    HW115764   4.356   1.996   8.279  1.9925  2.0890 -0.2994
 1434SOL    HW215765   4.244   1.981   8.197 -0.0125 -1.5021  2.1269
 1435SOL     OW15766   3.839   1.262  12.308 -0.3214 -0.2859 -0.0102
 1435SOL    HW115767   3.763   1.240  12.255 -0.4815  2.3985 -0.9138
 1435SOL    HW215768   3.899   1.309  12.249  2.2775 -1.1846  1.9042
 1436SOL     OW15769   1.815   0.638  15.271 -0.1249 -0.1322  0.1944
 1436SOL    HW115770   1.839   0.596  15.188  2.3479  2.1004 -0.2431
 1436SOL    HW215771   1.844   0.726  15.246  1.6288 -1.1056 -1.1829
 1437SOL     OW15772   0.300   3.202  17.287 -0.3026 -0.0960  0.0463
 1437SOL    HW115773   0.369   3.236  17.229  0.2124  1.6600  1.6995
 1437SOL    HW215774   0.221   3.242  17.250  0.4557  0.5565 -0.8689
 1438SOL     OW15775   0.534   0.610   0.710 -0.4903  0.0292 -0.2701
 1438SOL    HW115776   0.519   0.517   0.696  0.3171  0.1517 -1.9883
 1438SOL    HW215777   0.623   0.608   0.743 -0.9892  1.6496  1.1730
 1439SOL     OW15778   2.748   1.731   5.729 -0.2415 -0.1461  0.2306
 1439SOL    HW115779   2.796   1.797   5.779 -1.2256 -0.7164  1.9445
 1439SOL    HW215780   2.687   1.789   5.685 -1.6776  0.4503  2.9848
 1440SOL     OW15781   4.447   3.878   3.588  0.4898  0.7594 -0.8179
 1440SOL    HW115782   4.471   3.875   3.680  1.6454 -3.1728 -1.2328
 1440SOL    HW215783   4.536   3.888   3.555  1.7874 -1.7280  1.9263
 1441SOL     OW15784   2.729   3.947  17.030 -0.2878 -0.1191 -0.3554
 1441SOL    HW115785   2.760   4.017  17.088 -1.9520 -0.6600  1.1999
 1441SOL    HW215786   2.664   3.908  17.088  0.7940 -0.5144  0.5964
 1442SOL     OW15787   4.655   4.530  11.421 -0.2970  0.0013  0.1707
 1442SOL    HW115788   4.680   4.439  11.441 -1.2086 -0.5658 -1.2457
 1442SOL    HW215789   0.015   4.562  11.389 -0.8372  2.3612  1.1616
 1443SOL     OW15790   1.300   0.253  14.692 -0.2648 -0.1303 -0.3750
 1443SOL    HW115791   1.252   0.222  14.615 -1.3383 -0.4466  0.4194
 1443SOL    HW215792   1.394   0.249  14.673 -0.2157  0.9109 -0.3459
 1444SOL     OW15793   2.498   3.214   5.180 -0.3912 -0.0675 -0.2561
 1444SOL    HW115794   2.517   3.241   5.270  0.3332 -0.6692 -0.2294
 1444SOL    HW215795   2.585   3.181   5.158 -1.1156  0.0507 -3.1938
 1445SOL     OW15796   0.711   2.001   4.021  0.3146  0.5822  0.1107
 1445SOL    HW115797   0.732   2.093   4.010  0.0315  0.9019  2.1307
 1445SOL    HW215798   0.615   2.001   4.019  0.3549  0.1473 -1.5045
 1446SOL     OW15799   2.085   1.991   3.276 -0.0326 -0.2349 -0.4886
 1446SOL    HW115800   2.007   1.958   3.233 -0.0973 -0.9717  0.2146
 1446SOL    HW215801   2.142   1.947   3.213  3.3353  2.4726  0.6345
 1447SOL     OW15802   3.051   3.544   5.141  0.0569  0.0484  0.0065
 1447SOL    HW115803   3.026   3.628   5.180 -2.7082  0.6158 -2.9406
 1447SOL    HW215804   3.002   3.541   5.058  2.8455 -0.4454 -1.6133
 1448SOL     OW15805   3.217   3.013   7.351 -0.0224 -0.2007 -0.1782
 1448SOL    HW115806   3.148   2.966   7.305  0.0099  1.2152 -1.6759
 1448SOL    HW215807   3.276   2.939   7.369 -1.6342 -1.4163  0.1242
 1449SOL     OW15808   2.701   2.697   6.811  0.4473  0.3714 -0.2064
 1449SOL    HW115809   2.782   2.652   6.834  0.3792  0.4879  0.2503
 1449SOL    HW215810   2.668   2.651   6.733  0.5943 -2.8577  1.6354
 1450SOL     OW15811   0.104   2.632  11.923  0.4087  0.0818  0.5937
 1450SOL    HW115812   0.017   2.635  11.885  1.2684 -1.6128 -1.4672
 1450SOL    HW215813   0.112   2.721  11.959 -1.5038  0.2199  0.6550
 1451SOL     OW15814   4.702   1.714  11.094 -0.1306 -0.2456  0.6110
 1451SOL    HW115815   0.068   1.681  11.090 -1.6672 -4.3571 -0.1055
 1451SOL    HW215816   4.673   1.699  11.003  0.2179  1.0128  0.3002
 1452SOL     OW15817   1.546   0.801   2.180 -0.1255 -0.3661  0.2025
 1452SOL    HW115818   1.462   0.793   2.136  0.1352  1.1376 -0.5732
 1452SOL    HW215819   1.531   0.730   2.243  0.3928 -0.3692  0.3267
 1453SOL     OW15820   1.742   1.542   0.412  0.3275 -0.0952  0.3141
 1453SOL    HW115821   1.780   1.506   0.332  0.9966 -4.3543  2.5416
 1453SOL    HW215822   1.656   1.500   0.415  0.9229 -1.1732  2.5370
 1454SOL     OW15823   1.225   1.893   0.217  0.5415  0.0541 -0.8413
 1454SOL    HW115824   1.248   1.801   0.227 -1.3510 -0.6421 -2.7670
 1454SOL    HW215825   1.197   1.924   0.303 -0.2807 -0.9762 -0.7335
 1455SOL     OW15826   2.836   2.380  12.583 -0.0134  0.0342  0.2269
 1455SOL    HW115827   2.748   2.369  12.618 -0.4252  1.5026 -0.3547
 1455SOL    HW215828   2.877   2.427  12.656  0.4179 -0.5660  0.3703
 1456SOL     OW15829   4.246   3.101   4.443 -0.6181  0.4714 -0.3572
 1456SOL    HW115830   4.180   3.165   4.417 -1.3957 -0.8337 -1.5979
 1456SOL    HW215831   4.197   3.021   4.423  1.9165 -1.6254  1.9780
 1457SOL     OW15832   3.263   3.331   4.310 -0.5276 -0.2566  0.5213
 1457SOL    HW115833   3.312   3.405   4.273  0.8122 -1.8920 -0.9582
 1457SOL    HW215834   3.202   3.321   4.237 -0.5495 -2.1977  0.8105
 1458SOL     OW15835   4.518   2.782   6.462  0.3727 -0.7868 -0.8599
 1458SOL    HW115836   4.561   2.866   6.479 -0.8506 -0.1427 -0.9947
 1458SOL    HW215837   4.554   2.734   6.537 -2.1144 -0.2499  0.6822
 1459SOL     OW15838   1.359   3.636  12.266 -0.2476  0.0472  0.0409
 1459SOL    HW115839   1.375   3.561  12.323  1.8937 -0.3860 -1.1034
 1459SOL    HW215840   1.434   3.690  12.291 -0.1343 -0.1544  0.1361
 1460SOL     OW15841   4.059   3.084   2.311 -0.2140 -0.2574 -0.3811
 1460SOL    HW115842   4.068   3.006   2.256 -2.2813 -0.4850 -0.3784
 1460SOL    HW215843   4.122   3.059   2.379 -1.4979  4.3532  2.4505
 1461SOL     OW15844   1.973   0.124  11.591  0.1106 -0.4651  0.7914
 1461SOL    HW115845   2.055   0.164  11.619  0.1837 -0.8717  1.1548
 1461SOL    HW215846   2.007   0.043  11.552  1.0623  0.1843  0.2758
 1462SOL     OW15847   1.370   0.339   6.590  0.3321  0.3843 -0.2117
 1462SOL    HW115848   1.336   0.263   6.542  2.3294 -0.0734 -0.8859
 1462SOL    HW215849   1.293   0.395   6.596 -1.4814 -1.9362 -1.5317
 1463SOL     OW15850   1.503   4.178  14.049  0.3364  0.5451 -0.5398
 1463SOL    HW115851   1.555   4.111  14.094  0.9996  1.3945 -0.0576
 1463SOL    HW215852   1.569   4.224  13.997 -0.0707  1.5882 -0.1314
 1464SOL     OW15853   1.077   1.406   7.832 -0.9091 -0.5267  0.1889
 1464SOL    HW115854   1.114   1.385   7.918  2.2487  0.2304 -1.0120
 1464SOL    HW215855   1.053   1.316   7.810 -1.1122 -0.3303 -0.3862
 1465SOL     OW15856   1.657   2.349   3.677  0.1166 -0.3696 -0.4569
 1465SOL    HW115857   1.634   2.268   3.724  0.0275  0.4723  0.9739
 1465SOL    HW215858   1.752   2.351   3.689 -0.0398  0.7991  0.5511
 1466SOL     OW15859   3.180   1.203   4.562  0.5538 -0.6737  0.1660
 1466SOL    HW115860   3.218   1.238   4.482  0.2453  0.2113  0.4048
 1466SOL    HW215861   3.257   1.154   4.589  1.9191  1.4408  0.1124
 1467SOL     OW15862   0.161   1.704   5.634  1.0294  0.6858 -0.3817
 1467SOL    HW115863   0.253   1.690   5.656  0.8841  1.8926  1.0030
 1467SOL    HW215864   0.173   1.709   5.540 -0.5908  0.9543 -0.5778
 1468SOL     OW15865   2.089   1.089   6.234  0.2069 -0.4876 -0.2814
 1468SOL    HW115866   2.114   1.181   6.246  2.8229 -1.4438  1.5143
 1468SOL    HW215867   2.032   1.071   6.309  0.3723  1.2231  0.2594
 1469SOL     OW15868   2.637   3.625  13.339  0.1434 -0.2162 -0.4237
 1469SOL    HW115869   2.635   3.644  13.433  0.1280  0.4117 -0.5492
 1469SOL    HW215870   2.722   3.662  13.314  0.0207  1.0336  1.0519
 1470SOL     OW15871   1.508   0.693   3.134 -0.2335 -0.0174 -0.0286
 1470SOL    HW115872   1.579   0.631   3.150  0.7917  0.4729 -2.6088
 1470SOL    HW215873   1.437   0.628   3.128  0.0326 -0.2228 -0.9149
 1471SOL     OW15874   3.996   1.473   8.291  0.0720  0.4471 -0.0506
 1471SOL    HW115875   4.005   1.487   8.386  1.7380 -0.1932 -0.1173
 1471SOL    HW215876   3.914   1.524   8.290  0.3541  0.9251  0.5334
 1472SOL     OW15877   0.573   3.045   2.306 -0.5903  0.1203  0.1800
 1472SOL    HW115878   0.597   3.048   2.213  0.5992 -2.1751  0.4297
 1472SOL    HW215879   0.478   3.039   2.303 -0.7333  2.2265  0.4346
 1473SOL     OW15880   0.070   2.522   7.358 -0.3990  0.0011  0.0282
 1473SOL    HW115881   0.070   2.481   7.272  1.0765 -0.8761  0.4457
 1473SOL    HW215882   0.005   2.475   7.411  0.2634  0.1138  0.9537
 1474SOL     OW15883   3.210   0.295   7.385  0.1266 -0.3749  0.3906
 1474SOL    HW115884   3.162   0.241   7.322 -1.6046  0.2076  1.2277
 1474SOL    HW215885   3.301   0.266   7.388  0.3879  0.4552  0.6728
 1475SOL     OW15886   3.759   1.402   2.045  0.7151  0.2835 -0.0588
 1475SOL    HW115887   3.716   1.368   2.123  2.0770 -2.5846 -0.5816
 1475SOL    HW215888   3.739   1.334   1.981 -1.3022  1.7675 -1.0477
 1476SOL     OW15889   3.487   0.279  11.603  0.0905  0.0981  0.4702
 1476SOL    HW115890   3.492   0.184  11.598  0.2208  0.2289 -2.0172
 1476SOL    HW215891   3.515   0.280  11.694 -0.4452 -0.7709  0.6347
 1477SOL     OW15892   3.573   3.090   5.492  0.4351  0.3518  0.9570
 1477SOL    HW115893   3.511   3.018   5.504  1.8991 -0.9391  0.7470
 1477SOL    HW215894   3.583   3.120   5.582 -1.8648 -2.4210  2.1230
 1478SOL     OW15895   3.837   1.541   8.781  0.5447  0.3220 -0.0250
 1478SOL    HW115896   3.800   1.454   8.799  0.2635  0.2907 -0.7530
 1478SOL    HW215897   3.764   1.601   8.795  2.5265  3.5991 -3.8000
 1479SOL     OW15898   1.545   2.735   1.728 -0.1997  0.6281  0.0935
 1479SOL    HW115899   1.632   2.774   1.733 -0.3182  0.8465  0.4771
 1479SOL    HW215900   1.509   2.767   1.645  3.7515  0.7322 -1.5522
 1480SOL     OW15901   0.944   4.548  11.938 -0.0319 -0.0422  0.2696
 1480SOL    HW115902   1.006   4.582  11.873 -1.8431  1.6964 -0.5635
 1480SOL    HW215903   1.016   4.515  11.992  0.1629  0.1596  0.1371
 1481SOL     OW15904   3.336   1.119   5.416  0.1163 -0.4458 -0.6309
 1481SOL    HW115905   3.251   1.095   5.454  1.0592  0.1925  1.8410
 1481SOL    HW215906   3.307   1.190   5.359  0.6809 -0.1910 -0.5977
 1482SOL     OW15907   4.464   1.248   2.096 -0.0160  0.3998  0.0358
 1482SOL    HW115908   4.512   1.282   2.020  0.4440 -1.2376 -0.4110
 1482SOL    HW215909   4.535   1.211   2.149 -1.1128 -0.4924  0.8528
 1483SOL     OW15910   1.835   3.766  12.629 -0.1914  0.0710  0.1858
 1483SOL    HW115911   1.884   3.693  12.591 -0.3004 -0.9149  1.9202
 1483SOL    HW215912   1.831   3.745  12.723  0.3452  2.9413  0.8374
 1484SOL     OW15913   4.409   4.521   0.390  0.5526  0.2505 -0.0386
 1484SOL    HW115914   4.496   4.499   0.424  0.0942 -2.0589 -0.3971
 1484SOL    HW215915   4.418   4.609   0.353  0.4595  0.7834  1.2134
 1485SOL     OW15916   2.925   3.591   2.196  0.1440 -0.2283  0.2318
 1485SOL    HW115917   2.972   3.562   2.118  0.2699 -0.2113  0.3021
 1485SOL    HW215918   2.919   3.501   2.229 -1.4887 -0.3607 -0.3960
 1486SOL     OW15919   2.998   0.991   2.398  0.4273 -0.0782  0.0254
 1486SOL    HW115920   2.915   0.948   2.378  0.3051  0.7847 -1.2886
 1486SOL    HW215921   2.980   1.080   2.368  3.1841  0.2711 -0.6001
 1487SOL     OW15922   0.406   4.092  16.597  0.1583  0.2663 -0.4510
 1487SOL    HW115923   0.321   4.127  16.571  0.2843 -1.2922 -2.9540
 1487SOL    HW215924   0.416   4.129  16.685  0.0793 -0.6873 -0.0331
 1488SOL     OW15925   2.404   1.674  17.647  0.4371 -0.3302 -0.0736
 1488SOL    HW115926   2.398   1.727  17.568  1.5153 -0.4504 -0.2349
 1488SOL    HW215927   2.444   1.733   0.010 -0.5826 -0.2262  0.4819
 1489SOL     OW15928   2.253   3.824   7.209  0.2880  0.5935  0.0175
 1489SOL    HW115929   2.237   3.918   7.209 -0.1106  0.5255 -1.4519
 1489SOL    HW215930   2.164   3.786   7.209 -0.2264  1.8121 -0.2762
 1490SOL     OW15931   2.981   2.430   5.465 -0.3269 -0.4174 -0.4689
 1490SOL    HW115932   2.898   2.400   5.502 -1.8663  3.4722 -0.7952
 1490SOL    HW215933   2.959   2.428   5.372 -0.1286 -1.6011 -0.4867
 1491SOL     OW15934   3.982   1.337   4.876 -0.3102 -0.4123  0.2315
 1491SOL    HW115935   3.968   1.262   4.934  1.2596 -0.9062 -0.0342
 1491SOL    HW215936   4.068   1.318   4.838 -1.0167  0.7806 -1.9597
 1492SOL     OW15937   2.861   1.207   4.949 -0.8039  0.3562 -0.3424
 1492SOL    HW115938   2.781   1.221   4.898 -0.7504 -1.8990 -1.0449
 1492SOL    HW215939   2.922   1.185   4.878  2.0699 -1.0300  2.5643
 1493SOL     OW15940   2.296   1.338   8.769  0.4049 -0.3014 -0.2860
 1493SOL    HW115941   2.382   1.302   8.747  0.0217 -1.2549 -0.2244
 1493SOL    HW215942   2.279   1.290   8.850 -1.6667 -1.0802 -1.1926
 1494SOL     OW15943   1.912   4.068  12.997  0.5650 -0.5010 -0.3501
 1494SOL    HW115944   1.932   4.132  12.929  0.9473 -0.6459 -0.3714
 1494SOL    HW215945   1.836   4.106  13.043  0.8640  0.3928 -0.5963
 1495SOL     OW15946   0.243   2.794  10.810  0.0045 -0.1355 -0.2991
 1495SOL    HW115947   0.181   2.734  10.768  1.4997 -0.7567 -1.6571
 1495SOL    HW215948   0.280   2.743  10.881  0.7354  1.2020  0.2792
 1496SOL     OW15949   2.391   1.323   5.553 -0.4987 -0.6175  0.5387
 1496SOL    HW115950   2.438   1.399   5.587 -1.5189  0.3573 -0.1872
 1496SOL    HW215951   2.447   1.301   5.478  0.3434  2.8375  0.1548
 1497SOL     OW15952   1.786   3.127   6.874  0.3586  0.1944  0.2750
 1497SOL    HW115953   1.852   3.075   6.920  2.2418  0.3179 -2.2920
 1497SOL    HW215954   1.787   3.209   6.923  0.5755  1.0074 -1.0947
 1498SOL     OW15955   2.004   2.935   5.474  0.4092  0.3997  0.2185
 1498SOL    HW115956   1.934   2.884   5.515 -1.0044  1.3612 -0.9857
 1498SOL    HW215957   2.039   2.958   5.560  1.1662 -0.3477  0.1063
 1499SOL     OW15958   3.691   4.213   5.845 -0.0137  0.7961  0.3765
 1499SOL    HW115959   3.783   4.190   5.831 -0.5619 -0.1162 -1.8412
 1499SOL    HW215960   3.666   4.140   5.901 -1.9244  1.3177  0.1971
 1500SOL     OW15961   1.956   3.737   8.660  0.3112 -0.1304  0.0351
 1500SOL    HW115962   1.953   3.832   8.673  2.0614  0.2745 -2.6448
 1500SOL    HW215963   1.978   3.738   8.567 -2.1997 -0.2368 -0.5487
 1501SOL     OW15964   1.454   0.301  17.691  0.2947  0.9615  0.3702
 1501SOL    HW115965   1.474   0.214   0.024  0.4426  1.6761  2.2092
 1501SOL    HW215966   1.537   0.343  17.666  1.0550 -0.0423  1.2062
 1502SOL     OW15967   3.612   3.002   9.514 -0.2271 -0.1791 -0.5179
 1502SOL    HW115968   3.623   3.097   9.507  0.6630 -0.1305  1.6100
 1502SOL    HW215969   3.698   2.983   9.552 -0.0910 -0.7575 -1.1137
 1503SOL     OW15970   0.541   1.364   6.203 -0.5118  0.2860 -0.3992
 1503SOL    HW115971   0.538   1.334   6.112  1.5981  0.4223 -0.5033
 1503SOL    HW215972   0.555   1.459   6.198 -1.1973  0.4341  0.5107
 1504SOL     OW15973   4.058   0.856   1.973  0.8985  0.0183 -0.3158
 1504SOL    HW115974   4.065   0.932   2.031 -2.3771 -1.0038  1.4168
 1504SOL    HW215975   4.033   0.783   2.029 -1.8630  1.5262  0.4353
 1505SOL     OW15976   3.720   3.883  16.821 -0.2418 -0.4411  0.4355
 1505SOL    HW115977   3.662   3.831  16.875  0.1849 -1.3342  0.0284
 1505SOL    HW215978   3.686   3.856  16.736 -0.2452  0.3359  0.1881
 1506SOL     OW15979   4.336   2.802  14.279 -0.0105  0.0473 -0.1461
 1506SOL    HW115980   4.386   2.745  14.220 -2.1361 -1.1470 -0.7626
 1506SOL    HW215981   4.251   2.818  14.239 -0.0265 -0.9821 -0.5120
 1507SOL     OW15982   4.609   3.658   3.708  0.3670 -0.6532  0.1065
 1507SOL    HW115983   4.550   3.589   3.677  1.0820 -1.3342  0.2525
 1507SOL    HW215984   4.578   3.667   3.798  0.6440 -0.0211  0.1366
 1508SOL     OW15985   4.446   4.573   1.513 -0.3506  0.3460  0.2153
 1508SOL    HW115986   4.525   4.563   1.460 -0.8045  0.4188 -0.4779
 1508SOL    HW215987   4.447   4.498   1.572 -0.0323 -0.1231 -0.3977
 1509SOL     OW15988   2.101   0.103  15.622 -0.0555 -0.4511  0.3007
 1509SOL    HW115989   2.079   0.012  15.645 -0.7980 -0.0022  1.4041
 1509SOL    HW215990   2.019   0.132  15.582 -0.4188 -0.2141  1.2037
 1510SOL     OW15991   0.055   1.534   7.740 -0.2122 -0.2580  0.9081
 1510SOL    HW115992   0.076   1.625   7.762  0.5837 -0.3320  0.4426
 1510SOL    HW215993   0.001   1.545   7.662 -1.1796 -2.4729  1.2669
 1511SOL     OW15994   3.076   3.230   6.993 -0.6231 -0.3474  0.1761
 1511SOL    HW115995   3.037   3.154   7.036 -2.5249  0.2139 -0.5600
 1511SOL    HW215996   3.143   3.186   6.942 -1.1822  0.2054 -1.0359
 1512SOL     OW15997   3.821   2.522   1.099  0.0112  0.1248  0.7504
 1512SOL    HW115998   3.772   2.560   1.025 -0.6997 -0.4622  0.9176
 1512SOL    HW215999   3.910   2.524   1.065 -0.0322 -2.2172  0.5015
 1513SOL     OW16000   2.695   4.084  11.633  0.6825 -0.0914  0.1461
 1513SOL    HW116001   2.656   4.010  11.588  0.2491 -0.8484  1.7840
 1513SOL    HW216002   2.683   4.155  11.570 -0.6113  0.8359  1.4537
 1514SOL     OW16003   4.383   3.677   6.339  0.5094  0.4059  0.3713
 1514SOL    HW116004   4.354   3.673   6.430 -1.2256 -2.8254 -0.2900
 1514SOL    HW216005   4.413   3.586   6.332  1.1559  0.7365 -1.1899
 1515SOL     OW16006   0.833   2.792   7.138  0.0503 -0.3906  0.3364
 1515SOL    HW116007   0.847   2.778   7.232 -0.5731  1.1722  0.6660
 1515SOL    HW216008   0.907   2.735   7.115  2.4350  1.8762  2.2918
 1516SOL     OW16009   4.078   1.206   7.806  0.9425 -0.7823 -0.6402
 1516SOL    HW116010   4.168   1.226   7.832  0.2188  0.5568  0.8716
 1516SOL    HW216011   4.044   1.202   7.896  0.3206 -1.4296 -0.9068
 1517SOL     OW16012   3.696   4.475   5.175 -0.7480  0.1211 -0.2680
 1517SOL    HW116013   3.638   4.399   5.181  0.1412 -0.5036  0.2394
 1517SOL    HW216014   3.691   4.495   5.082  1.8321  3.3712  0.2933
 1518SOL     OW16015   0.279   0.756   5.379  0.0870 -0.0875 -0.1166
 1518SOL    HW116016   0.272   0.661   5.387  0.1517 -0.2204 -1.5845
 1518SOL    HW216017   0.191   0.780   5.348 -0.3824 -1.2630  0.3062
 1519SOL     OW16018   2.481   3.116   7.073 -0.4950 -0.0375 -0.7486
 1519SOL    HW116019   2.509   3.025   7.086 -0.3515  0.0239 -0.6375
 1519SOL    HW216020   2.461   3.123   6.980  0.4026  1.4382 -0.8268
 1520SOL     OW16021   4.103   4.415  12.489  0.5859  0.2838 -0.3371
 1520SOL    HW116022   4.027   4.466  12.517  0.7520 -0.1169  0.8231
 1520SOL    HW216023   4.159   4.427  12.566  1.4132 -1.1535 -0.7122
 1521SOL     OW16024   3.777   3.180  12.545  0.4264  0.2033  0.4080
 1521SOL    HW116025   3.704   3.210  12.490 -0.5833  2.7754  3.1853
 1521SOL    HW216026   3.790   3.257  12.600  2.6119 -0.0587  0.2506
 1522SOL     OW16027   0.984   0.541  10.599  0.0739 -0.4883  0.3157
 1522SOL    HW116028   0.916   0.609  10.594  1.1771  0.6502  1.0493
 1522SOL    HW216029   0.940   0.495  10.527 -1.3006  1.4181 -0.0782
 1523SOL     OW16030   1.813   0.207  11.353 -0.3679  0.2448  0.6684
 1523SOL    HW116031   1.875   0.180  11.420  0.2829 -0.7085 -0.3195
 1523SOL    HW216032   1.770   0.282  11.394 -0.7442  1.4856 -1.9974
 1524SOL     OW16033   1.064   0.583   0.957  0.8497  0.0257  0.2771
 1524SOL    HW116034   1.038   0.644   0.888  0.4430  0.5645  0.9059
 1524SOL    HW216035   1.151   0.555   0.927  1.7096  2.9577  0.0485
 1525SOL     OW16036   3.075   1.315   3.673 -0.5911  0.2454 -0.1218
 1525SOL    HW116037   3.168   1.320   3.697 -0.1188  2.0208 -2.3194
 1525SOL    HW216038   3.037   1.378   3.734  0.3340 -0.5458  1.2765
 1526SOL     OW16039   2.992   2.950   3.543 -0.0113  0.0856 -0.3966
 1526SOL    HW116040   2.988   2.854   3.539 -0.6631  0.0597  0.7696
 1526SOL    HW216041   3.034   2.969   3.626 -0.1920  1.3078 -0.5801
 1527SOL     OW16042   2.301   0.953   2.056 -0.8282  0.3439  0.6204
 1527SOL    HW116043   2.390   0.958   2.091 -0.7851  0.8690  0.4486
 1527SOL    HW216044   2.261   0.935   2.141  0.7313 -0.7259  1.1203
 1528SOL     OW16045   2.585   3.761   6.705  0.0579 -0.3125 -0.1873
 1528SOL    HW116046   2.537   3.735   6.783  0.7504 -1.0310  0.0021
 1528SOL    HW216047   2.572   3.683   6.651 -0.2854  0.4145 -1.1632
 1529SOL     OW16048   2.948   1.972   5.203  0.5345  0.0172 -0.1233
 1529SOL    HW116049   2.985   1.958   5.116 -2.3261 -1.8846 -1.0302
 1529SOL    HW216050   3.025   2.005   5.248 -0.6490 -0.0284  1.9252
 1530SOL     OW16051   1.999   3.792   7.288  0.5765 -0.1812 -0.3239
 1530SOL    HW116052   2.043   3.793   7.373 -0.6131  1.7947  0.2744
 1530SOL    HW216053   1.910   3.817   7.313  1.2608  2.1421 -0.2347
 1531SOL     OW16054   3.119   4.348   7.327 -0.1331  0.2995 -0.6247
 1531SOL    HW116055   3.152   4.312   7.409 -2.2859 -0.4532 -0.1075
 1531SOL    HW216056   3.170   4.296   7.264 -0.8728 -1.0500 -0.1113
 1532SOL     OW16057   3.849   0.278   7.068  0.7020  0.1099  0.1123
 1532SOL    HW116058   3.900   0.302   7.145  0.9677  2.3114 -0.7410
 1532SOL    HW216059   3.852   0.184   7.085  0.9072 -0.0014 -0.5520
 1533SOL     OW16060   1.436   2.199   4.494  0.1717 -0.1622  0.1524
 1533SOL    HW116061   1.489   2.165   4.566  0.6023  1.6396  0.6862
 1533SOL    HW216062   1.367   2.251   4.535 -0.1473  0.2862 -0.9450
 1534SOL     OW16063   2.565   4.154   9.131 -0.3483  0.3479 -0.3672
 1534SOL    HW116064   2.601   4.066   9.121 -0.5420  0.1012  1.2211
 1534SOL    HW216065   2.514   4.149   9.212 -0.4570 -1.9090 -0.5869
 1535SOL     OW16066   2.768   1.998   6.269 -0.2332  0.2702 -0.1346
 1535SOL    HW116067   2.690   2.043   6.237  1.5149  0.8903 -3.5199
 1535SOL    HW216068   2.782   2.046   6.351 -1.3101 -1.4412  1.0467
 1536SOL     OW16069   3.456   1.286   4.845  0.2445 -0.4200  0.1344
 1536SOL    HW116070   3.363   1.299   4.861  0.1281 -2.3426  1.0375
 1536SOL    HW216071   3.491   1.289   4.934 -0.9398  1.0017  0.5623
 1537SOL     OW16072   1.650   4.640   5.902 -0.2580 -0.3103 -0.5157
 1537SOL    HW116073   1.675   4.686   5.982  1.8475 -2.0369 -0.1629
 1537SOL    HW216074   1.628   4.709   5.840 -0.7844  1.0334  1.1860
 1538SOL     OW16075   4.503   3.154  15.887 -0.2500 -0.3646  0.9914
 1538SOL    HW116076   4.530   3.245  15.902  1.0953 -0.7472  0.9155
 1538SOL    HW216077   4.538   3.104  15.961  0.5661 -0.9821  0.1951
 1539SOL     OW16078   2.838   1.598   4.359 -0.1843  0.0277 -0.3956
 1539SOL    HW116079   2.800   1.510   4.356 -0.2491  0.0617 -0.5825
 1539SOL    HW216080   2.792   1.616   4.277  3.0441  0.5268 -2.0755
 1540SOL     OW16081   2.248   2.373   7.031 -0.3235  0.1157 -0.3769
 1540SOL    HW116082   2.248   2.437   6.960 -0.2275 -0.1930 -0.6564
 1540SOL    HW216083   2.299   2.423   7.094  1.0726 -1.1330 -0.5291
 1541SOL     OW16084   3.492   3.403  13.077  0.3095  0.1281  0.0666
 1541SOL    HW116085   3.402   3.387  13.048  0.4759  0.2993 -0.5402
 1541SOL    HW216086   3.546   3.374  13.003  0.8912 -0.4767  0.7236
 1542SOL     OW16087   3.640   0.865   7.434 -0.2007 -0.0522  0.0465
 1542SOL    HW116088   3.666   0.914   7.512 -2.8736  1.3491  0.0471
 1542SOL    HW216089   3.545   0.872   7.439 -0.3215 -1.9634  0.1798
 1543SOL     OW16090   3.168   1.635   4.059 -0.0409 -0.0518 -0.3665
 1543SOL    HW116091   3.258   1.604   4.047  0.1818  0.2834  0.4292
 1543SOL    HW216092   3.160   1.652   3.966  0.5953  2.1318 -0.0323
 1544SOL     OW16093   4.567   3.180   9.015 -0.3596 -0.3505  0.1111
 1544SOL    HW116094   4.574   3.200   8.922  0.6066  1.1709  0.5126
 1544SOL    HW216095   4.651   3.134   9.020 -1.0510 -1.3951  2.2591
 1545SOL     OW16096   2.553   0.894   6.299 -0.0169 -0.1097 -0.9986
 1545SOL    HW116097   2.471   0.863   6.262  0.2899 -3.7714  1.4554
 1545SOL    HW216098   2.620   0.852   6.245  2.4708  1.9048  0.5231
 1546SOL     OW16099   1.394   1.802  11.374 -0.6343 -0.4000  0.1253
 1546SOL    HW116100   1.354   1.797  11.288 -0.5143  1.2413 -0.0243
 1546SOL    HW216101   1.486   1.819  11.352 -0.7386 -0.0927 -0.0652
 1547SOL     OW16102   3.510   4.654   2.104 -0.0576  0.1947  0.2949
 1547SOL    HW116103   3.469   4.619   2.025  0.1175  0.6820 -0.0100
 1547SOL    HW216104   3.589   4.690   2.062 -0.2168  0.3692  0.1424
 1548SOL     OW16105   2.836   1.942  11.389 -0.3522  0.7516  0.0234
 1548SOL    HW116106   2.780   2.019  11.403  2.0337  2.7225 -1.3325
 1548SOL    HW216107   2.858   1.915  11.478  1.2693  1.5918 -0.1303
 1549SOL     OW16108   2.709   0.498   9.321  0.2772 -0.8548 -0.0415
 1549SOL    HW116109   2.724   0.407   9.297  0.7772 -1.1507  1.3647
 1549SOL    HW216110   2.755   0.551   9.257 -1.4114  1.6617  0.8191
 1550SOL     OW16111   2.508   0.906   4.909 -0.0573 -0.3446  0.4386
 1550SOL    HW116112   2.524   0.995   4.877  0.5818 -0.0313  1.6719
 1550SOL    HW216113   2.598   0.878   4.922 -0.5704 -0.9666  2.6803
 1551SOL     OW16114   4.338   1.833   3.409  0.4017  0.3531  0.1312
 1551SOL    HW116115   4.336   1.924   3.378  0.7451 -0.4607 -2.3387
 1551SOL    HW216116   4.246   1.819   3.432 -0.4742  2.3932 -2.1120
 1552SOL     OW16117   3.997   4.666   9.506 -0.5547 -0.3142  0.1328
 1552SOL    HW116118   3.927   4.637   9.447 -0.3097 -0.8915  0.1245
 1552SOL    HW216119   3.936   4.712   9.564 -1.6882  0.5916 -1.7622
 1553SOL     OW16120   3.200   1.846   9.682 -0.1059  0.5371  0.1748
 1553SOL    HW116121   3.163   1.764   9.649  0.7257  1.4373 -3.0354
 1553SOL    HW216122   3.132   1.858   9.749  0.8269 -0.9161  1.3539
 1554SOL     OW16123   2.936   4.451  12.659  0.0457  0.6077  0.3816
 1554SOL    HW116124   3.009   4.418  12.607  0.1983  1.4762  0.0555
 1554SOL    HW216125   2.936   4.541  12.627 -0.5389  0.9538  1.3581
 1555SOL     OW16126   2.702   4.482  15.620  0.2186  0.2226 -0.0292
 1555SOL    HW116127   2.723   4.481  15.526  0.2336  2.3629 -0.0374
 1555SOL    HW216128   2.763   4.418  15.657  1.2422  0.6060 -1.0757
 1556SOL     OW16129   4.613   2.073  12.789  0.7402  0.5614 -0.6319
 1556SOL    HW116130   4.584   2.080  12.880  2.7835 -1.1904  0.1376
 1556SOL    HW216131   4.606   2.158  12.745  1.8758  1.3004  0.6320
 1557SOL     OW16132   1.115   3.397  12.213 -0.5114 -0.7616 -0.3270
 1557SOL    HW116133   1.024   3.421  12.231 -0.9362 -1.6367 -1.3525
 1557SOL    HW216134   1.165   3.424  12.290  1.4428 -0.1741 -1.7791
 1558SOL     OW16135   3.786   1.113   4.653 -0.1935  0.0423  0.0162
 1558SOL    HW116136   3.867   1.100   4.701  1.4423 -0.8766 -2.9873
 1558SOL    HW216137   3.751   1.025   4.642 -0.7273 -0.0181  2.2038
 1559SOL     OW16138   4.398   4.371  10.977 -0.0855  0.0176 -0.5311
 1559SOL    HW116139   4.396   4.423  10.897  1.0503 -0.7505 -1.0488
 1559SOL    HW216140   4.466   4.410  11.032  0.0842 -0.5959 -0.2994
 1560SOL     OW16141   3.305   0.407   8.392 -0.3213  0.1446  0.1475
 1560SOL    HW116142   3.288   0.374   8.304  0.6176  0.4108 -0.1300
 1560SOL    HW216143   3.345   0.493   8.384 -0.4404  0.0731 -1.1203
 1561SOL     OW16144   3.388   0.102   1.069 -0.2521 -0.2403 -0.2622
 1561SOL    HW116145   3.467   0.114   1.016 -0.0657 -2.7666 -0.5345
 1561SOL    HW216146   3.327   0.077   1.000 -0.6315 -0.1785  0.0500
 1562SOL     OW16147   1.036   0.869  13.985 -0.4717  0.2797  0.3296
 1562SOL    HW116148   0.952   0.867  14.032 -0.0584  0.7449  1.0811
 1562SOL    HW216149   1.076   0.794  14.030  0.6851 -0.4818 -1.9998
 1563SOL     OW16150   3.222   4.379   1.419 -0.1591  0.1709 -0.2664
 1563SOL    HW116151   3.160   4.429   1.365 -0.1484 -1.4930 -1.8167
 1563SOL    HW216152   3.288   4.447   1.434  1.3220 -1.0276 -1.2691
 1564SOL     OW16153   1.380   4.062  14.690  0.7421  0.1778 -0.4509
 1564SOL    HW116154   1.391   4.097  14.601  1.1454  1.4580  0.0986
 1564SOL    HW216155   1.406   4.136  14.746 -0.1527  0.7812 -0.8334
 1565SOL     OW16156   0.886   1.853   4.166  0.2213  0.0548 -0.5702
 1565SOL    HW116157   0.856   1.786   4.105 -1.1869  0.4077 -0.2628
 1565SOL    HW216158   0.843   1.921   4.113 -1.4608 -0.7270 -0.2134
 1566SOL     OW16159   4.052   4.264  14.884 -0.5980 -0.1501  0.1086
 1566SOL    HW116160   4.084   4.352  14.903 -1.4348  0.4057 -1.0048
 1566SOL    HW216161   4.072   4.221  14.966  0.2863  0.9310  0.4528
 1567SOL     OW16162   3.659   4.180   2.411  1.0086 -0.1761 -0.0189
 1567SOL    HW116163   3.714   4.190   2.333  0.4582 -0.5181 -0.4554
 1567SOL    HW216164   3.620   4.268   2.404 -0.6796 -0.9550 -0.3853
 1568SOL     OW16165   1.770   3.894  12.159  0.2200 -0.6477  0.4164
 1568SOL    HW116166   1.767   3.800  12.178  3.2063 -1.1044 -1.3795
 1568SOL    HW216167   1.824   3.925  12.231  0.2901 -0.8702  0.4623
 1569SOL     OW16168   0.304   3.990  15.386 -0.3162 -0.0641 -0.3239
 1569SOL    HW116169   0.291   3.895  15.388  1.7947 -0.3878 -1.3356
 1569SOL    HW216170   0.302   4.007  15.480 -2.5700  1.7551 -0.7068
 1570SOL     OW16171   3.861   2.495   2.558 -0.3952 -0.2611  0.1382
 1570SOL    HW116172   3.825   2.582   2.540 -0.1199 -0.3701 -0.9315
 1570SOL    HW216173   3.894   2.481   2.469 -0.9788 -1.7107  0.1518
 1571SOL     OW16174   4.695   1.512   5.314 -0.1018 -0.3580 -0.4897
 1571SOL    HW116175   4.661   1.601   5.318 -0.6996 -0.5540 -1.1935
 1571SOL    HW216176   4.617   1.460   5.335 -0.9349  1.0556 -0.1120
 1572SOL     OW16177   2.251   1.028  15.713 -0.6213 -0.3482  0.0436
 1572SOL    HW116178   2.342   1.052  15.699 -0.7398 -1.0108 -1.9186
 1572SOL    HW216179   2.212   1.112  15.687  0.2319 -0.0122 -0.1444
 1573SOL     OW16180   1.688   1.342  10.872  0.3028 -0.4047  0.3648
 1573SOL    HW116181   1.601   1.383  10.879  1.6060  2.1583  1.4247
 1573SOL    HW216182   1.675   1.254  10.907 -1.6454  0.1623  1.0619
 1574SOL     OW16183   4.599   1.282   7.145 -0.0397 -0.3533 -0.0649
 1574SOL    HW116184   4.572   1.221   7.076  0.9980 -1.0268  0.1160
 1574SOL    HW216185   4.667   1.227   7.184 -0.2063 -0.3911  0.1719
 1575SOL     OW16186   2.615   2.379  15.921  0.2614 -0.0629  0.1632
 1575SOL    HW116187   2.705   2.408  15.909  0.4128 -0.3674  0.5603
 1575SOL    HW216188   2.565   2.446  15.874  0.3516 -0.0250  0.1215
 1576SOL     OW16189   1.835   3.555   7.469 -0.3273  0.4455  0.1459
 1576SOL    HW116190   1.880   3.527   7.389  1.2643 -0.2271  1.2867
 1576SOL    HW216191   1.816   3.646   7.447 -3.0562 -0.4094 -1.0951
 1577SOL     OW16192   0.360   2.231   6.543  0.3090 -0.9865  0.0586
 1577SOL    HW116193   0.373   2.280   6.462 -2.8663  1.0026  0.7007
 1577SOL    HW216194   0.311   2.157   6.507  0.1970  0.9017 -3.7500
 1578SOL     OW16195   3.076   0.909   2.848  0.6850 -0.6420 -0.6199
 1578SOL    HW116196   3.048   0.887   2.759  0.7400 -1.9817 -0.3001
 1578SOL    HW216197   3.039   0.997   2.851  1.0914 -0.4655 -0.6903
 1579SOL     OW16198   2.173   0.724  16.155 -0.5960  0.4708 -0.0865
 1579SOL    HW116199   2.201   0.765  16.072  1.3867  2.1458  1.4142
 1579SOL    HW216200   2.081   0.715  16.132 -0.9198 -1.0645  1.7579
 1580SOL     OW16201   3.534   2.971   2.444 -0.2160 -0.0254  0.3467
 1580SOL    HW116202   3.628   2.960   2.429 -0.0173  1.8375  0.1865
 1580SOL    HW216203   3.525   3.056   2.403 -1.0426  0.3187  1.2338
 1581SOL     OW16204   1.872   1.026   0.013 -0.1731 -0.0271 -0.2069
 1581SOL    HW116205   1.897   1.118   0.014  2.7773 -0.8315  0.0130
 1581SOL    HW216206   1.936   0.999   0.079 -0.6694 -1.7067 -0.4085
 1582SOL     OW16207   0.164   1.309   5.289 -0.4041  0.5342  0.1557
 1582SOL    HW116208   0.119   1.392   5.302 -1.3435 -0.1456  1.2060
 1582SOL    HW216209   0.091   1.255   5.257 -0.7817  0.3224  1.4002
 1583SOL     OW16210   1.548   1.266   7.460 -1.1518 -0.4149  0.0833
 1583SOL    HW116211   1.632   1.299   7.428 -0.2082 -1.9131  1.0287
 1583SOL    HW216212   1.544   1.194   7.397 -3.3341  0.8847 -1.2738
 1584SOL     OW16213   2.404   3.703   4.758 -0.4414 -0.0401 -0.4398
 1584SOL    HW116214   2.479   3.756   4.786 -1.1874 -0.0892  1.6621
 1584SOL    HW216215   2.352   3.687   4.838 -0.4504  1.1416 -0.2071
 1585SOL     OW16216   0.702   0.319  12.153  0.3299  0.8120 -0.3306
 1585SOL    HW116217   0.719   0.353  12.241  0.6124  1.3701 -0.6030
 1585SOL    HW216218   0.764   0.364  12.096  2.1203 -0.5297  0.5684
 1586SOL     OW16219   1.496   0.101   6.226 -0.2182  0.1212  0.1659
 1586SOL    HW116220   1.564   0.035   6.215 -1.5872 -0.8259 -2.6637
 1586SOL    HW216221   1.528   0.149   6.302  1.6878  1.1405 -1.2810
 1587SOL     OW16222   2.223   2.801   9.569  0.2323  0.1086  0.2454
 1587SOL    HW116223   2.188   2.770   9.653  1.7185 -1.7806  0.1651
 1587SOL    HW216224   2.217   2.897   9.570 -0.4773  0.0679  0.2506
 1588SOL     OW16225   4.137   1.848   7.356  0.6112 -0.0931  0.3279
 1588SOL    HW116226   4.155   1.942   7.348 -1.5873  0.2184 -1.0926
 1588SOL    HW216227   4.228   1.821   7.349  0.8915  0.5409  1.6736
 1589SOL     OW16228   2.639   2.541  10.544  0.0103  0.3528 -0.1116
 1589SOL    HW116229   2.655   2.628  10.508 -0.1901  0.9085  1.1675
 1589SOL    HW216230   2.546   2.532  10.522  0.5992 -0.7602 -2.1218
 1590SOL     OW16231   0.942   2.612   4.690 -0.0921  0.0454  0.2302
 1590SOL    HW116232   0.940   2.526   4.648 -0.6424  0.3743 -0.4126
 1590SOL    HW216233   0.915   2.671   4.620  0.1365 -0.8655 -0.6276
 1591SOL     OW16234   1.099   2.078   4.912  0.0844 -0.4136 -0.7551
 1591SOL    HW116235   1.110   2.115   5.000  0.5210 -1.4856 -0.3518
 1591SOL    HW216236   1.076   2.151   4.855 -0.7919 -2.2791 -2.7972
 1592SOL     OW16237   0.455   0.553   9.337  0.3033 -0.1771 -0.0256
 1592SOL    HW116238   0.380   0.518   9.288  0.2724  0.4148 -0.4090
 1592SOL    HW216239   0.411   0.595   9.410 -0.2572  0.1415 -0.5395
 1593SOL     OW16240   3.015   2.688  11.219 -0.2687  0.1782  0.4827
 1593SOL    HW116241   2.937   2.693  11.275 -0.8908  0.6540 -0.4178
 1593SOL    HW216242   3.069   2.617  11.252 -0.6932 -1.0928 -1.5455
 1594SOL     OW16243   3.386   4.210   5.700 -0.5810  0.0911  0.0040
 1594SOL    HW116244   3.478   4.226   5.679 -0.5583 -0.0706 -0.0266
 1594SOL    HW216245   3.405   4.131   5.752 -0.6451  1.1810  1.6856
 1595SOL     OW16246   1.939   0.942   3.972  0.3309  0.6937  0.0438
 1595SOL    HW116247   1.947   0.879   4.045  2.4215  0.7322 -0.1482
 1595SOL    HW216248   1.909   0.882   3.904 -0.6165 -0.3091  1.3181
 1596SOL     OW16249   4.525   3.508   6.869 -0.1525 -0.6523 -0.2956
 1596SOL    HW116250   4.550   3.500   6.961 -0.4231  4.7704  0.2700
 1596SOL    HW216251   4.605   3.467   6.837  0.1043  0.4859 -1.0910
 1597SOL     OW16252   3.322   1.778  12.775  0.0251 -0.1683 -0.2093
 1597SOL    HW116253   3.337   1.708  12.711  0.1409 -1.6231  1.4032
 1597SOL    HW216254   3.253   1.735  12.827  0.1255  0.1100  0.1507
 1598SOL     OW16255   3.790   1.394   0.635 -0.0843  0.1618 -0.1805
 1598SOL    HW116256   3.752   1.326   0.691  1.6478  0.2024  1.0236
 1598SOL    HW216257   3.792   1.463   0.701  0.9576  0.5998 -0.6859
 1599SOL     OW16258   1.116   2.928   3.911  0.0191 -0.1268  0.1980
 1599SOL    HW116259   1.195   2.969   3.876 -1.4809  2.4317 -0.1954
 1599SOL    HW216260   1.132   2.945   4.003 -1.4116 -0.5382  0.5249
 1600SOL     OW16261   2.181   4.084   7.761 -0.8085  0.1941 -0.2593
 1600SOL    HW116262   2.235   4.115   7.834 -0.6630 -0.0872 -0.2469
 1600SOL    HW216263   2.107   4.036   7.798  1.8455 -3.7478 -0.1084
 1601SOL     OW16264   0.350   1.141   3.842 -0.1700 -0.1577 -0.0754
 1601SOL    HW116265   0.335   1.166   3.933 -2.7435  1.3664 -0.9249
 1601SOL    HW216266   0.443   1.117   3.846  0.4202  2.0169 -0.9171
 1602SOL     OW16267   3.302   2.433   8.543 -0.1831 -0.3633  0.6190
 1602SOL    HW116268   3.239   2.376   8.499  0.7769 -0.5715 -0.4930
 1602SOL    HW216269   3.376   2.377   8.563 -1.2218 -1.6605  0.8363
 1603SOL     OW16270   1.166   0.958   1.453  0.3524 -0.2662 -0.2533
 1603SOL    HW116271   1.203   0.991   1.371  0.5878 -0.2273 -0.1320
 1603SOL    HW216272   1.142   1.042   1.492 -1.0797 -0.5480 -0.5182
 1604SOL     OW16273   4.287   0.049   3.882  0.5529 -0.2234  0.0256
 1604SOL    HW116274   4.303   0.131   3.835  0.3465 -1.0653 -1.5405
 1604SOL    HW216275   4.339   4.717   3.824 -0.3331 -0.4889 -0.5218
 1605SOL     OW16276   3.675   4.532   3.905 -0.4523  0.5139  0.1810
 1605SOL    HW116277   3.668   4.608   3.962  1.9398 -0.4551  1.7667
 1605SOL    HW216278   3.764   4.535   3.869 -0.9899  1.2592 -1.0791
 1606SOL     OW16279   4.334   3.215   0.167 -0.4014  0.3420 -0.0375
 1606SOL    HW116280   4.312   3.288   0.108 -0.0900 -0.4975 -1.1926
 1606SOL    HW216281   4.356   3.161   0.092  0.3815 -0.5081  0.8102
 1607SOL     OW16282   1.552   3.985   5.503 -0.3428  0.6678  0.0413
 1607SOL    HW116283   1.499   3.950   5.576 -1.7342 -0.3761 -1.4716
 1607SOL    HW216284   1.512   3.953   5.422  0.5667  0.9774 -0.5217
 1608SOL     OW16285   1.712   0.512  11.306  0.1750 -0.1588 -0.5912
 1608SOL    HW116286   1.729   0.487  11.215  1.0396 -0.5301 -0.3286
 1608SOL    HW216287   1.661   0.590  11.286 -0.4624 -0.8410 -1.6406
 1609SOL     OW16288   0.611   3.179   2.793  0.4711 -0.0718  0.5523
 1609SOL    HW116289   0.575   3.108   2.846 -1.9498  0.3147 -0.5967
 1609SOL    HW216290   0.612   3.251   2.856 -0.6465  1.9141 -1.7100
 1610SOL     OW16291   4.026   4.560  14.702  0.7374 -0.4263 -0.0853
 1610SOL    HW116292   4.061   4.640  14.740  1.5300 -1.4216  1.2886
 1610SOL    HW216293   3.948   4.547  14.756 -0.0615 -1.9239 -1.5990
 1611SOL     OW16294   3.877   2.037   2.553  0.7664 -0.1560 -0.7126
 1611SOL    HW116295   3.816   2.110   2.565 -0.9301 -1.9766  1.8831
 1611SOL    HW216296   3.965   2.073   2.555 -0.1290  1.9712  0.2864
 1612SOL     OW16297   2.371   2.003   4.584 -0.6125 -0.1807  0.1010
 1612SOL    HW116298   2.381   2.035   4.674 -0.9824 -0.6924  0.3219
 1612SOL    HW216299   2.312   2.069   4.547 -2.5012 -0.6066  2.3755
 1613SOL     OW16300   2.811   3.558  12.083 -0.0683 -1.0161  0.6805
 1613SOL    HW116301   2.816   3.636  12.138 -0.6610  0.2653 -1.0678
 1613SOL    HW216302   2.867   3.585  12.010 -0.2183 -1.0484  0.5527
 1614SOL     OW16303   2.271   2.772  13.128 -0.3675  0.1253 -0.1586
 1614SOL    HW116304   2.305   2.847  13.177  0.8329 -1.7052  1.7898
 1614SOL    HW216305   2.246   2.717  13.202  1.1254 -0.3554 -0.0125
 1615SOL     OW16306   1.070   4.410   1.934 -0.3602 -0.3451 -0.0694
 1615SOL    HW116307   1.094   4.338   1.991  1.4050  0.9783  0.8699
 1615SOL    HW216308   1.010   4.459   1.992 -1.1975 -2.1112  0.5460
 1616SOL     OW16309   4.151   1.580   6.446  0.6486 -0.2808 -0.5718
 1616SOL    HW116310   4.148   1.597   6.352  0.2548 -2.6499 -0.9930
 1616SOL    HW216311   4.097   1.503   6.466  1.5661 -0.6109  0.6407
 1617SOL     OW16312   0.934   3.071  12.183 -0.0831  0.3162 -0.1347
 1617SOL    HW116313   1.002   3.070  12.115  0.5389 -0.7942  0.4900
 1617SOL    HW216314   0.879   2.993  12.173  1.2701 -0.4586 -1.6302
 1618SOL     OW16315   4.286   4.366   9.089  0.5116  0.5571 -0.1646
 1618SOL    HW116316   4.272   4.283   9.044 -2.2971  1.4252 -0.8859
 1618SOL    HW216317   4.311   4.341   9.178  0.5629  1.7257  0.1553
 1619SOL     OW16318   4.421   1.575  14.667 -0.1136  0.0709  0.7607
 1619SOL    HW116319   4.335   1.599  14.634  0.4616  0.7915 -0.2255
 1619SOL    HW216320   4.455   1.511  14.605 -0.0585  3.5705 -2.7747
 1620SOL     OW16321   1.174   3.895   1.513 -0.5620  0.0228  0.0898
 1620SOL    HW116322   1.241   3.865   1.575  1.5698  1.8802 -1.3248
 1620SOL    HW216323   1.147   3.810   1.478 -1.4101 -0.3001  1.4989
 1621SOL     OW16324   2.523   1.407  15.691  0.1451 -0.8048 -0.0301
 1621SOL    HW116325   2.452   1.358  15.650  0.3729 -1.9500  0.9507
 1621SOL    HW216326   2.487   1.412  15.779 -2.8579 -2.0706 -1.2075
 1622SOL     OW16327   3.202   2.087   4.443  0.1445  0.1110  0.1447
 1622SOL    HW116328   3.126   2.134   4.409 -0.6009  0.4001  2.1882
 1622SOL    HW216329   3.172   1.996   4.453  0.1232  0.1213  0.1732
 1623SOL     OW16330   0.681   1.613   0.446  0.0195 -0.2364 -0.4605
 1623SOL    HW116331   0.665   1.618   0.351  2.4308  1.4658 -0.7781
 1623SOL    HW216332   0.726   1.695   0.466  0.3050  0.0293 -2.1404
 1624SOL     OW16333   4.097   3.565   6.290  0.1704 -0.3858  0.3274
 1624SOL    HW116334   4.174   3.563   6.347  0.2105 -0.2322  0.2786
 1624SOL    HW216335   4.142   3.544   6.208 -0.9000  0.7304 -0.5523
 1625SOL     OW16336   3.121   2.163  13.829 -0.0639  0.5591 -0.2387
 1625SOL    HW116337   3.162   2.160  13.915 -1.1875 -1.4533  0.2337
 1625SOL    HW216338   3.108   2.070  13.809  0.5806  0.7093 -1.4103
 1626SOL     OW16339   0.476   4.391   2.544  0.6496 -0.0767 -0.1869
 1626SOL    HW116340   0.493   4.416   2.635 -0.6357 -2.9507  0.8569
 1626SOL    HW216341   0.413   4.320   2.559 -0.5345  0.9672 -0.2712
 1627SOL     OW16342   3.505   3.300   4.091 -0.1218 -0.3776  0.2770
 1627SOL    HW116343   3.598   3.321   4.087 -0.0363 -0.7587  0.2550
 1627SOL    HW216344   3.461   3.384   4.104 -1.3712 -1.1925  1.3652
 1628SOL     OW16345   0.530   2.048   3.657 -0.1767 -0.0465 -0.0986
 1628SOL    HW116346   0.512   2.082   3.745 -0.4133 -0.6607  0.0962
 1628SOL    HW216347   0.539   2.129   3.607 -1.5174 -0.4229 -0.9615
 1629SOL     OW16348   1.455   1.777   7.643  0.2028  0.2568  0.1299
 1629SOL    HW116349   1.389   1.759   7.710  0.5183  1.8482  0.8815
 1629SOL    HW216350   1.523   1.721   7.680  0.8876 -0.4958 -2.2755
 1630SOL     OW16351   3.019   2.460  12.407 -0.6560 -0.1217 -0.4177
 1630SOL    HW116352   2.946   2.432  12.462 -0.4610  2.2354  1.0721
 1630SOL    HW216353   3.029   2.545  12.451  0.2480 -1.3642  1.7629
 1631SOL     OW16354   3.420   0.888   6.590 -0.1715 -0.4585 -0.4503
 1631SOL    HW116355   3.401   0.944   6.665 -3.3265 -1.1797 -0.7408
 1631SOL    HW216356   3.489   0.829   6.621 -0.3118  0.0013  0.7611
 1632SOL     OW16357   0.832   1.513   7.366  0.1830 -0.8013 -0.0563
 1632SOL    HW116358   0.921   1.545   7.381  0.6967 -1.0882 -2.4121
 1632SOL    HW216359   0.821   1.535   7.273  4.4737  0.8562 -0.1521
 1633SOL     OW16360   4.122   4.381   1.183 -0.2541 -0.1395  0.3603
 1633SOL    HW116361   4.158   4.402   1.269  1.2652 -0.9915 -0.0693
 1633SOL    HW216362   4.195   4.327   1.154 -1.3406 -2.4453  1.9912
 1634SOL     OW16363   1.590   3.593   3.879  0.7714 -0.3463  0.8151
 1634SOL    HW116364   1.645   3.541   3.938 -1.3690 -1.8312  1.4771
 1634SOL    HW216365   1.502   3.576   3.912  0.6579  0.6337  1.0318
 1635SOL     OW16366   0.061   4.438   2.377 -0.3432 -0.1059 -0.3726
 1635SOL    HW116367   0.132   4.384   2.343  2.0171  2.9585 -0.2643
 1635SOL    HW216368   0.062   4.520   2.327  0.4026 -0.1668 -0.4515
 1636SOL     OW16369   3.296   3.588   2.592 -0.2247  0.3734  0.3805
 1636SOL    HW116370   3.225   3.554   2.537  1.1241 -0.2059 -1.0182
 1636SOL    HW216371   3.311   3.673   2.552  0.9486  0.6263  1.3622
 1637SOL     OW16372   4.653   0.985  10.651  0.1579 -0.4605 -0.3610
 1637SOL    HW116373   4.703   1.011  10.574  0.8325  0.1380  0.2848
 1637SOL    HW216374   4.628   1.068  10.691 -3.3021 -1.8201  0.3028
 1638SOL     OW16375   2.764   1.843   2.956 -0.0026  0.4724 -0.3444
 1638SOL    HW116376   2.855   1.833   2.984 -0.2229 -0.7831 -0.0664
 1638SOL    HW216377   2.764   1.856   2.861  3.2806  0.5116 -0.3500
 1639SOL     OW16378   3.612   2.688   8.707  0.7521  0.1940  0.1565
 1639SOL    HW116379   3.603   2.688   8.612 -0.8865  0.4694  0.3101
 1639SOL    HW216380   3.524   2.655   8.727  0.1808  1.0887 -0.9224
 1640SOL     OW16381   4.113   4.383   3.376  0.5165 -0.3355  0.7756
 1640SOL    HW116382   4.204   4.371   3.402  0.6965  0.0330  0.3337
 1640SOL    HW216383   4.109   4.357   3.284  1.9103  0.7786  0.4006
 1641SOL     OW16384   1.875   1.887   3.046 -0.7941  0.3427  0.0493
 1641SOL    HW116385   1.781   1.897   3.033 -0.6465  3.2903  1.2079
 1641SOL    HW216386   1.874   1.844   3.131 -3.5031 -0.5496 -0.4364
 1642SOL     OW16387   1.729   4.225  17.155  0.2518  0.2247 -0.3100
 1642SOL    HW116388   1.639   4.199  17.175  0.4372 -0.1172  0.0802
 1642SOL    HW216389   1.750   4.179  17.074  3.4978 -0.9933  1.2488
 1643SOL     OW16390   3.520   1.282   7.807  0.2508 -0.3259  0.2333
 1643SOL    HW116391   3.485   1.368   7.785 -0.9710 -1.2531 -1.4480
 1643SOL    HW216392   3.509   1.233   7.726 -0.3821 -2.6114  1.6988
 1644SOL     OW16393   4.217   0.257   2.659 -0.2349  1.1343 -0.2255
 1644SOL    HW116394   4.285   0.207   2.614 -0.0563 -1.3719  2.8402
 1644SOL    HW216395   4.141   0.253   2.601 -1.2980 -0.1609  1.2350
 1645SOL     OW16396   1.645   2.070   7.275  1.4384 -0.2084  0.2385
 1645SOL    HW116397   1.642   2.159   7.311 -0.3049 -0.2530  0.2047
 1645SOL    HW216398   1.579   2.034   7.335 -0.0316  2.4356  0.2322
 1646SOL     OW16399   2.408   2.183   5.373 -0.0796 -0.7554 -0.0506
 1646SOL    HW116400   2.374   2.217   5.456 -1.7444  0.8497 -1.3958
 1646SOL    HW216401   2.325   2.170   5.327  1.0678  1.2651 -2.6747
 1647SOL     OW16402   0.523   3.305   6.134  0.3403  0.1265 -0.1602
 1647SOL    HW116403   0.468   3.294   6.056  1.2397 -0.7532 -0.6646
 1647SOL    HW216404   0.578   3.227   6.143  1.5882  0.9258 -0.8785
 1648SOL     OW16405   0.941   1.127  12.347 -0.3950 -0.1692 -0.0952
 1648SOL    HW116406   0.957   1.041  12.309 -0.2337 -0.3031  0.2716
 1648SOL    HW216407   0.857   1.149  12.307 -1.0387 -0.9790  0.8027
 1649SOL     OW16408   1.840   2.049   4.980 -0.0136 -0.6654 -0.4711
 1649SOL    HW116409   1.764   2.055   4.923 -2.0040 -1.3890  2.0901
 1649SOL    HW216410   1.889   1.982   4.933  0.3684 -0.6477 -0.1063
 1650SOL     OW16411   2.732   3.438   4.681 -0.2374  0.0771 -0.3200
 1650SOL    HW116412   2.733   3.344   4.697  1.3414  0.2497  0.6388
 1650SOL    HW216413   2.638   3.435   4.664 -0.5961  1.0991  1.4258
 1651SOL     OW16414   3.407   4.094   8.203  0.1042  0.1699 -0.5763
 1651SOL    HW116415   3.496   4.127   8.212  0.5809 -1.1422 -0.5066
 1651SOL    HW216416   3.415   4.000   8.218 -0.6036  0.0657 -0.8425
 1652SOL     OW16417   1.656   2.434   5.663 -0.2452 -0.0340  0.2237
 1652SOL    HW116418   1.568   2.450   5.629 -0.1968  1.2788  0.7095
 1652SOL    HW216419   1.657   2.343   5.690  0.1509  0.0084  0.3588
 1653SOL     OW16420   0.806   1.096   0.599 -0.7832  0.0278 -0.4704
 1653SOL    HW116421   0.876   1.081   0.536 -0.8758 -3.2857  0.2399
 1653SOL    HW216422   0.803   1.008   0.637  0.1877  0.9986  1.9229
 1654SOL     OW16423   1.382   1.757   4.358  0.3472 -0.3169  0.2272
 1654SOL    HW116424   1.452   1.714   4.407 -1.2444 -0.3369  2.5041
 1654SOL    HW216425   1.428   1.799   4.285 -0.9263  0.5874 -0.0615
 1655SOL     OW16426   1.849   3.542   9.801 -0.3579 -0.2972 -0.2215
 1655SOL    HW116427   1.865   3.534   9.707  1.8899 -0.5646  0.2049
 1655SOL    HW216428   1.768   3.492   9.815  0.0969 -0.7821  0.6434
 1656SOL     OW16429   2.968   1.520   9.324  0.3075  0.2211 -0.4378
 1656SOL    HW116430   3.011   1.436   9.310 -0.5145 -0.3967  0.6945
 1656SOL    HW216431   2.876   1.496   9.333  0.1962  0.4744 -0.9524
 1657SOL     OW16432   0.659   2.227   6.436 -0.2686 -0.2772 -0.5049
 1657SOL    HW116433   0.590   2.288   6.411 -0.6313 -1.8059 -3.2651
 1657SOL    HW216434   0.683   2.268   6.519 -1.8380 -2.8843  1.2330
 1658SOL     OW16435   2.355   2.177   6.849  0.1151  0.0327  0.1403
 1658SOL    HW116436   2.392   2.259   6.816  2.0183 -0.6025  0.7076
 1658SOL    HW216437   2.313   2.217   6.925  0.0824 -0.4647  0.3851
 1659SOL     OW16438   4.441   4.610  10.821 -0.0792  0.6550 -0.2213
 1659SOL    HW116439   4.393   4.586  10.741 -0.2482 -1.5356  0.5351
 1659SOL    HW216440   4.366   4.632  10.876  1.2295  1.4699  1.2124
 1660SOL     OW16441   3.758   0.180   4.314  0.4450  0.2121 -0.3543
 1660SOL    HW116442   3.706   0.163   4.392  0.3268 -1.2036 -0.7418
 1660SOL    HW216443   3.789   0.270   4.329  0.3456  0.2464 -0.3552
 1661SOL     OW16444   3.058   2.301   1.085  0.3479 -0.0862  0.2280
 1661SOL    HW116445   3.042   2.257   1.169 -2.5069 -0.0490 -0.2940
 1661SOL    HW216446   3.112   2.230   1.050  1.9195  1.7491 -1.0039
 1662SOL     OW16447   0.613   4.159   8.354 -0.1288 -0.6243 -0.0088
 1662SOL    HW116448   0.620   4.184   8.447 -1.0299 -1.9981  0.4369
 1662SOL    HW216449   0.523   4.181   8.330 -0.9090 -2.3396  1.2710
 1663SOL     OW16450   1.999   3.156  14.012 -0.3270  0.2409  0.2183
 1663SOL    HW116451   1.908   3.183  14.029  0.1788  2.3431 -0.4408
 1663SOL    HW216452   2.041   3.242  14.008 -0.4108  0.2009 -1.3840
 1664SOL     OW16453   4.040   3.228   6.454 -0.5196 -0.6188 -0.5286
 1664SOL    HW116454   4.011   3.137   6.464 -0.2183 -0.6407  0.1325
 1664SOL    HW216455   4.076   3.232   6.365 -3.3759  0.1703 -1.6377
 1665SOL     OW16456   2.612   4.639   4.163  0.0712 -0.6827 -0.4662
 1665SOL    HW116457   2.637   4.578   4.232 -0.6445 -0.4956 -0.0405
 1665SOL    HW216458   2.624   4.719   4.214  2.1629 -0.9194 -0.5793
 1666SOL     OW16459   1.374   3.810   6.774  0.2618  0.0383 -0.3582
 1666SOL    HW116460   1.351   3.824   6.866 -0.0378  0.7688 -0.5511
 1666SOL    HW216461   1.373   3.715   6.762  0.9481  0.2196 -1.8819
 1667SOL     OW16462   1.882   4.137   7.064 -0.0618 -0.7017  0.2978
 1667SOL    HW116463   1.843   4.216   7.100  0.1954 -1.0032  1.2368
 1667SOL    HW216464   1.837   4.073   7.118  1.9797 -2.5508 -0.1883
 1668SOL     OW16465   1.548   1.608   3.109 -0.3871 -0.0813  0.7174
 1668SOL    HW116466   1.539   1.684   3.166 -0.4843 -0.1986  0.8573
 1668SOL    HW216467   1.597   1.549   3.167 -1.1361 -1.8042 -0.3860
 1669SOL     OW16468   1.244   2.381   9.211 -0.6578  0.3243 -0.6632
 1669SOL    HW116469   1.189   2.318   9.164 -1.0873  1.0717 -1.1600
 1669SOL    HW216470   1.281   2.333   9.285 -0.2355  0.4960 -0.7669
 1670SOL     OW16471   2.931   3.000   7.500  0.0775  0.4324  0.4010
 1670SOL    HW116472   2.895   2.912   7.488  1.9642 -0.9557  4.6765
 1670SOL    HW216473   3.023   2.985   7.525  0.4855  1.9353 -0.1973
 1671SOL     OW16474   0.988   0.754  16.802  1.0086 -0.2800  0.6103
 1671SOL    HW116475   0.917   0.699  16.835  2.0494 -0.8251  1.8861
 1671SOL    HW216476   1.040   0.763  16.881  0.9316 -0.9809  0.7453
 1672SOL     OW16477   3.156   0.214   6.723 -0.4105 -0.0683 -0.9017
 1672SOL    HW116478   3.145   0.307   6.703 -2.4612 -0.2469 -0.6699
 1672SOL    HW216479   3.062   0.193   6.721  0.4531 -3.8539 -1.8369
 1673SOL     OW16480   1.097   0.876   5.689 -0.6885 -0.1547  0.4012
 1673SOL    HW116481   1.137   0.793   5.712 -3.3739 -1.5877 -0.0582
 1673SOL    HW216482   1.113   0.936   5.762  1.5180 -1.6082  1.0949
 1674SOL     OW16483   2.185   2.143  13.378 -0.4127 -0.1868 -0.4320
 1674SOL    HW116484   2.154   2.061  13.340  1.4050 -1.7408  1.4274
 1674SOL    HW216485   2.211   2.106  13.463  2.2753  2.9727  0.1510
 1675SOL     OW16486   1.351   0.200   1.259  0.1396 -0.0021 -0.4690
 1675SOL    HW116487   1.376   0.292   1.269 -0.0682 -0.0469  0.4274
 1675SOL    HW216488   1.297   0.187   1.337 -0.6599 -2.7227 -1.4866
 1676SOL     OW16489   3.088   1.091   0.264 -0.8515  0.0329 -0.1251
 1676SOL    HW116490   3.109   1.075   0.356  1.5978  1.9547 -0.3412
 1676SOL    HW216491   3.155   1.155   0.241  0.0300 -0.1173  1.9505
 1677SOL     OW16492   3.697   0.873   8.775 -0.8421 -0.0400  0.3161
 1677SOL    HW116493   3.701   0.788   8.818  0.9006 -0.9696 -1.6822
 1677SOL    HW216494   3.746   0.930   8.834 -1.0130 -1.4028  1.7795
 1678SOL     OW16495   3.928   1.100   3.454  0.2555  0.1346  0.2670
 1678SOL    HW116496   4.016   1.134   3.470  0.9014 -2.6293  2.5516
 1678SOL    HW216497   3.925   1.134   3.364  0.4990 -1.1015 -0.2063
 1679SOL     OW16498   0.744   1.128  16.938 -0.1808 -0.0823 -0.1801
 1679SOL    HW116499   0.780   1.217  16.937 -1.4702  0.4338 -0.3359
 1679SOL    HW216500   0.676   1.147  16.873 -0.1408  0.0296 -0.1889
 1680SOL     OW16501   4.590   3.828   6.622  0.1992 -0.0676  0.5294
 1680SOL    HW116502   4.664   3.771   6.644 -0.4467 -0.4703  1.6511
 1680SOL    HW216503   4.592   3.905   6.679 -0.7003 -2.0883  3.3062
 1681SOL     OW16504   1.357   0.222   3.969 -0.5426 -0.2258  0.2603
 1681SOL    HW116505   1.442   0.180   3.954 -0.1141  0.8360 -0.2246
 1681SOL    HW216506   1.303   0.180   3.902 -1.4427 -0.2102  0.9720
 1682SOL     OW16507   1.810   2.086  11.597 -0.3965 -0.2255 -0.3486
 1682SOL    HW116508   1.779   1.996  11.586 -0.2691 -0.3924  0.6544
 1682SOL    HW216509   1.726   2.125  11.622 -1.4858 -2.2741 -0.8045
 1683SOL     OW16510   1.709   3.658   8.501 -0.0678 -0.0774  0.0520
 1683SOL    HW116511   1.712   3.735   8.558  2.1434  0.6854 -1.0727
 1683SOL    HW216512   1.734   3.590   8.563 -0.2092 -0.5929 -0.4630
 1684SOL     OW16513   0.009   1.327   2.782  0.3670 -0.5513 -0.3979
 1684SOL    HW116514   4.649   1.372   2.781  0.4830 -0.2376  4.3462
 1684SOL    HW216515   4.709   1.255   2.840 -0.3861 -1.9596 -2.4322
 1685SOL     OW16516   3.509   3.824  17.634 -0.6782 -0.2511  0.1396
 1685SOL    HW116517   3.595   3.848  17.601 -1.3411  3.2673  0.9557
 1685SOL    HW216518   3.516   3.814   0.029 -0.4126  2.6281  0.4482
 1686SOL     OW16519   4.484   3.194   3.993  0.3758  0.3056 -0.1157
 1686SOL    HW116520   4.401   3.196   4.040  0.5704  0.4429  0.2275
 1686SOL    HW216521   4.486   3.100   3.975  0.5528  0.8305 -2.7431
 1687SOL     OW16522   3.456   1.418   6.518  0.2887  0.7209 -0.2112
 1687SOL    HW116523   3.399   1.415   6.441 -1.2627  2.1388  0.8885
 1687SOL    HW216524   3.518   1.486   6.490  0.7652  0.4295  0.1276
 1688SOL     OW16525   0.551   0.844   8.378 -0.4456 -0.4306  0.1647
 1688SOL    HW116526   0.641   0.833   8.410 -0.4977 -0.2623  0.3681
 1688SOL    HW216527   0.525   0.921   8.429  0.9595 -0.8948  1.5967
 1689SOL     OW16528   2.713   3.499   7.144 -0.1861 -0.5670 -0.4237
 1689SOL    HW116529   2.795   3.548   7.145 -0.0323 -0.8057 -0.9060
 1689SOL    HW216530   2.662   3.554   7.084  1.7975  0.7374 -0.8923
 1690SOL     OW16531   0.531   3.288   9.213  0.1215  0.0131 -0.3675
 1690SOL    HW116532   0.486   3.369   9.190  2.3023  1.9233  2.0314
 1690SOL    HW216533   0.531   3.310   9.307  0.3564 -2.2573  0.1740
 1691SOL     OW16534   4.223   1.653  17.262 -0.7883  0.3732 -0.5383
 1691SOL    HW116535   4.294   1.714  17.285 -0.9790  0.1590  0.5677
 1691SOL    HW216536   4.149   1.686  17.313  0.3120 -0.3624  1.5364
 1692SOL     OW16537   2.513   0.064   4.632 -0.3299 -0.2537 -0.3397
 1692SOL    HW116538   2.477   0.043   4.718  0.7047  1.2941  0.4873
 1692SOL    HW216539   2.434   0.112   4.608  0.6969  0.7578 -1.7161
 1693SOL     OW16540   0.898   1.320   8.680 -0.2904 -0.4052 -0.4528
 1693SOL    HW116541   0.860   1.244   8.724  0.1057  0.9155  2.1409
 1693SOL    HW216542   0.824   1.368   8.643  1.1735  0.8923 -1.7030
 1694SOL     OW16543   3.274   3.427  12.493  0.3166 -0.2993 -0.4236
 1694SOL    HW116544   3.218   3.496  12.457  1.7950  0.9009 -0.4065
 1694SOL    HW216545   3.238   3.402  12.578 -0.0824  0.1442 -0.4626
 1695SOL     OW16546   3.855   2.255  14.035  0.3033  0.2799  0.0389
 1695SOL    HW116547   3.924   2.322  14.034 -0.7491  1.4125  4.2354
 1695SOL    HW216548   3.818   2.261  14.123  0.5876  0.6673  0.1328
 1696SOL     OW16549   0.028   4.488   5.583 -0.4458  0.2957 -0.7307
 1696SOL    HW116550   0.063   4.450   5.502 -0.5268  0.8761 -1.0400
 1696SOL    HW216551   0.051   4.581   5.578  0.6384  0.1545  1.7100
 1697SOL     OW16552   1.676   2.680   3.149 -0.1699  0.1457 -0.0751
 1697SOL    HW116553   1.691   2.662   3.242 -0.7512  1.3542  0.2587
 1697SOL    HW216554   1.598   2.631   3.123 -0.9562 -0.0808  2.6447
 1698SOL     OW16555   3.677   4.363   6.820  0.4744  0.2836  0.0955
 1698SOL    HW116556   3.599   4.312   6.797  1.8486 -0.8952 -1.9970
 1698SOL    HW216557   3.743   4.294   6.816  2.1757  1.8943  0.7230
 1699SOL     OW16558   3.536   2.180   3.622 -0.5038 -0.0871 -0.0801
 1699SOL    HW116559   3.497   2.140   3.544 -0.8162 -2.7771  1.4472
 1699SOL    HW216560   3.528   2.270   3.591 -2.2396 -0.1903  0.0493
 1700SOL     OW16561   0.190   2.995   4.353  0.2235 -0.1572 -0.2398
 1700SOL    HW116562   0.257   3.000   4.285 -1.8400 -0.4941 -2.3062
 1700SOL    HW216563   0.143   3.079   4.347  0.5718 -0.0860 -1.9718
 1701SOL     OW16564   3.661   3.302  12.117  0.0228 -0.1132  0.7237
 1701SOL    HW116565   3.699   3.220  12.147 -1.5670 -0.6738  1.1564
 1701SOL    HW216566   3.613   3.324  12.196 -1.5732 -1.2558  0.0575
 1702SOL     OW16567   0.750   1.532   7.087  0.2835 -0.0065  0.1325
 1702SOL    HW116568   0.805   1.588   7.033 -0.6360  0.5017 -0.2919
 1702SOL    HW216569   0.689   1.601   7.112  0.7945  0.1126  1.0206
 1703SOL     OW16570   2.717   0.365   7.232 -0.1569 -0.3501 -0.7413
 1703SOL    HW116571   2.775   0.440   7.220 -0.8337  0.5608  1.8998
 1703SOL    HW216572   2.768   0.303   7.284  2.0179  1.8990 -0.1664
 1704SOL     OW16573   0.757   1.288   0.016 -0.5872  0.2122  0.0329
 1704SOL    HW116574   0.792   1.215   0.067 -0.2047  0.1222 -0.3614
 1704SOL    HW216575   0.665   1.269   0.036 -0.2049 -1.5121  0.1275
 1705SOL     OW16576   1.420   2.319   4.016  0.1544 -0.2194 -1.0172
 1705SOL    HW116577   1.391   2.265   4.090 -0.4113 -0.4747 -1.4189
 1705SOL    HW216578   1.467   2.257   3.961 -1.0442 -0.4383 -1.8142
 1706SOL     OW16579   2.657   1.934   8.772 -0.4805 -0.6342 -0.1740
 1706SOL    HW116580   2.563   1.918   8.787 -0.8945  1.7212 -0.2694
 1706SOL    HW216581   2.671   1.871   8.702 -0.2225 -1.9535  1.0484
 1707SOL     OW16582   0.425   3.763   6.813 -0.3427  0.6536  0.0555
 1707SOL    HW116583   0.390   3.852   6.809 -1.4678  0.1847 -0.4761
 1707SOL    HW216584   0.415   3.746   6.906  0.1938 -2.8795 -0.5406
 1708SOL     OW16585   1.489   0.472   1.255  0.0720  0.1934  0.2519
 1708SOL    HW116586   1.580   0.447   1.239 -0.2089 -0.4542 -0.3223
 1708SOL    HW216587   1.487   0.494   1.349  0.9349  0.2963  0.2468
 1709SOL     OW16588   1.427   0.527   1.502  0.4153 -0.7737 -0.2864
 1709SOL    HW116589   1.390   0.608   1.466 -0.0775  0.0709  2.0962
 1709SOL    HW216590   1.375   0.511   1.581 -0.6378 -0.1200 -0.8491
 1710SOL     OW16591   0.232   0.772   7.018 -0.0036 -0.0933  0.1365
 1710SOL    HW116592   0.188   0.809   7.094 -0.8259 -1.4594  0.3242
 1710SOL    HW216593   0.282   0.703   7.062 -0.0407 -1.9767 -2.7507
 1711SOL     OW16594   3.707   2.342   3.278  0.3283  0.1635  0.3321
 1711SOL    HW116595   3.750   2.372   3.198  2.1055 -0.0597  1.1955
 1711SOL    HW216596   3.684   2.257   3.242 -0.7533  0.4051  0.4539
 1712SOL     OW16597   1.361   1.836  14.761 -0.3490  0.1670 -0.3374
 1712SOL    HW116598   1.368   1.884  14.843  1.1965 -2.1816  0.8914
 1712SOL    HW216599   1.306   1.763  14.788 -0.3129  0.5589  0.7864
 1713SOL     OW16600   0.969   2.197   4.141 -0.5673 -0.4028 -0.2185
 1713SOL    HW116601   0.982   2.160   4.053 -0.3285  0.8723 -0.7280
 1713SOL    HW216602   0.966   2.123   4.200 -1.5540  1.3549  1.9281
 1714SOL     OW16603   0.238   4.217  10.335 -0.0585 -0.1158 -0.4202
 1714SOL    HW116604   0.292   4.183  10.406 -1.0397 -0.8803 -0.0414
 1714SOL    HW216605   0.284   4.198  10.254  2.7232 -4.9409  2.2835
 1715SOL     OW16606   3.663   3.136   0.627 -0.0087 -0.3433 -0.0598
 1715SOL    HW116607   3.722   3.210   0.636  1.0503 -1.1195 -0.6705
 1715SOL    HW216608   3.729   3.073   0.597  0.6169  1.0043 -1.5118
 1716SOL     OW16609   2.419   2.057   8.599  0.0248 -0.4197 -0.8392
 1716SOL    HW116610   2.421   2.045   8.504  1.0623  0.2264 -0.8934
 1716SOL    HW216611   2.415   2.152   8.603  0.9036 -0.4335  0.2819
 1717SOL     OW16612   1.397   3.475  17.048 -0.0581 -0.0284 -0.2726
 1717SOL    HW116613   1.486   3.491  17.078  0.1828 -0.8925 -0.5169
 1717SOL    HW216614   1.401   3.420  16.970 -0.9159 -1.7845  0.9363
 1718SOL     OW16615   2.028   3.247  16.975 -0.5098  0.2173 -0.0687
 1718SOL    HW116616   2.010   3.313  16.908 -0.3467  0.6163  0.2843
 1718SOL    HW216617   1.943   3.204  16.961  1.0097 -3.3647  1.8213
 1719SOL     OW16618   0.877   1.159   8.144  0.0971  0.2319 -0.1410
 1719SOL    HW116619   0.809   1.226   8.142  1.7214  1.9164  0.4518
 1719SOL    HW216620   0.828   1.077   8.136 -0.6666  0.4573  2.5219
 1720SOL     OW16621   3.089   0.003   5.238 -0.1880 -0.1757  0.2932
 1720SOL    HW116622   3.047   0.074   5.190  1.4765 -1.0842 -2.4915
 1720SOL    HW216623   3.075   0.015   5.332 -1.8165  0.8448 -0.0933
 1721SOL     OW16624   0.714   2.856   2.074 -0.2584 -0.4342 -0.6365
 1721SOL    HW116625   0.777   2.921   2.106 -0.1424 -0.5066 -0.7173
 1721SOL    HW216626   0.760   2.772   2.079 -0.0677 -0.1400  2.4419
 1722SOL     OW16627   0.274   3.534   7.862  0.2256 -0.3579  0.6718
 1722SOL    HW116628   0.328   3.503   7.934 -0.0970 -0.9239  0.6713
 1722SOL    HW216629   0.330   3.521   7.786  0.8561 -0.9729  1.2413
 1723SOL     OW16630   0.612   4.414   1.648 -0.5021  0.5787 -0.0058
 1723SOL    HW116631   0.584   4.426   1.558 -1.3573  0.9409  0.3124
 1723SOL    HW216632   0.538   4.401   1.708  0.3065 -1.3100  0.5884
 1724SOL     OW16633   0.027   0.609   5.731  0.1652  0.1734  0.0305
 1724SOL    HW116634   0.088   0.683   5.733  1.5996 -1.0030  0.2190
 1724SOL    HW216635   0.062   0.562   5.807 -1.9245  1.5920  1.8811
 1725SOL     OW16636   3.069   0.089   2.603  0.7484 -0.0899  0.4223
 1725SOL    HW116637   3.004   0.131   2.659 -0.0038 -0.6503 -0.0429
 1725SOL    HW216638   3.132   0.056   2.668  0.0424  1.0171  1.6707
 1726SOL     OW16639   2.400   4.547  15.428  0.3033  0.0320  0.0143
 1726SOL    HW116640   2.352   4.629  15.425  0.0697 -0.1103 -0.1580
 1726SOL    HW216641   2.347   4.490  15.483  1.8799 -2.2397 -0.7691
 1727SOL     OW16642   0.359   1.314  12.985  0.1519  0.3505  0.9201
 1727SOL    HW116643   0.450   1.315  12.957 -0.2039 -0.1282 -0.2497
 1727SOL    HW216644   0.363   1.392  13.040  2.1536  2.5611 -2.4092
 1728SOL     OW16645   1.801   0.582   9.717  0.0515 -0.2829  0.0240
 1728SOL    HW116646   1.732   0.603   9.654  0.9802 -1.0060 -1.2231
 1728SOL    HW216647   1.828   0.668   9.751 -1.9858 -0.6926  2.7399
 1729SOL     OW16648   0.912   1.016   3.179  0.4937  0.0785 -0.5144
 1729SOL    HW116649   0.922   1.029   3.084 -1.3925 -0.3178 -0.7645
 1729SOL    HW216650   0.849   1.087   3.194 -1.5505 -1.8324 -0.0093
 1730SOL     OW16651   0.346   2.022   1.158  0.0750  0.2072  0.2808
 1730SOL    HW116652   0.358   2.051   1.248  0.4468  0.0281  0.2875
 1730SOL    HW216653   0.374   1.931   1.160 -0.4997  0.0676  1.7896
 1731SOL     OW16654   1.799   3.489  10.858 -0.2107 -0.1527  0.4293
 1731SOL    HW116655   1.705   3.472  10.846 -0.3435  0.2861  0.8789
 1731SOL    HW216656   1.797   3.565  10.915  0.3151  0.9288 -0.9900
 1732SOL     OW16657   2.233   0.568   8.873 -0.0800 -0.0913 -0.0651
 1732SOL    HW116658   2.189   0.517   8.804 -1.4480  0.6338  0.2741
 1732SOL    HW216659   2.257   0.491   8.925 -3.0730 -0.3196  0.9801
 1733SOL     OW16660   0.249   1.085   2.808 -0.0602  0.7455  0.2459
 1733SOL    HW116661   0.241   1.061   2.901  1.4492 -0.1092  0.1657
 1733SOL    HW216662   0.277   1.176   2.816  1.0364  0.3513  0.9052
 1734SOL     OW16663   3.025   2.686   5.575  0.0428 -0.0289 -0.5322
 1734SOL    HW116664   3.078   2.721   5.503  1.7302  0.8931  1.1667
 1734SOL    HW216665   3.001   2.599   5.543  3.8821 -0.7429 -1.4892
 1735SOL     OW16666   4.233   2.726   1.862 -0.7302  0.5025  0.2956
 1735SOL    HW116667   4.234   2.818   1.887  1.0570 -1.0464  5.9066
 1735SOL    HW216668   4.318   2.725   1.818 -1.9707 -1.5864 -2.0621
 1736SOL     OW16669   0.012   4.322   2.044  0.7963  0.7795 -0.2687
 1736SOL    HW116670   4.657   4.365   2.077  2.3482  2.8985  0.7331
 1736SOL    HW216671   0.047   4.285   2.125 -0.9681 -0.9929 -0.3099
 1737SOL     OW16672   1.394   2.575   6.971  0.2339 -0.2039  0.2824
 1737SOL    HW116673   1.348   2.552   6.891  1.9923 -1.5525 -0.3213
 1737SOL    HW216674   1.476   2.609   6.935  0.1519 -2.1090 -1.6515
 1738SOL     OW16675   0.696   0.331   4.882  0.4480 -0.1394  0.2166
 1738SOL    HW116676   0.772   0.285   4.848  0.6934 -0.9264  1.8287
 1738SOL    HW216677   0.731   0.418   4.902 -0.8156 -0.0414  2.0471
 1739SOL     OW16678   2.885   0.272   5.947 -0.0991  0.3098 -0.6978
 1739SOL    HW116679   2.905   0.365   5.946  1.7123 -0.0610 -0.3047
 1739SOL    HW216680   2.830   0.257   5.870 -0.5350  1.0912 -0.5341
 1740SOL     OW16681   3.302   2.620   9.337  0.4585 -0.0792  0.1081
 1740SOL    HW116682   3.274   2.533   9.309 -0.1015  0.0236  0.3580
 1740SOL    HW216683   3.236   2.681   9.304  0.6987  1.0951  1.7882
 1741SOL     OW16684   0.431   1.873   2.396 -0.5292 -0.1267 -0.3322
 1741SOL    HW116685   0.522   1.848   2.409 -0.4385  1.0065  1.1919
 1741SOL    HW216686   0.434   1.873   2.300  1.2928  0.5142 -0.2668
 1742SOL     OW16687   2.363   1.041  17.142  0.0511  0.0079  0.0368
 1742SOL    HW116688   2.408   1.003  17.068 -2.7263 -0.6054 -1.3404
 1742SOL    HW216689   2.390   1.133  17.138 -2.0029  0.6105 -0.0347
 1743SOL     OW16690   2.640   3.744  10.168  0.0661  0.2063  0.3065
 1743SOL    HW116691   2.734   3.737  10.151 -0.0768  0.2275 -0.4727
 1743SOL    HW216692   2.640   3.658  10.209 -2.4007  0.7724  1.4842
 1744SOL     OW16693   1.195   3.710   7.557  0.7672 -0.5214  0.7718
 1744SOL    HW116694   1.199   3.635   7.616  0.5301  0.5199  2.0961
 1744SOL    HW216695   1.124   3.761   7.595  1.3583  0.3183  0.7424
 1745SOL     OW16696   2.933   1.360   6.193  0.1339 -0.4011  0.3505
 1745SOL    HW116697   2.908   1.318   6.275 -2.8405  0.5993 -0.0453
 1745SOL    HW216698   2.872   1.434   6.198 -1.6197 -1.8324 -0.0603
 1746SOL     OW16699   3.477   4.238   7.222 -0.8653  0.2662 -0.2520
 1746SOL    HW116700   3.504   4.306   7.160 -2.6459  0.5156 -0.7697
 1746SOL    HW216701   3.384   4.230   7.202 -0.8971 -1.4621  0.5858
 1747SOL     OW16702   2.358   0.764   4.482  0.0133 -0.3196 -0.1112
 1747SOL    HW116703   2.395   0.698   4.424 -0.6244  0.1539 -1.0641
 1747SOL    HW216704   2.382   0.842   4.431  1.9651  0.8020  2.4985
 1748SOL     OW16705   3.154   3.357   2.704 -0.2322  0.1742  0.0997
 1748SOL    HW116706   3.152   3.408   2.622  1.5105  2.8126  1.7204
 1748SOL    HW216707   3.184   3.272   2.672  0.3813  1.3042 -2.3726
 1749SOL     OW16708   1.262   4.524  16.035 -0.0524 -0.7969 -0.2128
 1749SOL    HW116709   1.169   4.505  16.045 -0.2153 -0.9073 -1.9643
 1749SOL    HW216710   1.280   4.558  16.122  0.3290 -1.9750  0.1745
 1750SOL     OW16711   4.240   1.329  10.715 -0.6874  0.0673  0.0377
 1750SOL    HW116712   4.224   1.392  10.785  1.1911 -0.0433  0.5603
 1750SOL    HW216713   4.233   1.245  10.761 -0.2186 -0.2565 -0.4733
 1751SOL     OW16714   2.551   3.161   6.194  0.9170 -0.0945 -0.1331
 1751SOL    HW116715   2.544   3.199   6.106  0.0560  1.2519  0.5221
 1751SOL    HW216716   2.487   3.219   6.235 -0.9314 -0.7072 -2.1318
 1752SOL     OW16717   3.622   4.438   7.534  0.1323  0.0544 -0.2833
 1752SOL    HW116718   3.558   4.467   7.468  0.6092 -0.1163 -0.8280
 1752SOL    HW216719   3.568   4.450   7.612 -0.7543 -1.0044 -0.7415
 1753SOL     OW16720   0.255   0.909  14.702 -0.3632 -0.3316  0.4718
 1753SOL    HW116721   0.164   0.916  14.728  0.2083 -0.5306  2.5132
 1753SOL    HW216722   0.292   0.993  14.729 -0.4181 -0.1300 -0.0760
 1754SOL     OW16723   1.313   0.256   4.361 -0.0289  0.5179  0.1401
 1754SOL    HW116724   1.338   0.233   4.450  1.3470 -1.1825 -0.6899
 1754SOL    HW216725   1.381   0.321   4.341 -0.1758  1.6687  3.4429
 1755SOL     OW16726   4.339   2.119   5.212  0.0261  0.2463 -0.6451
 1755SOL    HW116727   4.434   2.127   5.214  0.2418 -1.9214 -2.0986
 1755SOL    HW216728   4.319   2.174   5.137 -1.7410  0.6984  0.1604
 1756SOL     OW16729   1.530   0.189   5.444  0.7297  0.0428 -0.0634
 1756SOL    HW116730   1.539   0.099   5.476  0.3355 -0.4783 -1.4374
 1756SOL    HW216731   1.541   0.179   5.350 -2.5054 -1.7129 -0.2632
 1757SOL     OW16732   2.949   3.725  12.655  0.0185 -0.2359  0.5614
 1757SOL    HW116733   3.009   3.732  12.729 -0.2550 -1.6967  0.9266
 1757SOL    HW216734   2.909   3.811  12.649  0.8852  0.1165 -0.1778
 1758SOL     OW16735   0.900   0.171   5.169  0.0808  0.7597 -1.4422
 1758SOL    HW116736   0.846   0.101   5.133  0.3259  0.1038 -0.5334
 1758SOL    HW216737   0.848   0.250   5.152  0.7531  1.6132  0.5060
 1759SOL     OW16738   0.456   0.864   2.194 -0.4041 -0.3334 -0.4350
 1759SOL    HW116739   0.369   0.904   2.201 -0.9694 -1.5745 -0.5206
 1759SOL    HW216740   0.486   0.909   2.115 -1.1755  0.2816 -0.3813
 1760SOL     OW16741   0.987   4.027  17.243  0.4375 -0.2954  0.0634
 1760SOL    HW116742   0.968   3.980  17.162 -2.2552  1.4673 -0.3432
 1760SOL    HW216743   0.938   3.966  17.298 -0.8156  0.9501  0.3436
 1761SOL     OW16744   1.460   2.630   7.952 -0.1001 -0.8026 -0.2014
 1761SOL    HW116745   1.442   2.724   7.940 -1.6905 -1.1242 -0.3050
 1761SOL    HW216746   1.457   2.614   8.046 -0.4680 -1.4680 -0.3272
 1762SOL     OW16747   1.899   0.806   2.579  0.2720 -0.0591 -0.4897
 1762SOL    HW116748   1.963   0.824   2.648 -1.0352  1.7770  0.2765
 1762SOL    HW216749   1.932   0.730   2.533 -1.5192 -1.2978  0.2482
 1763SOL     OW16750   2.716   4.497   0.918 -0.3363  0.1616 -0.7725
 1763SOL    HW116751   2.632   4.528   0.886  0.8816  2.8502 -1.3339
 1763SOL    HW216752   2.743   4.568   0.977 -0.7516 -0.6033  0.3424
 1764SOL     OW16753   1.915   2.860   7.257  0.3387  0.4409 -0.2645
 1764SOL    HW116754   1.823   2.888   7.262 -0.1588 -1.2784 -0.0498
 1764SOL    HW216755   1.899   2.770   7.229  0.8670  0.2150  0.1629
 1765SOL     OW16756   3.571   1.195  14.158 -0.5982 -0.1905  0.1111
 1765SOL    HW116757   3.546   1.171  14.247  0.5201  2.3642  1.1249
 1765SOL    HW216758   3.665   1.210  14.168 -0.2997 -2.3022  0.4326
 1766SOL     OW16759   4.628   3.619   2.184  0.2705 -0.1118  0.1393
 1766SOL    HW116760   4.598   3.537   2.223  1.1304 -1.1155 -1.2926
 1766SOL    HW216761   4.600   3.608   2.093  1.7556  0.5335 -0.3962
 1767SOL     OW16762   4.647   3.060  12.452  0.0283  0.0517  0.6185
 1767SOL    HW116763   4.720   3.120  12.436  0.1961 -0.3325 -0.0579
 1767SOL    HW216764   4.600   3.092  12.529 -1.0631  0.9759 -0.4215
 1768SOL     OW16765   0.845   1.341  14.795  0.0927 -0.6218  0.7831
 1768SOL    HW116766   0.793   1.418  14.819 -1.0256 -0.5540 -1.8507
 1768SOL    HW216767   0.885   1.367  14.712  2.2185 -0.3662  1.8783
 1769SOL     OW16768   0.193   2.170  11.041 -0.4524 -0.2070 -0.0246
 1769SOL    HW116769   0.176   2.087  10.995 -2.5139 -0.1831  0.7128
 1769SOL    HW216770   0.274   2.158  11.090 -1.2316  2.2455  1.8207
 1770SOL     OW16771   2.656   0.371   2.813  0.0057 -0.3907  0.3157
 1770SOL    HW116772   2.561   0.354   2.811 -0.4447  1.9812  2.1759
 1770SOL    HW216773   2.660   0.407   2.724  0.5877 -0.9355  0.1232
 1771SOL     OW16774   2.677   0.972  15.215  0.0120 -0.1107 -0.6298
 1771SOL    HW116775   2.693   1.065  15.202 -2.4017  0.1796 -1.5055
 1771SOL    HW216776   2.585   0.969  15.239 -0.0306  0.3984 -0.7306
 1772SOL     OW16777   3.562   0.330   1.202  0.0656 -0.6186  0.3472
 1772SOL    HW116778   3.473   0.299   1.216 -0.6491  2.1029  1.7747
 1772SOL    HW216779   3.571   0.398   1.268 -0.5318  0.4477 -0.6711
 1773SOL     OW16780   3.662   3.009   5.156 -0.7129 -0.0591  0.2064
 1773SOL    HW116781   3.737   3.038   5.208 -0.2670  0.4694 -0.7213
 1773SOL    HW216782   3.671   3.076   5.088  2.3395  0.1039  0.7585
 1774SOL     OW16783   1.622   0.054  14.836  0.4678 -0.2802 -0.3285
 1774SOL    HW116784   1.708   0.088  14.813  0.2884  1.3835  1.5081
 1774SOL    HW216785   1.580   0.130  14.797  1.2454  0.7471  0.8523
 1775SOL     OW16786   2.254   0.413   5.933  0.1244 -0.7125 -0.2200
 1775SOL    HW116787   2.163   0.438   5.919  0.6439  1.0086 -0.6504
 1775SOL    HW216788   2.230   0.332   5.977 -2.9825 -0.1972 -1.0132
 1776SOL     OW16789   0.956   2.017   8.106 -0.4703 -0.2525 -0.3037
 1776SOL    HW116790   1.047   2.038   8.124 -0.8785  0.2653  1.2390
 1776SOL    HW216791   0.914   2.101   8.084 -0.2590  0.3007  1.3827
 1777SOL     OW16792   3.769   1.609   1.837  0.2074 -0.3331  0.0453
 1777SOL    HW116793   3.781   1.539   1.901  0.1559  1.1652  1.7068
 1777SOL    HW216794   3.685   1.585   1.798 -0.7034 -1.9411  3.0010
 1778SOL     OW16795   2.727   3.047  17.544  0.4008 -0.5612 -0.2526
 1778SOL    HW116796   2.779   3.047  17.625 -2.4607  0.4449  1.5957
 1778SOL    HW216797   2.652   2.989  17.558  0.4613 -0.5410  0.1502
 1779SOL     OW16798   3.286   2.544   0.510  0.4551  0.2670 -0.0050
 1779SOL    HW116799   3.259   2.567   0.422 -1.3549 -1.0551  0.2152
 1779SOL    HW216800   3.315   2.458   0.480  0.6534  0.4541 -0.3419
 1780SOL     OW16801   1.723   3.201   9.013  0.0098  0.4528 -0.1418
 1780SOL    HW116802   1.681   3.189   8.928  0.2484 -2.2730  0.1164
 1780SOL    HW216803   1.725   3.112   9.049 -2.0145  0.0810 -0.9556
 1781SOL     OW16804   3.119   3.800  13.644 -0.8533  0.2272  0.3104
 1781SOL    HW116805   3.077   3.733  13.698 -0.3362 -0.1859  0.1954
 1781SOL    HW216806   3.077   3.879  13.679 -1.4224 -1.0275  2.4311
 1782SOL     OW16807   4.688   3.573   7.922  0.5840  0.4746  0.7661
 1782SOL    HW116808   4.687   3.532   7.836 -0.2363 -0.6740  1.3201
 1782SOL    HW216809   0.054   3.561   7.952  0.6358 -0.3378  0.2976
 1783SOL     OW16810   2.709   4.661   1.779  0.5400  0.9508  0.3994
 1783SOL    HW116811   2.789   4.628   1.820 -0.9252 -3.2119 -0.0590
 1783SOL    HW216812   2.669   4.578   1.753  2.5395 -0.4136  1.6937
 1784SOL     OW16813   0.636   1.577   8.858 -0.0845  0.4565  0.7364
 1784SOL    HW116814   0.626   1.611   8.947 -1.4561 -1.0195  1.1617
 1784SOL    HW216815   0.729   1.554   8.868  0.4110  1.7007 -1.2278
 1785SOL     OW16816   2.934   2.515  12.805 -0.2349  0.1235 -0.0394
 1785SOL    HW116817   3.012   2.549  12.848 -0.0972 -1.8947  1.2991
 1785SOL    HW216818   2.867   2.581  12.825 -1.0360 -0.9609  0.8318
 1786SOL     OW16819   1.167   0.648   2.691 -0.0396  0.0095  0.0034
 1786SOL    HW116820   1.088   0.702   2.704 -0.5020 -0.6297 -0.1701
 1786SOL    HW216821   1.219   0.713   2.644  1.1440 -1.2931 -0.4867
 1787SOL     OW16822   3.810   2.137   5.035  0.1915  0.2200 -0.0957
 1787SOL    HW116823   3.754   2.116   5.110 -0.4063  2.2162  0.0252
 1787SOL    HW216824   3.757   2.205   4.994 -0.2374  0.3524  0.6749
 1788SOL     OW16825   3.662   1.468   8.538  0.1720  1.0078 -0.2415
 1788SOL    HW116826   3.575   1.488   8.572 -0.6314 -0.0529 -1.7008
 1788SOL    HW216827   3.652   1.487   8.445 -2.8601 -1.5263 -0.4145
 1789SOL     OW16828   3.469   0.594   8.903 -0.0707 -0.1369 -0.1105
 1789SOL    HW116829   3.554   0.635   8.915 -1.4656  2.9961 -0.7981
 1789SOL    HW216830   3.466   0.572   8.810  1.7274 -0.7636 -0.0192
 1790SOL     OW16831   0.698   4.416  15.821 -0.1155 -0.1763  0.6787
 1790SOL    HW116832   0.606   4.401  15.800 -0.0191 -2.4693  1.9068
 1790SOL    HW216833   0.726   4.435  15.732  1.8552  1.2423  1.5873
 1791SOL     OW16834   0.639   2.638   6.261  0.1588 -1.0786  0.2857
 1791SOL    HW116835   0.701   2.628   6.333  0.7554 -1.7472 -0.3360
 1791SOL    HW216836   0.682   2.583   6.196  0.4596 -1.1361  0.5341
 1792SOL     OW16837   1.222   4.294  11.666 -0.2883 -0.1054 -0.0954
 1792SOL    HW116838   1.259   4.227  11.609  0.1625 -0.9379  1.1800
 1792SOL    HW216839   1.144   4.331  11.625 -1.4808 -2.2643  0.2331
 1793SOL     OW16840   1.180   1.992   3.381  0.3408  0.1370  0.7813
 1793SOL    HW116841   1.089   1.967   3.397  0.0897  0.3402 -0.3203
 1793SOL    HW216842   1.167   2.070   3.327  0.8732  0.1061  0.6122
 1794SOL     OW16843   1.502   3.595   4.502 -0.7332  0.1625 -0.2683
 1794SOL    HW116844   1.545   3.658   4.444  0.8798 -1.4424 -0.7962
 1794SOL    HW216845   1.462   3.531   4.442  0.1900 -0.3217 -0.3575
 1795SOL     OW16846   4.406   4.162   5.150  0.0160  0.6523 -0.6368
 1795SOL    HW116847   4.367   4.198   5.071 -0.1844  0.0078 -0.8272
 1795SOL    HW216848   4.489   4.121   5.126  0.1333  0.8831 -0.6302
 1796SOL     OW16849   4.668   2.921  15.078  0.2300  0.4291  0.4905
 1796SOL    HW116850   4.587   2.930  15.028 -0.2978 -4.1858  0.5437
 1796SOL    HW216851   4.673   2.826  15.082  0.5392  0.3490 -1.6537
 1797SOL     OW16852   2.107   4.607   4.902 -0.1092 -0.5730  0.3699
 1797SOL    HW116853   2.156   4.592   4.983  0.1955  1.2660  0.5267
 1797SOL    HW216854   2.019   4.585   4.933 -0.1304 -1.7072 -0.4749
 1798SOL     OW16855   3.225   2.036  16.543  0.2412 -0.4321  0.1652
 1798SOL    HW116856   3.138   1.996  16.533 -0.3163  1.1629 -1.3753
 1798SOL    HW216857   3.270   1.968  16.593  1.1133  0.6660  0.8736
 1799SOL     OW16858   4.708   4.552   8.767 -0.3182 -0.7950  0.3643
 1799SOL    HW116859   0.032   4.537   8.849 -1.5682  0.1472  1.2809
 1799SOL    HW216860   4.666   4.633   8.795  0.5956 -0.1957 -0.0216
 1800SOL     OW16861   3.855   0.797   2.274  0.3852 -0.2255 -0.0345
 1800SOL    HW116862   3.878   0.861   2.341 -0.3811 -0.4150  0.4038
 1800SOL    HW216863   3.919   0.733   2.304  0.1546  0.2053  1.3557
 1801SOL     OW16864   4.473   0.597  17.048  0.6869 -0.2645  0.1707
 1801SOL    HW116865   4.475   0.649  17.129 -2.2963  1.8546 -1.1025
 1801SOL    HW216866   4.382   0.567  17.050  0.0051  1.6649 -1.5078
 1802SOL     OW16867   0.305   2.092  11.628 -0.2518  0.1972 -0.2264
 1802SOL    HW116868   0.329   2.112  11.718  1.3863  0.5978 -0.7654
 1802SOL    HW216869   0.237   2.025  11.640 -1.7505  1.6561 -0.4681
 1803SOL     OW16870   3.221   3.881   3.971 -0.0900  0.1615  0.0782
 1803SOL    HW116871   3.159   3.808   3.978  0.3934 -0.0241  2.4509
 1803SOL    HW216872   3.305   3.842   3.995 -1.4952 -1.5714  2.1843
 1804SOL     OW16873   4.411   4.343   0.815 -0.2359 -0.6410  0.1922
 1804SOL    HW116874   4.402   4.284   0.741 -0.3533 -1.1578  0.6189
 1804SOL    HW216875   4.457   4.416   0.774  0.5110 -1.4882 -0.4857
 1805SOL     OW16876   4.546   0.501   8.101  0.8116 -0.5892  0.2081
 1805SOL    HW116877   4.523   0.475   8.190 -1.8127  1.5978  0.1665
 1805SOL    HW216878   4.606   0.571   8.129  0.5221 -1.2310  2.4277
 1806SOL     OW16879   2.608   1.635   7.187  0.4544 -0.3202 -0.2154
 1806SOL    HW116880   2.693   1.678   7.195  0.9024 -0.7960 -2.6733
 1806SOL    HW216881   2.565   1.707   7.235 -0.8132 -0.5697 -0.9843
 1807SOL     OW16882   4.082   1.008   3.812 -0.2830  0.4190 -0.0524
 1807SOL    HW116883   4.129   0.984   3.732 -1.6492 -1.0610 -0.4068
 1807SOL    HW216884   4.138   1.071   3.858 -0.4167 -1.3001  2.4682
 1808SOL     OW16885   1.806   3.627  12.241 -0.3439 -0.2055  0.2254
 1808SOL    HW116886   1.786   3.533  12.241  0.3988 -0.3584  0.4850
 1808SOL    HW216887   1.838   3.640  12.330 -0.7706 -1.7909  0.6111
 1809SOL     OW16888   3.139   2.510  13.042 -0.5888  0.4268  0.4318
 1809SOL    HW116889   3.136   2.483  13.133  1.0468 -1.9180 -0.2109
 1809SOL    HW216890   3.073   2.580  13.050 -0.8057 -0.0075  2.4495
 1810SOL     OW16891   0.807   3.127  11.835  0.0189 -0.1194  0.6104
 1810SOL    HW116892   0.732   3.181  11.858 -0.1737 -0.1520  0.0759
 1810SOL    HW216893   0.874   3.195  11.834 -0.2360  0.1545  2.7036
 1811SOL     OW16894   4.497   3.679   5.457 -0.0470 -0.9016  0.0441
 1811SOL    HW116895   4.419   3.623   5.455 -1.0562  0.5229 -0.4940
 1811SOL    HW216896   4.565   3.614   5.470  0.9169 -0.1686 -1.3581
 1812SOL     OW16897   2.144   2.592   3.107  0.2859 -0.4439 -0.4845
 1812SOL    HW116898   2.069   2.534   3.119  0.1664 -0.0387  0.7692
 1812SOL    HW216899   2.103   2.675   3.082 -0.5461 -0.8465 -0.4363
 1813SOL     OW16900   0.366   4.211   2.955  0.5013  0.2185  0.0077
 1813SOL    HW116901   0.407   4.204   3.041 -1.8181 -0.3637  1.0469
 1813SOL    HW216902   0.383   4.122   2.925  0.2564 -0.6898  2.6433
 1814SOL     OW16903   1.496   4.593   9.185 -0.1948  0.0711  0.1514
 1814SOL    HW116904   1.467   4.632   9.102  1.2917  0.3706 -0.2348
 1814SOL    HW216905   1.562   4.532   9.153 -1.0244 -1.1672  0.7799
 1815SOL     OW16906   0.281   0.763   3.693 -0.5677  0.3477  0.0214
 1815SOL    HW116907   0.206   0.756   3.752 -1.3334 -0.4707 -1.0479
 1815SOL    HW216908   0.330   0.817   3.755  0.5372 -1.1031  0.3987
 1816SOL     OW16909   0.188   4.562   3.790 -0.2368 -0.0331  0.2022
 1816SOL    HW116910   0.249   4.532   3.857 -1.3664 -1.7221  0.4766
 1816SOL    HW216911   0.192   4.495   3.722  0.2489 -0.0059  0.2067
 1817SOL     OW16912   2.616   3.705   3.214 -0.7139 -0.1359 -0.1783
 1817SOL    HW116913   2.539   3.697   3.157 -1.3025  0.0717  0.5810
 1817SOL    HW216914   2.652   3.617   3.215 -0.1356  0.1058 -0.0518
 1818SOL     OW16915   4.298   0.519   6.655  0.1343 -0.0874  0.0170
 1818SOL    HW116916   4.212   0.561   6.663  0.2010 -0.1503  1.1359
 1818SOL    HW216917   4.304   0.489   6.746 -0.5830  0.2385  0.1752
 1819SOL     OW16918   1.461   0.923  11.142 -0.3310  0.4034  0.5128
 1819SOL    HW116919   1.377   0.882  11.166 -0.3453 -0.3138 -0.7665
 1819SOL    HW216920   1.438   0.969  11.061  1.0581  1.0676  0.5024
 1820SOL     OW16921   2.889   1.531   4.008  0.1276  1.2567 -0.1716
 1820SOL    HW116922   2.939   1.604   3.971  0.8363  0.2409 -1.2180
 1820SOL    HW216923   2.952   1.484   4.062 -1.0673 -0.7167 -0.4916
 1821SOL     OW16924   0.418   0.083   7.179  0.1707  0.0958 -0.2289
 1821SOL    HW116925   0.492   0.142   7.192 -1.8856  2.4523  0.5305
 1821SOL    HW216926   0.398   0.103   7.087  1.7110  0.2589 -0.5248
 1822SOL     OW16927   4.440   0.710   9.341  0.2684 -0.0274  0.0039
 1822SOL    HW116928   4.487   0.746   9.417 -0.4474  0.0423  0.4130
 1822SOL    HW216929   4.380   0.653   9.388 -1.5366  1.5250 -0.4223
 1823SOL     OW16930   0.871   0.884   5.992 -0.0469 -0.1973 -0.0491
 1823SOL    HW116931   0.866   0.886   6.087  1.5988 -1.4976  0.0523
 1823SOL    HW216932   0.880   0.976   5.965  0.2274  0.0305  0.8325
 1824SOL     OW16933   1.836   2.512   5.019  0.4770 -0.2878  0.3239
 1824SOL    HW116934   1.918   2.488   5.062 -0.0974 -2.2148  0.3477
 1824SOL    HW216935   1.820   2.594   5.066 -0.3902 -0.2318 -0.0658
 1825SOL     OW16936   0.159   2.320   5.856 -0.1235 -0.3336 -0.2976
 1825SOL    HW116937   0.105   2.365   5.921  3.3239  1.6284  1.1835
 1825SOL    HW216938   0.241   2.310   5.903 -0.9318  0.3282  1.2614
 1826SOL     OW16939   3.636   0.838   8.473 -0.3401 -0.4479 -0.3174
 1826SOL    HW116940   3.565   0.794   8.519 -1.9136 -0.5977 -2.8860
 1826SOL    HW216941   3.639   0.915   8.530 -1.9862 -0.0256 -0.8146
 1827SOL     OW16942   0.215   0.184   3.728 -0.1739 -0.3254  0.4853
 1827SOL    HW116943   0.244   0.260   3.777  1.0623 -0.5711  0.1503
 1827SOL    HW216944   0.255   0.122   3.790  0.6809  0.4629  0.7229
 1828SOL     OW16945   4.692   1.383   8.504 -0.2708 -0.4089  0.0223
 1828SOL    HW116946   4.704   1.440   8.429  1.9512 -2.5308 -1.2106
 1828SOL    HW216947   4.601   1.362   8.484  0.0201 -0.5997 -1.0990
 1829SOL     OW16948   0.403   1.436   2.337  0.2711  0.0219  0.2476
 1829SOL    HW116949   0.343   1.362   2.346 -1.2449  1.2144 -0.0531
 1829SOL    HW216950   0.427   1.423   2.245  0.4565  1.0152  0.1555
 1830SOL     OW16951   4.502   1.203   5.895  0.0704  0.6833  0.1929
 1830SOL    HW116952   4.478   1.283   5.849 -1.3144 -1.4295 -2.7846
 1830SOL    HW216953   4.592   1.186   5.867  0.1820 -0.6149  1.3496
 1831SOL     OW16954   0.185   2.161   2.614  0.0110 -0.2225  0.1093
 1831SOL    HW116955   0.119   2.221   2.580  0.4155  1.0772  1.6505
 1831SOL    HW216956   0.177   2.085   2.556  0.0100  0.5532 -0.9105
 1832SOL     OW16957   2.516   2.557   7.932 -0.1296  0.1680  0.2396
 1832SOL    HW116958   2.582   2.613   7.973  0.0930  0.6343 -0.7519
 1832SOL    HW216959   2.570   2.543   7.854 -0.4106 -2.6829  0.5432
 1833SOL     OW16960   3.581   1.542  11.377  0.4328  0.6723 -0.1580
 1833SOL    HW116961   3.539   1.584  11.302 -1.2840 -0.3446  0.2539
 1833SOL    HW216962   3.594   1.618  11.434  0.0959  0.9475 -0.4536
 1834SOL     OW16963   3.363   0.825   4.515  0.4492 -0.0282  0.1343
 1834SOL    HW116964   3.328   0.736   4.523 -1.1844  0.6321  0.4071
 1834SOL    HW216965   3.330   0.851   4.428 -1.0689  1.0914  1.0403
 1835SOL     OW16966   4.465   4.632   3.733  0.9119  0.6743 -0.0380
 1835SOL    HW116967   4.544   4.683   3.749  1.9309 -0.6330 -0.8799
 1835SOL    HW216968   4.450   4.628   3.638 -2.5206  2.2251  0.4319
 1836SOL     OW16969   2.183   2.240   6.613 -0.0541  0.0835 -0.4963
 1836SOL    HW116970   2.180   2.175   6.682 -0.0268  1.5651  0.8934
 1836SOL    HW216971   2.099   2.283   6.628 -0.1528 -0.8057  1.4762
 1837SOL     OW16972   2.799   3.961   4.144  0.2818 -0.4876 -0.6435
 1837SOL    HW116973   2.767   3.977   4.233 -0.7148  0.8279 -1.2324
 1837SOL    HW216974   2.736   3.901   4.104 -1.4584 -0.2192  1.6693
 1838SOL     OW16975   4.247   0.675   5.301  0.6111  0.2886  0.1147
 1838SOL    HW116976   4.302   0.606   5.337  1.0744  0.2729 -0.6404
 1838SOL    HW216977   4.260   0.738   5.372 -0.5207  0.4484  0.1827
 1839SOL     OW16978   4.124   3.855   1.971  0.1964  0.2025  0.2594
 1839SOL    HW116979   4.134   3.760   1.968  2.0758  0.4644 -1.6484
 1839SOL    HW216980   4.057   3.850   1.902 -0.9911  2.5897  1.2489
 1840SOL     OW16981   1.518   1.713   7.381  0.0110  0.2119 -0.8546
 1840SOL    HW116982   1.597   1.762   7.405 -0.5812  0.2604  1.0638
 1840SOL    HW216983   1.465   1.711   7.461 -0.6791  2.8677 -1.2476
 1841SOL     OW16984   4.161   3.507   8.699  0.5819  0.3950 -0.2875
 1841SOL    HW116985   4.208   3.521   8.781  2.2155 -1.1160 -0.9523
 1841SOL    HW216986   4.223   3.457   8.646  0.0767 -2.7331  2.0370
 1842SOL     OW16987   2.308   3.528   9.043  0.3541  0.5015  0.1265
 1842SOL    HW116988   2.249   3.488   8.980  1.0160  2.2708 -1.6339
 1842SOL    HW216989   2.381   3.466   9.034  0.0149  0.0262  0.6627
 1843SOL     OW16990   3.063   2.152   2.599 -0.0255 -0.2094  0.9218
 1843SOL    HW116991   3.040   2.059   2.600 -0.1384 -0.1817  0.8696
 1843SOL    HW216992   3.105   2.165   2.514 -1.6216 -2.9231 -0.2667
 1844SOL     OW16993   4.244   4.360   6.091 -0.5030 -0.3373  0.1035
 1844SOL    HW116994   4.246   4.266   6.073  1.2845  0.1163 -2.1672
 1844SOL    HW216995   4.320   4.378   6.146 -1.2125 -2.2666  1.6858
 1845SOL     OW16996   3.422   3.905  14.168  0.1308  0.1028 -0.0063
 1845SOL    HW116997   3.498   3.866  14.212  1.2499  0.1307 -1.9164
 1845SOL    HW216998   3.397   3.982  14.218  1.7401  0.3449  0.4181
 1846SOL     OW16999   2.808   3.575   9.226  0.0908 -0.3790  0.2617
 1846SOL    HW117000   2.806   3.512   9.298  2.1704  1.9671  2.3824
 1846SOL    HW217001   2.764   3.652   9.261 -0.2322 -0.2853 -0.3441
 1847SOL     OW17002   0.822   3.996  16.249  0.1759  0.7280  0.1572
 1847SOL    HW117003   0.769   4.063  16.291 -1.5053 -0.9501  0.7216
 1847SOL    HW217004   0.793   3.911  16.282  1.4494  0.3126  0.2200
 1848SOL     OW17005   1.019   2.329   5.697  0.2009 -0.4906  0.0005
 1848SOL    HW117006   0.925   2.341   5.679  0.3124  0.0681 -0.2086
 1848SOL    HW217007   1.045   2.412   5.737  1.4859 -1.2972  0.8235
 1849SOL     OW17008   3.988   0.780  14.726  0.3319 -0.2489 -0.3241
 1849SOL    HW117009   4.070   0.817  14.693 -0.6208  0.5969 -1.7370
 1849SOL    HW217010   3.930   0.855  14.717 -0.3781 -0.6594  0.8190
 1850SOL     OW17011   3.138   4.564   3.448  0.4876  0.0677 -0.1492
 1850SOL    HW117012   3.228   4.592   3.460  0.8308 -0.5022 -1.3636
 1850SOL    HW217013   3.146   4.479   3.491  0.1543 -1.2766 -2.7288
 1851SOL     OW17014   0.179   1.661  17.457  0.1837 -0.2332  0.5165
 1851SOL    HW117015   0.263   1.626  17.427 -0.7120 -2.7895  0.9494
 1851SOL    HW217016   0.191   1.753  17.432  0.1052  0.5110  3.2815
 1852SOL     OW17017   1.829   3.277  15.281  0.0325 -0.1941 -0.0407
 1852SOL    HW117018   1.835   3.308  15.191  2.2566 -0.3800  0.0589
 1852SOL    HW217019   1.818   3.358  15.330  2.0442  1.2900 -2.0511
 1853SOL     OW17020   1.551   3.619   1.600  0.2414  0.4187  0.5439
 1853SOL    HW117021   1.470   3.572   1.616  1.4056 -2.6057 -2.5271
 1853SOL    HW217022   1.525   3.707   1.627 -0.4838 -0.0817  1.4663
 1854SOL     OW17023   2.474   4.645   8.350  0.4637 -0.9049 -0.4064
 1854SOL    HW117024   2.404   4.663   8.287 -0.7650  0.0598  1.2368
 1854SOL    HW217025   2.431   4.650   8.435 -0.6869  1.8989 -1.1432
 1855SOL     OW17026   0.342   1.484   8.220  0.2508 -0.4123 -0.0092
 1855SOL    HW117027   0.397   1.422   8.172 -2.6544 -0.7488 -2.8997
 1855SOL    HW217028   0.298   1.427   8.283 -1.0026  0.1776 -0.3535
 1856SOL     OW17029   4.317   2.444  17.683 -0.3533 -0.4350  0.0822
 1856SOL    HW117030   4.377   2.502  17.636 -0.4891 -0.9538 -0.7396
 1856SOL    HW217031   4.243   2.465  17.626 -0.1210 -0.3537 -0.1888
 1857SOL     OW17032   2.797   3.111  17.304 -0.0140  0.4692 -0.4575
 1857SOL    HW117033   2.718   3.076  17.262 -0.6738 -0.0711  1.2263
 1857SOL    HW217034   2.787   3.081  17.394  2.6955  0.7829 -0.0585
 1858SOL     OW17035   4.673   0.689   1.146 -0.0981  0.5334 -0.5042
 1858SOL    HW117036   4.582   0.702   1.122 -0.2456 -1.5758 -1.0603
 1858SOL    HW217037   0.009   0.666   1.075  1.1256 -0.0876  0.7333
 1859SOL     OW17038   4.236   4.425  12.729  0.0827 -0.3752  0.1103
 1859SOL    HW117039   4.195   4.508  12.756 -1.0155 -0.8606 -0.0431
 1859SOL    HW217040   4.185   4.367  12.786 -0.2752 -0.5951 -0.4295
 1860SOL     OW17041   2.081   0.967  10.764 -0.7262 -0.1137 -0.0641
 1860SOL    HW117042   2.046   1.040  10.713 -1.6242 -0.1354  0.5312
 1860SOL    HW217043   2.116   0.906  10.699  2.6105 -0.5173  2.1135
 1861SOL     OW17044   0.970   4.592   1.107 -0.2605 -0.4296  0.1904
 1861SOL    HW117045   0.881   4.557   1.097 -1.5790  2.6152  1.2589
 1861SOL    HW217046   0.948   4.676   1.067 -0.0692  0.6690  2.3745
 1862SOL     OW17047   1.841   1.973   0.974 -0.4539 -0.1509 -0.1899
 1862SOL    HW117048   1.878   1.954   0.888  2.2712  1.2748  0.6538
 1862SOL    HW217049   1.914   2.012   1.022 -1.3787 -0.0554  1.1400
 1863SOL     OW17050   0.967   3.390   6.625 -0.0057  0.0862 -0.1225
 1863SOL    HW117051   0.918   3.342   6.557  0.5710  0.2491 -0.6567
 1863SOL    HW217052   1.029   3.327   6.661 -1.3208 -0.9181  0.3952
 1864SOL     OW17053   2.109   2.073  12.646 -0.0996 -0.5423 -0.1277
 1864SOL    HW117054   2.178   2.013  12.618  0.4834 -0.8233  1.9356
 1864SOL    HW217055   2.156   2.156  12.658 -0.4239 -0.3756 -0.0081
 1865SOL     OW17056   2.430   0.013   3.054  0.1321 -0.0422 -0.0057
 1865SOL    HW117057   2.490   0.052   2.990 -1.3675  1.1278 -0.6904
 1865SOL    HW217058   2.500   4.692   3.101  0.4869  0.4715 -0.0449
 1866SOL     OW17059   4.555   2.484   7.894  0.0504 -0.5355 -0.0009
 1866SOL    HW117060   4.519   2.572   7.907 -0.9586 -0.9865  0.2729
 1866SOL    HW217061   4.641   2.510   7.862  0.7413 -0.7384  1.7267
 1867SOL     OW17062   0.547   0.915   4.968  0.5129  0.5183  0.3280
 1867SOL    HW117063   0.621   0.914   5.029  1.6183  0.2796 -1.0130
 1867SOL    HW217064   0.577   0.979   4.904  1.9133  1.1624  1.6089
 1868SOL     OW17065   2.570   1.994  17.497 -0.6234  0.0355 -0.1887
 1868SOL    HW117066   2.647   2.050  17.506  0.3919 -1.6958  1.7460
 1868SOL    HW217067   2.615   1.911  17.479  0.8935  0.6155  0.9297
 1869SOL     OW17068   3.433   0.354   5.464  0.3178 -0.2374  0.1529
 1869SOL    HW117069   3.466   0.443   5.477  2.7589 -0.8089 -2.1063
 1869SOL    HW217070   3.338   0.368   5.459  0.5122  1.5744  1.3494
 1870SOL     OW17071   1.570   3.077   5.006  0.1199  0.2635 -0.1051
 1870SOL    HW117072   1.548   3.010   4.942 -0.5320  0.0124  0.3793
 1870SOL    HW217073   1.565   3.161   4.961  2.0019  1.9193  2.7859
 1871SOL     OW17074   0.880   4.546   0.468 -0.1454  0.9972  0.1792
 1871SOL    HW117075   0.869   4.625   0.415 -2.3578  0.2992 -0.4001
 1871SOL    HW217076   0.966   4.519   0.438 -1.1452  0.6253 -2.3306
 1872SOL     OW17077   3.017   1.091   4.740  0.8036  0.1382  0.4801
 1872SOL    HW117078   3.031   1.143   4.660  0.7378 -2.5333 -1.2659
 1872SOL    HW217079   3.081   1.022   4.728  1.9159  1.5639 -1.9018
 1873SOL     OW17080   0.942   0.513   6.060  0.0472 -0.4703 -0.0421
 1873SOL    HW117081   0.869   0.572   6.042  0.0284  0.0443  1.7012
 1873SOL    HW217082   1.010   0.581   6.054 -1.7013  1.4200  1.3594
 1874SOL     OW17083   4.440   3.094   2.853  0.3187  0.4798 -0.4718
 1874SOL    HW117084   4.526   3.121   2.821  1.6481  0.7901  3.4763
 1874SOL    HW217085   4.441   3.004   2.820 -2.8382  0.0441  0.6147
 1875SOL     OW17086   3.099   3.573   4.232 -0.3778  0.0022  0.0457
 1875SOL    HW117087   3.089   3.595   4.139  1.5032  2.6016  0.4487
 1875SOL    HW217088   3.006   3.581   4.253 -0.3394  0.4236  0.0429
 1876SOL     OW17089   2.637   1.132   4.564 -0.0203  0.6863  0.2137
 1876SOL    HW117090   2.702   1.140   4.494 -0.1527  0.8146  0.1058
 1876SOL    HW217091   2.554   1.140   4.518 -1.2842  0.5023  2.4521
 1877SOL     OW17092   0.739   1.828   6.798  0.1085  0.9312 -0.1542
 1877SOL    HW117093   0.644   1.819   6.785  0.1528  0.6324 -0.2784
 1877SOL    HW217094   0.753   1.880   6.719  0.7753 -0.7901 -1.1814
 1878SOL     OW17095   3.916   0.324  12.926 -0.2169 -0.0641  0.1638
 1878SOL    HW117096   3.933   0.337  13.019  0.6667 -1.9166  0.2517
 1878SOL    HW217097   3.836   0.374  12.910 -0.4968 -0.7341 -0.5105
 1879SOL     OW17098   4.543   1.911   8.070 -0.0707  0.3357  0.0278
 1879SOL    HW117099   4.571   1.882   8.157  1.9550 -1.2152 -1.1353
 1879SOL    HW217100   4.466   1.967   8.083  0.1745  0.5887  0.4151
 1880SOL     OW17101   1.149   3.844   6.253 -0.1139  0.2214  0.4972
 1880SOL    HW117102   1.141   3.800   6.337  1.9028  3.3823  2.3498
 1880SOL    HW217103   1.075   3.904   6.262  0.4624  0.9550  0.3549
 1881SOL     OW17104   3.843   4.458  12.411  0.1874  0.2970 -0.0770
 1881SOL    HW117105   3.908   4.492  12.349  1.3673 -1.4033  0.2381
 1881SOL    HW217106   3.779   4.529  12.410 -1.5221 -1.2445  0.9277
 1882SOL     OW17107   2.690   3.866   3.655  0.0174 -0.2986 -0.4650
 1882SOL    HW117108   2.598   3.840   3.660 -0.5557  2.1467  1.6261
 1882SOL    HW217109   2.700   3.875   3.560 -2.1779 -2.6524 -0.9119
 1883SOL     OW17110   3.138   0.408   5.422 -0.1911 -0.0045  0.1608
 1883SOL    HW117111   3.142   0.456   5.339  1.0715 -1.5635 -0.6717
 1883SOL    HW217112   3.159   0.471   5.491 -3.1511  0.3501  0.7562
 1884SOL     OW17113   1.962   4.234   3.655  0.2049 -0.0270  0.6457
 1884SOL    HW117114   2.044   4.191   3.632 -1.0334 -2.1903  0.2334
 1884SOL    HW217115   1.947   4.210   3.747  2.0386 -0.4033  0.8518
 1885SOL     OW17116   1.685   3.046   3.943  0.3203  0.2197  0.0590
 1885SOL    HW117117   1.599   3.086   3.939  0.7211  1.2079  1.4609
 1885SOL    HW217118   1.671   2.983   3.872 -0.9058  0.4276  0.1296
 1886SOL     OW17119   3.396   2.101   5.178  0.2659  0.0949  0.0285
 1886SOL    HW117120   3.369   2.167   5.114  0.2850  1.4801  1.4469
 1886SOL    HW217121   3.348   2.022   5.152  0.7257 -1.4429  3.7826
 1887SOL     OW17122   1.090   3.841   5.132  0.2181  0.5759  0.3823
 1887SOL    HW117123   1.121   3.910   5.073 -0.7027 -0.2823 -1.1179
 1887SOL    HW217124   1.163   3.779   5.127  0.0195  0.3881 -0.2701
 1888SOL     OW17125   0.936   1.334   2.441 -0.5975 -0.4704  0.0148
 1888SOL    HW117126   0.950   1.242   2.417  3.5670 -0.3134  1.8348
 1888SOL    HW217127   0.948   1.325   2.535 -0.2033 -1.5169 -0.1300
 1889SOL     OW17128   2.189   2.556   6.840 -0.2935  0.5719 -0.2642
 1889SOL    HW117129   2.200   2.552   6.745 -0.7020  2.6424 -0.4143
 1889SOL    HW217130   2.252   2.626   6.856  2.0714 -1.3345 -1.1916
 1890SOL     OW17131   1.878   2.564   6.879 -0.6485  0.9371 -0.3356
 1890SOL    HW117132   1.969   2.565   6.848  0.1221 -0.5499  1.9150
 1890SOL    HW217133   1.861   2.470   6.882  3.8998  0.2024  2.6103
 1891SOL     OW17134   1.621   2.215  14.720  0.0109 -0.1856  0.4556
 1891SOL    HW117135   1.633   2.222  14.625  0.5098 -0.4376  0.5000
 1891SOL    HW217136   1.615   2.308  14.738  1.5714  0.5370 -2.7318
 1892SOL     OW17137   2.089   4.456   3.451  0.2971 -0.0585  0.8823
 1892SOL    HW117138   2.053   4.385   3.398  0.7597  0.6206 -0.3133
 1892SOL    HW217139   2.021   4.454   3.519 -0.5849  0.1986 -0.0035
 1893SOL     OW17140   0.859   4.694   5.987 -0.2500  0.1318 -0.2467
 1893SOL    HW117141   0.872   0.009   5.901 -1.3803 -2.0409 -1.4151
 1893SOL    HW217142   0.823   0.044   6.035  0.6837 -0.3215  1.1714
 1894SOL     OW17143   3.631   1.237   4.111  0.0361  0.0510  0.1116
 1894SOL    HW117144   3.606   1.251   4.202  0.1438 -1.1065  0.3198
 1894SOL    HW217145   3.678   1.318   4.088 -0.0438  0.0418 -0.0816
 1895SOL     OW17146   4.418   2.392   5.549  0.3338  0.6335 -0.1556
 1895SOL    HW117147   4.508   2.416   5.570 -0.0742 -0.2125  2.5224
 1895SOL    HW217148   4.366   2.423   5.623 -0.2266 -0.1218 -0.2295
 1896SOL     OW17149   4.685   3.530   1.671 -0.5911  0.3171 -0.3553
 1896SOL    HW117150   4.721   3.602   1.620 -0.5765  1.2459  0.9724
 1896SOL    HW217151   4.621   3.497   1.608 -0.1784 -1.1761  0.0024
 1897SOL     OW17152   3.571   2.579  15.440 -0.2004  0.0815 -0.0091
 1897SOL    HW117153   3.535   2.622  15.517 -0.0930 -1.3220  0.8216
 1897SOL    HW217154   3.663   2.569  15.463 -0.1762  0.6748  0.1419
 1898SOL     OW17155   2.312   0.869  11.941  0.4296  0.5334 -0.2855
 1898SOL    HW117156   2.337   0.776  11.943 -0.0230  0.4662  1.8645
 1898SOL    HW217157   2.285   0.874  12.033 -1.3402  0.4799 -0.7955
 1899SOL     OW17158   3.652   3.635   2.208  0.2522 -0.0637  0.3053
 1899SOL    HW117159   3.595   3.653   2.134 -1.1009 -5.5079  0.0211
 1899SOL    HW217160   3.642   3.540   2.209  0.8826 -0.1314  0.4010
 1900SOL     OW17161   2.775   2.770   7.514  0.3309  0.4899 -0.2430
 1900SOL    HW117162   2.837   2.702   7.538  0.6608  1.2153  0.9415
 1900SOL    HW217163   2.700   2.711   7.524 -0.1356  1.5363  2.2871
 1901SOL     OW17164   2.549   0.882   2.136  0.2360  0.5091  0.5862
 1901SOL    HW117165   2.613   0.909   2.069  1.5972  1.1603  2.1287
 1901SOL    HW217166   2.601   0.911   2.212  0.7649 -0.0800  0.4558
 1902SOL     OW17167   3.133   3.345   6.453  0.8355 -0.1271  0.0473
 1902SOL    HW117168   3.196   3.304   6.394 -0.4553 -0.1837 -1.2749
 1902SOL    HW217169   3.124   3.281   6.524 -0.1933  0.0306  0.0586
 1903SOL     OW17170   4.443   0.569   4.055  0.2371  0.3474 -0.1322
 1903SOL    HW117171   4.414   0.614   3.976 -0.1989  0.0132 -0.1666
 1903SOL    HW217172   4.535   0.595   4.056  0.0731  0.9030  0.4743
 1904SOL     OW17173   3.788   2.982   2.399 -0.3410  0.4324  0.8581
 1904SOL    HW117174   3.853   2.914   2.381 -1.7724 -0.4276 -1.1238
 1904SOL    HW217175   3.839   3.062   2.392  2.1968 -1.2808 -0.0550
 1905SOL     OW17176   3.242   4.158   4.017 -0.0162 -0.1670  0.0765
 1905SOL    HW117177   3.218   4.066   4.006 -2.4635  0.5634 -0.7965
 1905SOL    HW217178   3.251   4.192   3.927 -0.4719  0.3854  0.2396
 1906SOL     OW17179   0.419   4.560  17.102  0.3077  0.7689 -0.0815
 1906SOL    HW117180   0.352   4.494  17.087 -0.4767  1.0376  2.2982
 1906SOL    HW217181   0.428   4.551  17.197 -2.1539 -0.6589  0.0034
 1907SOL     OW17182   1.710   3.625   9.251  0.7153 -0.0745  0.4188
 1907SOL    HW117183   1.696   3.687   9.180 -1.2415  0.7253  1.5160
 1907SOL    HW217184   1.666   3.548   9.216  3.2412 -0.6135 -1.6014
 1908SOL     OW17185   2.102   2.126   0.837 -0.0733  0.2190 -0.1485
 1908SOL    HW117186   2.068   2.061   0.776  0.0368  0.0486 -0.0302
 1908SOL    HW217187   2.036   2.195   0.850 -0.6070 -0.5373  1.1795
 1909SOL     OW17188   3.632   0.331  17.330 -0.4009  0.2147 -0.1987
 1909SOL    HW117189   3.696   0.402  17.340  0.1091 -0.2262 -0.3479
 1909SOL    HW217190   3.689   0.255  17.341  0.3047  0.5955 -1.1530
 1910SOL     OW17191   3.818   1.214  15.915  0.0860  0.2384 -0.0127
 1910SOL    HW117192   3.825   1.271  15.991 -1.3828 -0.6926  0.8079
 1910SOL    HW217193   3.910   1.186  15.917  0.0078  0.2362  3.1437
 1911SOL     OW17194   3.704   2.643  11.269 -0.1171  0.0530 -0.2164
 1911SOL    HW117195   3.789   2.613  11.303  0.6672  0.7008 -1.5796
 1911SOL    HW217196   3.652   2.568  11.295  1.3336 -1.2188 -0.9278
 1912SOL     OW17197   2.420   1.796   3.409  0.5040 -0.3270 -0.0682
 1912SOL    HW117198   2.422   1.774   3.316  1.8819 -0.6232  0.0332
 1912SOL    HW217199   2.465   1.718   3.440 -1.6166 -1.6175 -0.2972
 1913SOL     OW17200   3.498   3.424   4.910  0.0242 -0.2770  0.1003
 1913SOL    HW117201   3.530   3.444   4.822 -1.4454  1.3764 -0.0500
 1913SOL    HW217202   3.406   3.422   4.886 -0.2396 -1.5329  1.1679
 1914SOL     OW17203   4.653   3.510  10.248  0.4252 -0.4168 -0.3519
 1914SOL    HW117204   4.654   3.509  10.152  0.8765  0.0101 -0.3532
 1914SOL    HW217205   4.595   3.584  10.267  0.3922 -1.1693  2.3956
 1915SOL     OW17206   1.202   1.079   6.445  0.6683  0.1312  0.0418
 1915SOL    HW117207   1.281   1.131   6.463 -0.1818  1.4992 -0.1540
 1915SOL    HW217208   1.138   1.145   6.472 -0.3343 -1.3494  1.3280
 1916SOL     OW17209   2.604   3.768   9.328  0.2024 -0.2872 -0.0101
 1916SOL    HW117210   2.580   3.798   9.240 -0.8422  1.5859  0.9054
 1916SOL    HW217211   2.548   3.824   9.383 -1.5112 -0.3364 -1.6781
 1917SOL     OW17212   0.416   4.192   7.426 -0.0183  0.1031  0.1125
 1917SOL    HW117213   0.431   4.255   7.355 -2.7988  0.5493 -0.0622
 1917SOL    HW217214   0.327   4.166   7.404 -0.5159  0.8562  1.2472
 1918SOL     OW17215   1.260   3.899   7.028 -0.4955  0.1878  0.0154
 1918SOL    HW117216   1.252   3.857   7.114  2.1617  1.5338  0.9131
 1918SOL    HW217217   1.169   3.918   7.005 -0.5019  0.0327 -0.0803
 1919SOL     OW17218   4.601   3.507  11.072  0.2758  0.0276 -0.4317
 1919SOL    HW117219   4.604   3.586  11.018  0.7089 -2.5358 -4.1631
 1919SOL    HW217220   4.677   3.462  11.034  0.1853 -2.8977  2.8593
 1920SOL     OW17221   1.916   0.065   4.493  0.0343 -0.2479 -0.1096
 1920SOL    HW117222   1.984   0.018   4.541 -1.2137 -1.4497  0.4711
 1920SOL    HW217223   1.968   0.143   4.471 -0.1793  0.3523  1.5001
 1921SOL     OW17224   0.733   0.162  10.202  0.6262  0.2114 -0.6632
 1921SOL    HW117225   0.806   0.175  10.262  0.3540  0.6038 -0.4218
 1921SOL    HW217226   0.681   0.240  10.217 -0.2482 -0.5360  0.1790
 1922SOL     OW17227   1.636   2.619   4.460 -0.5605  0.0427 -0.1977
 1922SOL    HW117228   1.613   2.700   4.415  0.6971  0.8189  0.5694
 1922SOL    HW217229   1.731   2.610   4.468 -0.8862 -2.1937  1.1967
 1923SOL     OW17230   0.373   4.122  10.132 -0.0601  0.6342 -0.4329
 1923SOL    HW117231   0.324   4.173  10.067 -0.9588 -1.5467 -1.4878
 1923SOL    HW217232   0.394   4.040  10.087  1.5976  1.7551 -1.7051
 1924SOL     OW17233   0.918   0.449  11.964 -0.2938 -1.0145 -0.1520
 1924SOL    HW117234   1.008   0.423  11.986  0.5518  1.0958 -1.1294
 1924SOL    HW217235   0.919   0.424  11.872  0.8130  0.1089 -0.4463
 1925SOL     OW17236   1.560   3.745  13.171 -0.0373  0.1911 -0.1692
 1925SOL    HW117237   1.646   3.738  13.212 -0.4187 -0.2884  0.5359
 1925SOL    HW217238   1.541   3.839  13.171 -1.3986 -0.0769  0.6221
 1926SOL     OW17239   2.631   1.293  10.395 -0.1700 -0.0581 -0.0387
 1926SOL    HW117240   2.555   1.273  10.341 -0.6150  0.4680  0.3964
 1926SOL    HW217241   2.696   1.257  10.334 -0.0662  2.2865 -1.3134
 1927SOL     OW17242   2.328   2.278   8.975 -0.0070 -0.0070 -0.1930
 1927SOL    HW117243   2.305   2.354   9.028  0.6352 -1.1831  1.7872
 1927SOL    HW217244   2.409   2.317   8.942 -0.9956  1.3132 -1.0302
 1928SOL     OW17245   3.387   4.578   1.456  0.2106  0.0239  0.5150
 1928SOL    HW117246   3.366   4.670   1.434  0.2144 -0.3671 -1.1514
 1928SOL    HW217247   3.482   4.567   1.457  0.1447 -0.5484 -0.3933
 1929SOL     OW17248   0.090   1.003   6.055  0.0210  0.0512 -0.9428
 1929SOL    HW117249   0.132   0.934   6.106 -0.1434  0.7172  0.1046
 1929SOL    HW217250   0.029   0.954   6.000 -1.1845  0.8851 -0.3588
 1930SOL     OW17251   4.168   1.363   1.849 -0.1040  0.1293 -0.1048
 1930SOL    HW117252   4.180   1.403   1.935  0.2764  0.9018 -0.5151
 1930SOL    HW217253   4.197   1.272   1.857 -3.8516 -1.1497 -0.8349
 1931SOL     OW17254   2.285   0.800   1.638  0.0598  0.2587 -0.7219
 1931SOL    HW117255   2.361   0.806   1.695 -0.4671 -0.7014  0.0879
 1931SOL    HW217256   2.252   0.712   1.657 -1.3838  0.7027 -1.1719
 1932SOL     OW17257   3.832   4.015   9.569 -0.0849  0.1112  0.1726
 1932SOL    HW117258   3.755   4.055   9.610 -0.2701 -0.3365  0.2590
 1932SOL    HW217259   3.884   4.091   9.541 -0.3715  0.6793  1.1584
 1933SOL     OW17260   3.798   2.099  11.352  0.8588  0.2996  0.4246
 1933SOL    HW117261   3.862   2.076  11.285 -1.9311 -0.5531 -1.9605
 1933SOL    HW217262   3.860   2.149  11.404  0.3080 -0.5340  1.8790
 1934SOL     OW17263   0.083   4.697  13.703  0.2334  0.1968  0.0077
 1934SOL    HW117264   0.073   0.044  13.641 -0.5939 -0.4027 -0.5424
 1934SOL    HW217265   0.051   0.014  13.783 -0.1350 -0.1049  0.0203
 1935SOL     OW17266   3.492   0.580   5.123 -0.0372  0.0745  0.6385
 1935SOL    HW117267   3.487   0.492   5.159  1.2410 -0.4715 -0.5169
 1935SOL    HW217268   3.580   0.602   5.156  0.3651 -1.4348  0.5693
 1936SOL     OW17269   0.878   4.430   3.402  0.1747  0.4447  0.0414
 1936SOL    HW117270   0.909   4.512   3.365  0.0492  0.6085  0.2973
 1936SOL    HW217271   0.923   4.428   3.487 -0.6860  0.0973  0.4902
 1937SOL     OW17272   0.724   4.022  17.522 -0.6433  0.4011 -0.0848
 1937SOL    HW117273   0.770   3.950  17.479  0.6120 -0.5483  2.8349
 1937SOL    HW217274   0.644   4.031  17.470 -0.3541 -0.8712 -0.7475
 1938SOL     OW17275   1.072   0.589   8.808 -0.7565 -0.2465 -0.3289
 1938SOL    HW117276   1.105   0.499   8.814 -1.2288 -0.4567 -0.8528
 1938SOL    HW217277   0.980   0.563   8.800 -1.0752  0.3843  1.3870
 1939SOL     OW17278   3.927   2.552  11.408 -0.1219 -0.7518  0.3867
 1939SOL    HW117279   3.887   2.581  11.490 -2.4558  0.9557 -1.3456
 1939SOL    HW217280   3.953   2.640  11.379  0.5491 -0.3271  2.3330
 1940SOL     OW17281   3.420   1.524   4.045  0.5293  0.8578  0.3766
 1940SOL    HW117282   3.483   1.578   4.092 -0.7934  0.6251  2.4224
 1940SOL    HW217283   3.470   1.492   3.970 -0.7713 -2.7422  1.0298
 1941SOL     OW17284   4.192   0.315  16.096 -0.1621 -0.0742 -0.2014
 1941SOL    HW117285   4.107   0.334  16.055  1.1631  2.4368 -1.7845
 1941SOL    HW217286   4.248   0.339  16.022  0.2687 -2.8751 -0.7873
 1942SOL     OW17287   0.318   3.233   4.590  0.2784  0.2581 -0.3187
 1942SOL    HW117288   0.326   3.140   4.569  0.9243  0.2810 -0.1580
 1942SOL    HW217289   0.319   3.270   4.501 -0.8431  0.4497 -0.2519
 1943SOL     OW17290   0.542   3.303   2.414  0.3462 -0.1517  0.8885
 1943SOL    HW117291   0.504   3.230   2.366 -1.7009  0.9577  0.8284
 1943SOL    HW217292   0.632   3.274   2.429  0.5319  0.0081  0.1185
 1944SOL     OW17293   3.690   0.402   4.963 -1.2356 -0.8474  0.7252
 1944SOL    HW117294   3.631   0.474   4.941  1.8821  1.7196  0.7857
 1944SOL    HW217295   3.646   0.359   5.037 -0.4924 -2.5262  0.1838
 1945SOL     OW17296   2.736   0.603   4.089  0.4304  0.5016  0.1738
 1945SOL    HW117297   2.721   0.514   4.120 -0.1223  1.5896  2.9800
 1945SOL    HW217298   2.792   0.633   4.160  0.0650  1.2995  0.1243
 1946SOL     OW17299   0.394   2.868   5.257  0.2437  0.0204 -0.3585
 1946SOL    HW117300   0.487   2.887   5.270 -0.1723  1.8818 -0.2181
 1946SOL    HW217301   0.355   2.947   5.220 -0.0185 -0.5719 -1.3678
 1947SOL     OW17302   4.067   1.673   0.633 -0.4210 -0.3207 -0.3650
 1947SOL    HW117303   3.999   1.642   0.693  1.7061 -0.7346  1.8241
 1947SOL    HW217304   4.119   1.721   0.697  0.6551 -1.2032 -0.5800
 1948SOL     OW17305   3.952   2.998  12.646 -0.3207 -0.6820 -0.3678
 1948SOL    HW117306   3.894   3.052  12.592  1.8221  0.7187 -1.2256
 1948SOL    HW217307   4.037   3.033  12.621  0.8057 -3.2541 -0.1423
 1949SOL     OW17308   3.320   3.516   2.889 -0.1803 -0.5933  0.0522
 1949SOL    HW117309   3.301   3.534   2.796  0.0346 -0.3546  0.0525
 1949SOL    HW217310   3.357   3.602   2.910  0.8583 -1.2426  0.8798
 1950SOL     OW17311   2.149   4.567   8.380  0.3158  0.5684  0.0395
 1950SOL    HW117312   2.158   4.479   8.417  2.2688  0.9261  0.4213
 1950SOL    HW217313   2.164   4.616   8.460  1.6580 -0.2336  0.2797
 1951SOL     OW17314   2.404   2.139  14.424 -0.2298 -0.0154 -0.0062
 1951SOL    HW117315   2.483   2.124  14.476 -0.6572  0.0210  0.6448
 1951SOL    HW217316   2.433   2.094  14.344  0.1472 -1.4132  0.9250
 1952SOL     OW17317   2.894   1.962   3.203 -0.0092  0.2983  0.2798
 1952SOL    HW117318   2.861   1.921   3.283 -0.0282  0.1733  0.2082
 1952SOL    HW217319   2.984   1.934   3.190 -0.7361 -1.2035 -1.5376
 1953SOL     OW17320   4.055   4.373   4.148 -0.3085  0.3112  0.1168
 1953SOL    HW117321   4.114   4.445   4.169  1.2336 -1.0832  0.5561
 1953SOL    HW217322   4.073   4.353   4.057  2.4401 -1.0474  0.9532
 1954SOL     OW17323   1.136   4.553  12.843 -0.4368 -0.0879 -0.0505
 1954SOL    HW117324   1.122   4.533  12.936  1.7341 -1.8289 -0.0841
 1954SOL    HW217325   1.154   4.464  12.813  0.4563 -0.0229  0.2831
 1955SOL     OW17326   0.557   1.263  16.816  0.2708 -0.4227  0.1384
 1955SOL    HW117327   0.472   1.232  16.848  0.8902  0.6596  2.9005
 1955SOL    HW217328   0.540   1.352  16.786 -0.0383  0.2628  2.3360
 1956SOL     OW17329   3.032   2.748  10.944 -0.1644 -0.2903  0.3685
 1956SOL    HW117330   3.014   2.727  11.036  0.5906  0.6022  0.7119
 1956SOL    HW217331   3.118   2.709  10.930 -0.0974 -0.4143  1.1173
 1957SOL     OW17332   4.492   3.200   7.526  0.5345 -0.0802 -0.0460
 1957SOL    HW117333   4.397   3.200   7.511  0.5272  0.4018 -0.0102
 1957SOL    HW217334   4.514   3.108   7.514 -0.4107 -0.5123  1.4872
 1958SOL     OW17335   3.835   2.585  12.521  0.1966 -0.0770  0.0109
 1958SOL    HW117336   3.786   2.661  12.551  0.0060 -0.4688  0.7201
 1958SOL    HW217337   3.775   2.527  12.473 -0.2102  0.7247 -0.4518
 1959SOL     OW17338   0.272   0.678   9.547  0.6448  0.1947 -0.2912
 1959SOL    HW117339   0.190   0.696   9.502 -1.4435 -1.1196  2.9978
 1959SOL    HW217340   0.234   0.624   9.616  0.2515  2.6188  1.3991
 1960SOL     OW17341   3.148   2.403   9.159  0.0899 -0.0514  0.1492
 1960SOL    HW117342   3.150   2.308   9.165  0.6631  0.1014  2.5179
 1960SOL    HW217343   3.059   2.424   9.131  0.4440 -0.8253 -1.5159
 1961SOL     OW17344   4.318   1.895   5.643 -0.0917  0.2796  0.0935
 1961SOL    HW117345   4.322   1.985   5.610 -1.8650  0.0331 -0.8000
 1961SOL    HW217346   4.408   1.877   5.671 -0.1389 -0.8022 -0.4539
 1962SOL     OW17347   3.108   2.530   7.237  0.8156  0.1176 -0.4552
 1962SOL    HW117348   3.120   2.487   7.153  0.7324 -1.1780  0.1938
 1962SOL    HW217349   3.164   2.467   7.283  1.8348  0.8082 -0.7518
 1963SOL     OW17350   2.294   2.994   4.645  0.1466 -0.4433  0.1194
 1963SOL    HW117351   2.226   3.036   4.698 -0.9770 -1.0531 -0.8144
 1963SOL    HW217352   2.242   2.960   4.571  2.5095 -3.0705 -0.3238
 1964SOL     OW17353   0.198   2.908   4.052 -0.1523 -0.0379  0.3956
 1964SOL    HW117354   0.140   2.912   3.975 -1.6334  0.4047  1.5329
 1964SOL    HW217355   0.153   2.957   4.121 -2.5099 -2.0478  0.2946
 1965SOL     OW17356   1.423   1.524   3.391  0.0664  0.4232 -1.0061
 1965SOL    HW117357   1.505   1.505   3.346  0.6350  2.3247 -0.7417
 1965SOL    HW217358   1.357   1.462   3.358  1.5836 -1.4833 -0.4766
 1966SOL     OW17359   2.125   3.262   5.894  0.0120 -0.5943 -0.4426
 1966SOL    HW117360   2.099   3.341   5.848  0.3879 -0.6034 -0.6708
 1966SOL    HW217361   2.200   3.242   5.837  1.6025  2.0463  0.7548
 1967SOL     OW17362   0.029   2.443   5.346  0.5384 -0.3363  0.5007
 1967SOL    HW117363   4.662   2.437   5.320  1.2845 -1.2708 -1.9052
 1967SOL    HW217364   0.072   2.378   5.291  0.8848  0.4264 -0.1202
 1968SOL     OW17365   3.733   4.571   9.168  0.2029 -0.2445  0.8449
 1968SOL    HW117366   3.684   4.491   9.150 -0.0953  0.4499 -1.4733
 1968SOL    HW217367   3.682   4.631   9.222 -0.3462 -0.3182  0.4056
 1969SOL     OW17368   4.680   2.376  11.073 -0.3653 -0.2953  0.0446
 1969SOL    HW117369   0.031   2.433  11.059 -0.7386  0.3081  0.4555
 1969SOL    HW217370   4.670   2.393  11.167 -0.7786 -1.4529  0.2091
 1970SOL     OW17371   3.547   4.420  13.604  0.2306  0.4761  0.4665
 1970SOL    HW117372   3.584   4.506  13.586  1.6473 -0.6498 -2.0850
 1970SOL    HW217373   3.479   4.439  13.668  1.1156 -0.6639  1.7490
 1971SOL     OW17374   0.418   1.779  12.561  0.4668  0.4275  0.1836
 1971SOL    HW117375   0.426   1.689  12.592 -3.1214  0.0341 -0.0691
 1971SOL    HW217376   0.510   1.789  12.534 -0.1898  1.0060 -1.8686
 1972SOL     OW17377   0.229   4.589   3.144 -0.3271 -0.1477 -0.2521
 1972SOL    HW117378   0.254   4.597   3.052  0.3666 -3.0389 -0.3244
 1972SOL    HW217379   0.144   4.544   3.143  0.4559 -1.6828  1.1021
 1973SOL     OW17380   3.698   0.597   7.025  0.4257 -0.3469 -0.1499
 1973SOL    HW117381   3.618   0.618   7.073  1.4184  3.6866 -0.2828
 1973SOL    HW217382   3.769   0.617   7.085  0.1654  0.4946 -0.1252
 1974SOL     OW17383   4.181   2.282   0.944  0.1270  0.0684  0.1610
 1974SOL    HW117384   4.261   2.310   0.898 -0.4976  1.9182  0.2038
 1974SOL    HW217385   4.135   2.233   0.875  0.4298 -1.3618  0.9764
 1975SOL     OW17386   1.173   2.822  13.910  0.2901 -0.1688 -0.4539
 1975SOL    HW117387   1.238   2.889  13.930  1.6434 -1.7329  0.4618
 1975SOL    HW217388   1.123   2.820  13.992  0.9829  0.9977  0.0076
 1976SOL     OW17389   3.019   0.351   4.253  0.7046 -0.2030  0.0101
 1976SOL    HW117390   3.051   0.440   4.241 -0.2798 -0.2583 -3.1253
 1976SOL    HW217391   2.995   0.358   4.345 -0.1144  2.6539 -0.4392
 1977SOL     OW17392   0.659   1.897  12.403 -0.2123 -0.1728  0.7343
 1977SOL    HW117393   0.754   1.904  12.391 -0.2825  1.5479  1.2020
 1977SOL    HW217394   0.636   1.892  12.310  0.9583  0.4761  0.4187
 1978SOL     OW17395   2.344   0.069   6.014  0.0040 -0.0789 -0.1533
 1978SOL    HW117396   2.323   4.721   6.073  1.4150  0.6808  1.2721
 1978SOL    HW217397   2.322   0.042   5.924  1.2636  0.0263 -0.4832
 1979SOL     OW17398   2.593   2.559   6.606  0.3111 -0.0742 -0.1575
 1979SOL    HW117399   2.561   2.469   6.619 -1.5121  0.4893 -0.6450
 1979SOL    HW217400   2.508   2.596   6.580  0.1666  0.5193  1.1755
 1980SOL     OW17401   2.104   0.355  12.262 -0.2757  0.4540  0.4170
 1980SOL    HW117402   2.104   0.419  12.190  1.0644 -1.1642 -1.0213
 1980SOL    HW217403   2.010   0.339  12.274 -0.2152 -0.5693 -0.4838
 1981SOL     OW17404   2.000   1.805   2.601 -0.3669 -0.0079 -0.3783
 1981SOL    HW117405   1.987   1.734   2.538 -0.6086 -0.1599 -0.1563
 1981SOL    HW217406   1.916   1.812   2.647  0.3643 -0.3183  0.9844
 1982SOL     OW17407   3.296   2.933   9.725 -0.3294  0.2125 -0.1605
 1982SOL    HW117408   3.255   2.863   9.777  0.0241  0.2072  0.1038
 1982SOL    HW217409   3.377   2.887   9.705  0.7803  1.1331  2.3598
 1983SOL     OW17410   2.755   0.686   9.137 -0.8046  0.2349 -0.3194
 1983SOL    HW117411   2.668   0.704   9.101 -0.4545  2.1699 -0.1893
 1983SOL    HW217412   2.795   0.678   9.050  1.9870 -0.0740  0.9920
 1984SOL     OW17413   0.955   0.335   6.803  0.0852  0.7221  0.0576
 1984SOL    HW117414   1.026   0.392   6.829 -0.9902  2.1608 -0.1561
 1984SOL    HW217415   0.959   0.259   6.861 -0.2858 -1.2207 -2.4405
 1985SOL     OW17416   3.589   0.898   4.714  0.5405 -0.4375  0.2140
 1985SOL    HW117417   3.621   0.808   4.709  0.7219 -0.2645 -1.8896
 1985SOL    HW217418   3.582   0.921   4.807  0.9440  0.1214  0.1060
 1986SOL     OW17419   1.668   0.207  15.701 -1.0029 -0.6170  0.1292
 1986SOL    HW117420   1.717   0.205  15.619  1.8943  1.9920  1.8030
 1986SOL    HW217421   1.742   0.226  15.759 -0.2967 -1.6984 -0.4192
 1987SOL     OW17422   2.729   2.514   4.478  0.1431  1.1691 -0.3366
 1987SOL    HW117423   2.688   2.463   4.548 -0.5094  0.6465 -1.0954
 1987SOL    HW217424   2.697   2.602   4.500 -0.0744  0.4614  2.0564
 1988SOL     OW17425   4.677   1.136   5.225  0.2256 -0.6376 -0.0413
 1988SOL    HW117426   4.620   1.169   5.156  0.1799  2.9104  1.7132
 1988SOL    HW217427   4.686   1.043   5.204 -1.6783 -1.1154  1.2995
 1989SOL     OW17428   4.647   0.190  14.123  0.2391  0.2922 -0.7779
 1989SOL    HW117429   4.603   0.274  14.136  1.1201  0.8072 -1.1466
 1989SOL    HW217430   4.579   0.125  14.142 -0.0186  1.0145  0.7004
 1990SOL     OW17431   2.941   4.253   5.820 -0.0268 -0.0284  0.0364
 1990SOL    HW117432   2.940   4.225   5.728  1.3154  0.5508 -0.1672
 1990SOL    HW217433   3.034   4.274   5.832  0.2732 -1.3325  0.0289
 1991SOL     OW17434   4.443   4.372  15.008  0.3429 -0.1394  0.5409
 1991SOL    HW117435   4.443   4.301  14.944  1.3869  0.5958 -0.2788
 1991SOL    HW217436   4.529   4.360  15.049  1.1705  0.2043 -1.0963
 1992SOL     OW17437   4.013   1.285   8.837 -0.5985 -0.5220  0.0841
 1992SOL    HW117438   4.103   1.271   8.809 -0.7070  0.3239 -0.6891
 1992SOL    HW217439   4.028   1.333   8.919  2.8757 -0.2500 -0.7031
 1993SOL     OW17440   4.044   2.900   1.704  0.0331 -0.1115 -0.0572
 1993SOL    HW117441   4.065   2.841   1.632 -1.1267 -0.2126 -0.3127
 1993SOL    HW217442   4.124   2.950   1.692 -0.1227  0.0279 -0.5225
 1994SOL     OW17443   2.108   2.028   6.790 -0.2152  0.2662 -0.2244
 1994SOL    HW117444   2.119   2.064   6.878 -1.8537  0.4424 -0.1038
 1994SOL    HW217445   2.144   1.940   6.801 -1.3039 -0.1215  0.1480
 1995SOL     OW17446   3.520   3.385   6.540  0.4134  0.1809 -0.3564
 1995SOL    HW117447   3.596   3.362   6.487  1.4923 -0.4375  1.4668
 1995SOL    HW217448   3.564   3.361   6.622 -1.4223 -1.2073  0.2368
 1996SOL     OW17449   1.725   2.258   7.832  0.1427 -0.5303  0.2504
 1996SOL    HW117450   1.774   2.266   7.751 -0.4655  0.0597 -0.0578
 1996SOL    HW217451   1.657   2.199   7.800  1.3398 -0.9498 -1.4878
 1997SOL     OW17452   1.344   2.386  16.378 -0.3944  0.2559  0.0581
 1997SOL    HW117453   1.338   2.311  16.437 -2.8056  0.3675 -0.0626
 1997SOL    HW217454   1.383   2.347  16.299 -0.2072 -0.2575  0.4040
 1998SOL     OW17455   3.685   2.663   4.370 -0.1490  0.2642 -0.0527
 1998SOL    HW117456   3.616   2.679   4.306 -0.4696 -0.0483  0.2143
 1998SOL    HW217457   3.667   2.740   4.424  2.5727 -0.5447  2.0230
 1999SOL     OW17458   0.313   2.407  15.189  0.1723  0.3062 -0.4931
 1999SOL    HW117459   0.344   2.340  15.250 -2.2480 -0.0382  0.3555
 1999SOL    HW217460   0.392   2.433  15.141  1.6053 -1.0419  1.1296
 2000SOL     OW17461   1.773   0.555   5.103  0.1303  0.0346  0.2492
 2000SOL    HW117462   1.821   0.473   5.110  2.1991  1.2782  0.6454
 2000SOL    HW217463   1.697   0.518   5.058 -0.2078  0.6826  0.2915
 2001SOL     OW17464   1.905   4.157   6.466  0.0963  0.0558 -0.7924
 2001SOL    HW117465   1.964   4.086   6.443  1.8752  1.3176 -0.1092
 2001SOL    HW217466   1.947   4.237   6.435 -0.5290  0.2184 -1.2273
 2002SOL     OW17467   3.190   1.981   8.772  0.3781 -0.5617 -0.0580
 2002SOL    HW117468   3.200   2.032   8.852  0.0977 -0.7870  0.1153
 2002SOL    HW217469   3.117   1.928   8.801  0.0787 -0.3073 -0.3464
 2003SOL     OW17470   0.982   0.858   2.752  0.0061 -0.0103 -0.3741
 2003SOL    HW117471   0.927   0.888   2.680  0.0233 -0.4224 -0.5576
 2003SOL    HW217472   0.966   0.919   2.825  1.1077 -0.8420  0.5623
 2004SOL     OW17473   3.666   4.459   2.288  0.3283 -0.5284  0.3650
 2004SOL    HW117474   3.635   4.505   2.210 -5.0255 -1.6274  1.9128
 2004SOL    HW217475   3.754   4.434   2.257 -0.1735 -1.1696 -0.5506
 2005SOL     OW17476   3.454   0.424   3.235  0.2133 -0.1611 -1.3277
 2005SOL    HW117477   3.450   0.346   3.179 -0.0506  0.0908 -1.6604
 2005SOL    HW217478   3.389   0.407   3.304  0.9444 -1.1421 -0.8857
 2006SOL     OW17479   2.016   3.193   9.705 -0.0929 -0.2574 -0.3350
 2006SOL    HW117480   1.965   3.190   9.623 -1.5373  2.0768  0.4945
 2006SOL    HW217481   1.949   3.208   9.771  0.6866 -1.5424  0.7346
 2007SOL     OW17482   3.318   3.833   2.000  0.0568  0.3601  0.0197
 2007SOL    HW117483   3.288   3.754   2.046  0.7656  0.4819  0.6935
 2007SOL    HW217484   3.398   3.807   1.955  0.3441 -0.7682  1.1684
 2008SOL     OW17485   3.230   3.863   5.341  0.2795  0.2341  0.3469
 2008SOL    HW117486   3.280   3.911   5.275 -0.8338 -1.3515 -1.6579
 2008SOL    HW217487   3.291   3.795   5.371 -0.2753  0.2190  1.4451
 2009SOL     OW17488   1.265   3.344   2.597  0.5214 -0.0416 -0.1935
 2009SOL    HW117489   1.224   3.261   2.574  1.0690 -0.0264 -1.2445
 2009SOL    HW217490   1.345   3.342   2.544  0.4663  1.5994 -0.3332
 2010SOL     OW17491   2.886   2.142   6.474  0.0163 -0.2008  0.1636
 2010SOL    HW117492   2.921   2.118   6.560  0.9580  2.7990  0.6121
 2010SOL    HW217493   2.954   2.125   6.409  2.3598  1.3241  2.2019
 2011SOL     OW17494   2.279   2.405   4.884  0.0126  0.5203  0.1613
 2011SOL    HW117495   2.225   2.358   4.821 -1.5522 -0.3206  2.1495
 2011SOL    HW217496   2.362   2.370   4.851 -0.2336  2.0267 -2.0462
 2012SOL     OW17497   4.516   3.795   1.630  0.6390  0.0675 -0.7089
 2012SOL    HW117498   4.606   3.763   1.635  0.6919  0.6275  1.9050
 2012SOL    HW217499   4.519   3.861   1.699 -2.6823 -1.7403  1.1542
 2013SOL     OW17500   3.962   1.882   7.869  0.0430 -0.4297 -0.7113
 2013SOL    HW117501   3.904   1.814   7.906  0.7487 -0.7113 -0.1162
 2013SOL    HW217502   4.038   1.840   7.910  1.1150  1.6490 -0.6233
 2014SOL     OW17503   0.704   0.060   5.530 -0.5753  0.4390 -0.3293
 2014SOL    HW117504   0.668   0.142   5.564  0.1066  0.8258 -0.5349
 2014SOL    HW217505   0.779   0.092   5.480  0.1806  1.1910  1.2737
 2015SOL     OW17506   1.039   0.520   7.950  0.4638 -0.2362 -0.1533
 2015SOL    HW117507   0.956   0.473   7.959 -0.7194  1.0616 -4.3975
 2015SOL    HW217508   1.027   0.586   7.882 -0.6795 -1.3582 -1.0351
 2016SOL     OW17509   3.128   3.363   2.217  0.1705 -0.5194 -0.3436
 2016SOL    HW117510   3.079   3.282   2.236 -2.3769  1.4464  1.4494
 2016SOL    HW217511   3.187   3.332   2.149  0.3719 -1.4173  0.2349
 2017SOL     OW17512   0.552   4.059  12.403 -0.8458 -0.0156  0.5622
 2017SOL    HW117513   0.483   4.120  12.429 -0.4773 -0.7524  3.2145
 2017SOL    HW217514   0.569   4.014  12.485  0.1247  0.9684  0.9092
 2018SOL     OW17515   2.588   3.807   4.355  0.1891  0.0976 -0.4796
 2018SOL    HW117516   2.641   3.883   4.381  1.4040 -0.6140 -0.8791
 2018SOL    HW217517   2.603   3.757   4.436 -2.2576  1.1145  0.6073
 2019SOL     OW17518   4.589   1.795   5.108  0.1896  0.0284  0.2903
 2019SOL    HW117519   4.666   1.799   5.166  0.6432  0.0194 -0.3139
 2019SOL    HW217520   4.617   1.720   5.056  1.4481 -1.2197  2.7655
 2020SOL     OW17521   1.990   1.525  16.852 -0.6057 -0.5736  0.1429
 2020SOL    HW117522   1.907   1.477  16.848  0.0933 -1.7972  0.3390
 2020SOL    HW217523   2.000   1.542  16.946 -2.4494  1.3798  0.0056
 2021SOL     OW17524   3.396   2.683   8.976 -0.5834  0.0389  0.0452
 2021SOL    HW117525   3.360   2.770   8.961 -1.0140 -0.6285 -2.9043
 2021SOL    HW217526   3.375   2.653   8.887 -0.1059 -3.7171  1.2025
 2022SOL     OW17527   2.709   1.211  12.132 -0.1688 -0.3097  0.0803
 2022SOL    HW117528   2.641   1.261  12.087  1.0827  0.6098 -0.7901
 2022SOL    HW217529   2.696   1.129  12.085  0.7967  0.1295 -0.9302
 2023SOL     OW17530   2.052   0.815   5.867 -0.1355  0.3461 -0.6471
 2023SOL    HW117531   2.056   0.754   5.793 -0.0499 -0.1232 -0.2565
 2023SOL    HW217532   2.140   0.810   5.906 -1.2254  2.1175  2.0661
 2024SOL     OW17533   3.177   2.093   9.503 -0.1809 -0.3098 -0.0624
 2024SOL    HW117534   3.162   2.019   9.562 -1.1182  1.1291  1.5225
 2024SOL    HW217535   3.271   2.084   9.494  0.0490 -0.2820  2.2854
 2025SOL     OW17536   3.137   0.523   1.697 -0.3004  0.3902 -0.6859
 2025SOL    HW117537   3.219   0.513   1.744 -1.0103  0.5018  0.5592
 2025SOL    HW217538   3.164   0.582   1.626  0.8666 -0.6562 -1.1035
 2026SOL     OW17539   4.527   4.054  16.961  0.3844 -0.1852 -0.6648
 2026SOL    HW117540   4.599   3.993  16.976 -0.2815 -0.6360  0.7599
 2026SOL    HW217541   4.464   3.986  16.935 -0.4259 -0.6096  2.4218
 2027SOL     OW17542   2.800   2.853   5.668 -0.6405 -0.3464  0.5474
 2027SOL    HW117543   2.764   2.900   5.593  0.4560  0.1374  0.3155
 2027SOL    HW217544   2.883   2.830   5.627  0.1406  1.3195  1.1860
 2028SOL     OW17545   4.110   0.886   5.156  0.4852  0.0226 -0.0918
 2028SOL    HW117546   4.032   0.870   5.210  0.0815 -0.2534 -0.7508
 2028SOL    HW217547   4.156   0.806   5.182  1.7395  1.2407  1.3731
 2029SOL     OW17548   3.310   3.449   5.778  0.2784  0.2472 -0.0959
 2029SOL    HW117549   3.248   3.522   5.765 -1.5488 -1.0617  1.2788
 2029SOL    HW217550   3.307   3.444   5.873  0.3935 -0.1897 -0.1162
 2030SOL     OW17551   2.070   0.015   0.058 -0.2904 -0.3455  0.3229
 2030SOL    HW117552   1.985   0.051   0.031 -1.2438 -0.0633  3.7750
 2030SOL    HW217553   2.122   0.088   0.023  0.0189  1.1828  4.0155
 2031SOL     OW17554   4.378   2.659   1.501 -0.0891 -0.3972 -0.1808
 2031SOL    HW117555   4.445   2.722   1.475 -0.1241 -0.3839 -0.2378
 2031SOL    HW217556   4.371   2.603   1.424 -0.1354 -0.7929  0.1089
 2032SOL     OW17557   2.268   0.571   6.373 -0.2101  0.0600  0.3727
 2032SOL    HW117558   2.276   0.637   6.304  0.3917 -3.9962 -3.4191
 2032SOL    HW217559   2.174   0.570   6.390 -0.3261  0.4560 -0.2612
 2033SOL     OW17560   2.826   1.557  11.386  0.2311  0.0879 -0.1801
 2033SOL    HW117561   2.752   1.606  11.422 -0.1184  1.5135 -2.8039
 2033SOL    HW217562   2.856   1.622  11.322  2.7730 -0.9902 -0.0856
 2034SOL     OW17563   1.834   3.235   7.685 -0.0413 -0.1632 -0.7583
 2034SOL    HW117564   1.803   3.160   7.634 -1.2873 -0.1613  0.0056
 2034SOL    HW217565   1.828   3.194   7.771 -0.8730  0.2701 -0.6136
 2035SOL     OW17566   4.132   0.653  14.216  0.1997  0.3641  0.1174
 2035SOL    HW117567   4.068   0.590  14.252 -1.3488  1.0073 -1.4817
 2035SOL    HW217568   4.094   0.663  14.129 -0.4459 -0.6565  0.2757
 2036SOL     OW17569   4.017   0.602   3.542 -0.0487  0.1024  0.2020
 2036SOL    HW117570   3.952   0.672   3.557  0.7350  0.7355  0.6633
 2036SOL    HW217571   3.967   0.524   3.518 -0.3603  0.2474  0.3776
 2037SOL     OW17572   1.869   4.656   3.731 -0.1963 -0.3847  0.2565
 2037SOL    HW117573   1.843   4.575   3.686 -2.9743  1.1905 -0.9928
 2037SOL    HW217574   1.813   4.639   3.807  1.8466 -2.4062  1.3016
 2038SOL     OW17575   3.153   3.069   3.743  0.3276 -0.5900 -0.6644
 2038SOL    HW117576   3.080   3.097   3.798  0.8488 -1.1137  0.2871
 2038SOL    HW217577   3.223   3.060   3.807 -0.6184  1.0271  0.6119
 2039SOL     OW17578   2.123   0.331   1.991 -0.1737  0.0931 -0.3305
 2039SOL    HW117579   2.173   0.379   2.057 -0.1320 -1.4896  0.8004
 2039SOL    HW217580   2.139   0.243   2.025  0.2347  1.0600  1.9645
 2040SOL     OW17581   1.747   1.132   3.970 -0.2885 -0.1414 -0.4671
 2040SOL    HW117582   1.801   1.059   3.999 -0.7229  0.4471  1.7883
 2040SOL    HW217583   1.804   1.190   3.919 -1.3013  2.3647  1.2384
 2041SOL     OW17584   0.821   1.010   1.553  0.2952 -0.0911  0.6154
 2041SOL    HW117585   0.736   0.967   1.555  0.1594  0.0482 -2.1100
 2041SOL    HW217586   0.858   0.970   1.474 -0.2427  1.4088 -0.3926
 2042SOL     OW17587   3.236   1.315   6.820 -0.6693  0.3161  0.7117
 2042SOL    HW117588   3.228   1.392   6.763 -0.5378 -0.3742 -0.2249
 2042SOL    HW217589   3.157   1.324   6.874 -0.8742 -0.8095  0.5847
 2043SOL     OW17590   1.974   1.636   1.338 -0.1547 -0.1942 -0.4445
 2043SOL    HW117591   2.064   1.640   1.369 -0.4804 -0.1110  0.4849
 2043SOL    HW217592   1.947   1.553   1.377  0.1767 -0.4808 -0.8269
 2044SOL     OW17593   1.918   2.225   5.173  0.5850  0.6822  0.6226
 2044SOL    HW117594   1.899   2.146   5.122 -0.1557  2.8557 -2.4540
 2044SOL    HW217595   1.830   2.239   5.208 -0.0897 -3.9174  0.6919
 2045SOL     OW17596   3.257   1.079  12.533 -0.0492 -0.2883 -0.0075
 2045SOL    HW117597   3.320   1.042  12.595  1.1039  1.7942  0.0729
 2045SOL    HW217598   3.249   1.171  12.559 -0.6909 -0.0814 -0.9189
 2046SOL     OW17599   1.208   0.425   2.830 -0.3374  0.1331 -0.5436
 2046SOL    HW117600   1.190   0.495   2.768  1.9961  1.3669  0.1868
 2046SOL    HW217601   1.301   0.435   2.848  0.1267 -2.0725 -1.6998
 2047SOL     OW17602   1.402   1.049   2.707  0.2381 -0.8198 -0.0534
 2047SOL    HW117603   1.337   1.119   2.714  0.6671 -0.3276 -1.0388
 2047SOL    HW217604   1.419   1.049   2.801 -0.5716  1.1305  0.1110
 2048SOL     OW17605   0.593   0.146  16.087 -0.3049 -0.0198  0.0838
 2048SOL    HW117606   0.515   0.094  16.108 -0.3272  0.3082  0.8024
 2048SOL    HW217607   0.575   0.186  16.002 -0.3670 -1.2446 -0.4804
 2049SOL     OW17608   3.443   1.358   1.425  0.5526 -0.2211 -0.4581
 2049SOL    HW117609   3.516   1.364   1.487 -0.0830  0.7644  0.1845
 2049SOL    HW217610   3.496   1.333   1.350  0.8140 -0.8385 -0.0739
 2050SOL     OW17611   1.506   4.243   6.060  0.2446  0.0832 -0.0801
 2050SOL    HW117612   1.567   4.267   6.130  0.7030  0.3899 -0.5842
 2050SOL    HW217613   1.470   4.158   6.085  0.0359  0.7721  1.9596
 2051SOL     OW17614   4.247   2.297   5.011  0.1209  0.0023  0.3048
 2051SOL    HW117615   4.208   2.269   4.929 -1.0402  0.7908  0.5756
 2051SOL    HW217616   4.178   2.310   5.077 -0.0794 -1.4882  0.3725
 2052SOL     OW17617   3.667   3.835  14.808 -0.7338  0.3009 -0.1217
 2052SOL    HW117618   3.709   3.787  14.737  0.0884  1.5572 -0.4927
 2052SOL    HW217619   3.741   3.834  14.869 -0.4965  2.7343 -0.3557
 2053SOL     OW17620   4.368   4.115   7.533 -0.8173 -0.4768 -0.0958
 2053SOL    HW117621   4.283   4.092   7.570 -0.6446 -1.7354 -0.4645
 2053SOL    HW217622   4.389   4.198   7.576  2.9908 -0.7367 -1.4286
 2054SOL     OW17623   4.341   1.410   3.404 -0.3446  0.1340  0.0043
 2054SOL    HW117624   4.371   1.335   3.354 -2.2144 -0.4646 -0.2129
 2054SOL    HW217625   4.378   1.485   3.358  1.5813 -0.7240  0.1461
 2055SOL     OW17626   4.526   2.394   0.161  0.6024  0.8213 -0.1681
 2055SOL    HW117627   4.453   2.392   0.100 -0.8469 -2.7738  1.6691
 2055SOL    HW217628   4.543   2.300   0.165 -1.4101  0.6070  2.9165
 2056SOL     OW17629   4.155   0.173  16.329 -0.4234 -0.5365  0.0794
 2056SOL    HW117630   4.066   0.206  16.341 -0.6474 -0.2007 -2.3889
 2056SOL    HW217631   4.182   0.220  16.250 -2.0843  1.9154  0.9932
 2057SOL     OW17632   3.585   0.178   3.100 -0.4983  0.2029  0.9950
 2057SOL    HW117633   3.626   0.179   3.014 -0.4007 -1.7277  1.0129
 2057SOL    HW217634   3.557   0.086   3.106 -1.1604  0.3685  0.4880
 2058SOL     OW17635   4.448   2.449   5.262 -0.6169 -0.0214  0.3210
 2058SOL    HW117636   4.407   2.445   5.348  2.5102 -2.4005  1.7129
 2058SOL    HW217637   4.493   2.367   5.241  0.1670  0.0225  1.8419
 2059SOL     OW17638   3.914   2.792   2.859  0.3628 -0.1548  1.2141
 2059SOL    HW117639   3.935   2.706   2.823  0.5526  0.9391 -1.2559
 2059SOL    HW217640   3.830   2.771   2.899  1.0449 -2.4457  1.4291
 2060SOL     OW17641   1.425   3.482  15.503  0.4616 -0.1313  0.2066
 2060SOL    HW117642   1.498   3.435  15.462  0.4305 -0.1475  0.1694
 2060SOL    HW217643   1.389   3.411  15.556  1.3576 -0.4195  0.4289
 2061SOL     OW17644   2.727   3.122  14.858 -0.2902  0.2155 -0.5103
 2061SOL    HW117645   2.673   3.059  14.810  0.8519 -0.3389 -1.0711
 2061SOL    HW217646   2.712   3.202  14.808  1.3836 -0.0795 -1.5006
 2062SOL     OW17647   3.485   4.287   5.217 -0.0478 -0.6344 -0.4965
 2062SOL    HW117648   3.466   4.268   5.125  0.5742 -1.2196 -0.5027
 2062SOL    HW217649   3.460   4.213   5.272 -0.3100 -0.9547 -1.0451
 2063SOL     OW17650   2.353   3.022  15.905  0.4592 -0.6532 -0.2723
 2063SOL    HW117651   2.418   3.069  15.956  0.5556 -1.1212  0.0394
 2063SOL    HW217652   2.361   2.927  15.917  2.1920 -0.6339 -1.3809
 2064SOL     OW17653   4.241   3.452   5.785 -0.6440  0.9004 -0.3197
 2064SOL    HW117654   4.155   3.414   5.768 -0.8920  0.8830  0.9805
 2064SOL    HW217655   4.236   3.533   5.734  2.7346 -0.2278 -2.4118
 2065SOL     OW17656   1.407   2.583   5.902  0.2661  0.7275  0.1090
 2065SOL    HW117657   1.489   2.596   5.855  0.3014  3.2452  0.8588
 2065SOL    HW217658   1.428   2.541   5.986  1.4750 -0.4690 -0.7858
 2066SOL     OW17659   1.601   3.972   2.315 -0.0924 -0.0083 -0.2685
 2066SOL    HW117660   1.595   3.962   2.220  1.9435 -2.0066 -0.1791
 2066SOL    HW217661   1.576   3.886   2.350  1.2585 -0.8760 -1.4264
 2067SOL     OW17662   1.371   4.713   4.214  1.0951  0.1178 -0.7152
 2067SOL    HW117663   1.366   4.641   4.277 -2.0230 -0.0670 -1.1528
 2067SOL    HW217664   1.350   0.064   4.268 -3.7038 -1.4023 -0.4552
 2068SOL     OW17665   1.467   4.267   4.392  0.1379  0.1493  0.4081
 2068SOL    HW117666   1.458   4.182   4.435  3.5484 -0.5382 -0.2874
 2068SOL    HW217667   1.560   4.278   4.410 -0.0614  0.2870  1.3471
 2069SOL     OW17668   0.021   3.850   6.871 -0.2801  0.1578  0.1313
 2069SOL    HW117669   0.073   3.774   6.898  1.4993  1.1493 -0.5152
 2069SOL    HW217670   4.663   3.845   6.919 -0.5553 -0.8812 -0.4572
 2070SOL     OW17671   4.056   1.072  14.696 -0.1394  0.5997 -0.2521
 2070SOL    HW117672   4.030   1.080  14.787  0.8994  1.5442 -0.0348
 2070SOL    HW217673   4.122   1.142  14.689 -1.4533  1.6943 -1.7570
 2071SOL     OW17674   3.836   0.830   4.459 -0.3698 -0.5338 -0.3969
 2071SOL    HW117675   3.931   0.838   4.450 -0.3598  0.1615  0.3279
 2071SOL    HW217676   3.827   0.752   4.514  1.0297  0.8468  1.7995
 2072SOL     OW17677   1.584   3.143   6.483 -0.5306  0.3757 -0.0610
 2072SOL    HW117678   1.555   3.099   6.403  0.5021 -1.8235  0.8033
 2072SOL    HW217679   1.678   3.145   6.465 -0.9141  2.3024 -1.9228
 2073SOL     OW17680   1.032   0.708  11.806  0.2180  0.3447  0.0668
 2073SOL    HW117681   0.942   0.681  11.783  0.6225 -0.5000 -0.5527
 2073SOL    HW217682   1.069   0.621  11.789  1.2937  0.8950 -0.3826
 2074SOL     OW17683   3.504   4.260   6.615 -0.1671  0.3998 -1.0264
 2074SOL    HW117684   3.488   4.168   6.596 -2.0871 -0.0035  2.5988
 2074SOL    HW217685   3.439   4.299   6.555 -1.9200 -1.3675 -0.2561
 2075SOL     OW17686   2.217   0.911   3.016  0.8450 -0.2510  0.1103
 2075SOL    HW117687   2.203   0.828   3.061  1.0074  0.4567  1.4657
 2075SOL    HW217688   2.279   0.961   3.069  1.2586  1.0271 -1.5773
 2076SOL     OW17689   1.769   0.838   1.527 -0.1728  0.1350  0.2827
 2076SOL    HW117690   1.712   0.844   1.604  0.9359 -1.8389  1.2519
 2076SOL    HW217691   1.841   0.788   1.565  0.5034  1.6767  1.0511
 2077SOL     OW17692   0.733   2.160  13.505  0.3590 -0.2296 -0.2730
 2077SOL    HW117693   0.715   2.235  13.449 -0.1320 -1.6869 -2.0434
 2077SOL    HW217694   0.682   2.088  13.468  2.3624 -1.6559 -0.2549
 2078SOL     OW17695   2.700   1.312   8.426 -0.1434  0.2640 -0.3547
 2078SOL    HW117696   2.756   1.247   8.469 -0.0987  1.2110  1.0170
 2078SOL    HW217697   2.718   1.387   8.483 -0.2731  1.1457 -1.4829
 2079SOL     OW17698   1.343   0.627  11.875 -0.7958 -0.6627 -0.5766
 2079SOL    HW117699   1.304   0.713  11.887 -0.7223 -0.4763 -1.6371
 2079SOL    HW217700   1.432   0.654  11.898 -1.8744  0.4308  2.3740
 2080SOL     OW17701   3.116   3.176   3.096 -0.1225 -0.6773  0.0730
 2080SOL    HW117702   3.115   3.092   3.052  0.6163 -1.5349  1.6909
 2080SOL    HW217703   3.050   3.164   3.164 -0.2197 -2.5436 -0.3763
 2081SOL     OW17704   3.892   3.928   0.509  0.0842 -0.0245 -0.2398
 2081SOL    HW117705   3.811   3.958   0.467  0.5689 -0.9338 -1.8373
 2081SOL    HW217706   3.874   3.962   0.596 -1.6036 -0.0033 -0.5846
 2082SOL     OW17707   1.329   4.023  12.139  0.1763  0.3134 -0.0418
 2082SOL    HW117708   1.379   4.104  12.143 -1.3668  1.2635 -0.1324
 2082SOL    HW217709   1.250   4.060  12.100 -1.3750 -2.2662  0.6774
 2083SOL     OW17710   1.520   0.403   5.642  0.5675 -0.0375  0.2972
 2083SOL    HW117711   1.519   0.331   5.705  0.4241  0.0036  0.3404
 2083SOL    HW217712   1.540   0.361   5.558 -0.7393 -1.6065  0.7678
 2084SOL     OW17713   1.132   1.119  10.860 -0.1313  0.2415  0.0719
 2084SOL    HW117714   1.137   1.050  10.927  1.7339  1.1641  0.8680
 2084SOL    HW217715   1.141   1.199  10.913  2.0516  0.3100 -0.4309
 2085SOL     OW17716   0.130   3.287   9.161 -0.5876 -0.4024  0.1798
 2085SOL    HW117717   0.044   3.329   9.168 -0.5053 -0.0437 -1.0843
 2085SOL    HW217718   0.113   3.208   9.214  0.0349 -0.8141 -0.2387
 2086SOL     OW17719   0.038   1.671   3.773  0.4490 -0.2947  0.0503
 2086SOL    HW117720   0.094   1.686   3.697  2.3943 -1.0003  1.3613
 2086SOL    HW217721   4.673   1.674   3.740  0.1125 -0.4311  0.9429
 2087SOL     OW17722   1.610   0.997   5.311  0.2878  0.0760 -0.0030
 2087SOL    HW117723   1.632   0.984   5.218  2.1437 -2.2764  0.7614
 2087SOL    HW217724   1.631   1.090   5.315  0.3419  0.1206 -1.3849
 2088SOL     OW17725   3.261   3.673   1.113  0.4357  0.1037 -0.8155
 2088SOL    HW117726   3.228   3.646   1.199 -0.2206  0.9745 -0.7833
 2088SOL    HW217727   3.236   3.766   1.117  0.8389  0.2203 -0.9944
 2089SOL     OW17728   0.643   1.460   3.049 -0.4726 -0.5285 -0.1716
 2089SOL    HW117729   0.571   1.473   3.111  0.7082 -0.1841  1.1385
 2089SOL    HW217730   0.604   1.488   2.967  0.7443 -0.1848 -0.6245
 2090SOL     OW17731   3.250   4.445   0.392  0.3455 -0.0350  0.3765
 2090SOL    HW117732   3.190   4.440   0.318 -0.1960  2.7184  0.6226
 2090SOL    HW217733   3.296   4.361   0.388  3.3466  1.6408 -0.2817
 2091SOL     OW17734   4.190   1.413   5.534 -0.6847 -0.5270  0.1425
 2091SOL    HW117735   4.217   1.423   5.443  0.9358 -0.6397  0.6170
 2091SOL    HW217736   4.163   1.503   5.554  0.4645  0.1916 -1.5830
 2092SOL     OW17737   3.566   1.726   7.502 -0.0676  0.2050  0.0411
 2092SOL    HW117738   3.564   1.813   7.460  2.3811  0.5193  0.5580
 2092SOL    HW217739   3.551   1.677   7.421  2.5674  0.3776 -0.5561
 2093SOL     OW17740   2.035   2.925   9.033 -0.2006  0.2166  0.1510
 2093SOL    HW117741   2.036   3.016   9.063 -0.6013  0.2021  0.2066
 2093SOL    HW217742   2.125   2.894   9.044 -0.6026 -0.2944  1.9193
 2094SOL     OW17743   4.356   3.348   8.850  0.0275  0.0119  0.5115
 2094SOL    HW117744   4.363   3.281   8.783 -0.9667  0.5696 -0.1440
 2094SOL    HW217745   4.325   3.298   8.926  1.1717 -2.2831 -0.5230
 2095SOL     OW17746   4.709   0.280   2.991  0.0783  0.0401 -0.3340
 2095SOL    HW117747   4.684   0.239   2.908 -0.9874 -0.6875  0.3611
 2095SOL    HW217748   0.052   0.218   3.019  0.4092 -0.4284 -2.1308
 2096SOL     OW17749   3.266   3.956   3.576 -0.4968  0.7293 -0.3123
 2096SOL    HW117750   3.243   3.954   3.483  1.0464  0.4263 -0.6957
 2096SOL    HW217751   3.219   3.881   3.610 -0.1825 -0.1463 -1.7992
 2097SOL     OW17752   3.899   0.137   6.203 -0.1118 -0.1900 -0.1335
 2097SOL    HW117753   3.899   0.200   6.132 -0.1029  2.1927  2.0007
 2097SOL    HW217754   3.983   0.094   6.185 -0.4430  0.8116 -4.0730
 2098SOL     OW17755   1.475   1.511   2.592 -0.7692  0.2621 -0.0335
 2098SOL    HW117756   1.379   1.504   2.596 -0.8230  1.2300  0.1775
 2098SOL    HW217757   1.484   1.488   2.499 -0.2203 -0.3547  0.1720
 2099SOL     OW17758   1.308   4.105   1.160 -0.0624 -0.0547  0.8290
 2099SOL    HW117759   1.233   4.122   1.103 -0.3087 -2.6031  0.3823
 2099SOL    HW217760   1.259   4.117   1.242  0.4899 -0.8971  1.2763
 2100SOL     OW17761   2.988   1.768   9.150 -0.2304 -0.3199 -0.3561
 2100SOL    HW117762   2.953   1.813   9.227  0.0585  0.7675 -0.8589
 2100SOL    HW217763   2.997   1.680   9.186  0.7258 -1.1040 -2.5315
 2101SOL     OW17764   4.332   1.851  10.767  0.1865  0.5220 -0.2305
 2101SOL    HW117765   4.416   1.895  10.777  0.5425 -0.2824  0.3233
 2101SOL    HW217766   4.292   1.838  10.853  0.5729 -1.5542 -0.3797
 2102SOL     OW17767   4.513   3.079   1.917 -0.0462 -0.2518 -0.1488
 2102SOL    HW117768   4.593   3.027   1.914 -0.4273 -0.8469  0.0134
 2102SOL    HW217769   4.494   3.088   1.823 -0.9534 -1.1675 -0.0475
 2103SOL     OW17770   3.091   0.516  10.999  0.3023  0.0663 -0.0106
 2103SOL    HW117771   3.076   0.464  11.078  0.8423  0.6173  0.4581
 2103SOL    HW217772   3.084   0.439  10.942 -1.3785 -0.6266  1.1629
 2104SOL     OW17773   1.911   4.537   5.086  0.7339  0.2409 -0.1808
 2104SOL    HW117774   1.889   4.456   5.132  2.0438 -1.1812 -2.0654
 2104SOL    HW217775   1.970   4.584   5.145 -1.8935  1.7026  1.2731
 2105SOL     OW17776   1.460   0.249   9.824 -0.0407 -0.6630 -0.1500
 2105SOL    HW117777   1.514   0.279   9.751  0.1280 -1.4150 -0.3376
 2105SOL    HW217778   1.449   0.157   9.799  1.6992 -0.5690 -1.2663
 2106SOL     OW17779   4.342   3.228   0.691  0.6017 -0.4718  0.1704
 2106SOL    HW117780   4.377   3.205   0.605 -1.5492 -0.0196 -0.8328
 2106SOL    HW217781   4.327   3.322   0.688  0.4399 -0.4343  2.3143
 2107SOL     OW17782   3.678   4.411  14.400  0.6221 -0.0080  0.2404
 2107SOL    HW117783   3.761   4.365  14.384  1.6063  1.9650 -0.3453
 2107SOL    HW217784   3.617   4.375  14.336  0.8691 -1.7723  1.0005
 2108SOL     OW17785   3.121   2.908   0.737 -0.2626 -0.5703  0.7676
 2108SOL    HW117786   3.034   2.939   0.764  0.3052  1.8134 -0.1286
 2108SOL    HW217787   3.155   2.877   0.821 -0.0776 -0.5539  0.6991
 2109SOL     OW17788   0.512   4.329   5.651  0.0287  0.0736  0.0632
 2109SOL    HW117789   0.534   4.410   5.698  0.7912  0.9503 -1.8273
 2109SOL    HW217790   0.581   4.278   5.693  1.1215  1.1483 -0.4155
 2110SOL     OW17791   3.230   4.440   3.188  0.1507 -0.2455  0.1911
 2110SOL    HW117792   3.234   4.387   3.267  2.1917  2.5738  1.9743
 2110SOL    HW217793   3.147   4.488   3.190  1.1109  1.3932  0.3571
 2111SOL     OW17794   4.185   2.327   1.331 -0.1497  0.1909  1.1821
 2111SOL    HW117795   4.259   2.373   1.290 -3.8800  3.9042 -1.4384
 2111SOL    HW217796   4.221   2.311   1.418 -1.1331  0.7232  1.6915
 2112SOL     OW17797   1.415   3.920   2.717 -0.0521 -0.4256  0.0082
 2112SOL    HW117798   1.505   3.933   2.684 -0.2401  0.9227 -0.0027
 2112SOL    HW217799   1.366   3.935   2.636 -1.1018 -1.9528  0.3748
 2113SOL     OW17800   1.444   2.456   1.466  0.7511  0.3436  0.1375
 2113SOL    HW117801   1.355   2.422   1.466  1.1993 -0.8127 -1.3872
 2113SOL    HW217802   1.458   2.486   1.556  0.0400 -4.0340  1.7217
 2114SOL     OW17803   0.386   0.915  10.123  0.3812  0.1784 -0.6904
 2114SOL    HW117804   0.478   0.942  10.120  0.2087  0.6355 -1.8721
 2114SOL    HW217805   0.347   1.002  10.122 -1.7446 -0.7829 -0.9434
 2115SOL     OW17806   2.825   1.556   8.875  0.1834 -0.4251 -0.7730
 2115SOL    HW117807   2.731   1.553   8.857  0.0063  2.0209 -0.2357
 2115SOL    HW217808   2.834   1.588   8.965 -0.4515  1.3560 -1.3391
 2116SOL     OW17809   2.671   2.758  16.624  0.0250 -0.6246 -0.1096
 2116SOL    HW117810   2.689   2.712  16.706  0.4780  0.0586  0.1735
 2116SOL    HW217811   2.704   2.847  16.637  0.0720 -0.4447 -1.4593
 2117SOL     OW17812   4.633   4.446   5.211 -0.1766 -0.0026 -0.3690
 2117SOL    HW117813   4.675   4.389   5.146 -2.0399 -1.4699 -0.3003
 2117SOL    HW217814   4.601   4.378   5.270  0.1573  2.9346  3.1618
 2118SOL     OW17815   2.304   1.138   2.866 -0.3411 -0.3150 -0.7248
 2118SOL    HW117816   2.237   1.081   2.905  0.1941 -0.1371  0.4311
 2118SOL    HW217817   2.271   1.153   2.777  0.3015  2.2809 -0.5384
 2119SOL     OW17818   3.251   0.734  10.404 -0.4613 -0.1534  0.3642
 2119SOL    HW117819   3.176   0.785  10.433 -1.2132  1.1350 -3.8066
 2119SOL    HW217820   3.285   0.779  10.327 -0.6966 -1.0609 -0.2694
 2120SOL     OW17821   0.370   2.392   1.715 -0.2509 -0.6601  0.0796
 2120SOL    HW117822   0.439   2.446   1.753  0.5408 -2.5736  1.3339
 2120SOL    HW217823   0.367   2.439   1.631  1.1149 -0.8626 -0.0737
 2121SOL     OW17824   4.292   3.963  10.351 -0.2913  0.0600 -0.2086
 2121SOL    HW117825   4.378   4.004  10.353 -0.2056  0.0950 -5.2808
 2121SOL    HW217826   4.268   4.008  10.433 -0.3150 -3.7364  1.8874
 2122SOL     OW17827   0.121   0.263   6.731 -0.7106 -0.0253 -0.0604
 2122SOL    HW117828   0.104   0.193   6.669 -0.3111  0.8031 -1.0997
 2122SOL    HW217829   0.051   0.236   6.791  0.0846 -1.0069  0.4254
 2123SOL     OW17830   1.245   0.801  10.936 -0.1091 -0.1156 -0.1951
 2123SOL    HW117831   1.216   0.743  10.865  0.9795  0.8456 -1.4206
 2123SOL    HW217832   1.182   0.784  11.006 -1.2518 -0.3448 -1.2842
 2124SOL     OW17833   1.181   0.785   0.097  0.3642 -0.7169  0.1407
 2124SOL    HW117834   1.125   0.719   0.056 -0.3378 -0.8695  1.3401
 2124SOL    HW217835   1.160   0.783   0.190  0.8109 -1.4709  0.2227
 2125SOL     OW17836   0.386   1.222   3.085  0.0100  0.6344 -0.2528
 2125SOL    HW117837   0.340   1.305   3.090  1.1461  1.0503  3.2843
 2125SOL    HW217838   0.318   1.158   3.109 -1.2646  2.3863  0.7886
 2126SOL     OW17839   0.399   2.016   3.299 -0.0894 -0.3418  0.2100
 2126SOL    HW117840   0.325   1.955   3.300  0.6353 -1.1973  2.5067
 2126SOL    HW217841   0.360   2.101   3.316  0.3108 -0.2715  0.7890
 2127SOL     OW17842   3.935   0.486   8.833 -0.1272  0.2128  0.0558
 2127SOL    HW117843   3.950   0.524   8.746  1.2136  1.8638  0.9826
 2127SOL    HW217844   4.020   0.462   8.871 -1.2244  0.7886  2.9413
 2128SOL     OW17845   0.784   4.204   2.078 -0.0155  0.1395  0.1153
 2128SOL    HW117846   0.857   4.169   2.026  0.1698  1.0830 -0.2656
 2128SOL    HW217847   0.803   4.298   2.079 -0.1491  0.1639  0.2898
 2129SOL     OW17848   4.076   3.663   8.493  0.0807  0.2520  0.0941
 2129SOL    HW117849   4.080   3.608   8.571  0.7523 -0.6067 -0.5358
 2129SOL    HW217850   4.167   3.684   8.474  0.8289 -1.4519  1.8401
 2130SOL     OW17851   1.125   4.011  10.144 -0.2171  0.3528 -0.2746
 2130SOL    HW117852   1.192   4.000  10.211 -0.8518  1.6278  0.5660
 2130SOL    HW217853   1.049   4.024  10.202 -0.1069 -2.0924  0.4277
 2131SOL     OW17854   4.072   0.789   6.012 -0.6760  0.2758  0.3881
 2131SOL    HW117855   4.007   0.823   6.073 -0.4898 -0.3246  0.9229
 2131SOL    HW217856   4.156   0.808   6.054 -1.1255  0.7971  1.0512
 2132SOL     OW17857   0.313   2.232   4.952  0.1830 -0.3894 -0.9362
 2132SOL    HW117858   0.254   2.167   4.914  0.0904 -0.7822 -0.1350
 2132SOL    HW217859   0.373   2.244   4.878  0.6847  1.0345 -0.2982
 2133SOL     OW17860   1.793   1.164   6.096  0.0554 -0.7154 -0.0062
 2133SOL    HW117861   1.827   1.097   6.154  1.0484 -1.0887 -1.0201
 2133SOL    HW217862   1.870   1.181   6.041  0.3317  1.8707  1.1492
 2134SOL     OW17863   4.048   3.415   7.253 -0.7099  0.1850  0.5705
 2134SOL    HW117864   3.980   3.362   7.211  0.3505 -0.7533  0.0213
 2134SOL    HW217865   3.996   3.477   7.304 -2.0483 -0.1501 -0.4029
 2135SOL     OW17866   0.828   0.815   5.059 -0.2588  0.0070 -0.3946
 2135SOL    HW117867   0.800   0.769   5.138 -0.7599 -1.1602 -1.2498
 2135SOL    HW217868   0.911   0.849   5.092 -0.8920  1.2631 -0.0826
 2136SOL     OW17869   3.181   3.907  12.497  0.1385 -0.0401  0.0640
 2136SOL    HW117870   3.271   3.936  12.508  0.3549 -1.1311  1.1004
 2136SOL    HW217871   3.144   3.995  12.505  1.2872  0.5051 -0.5766
 2137SOL     OW17872   2.941   0.811  11.887  0.3883  0.0810  0.7644
 2137SOL    HW117873   2.928   0.813  11.792 -0.4957 -0.3069  0.8713
 2137SOL    HW217874   3.009   0.876  11.904 -0.7458  1.2618  0.8552
 2138SOL     OW17875   1.322   3.560   7.812 -0.3752 -0.4193 -0.0301
 2138SOL    HW117876   1.382   3.514   7.871  0.7128  0.1619 -0.6824
 2138SOL    HW217877   1.241   3.540   7.859 -0.4769  0.0821  0.0097
 2139SOL     OW17878   1.534   1.687   1.772  0.1989 -0.6348  1.4198
 2139SOL    HW117879   1.496   1.614   1.723  0.2456  0.1117  0.2744
 2139SOL    HW217880   1.619   1.691   1.727 -1.5412  0.1846 -1.8106
 2140SOL     OW17881   1.091   0.260   9.549 -0.7743 -0.0330  0.2277
 2140SOL    HW117882   1.115   0.309   9.628  1.0017  1.3847 -1.1726
 2140SOL    HW217883   1.008   0.290   9.512  0.3237  1.5555 -0.9642
 2141SOL     OW17884   0.100   0.172   2.106 -0.0095 -1.1442 -0.4005
 2141SOL    HW117885   0.099   0.225   2.185  1.6246 -0.3160 -0.9236
 2141SOL    HW217886   0.093   0.232   2.031 -2.6570 -0.5315  0.3579
 2142SOL     OW17887   3.876   2.089   7.565 -0.0337 -0.8341 -0.0909
 2142SOL    HW117888   3.841   2.138   7.640 -0.5692 -1.1725 -0.1217
 2142SOL    HW217889   3.954   2.043   7.593  0.6764  1.2120  1.2804
 2143SOL     OW17890   0.624   2.624  12.514  0.1546  0.1635  0.0018
 2143SOL    HW117891   0.670   2.586  12.439 -0.4544  2.2676 -1.4524
 2143SOL    HW217892   0.648   2.552  12.572 -2.3328  1.0422  2.1056
 2144SOL     OW17893   1.124   3.943  14.680  0.0427  0.2023  0.3811
 2144SOL    HW117894   1.196   3.993  14.720 -1.6811  1.2501  2.1613
 2144SOL    HW217895   1.148   3.951  14.588  1.1365 -1.7984  0.4983
 2145SOL     OW17896   3.072   2.101   7.141 -0.0586  0.0596  0.0269
 2145SOL    HW117897   3.088   2.009   7.121  0.7414  0.3321 -0.5880
 2145SOL    HW217898   2.977   2.098   7.151 -0.1784  0.5865 -0.9433
 2146SOL     OW17899   2.268   2.989   3.181  0.8551  0.3899  0.5813
 2146SOL    HW117900   2.311   3.074   3.193  0.3655  0.9536 -1.6962
 2146SOL    HW217901   2.180   3.016   3.154  0.0673 -0.7981  1.9711
 2147SOL     OW17902   2.803   2.351   4.056  0.0449 -0.0122 -0.5344
 2147SOL    HW117903   2.881   2.346   4.002  0.3229 -0.2047 -0.1205
 2147SOL    HW217904   2.831   2.407   4.129  2.4087 -1.1329 -0.5741
 2148SOL     OW17905   4.659   0.203  15.843 -0.0561 -0.0072  0.0788
 2148SOL    HW117906   4.579   0.182  15.891 -0.0273 -0.6134 -0.1414
 2148SOL    HW217907   4.643   0.294  15.816 -1.8356 -0.6343 -1.0035
 2149SOL     OW17908   2.667   1.686   7.507 -0.4782  0.0469  0.5436
 2149SOL    HW117909   2.628   1.765   7.470 -2.3180 -0.4837  1.3739
 2149SOL    HW217910   2.602   1.620   7.482  1.0387 -0.8068 -1.1747
 2150SOL     OW17911   0.001   3.514   5.456  1.0468  0.1788 -0.0054
 2150SOL    HW117912   0.015   3.419   5.458 -1.3324 -0.1625  1.1243
 2150SOL    HW217913   0.051   3.551   5.384  0.4752  0.5300 -0.2226
 2151SOL     OW17914   1.698   4.467  12.452  0.0472  0.2459 -0.1959
 2151SOL    HW117915   1.775   4.487  12.398  0.7278 -3.0688 -0.4537
 2151SOL    HW217916   1.699   4.371  12.462 -2.6226  0.4245  1.8039
 2152SOL     OW17917   4.507   1.085   8.399  0.1597  0.1217  0.0527
 2152SOL    HW117918   4.555   1.128   8.328  0.2974 -0.2307 -0.0705
 2152SOL    HW217919   4.571   1.017   8.418  0.0363 -0.6748 -2.4014
 2153SOL     OW17920   0.984   2.802  17.356 -0.0497  0.4894  0.3760
 2153SOL    HW117921   0.912   2.768  17.302  0.9963 -2.6131  0.8978
 2153SOL    HW217922   1.050   2.732  17.357 -0.3849  0.1741  0.9058
 2154SOL     OW17923   3.582   0.871   5.997 -0.6195  0.7404 -0.0712
 2154SOL    HW117924   3.600   0.814   6.072 -0.3947 -0.8939 -1.3692
 2154SOL    HW217925   3.653   0.935   6.004  0.2921 -0.2027 -0.5098
 2155SOL     OW17926   1.638   4.634  13.754  0.6632 -0.5780  0.0258
 2155SOL    HW117927   1.601   4.705  13.701 -0.5030 -0.6270  0.7763
 2155SOL    HW217928   1.679   4.679  13.828  1.3979 -1.7218  0.3129
 2156SOL     OW17929   3.817   4.418   7.985 -0.3371 -0.1527  0.2708
 2156SOL    HW117930   3.762   4.406   8.063  0.6378 -0.6041  0.8873
 2156SOL    HW217931   3.817   4.329   7.949 -0.8413 -0.0597  0.0391
 2157SOL     OW17932   2.419   2.882  12.444  0.3963 -0.3904  0.8887
 2157SOL    HW117933   2.471   2.802  12.439 -2.1270 -1.9299 -1.0108
 2157SOL    HW217934   2.344   2.854  12.391 -0.3160  2.3865  0.4424
 2158SOL     OW17935   0.316   0.039   0.617 -0.1124  0.3627  0.0851
 2158SOL    HW117936   0.374   4.701   0.574  0.8656  1.3017  0.0341
 2158SOL    HW217937   0.359   0.053   0.701  0.9707  1.9358 -0.7293
 2159SOL     OW17938   3.396   1.080  11.415 -0.0837 -0.2931  0.1298
 2159SOL    HW117939   3.378   1.128  11.334  1.2162 -1.9981 -1.1504
 2159SOL    HW217940   3.492   1.081  11.416 -0.0740 -1.9361  1.2347
 2160SOL     OW17941   0.833   4.248   8.219 -0.4655 -0.5711 -0.3398
 2160SOL    HW117942   0.888   4.170   8.213 -0.4308 -0.5244 -0.6619
 2160SOL    HW217943   0.764   4.207   8.270  0.7984  1.3621  2.9340
 2161SOL     OW17944   4.558   3.458  15.916 -0.4222 -0.5498 -0.3666
 2161SOL    HW117945   4.473   3.493  15.888  0.0606  1.4521  0.7182
 2161SOL    HW217946   4.605   3.541  15.916  0.9832 -1.3416 -1.5289
 2162SOL     OW17947   3.514   1.789  17.624 -0.3066 -0.3011 -0.3956
 2162SOL    HW117948   3.496   1.764   0.015 -2.3355  1.2925 -0.3639
 2162SOL    HW217949   3.580   1.720  17.621  1.6287  1.5611 -0.7262
 2163SOL     OW17950   2.458   3.249  16.900 -0.2747 -0.3716 -0.1749
 2163SOL    HW117951   2.488   3.331  16.940  3.6154 -0.6873 -2.5084
 2163SOL    HW217952   2.417   3.282  16.820  1.4616 -1.3221 -1.4541
 2164SOL     OW17953   1.806   2.109   7.066  0.4970 -0.2848  0.1398
 2164SOL    HW117954   1.736   2.080   7.008  2.0885 -2.6434 -0.6169
 2164SOL    HW217955   1.753   2.097   7.144  0.0106 -0.9805 -0.2981
 2165SOL     OW17956   3.951   3.826  14.015 -0.0380 -0.6266  0.1035
 2165SOL    HW117957   3.893   3.764  14.060 -0.9609  0.1416 -0.0047
 2165SOL    HW217958   3.989   3.767  13.951 -0.9437 -0.7924 -0.2884
 2166SOL     OW17959   0.719   4.151  14.839 -0.2349 -0.3148  0.4492
 2166SOL    HW117960   0.745   4.235  14.802  0.7144 -1.0657 -0.5917
 2166SOL    HW217961   0.669   4.178  14.916  0.5387 -1.4610  1.3542
 2167SOL     OW17962   0.009   1.202  14.604  0.1470 -0.4844 -0.1211
 2167SOL    HW117963   0.063   1.246  14.538 -0.2663 -0.5756 -0.5236
 2167SOL    HW217964   4.678   1.154  14.542 -0.3808 -2.9182  2.2225
 2168SOL     OW17965   1.135   0.885   7.596 -0.3077 -0.1832 -0.0273
 2168SOL    HW117966   1.223   0.868   7.628 -0.2468  0.5482  0.1926
 2168SOL    HW217967   1.123   0.839   7.513  0.7576  0.0639 -0.3194
 2169SOL     OW17968   3.623   0.442   8.150 -0.0261  0.1939  0.1644
 2169SOL    HW117969   3.686   0.474   8.085  2.1313 -0.8199  1.7524
 2169SOL    HW217970   3.540   0.430   8.104 -0.8235  4.5241  0.4204
 2170SOL     OW17971   1.742   4.134   8.991  0.1713  0.5246 -0.0039
 2170SOL    HW117972   1.675   4.151   8.925 -0.1210  3.8758  1.1632
 2170SOL    HW217973   1.685   4.126   9.068 -0.0277  3.6173  0.1578
 2171SOL     OW17974   3.554   0.258  11.869  0.0227  0.2789 -0.1123
 2171SOL    HW117975   3.628   0.293  11.919  1.2459 -2.6172  0.1220
 2171SOL    HW217976   3.580   0.167  11.851 -1.6751 -0.0315 -0.9645
 2172SOL     OW17977   3.179   0.880   4.305 -0.6509  0.1327 -0.0117
 2172SOL    HW117978   3.192   0.933   4.227  1.3091 -1.7660 -0.9796
 2172SOL    HW217979   3.089   0.900   4.330 -0.7602  0.1122 -0.3877
 2173SOL     OW17980   1.592   4.256   1.906  0.5205  0.3954 -0.2850
 2173SOL    HW117981   1.545   4.261   1.989  0.2038  0.1751 -0.4519
 2173SOL    HW217982   1.600   4.162   1.895  0.8226  0.3106  0.7159
 2174SOL     OW17983   3.437   1.683   8.851 -0.7335  0.3429  0.3212
 2174SOL    HW117984   3.356   1.687   8.903 -2.2355 -0.7742 -1.9336
 2174SOL    HW217985   3.417   1.615   8.787  2.2086 -1.6966  1.5915
 2175SOL     OW17986   0.398   2.370   9.466 -0.2820  0.7047  0.5227
 2175SOL    HW117987   0.361   2.458   9.470 -0.1553  0.7587  0.4953
 2175SOL    HW217988   0.320   2.322   9.439 -0.2322  1.0737 -0.2645
 2176SOL     OW17989   4.640   0.134   0.863  0.2277  0.3113  0.4678
 2176SOL    HW117990   4.591   0.095   0.790  2.0467 -0.2866 -0.4432
 2176SOL    HW217991   4.607   0.224   0.865 -2.2317 -0.5584 -0.4056
 2177SOL     OW17992   0.127   2.320  12.225 -0.1027  0.0963 -0.2092
 2177SOL    HW117993   0.214   2.323  12.265  0.8061 -1.6381 -2.0871
 2177SOL    HW217994   0.089   2.247  12.273  0.8845 -0.4117 -0.2122
 2178SOL     OW17995   0.778   0.710   0.053 -0.1072 -0.3523  0.2233
 2178SOL    HW117996   0.733   0.743   0.131  0.1724 -0.5492  0.4662
 2178SOL    HW217997   0.838   0.785   0.056  0.1027 -0.5429  0.7058
 2179SOL     OW17998   4.460   4.106   9.324 -0.5726 -0.0280 -0.2840
 2179SOL    HW117999   4.527   4.127   9.390 -0.2347 -0.4122 -0.5091
 2179SOL    HW218000   4.399   4.177   9.345  1.5528  1.6015  0.4972
 2180SOL     OW18001   1.880   4.174  16.912  0.1270  0.5825  0.4527
 2180SOL    HW118002   1.938   4.168  16.837  1.3799 -2.4403  1.6867
 2180SOL    HW218003   1.821   4.243  16.881 -0.7944 -1.5551 -2.4737
 2181SOL     OW18004   3.085   0.071   7.273  0.1338  0.1081 -0.0719
 2181SOL    HW118005   3.062   4.723   7.214 -1.2201  0.6467 -0.2064
 2181SOL    HW218006   3.119   0.018   7.345  0.0503  2.9174  2.0443
 2182SOL     OW18007   1.639   4.558   7.467 -0.0879  0.3179 -0.0665
 2182SOL    HW118008   1.623   4.580   7.375 -2.0823 -1.6153 -0.1630
 2182SOL    HW218009   1.718   4.505   7.456 -0.9981 -0.7108 -1.6280
 2183SOL     OW18010   4.651   0.631   3.372  0.1987  0.2784 -0.0662
 2183SOL    HW118011   4.704   0.566   3.326 -0.8784  0.3879 -1.4429
 2183SOL    HW218012   4.566   0.590   3.358  0.2373 -0.3427  1.4591
 2184SOL     OW18013   1.262   0.344  11.158 -0.1348 -0.1685  0.0382
 2184SOL    HW118014   1.223   0.279  11.101 -1.8632  0.8290  0.0834
 2184SOL    HW218015   1.330   0.388  11.108  0.0739 -3.3637 -2.4966
 2185SOL     OW18016   4.583   2.082  14.080  0.5531 -0.3169 -0.6033
 2185SOL    HW118017   4.657   2.070  14.021 -0.1546 -0.9148 -1.3832
 2185SOL    HW218018   4.520   2.121  14.019  0.0802 -0.8149 -0.4283
 2186SOL     OW18019   1.063   2.305   0.779 -0.1008  0.6871  0.0919
 2186SOL    HW118020   1.132   2.250   0.742 -0.4346 -0.7119  1.5341
 2186SOL    HW218021   1.047   2.276   0.869  1.7256  0.2499  0.2876
 2187SOL     OW18022   0.958   4.581   4.266  0.3726  0.4805 -0.4581
 2187SOL    HW118023   0.995   4.582   4.354 -0.3408  2.3193 -0.1657
 2187SOL    HW218024   1.004   4.658   4.231 -0.3280 -0.2471 -2.9951
 2188SOL     OW18025   1.906   0.508   7.607 -0.1833 -0.5262 -0.1690
 2188SOL    HW118026   1.993   0.501   7.567 -0.0777  1.2225 -0.2448
 2188SOL    HW218027   1.916   0.508   7.702 -1.0698  2.9126 -0.0898
 2189SOL     OW18028   1.818   4.080   6.060 -0.3361  0.3529  0.0573
 2189SOL    HW118029   1.829   4.037   6.145  0.1923 -1.2966 -0.8549
 2189SOL    HW218030   1.818   4.171   6.090  3.6868  0.6368 -0.7480
 2190SOL     OW18031   1.441   0.386  15.681 -0.7187 -0.3641 -0.2069
 2190SOL    HW118032   1.417   0.410  15.591  0.3706  0.0114 -0.3960
 2190SOL    HW218033   1.509   0.320  15.674 -0.2047  0.1702 -0.2391
 2191SOL     OW18034   2.501   4.240   2.292  0.2608 -0.1320  0.1905
 2191SOL    HW118035   2.484   4.212   2.202 -0.5050  0.3592  0.1883
 2191SOL    HW218036   2.527   4.154   2.326 -1.7462 -1.2206 -1.0111
 2192SOL     OW18037   0.500   1.254   5.948 -0.0295 -0.6372 -0.0805
 2192SOL    HW118038   0.451   1.322   5.901  2.1368  0.8960 -0.1459
 2192SOL    HW218039   0.427   1.205   5.984  0.2592 -0.0536  1.2960
 2193SOL     OW18040   0.742   3.175   6.941  0.0432  0.0200  0.2143
 2193SOL    HW118041   0.780   3.114   6.878 -1.2961 -0.2692 -0.2941
 2193SOL    HW218042   0.756   3.251   6.885 -1.1226 -0.6836 -1.0155
 2194SOL     OW18043   2.979   0.358   3.792  0.5275  0.0272  0.3196
 2194SOL    HW118044   2.894   0.385   3.758  0.9537 -0.2694 -0.9789
 2194SOL    HW218045   2.964   0.268   3.822  0.9424  0.2839  1.2974
 2195SOL     OW18046   1.995   3.802  13.061  0.1058 -0.2293 -0.3168
 2195SOL    HW118047   1.947   3.880  13.032  0.9943  0.4777  0.0728
 2195SOL    HW218048   2.033   3.774  12.978  1.7398 -0.0202  0.3603
 2196SOL     OW18049   0.570   0.361   6.200  0.4233 -0.3926 -0.0597
 2196SOL    HW118050   0.610   0.430   6.147  2.6353 -2.1373 -0.6817
 2196SOL    HW218051   0.481   0.395   6.187  1.1783  1.5841  0.0125
 2197SOL     OW18052   2.820   4.022  16.062  0.1831  0.3794 -0.9125
 2197SOL    HW118053   2.813   4.058  16.150  2.4899  1.1121 -1.0177
 2197SOL    HW218054   2.785   3.936  16.086  2.6208 -0.7694 -1.4157
 2198SOL     OW18055   2.680   1.748  17.441 -0.1950 -0.3193  0.4410
 2198SOL    HW118056   2.709   1.657  17.446  0.1177 -0.0397  4.1561
 2198SOL    HW218057   2.687   1.755  17.346 -2.9085  2.2204  0.4457
 2199SOL     OW18058   4.598   1.533   7.019  0.0074  0.2800  0.2997
 2199SOL    HW118059   4.514   1.577   7.035  2.0739  4.4198 -0.4135
 2199SOL    HW218060   4.587   1.446   7.058  1.2985 -0.1450 -0.2811
 2200SOL     OW18061   4.503   3.622   4.360 -0.3572  0.3030  0.3783
 2200SOL    HW118062   4.519   3.702   4.410 -1.1285  0.5069  0.2988
 2200SOL    HW218063   4.434   3.646   4.298  0.9226  3.0163  0.0091
 2201SOL     OW18064   4.105   2.675   1.561 -0.6009 -0.0528  0.1517
 2201SOL    HW118065   4.192   2.650   1.529 -1.0920 -1.1522 -0.3069
 2201SOL    HW218066   4.051   2.665   1.483  0.8929  0.0849 -0.9076
 2202SOL     OW18067   2.287   1.316   1.640 -0.5354 -0.4601  0.0249
 2202SOL    HW118068   2.279   1.277   1.727  1.9654  0.7532  0.8050
 2202SOL    HW218069   2.256   1.406   1.646  1.0034 -0.0415  1.5055
 2203SOL     OW18070   1.569   0.287   0.789  0.0647  0.5780  0.0350
 2203SOL    HW118071   1.531   0.283   0.701  1.7691  0.0853 -0.6898
 2203SOL    HW218072   1.635   0.355   0.780  0.8072 -0.1283  0.1773
 2204SOL     OW18073   0.400   1.343   4.904 -0.6124  0.0464 -0.1460
 2204SOL    HW118074   0.467   1.307   4.961 -2.6682 -0.1706  2.1341
 2204SOL    HW218075   0.425   1.435   4.909 -1.5857  0.2115  1.7201
 2205SOL     OW18076   1.110   0.328   0.635  0.0449 -0.2501 -0.4200
 2205SOL    HW118077   1.148   0.283   0.560 -0.5579  0.7076 -1.3024
 2205SOL    HW218078   1.075   0.254   0.684 -0.7621  0.7131  0.4399
 2206SOL     OW18079   2.566   3.788   7.212  0.0293 -0.4779 -0.1426
 2206SOL    HW118080   2.473   3.776   7.193 -0.2243  0.3150  0.5936
 2206SOL    HW218081   2.570   3.833   7.297  1.1529 -1.0095  0.0817
 2207SOL     OW18082   1.047   0.253   6.208 -0.0085  0.4894  0.4805
 2207SOL    HW118083   0.998   0.333   6.185  0.2131  0.8225  1.1667
 2207SOL    HW218084   0.971   0.195   6.198 -0.5850  1.1688  0.9166
 2208SOL     OW18085   4.548   4.063  17.393  0.2671 -0.1046 -0.4743
 2208SOL    HW118086   4.529   4.143  17.442 -2.1166 -1.2078  0.3525
 2208SOL    HW218087   4.527   4.094  17.305 -0.0586 -0.9277 -0.6895
 2209SOL     OW18088   0.462   1.611   4.927  0.2572  0.0933 -0.2107
 2209SOL    HW118089   0.485   1.667   4.852 -2.5851 -0.9916 -1.9083
 2209SOL    HW218090   0.373   1.638   4.946  0.4754  0.2610  0.5781
 2210SOL     OW18091   1.840   3.093   8.157  0.0416 -0.1040  0.2005
 2210SOL    HW118092   1.919   3.040   8.167 -1.1190 -2.2979 -2.4844
 2210SOL    HW218093   1.828   3.129   8.245 -2.0953 -0.7498  0.1619
 2211SOL     OW18094   0.552   4.683   7.875 -0.3067  0.1353  0.5310
 2211SOL    HW118095   0.505   4.633   7.942 -1.3572 -0.3032 -0.5270
 2211SOL    HW218096   0.641   4.676   7.908 -0.2855 -1.8343  0.1047
 2212SOL     OW18097   2.412   0.839  14.896  0.2621 -0.0268  0.0243
 2212SOL    HW118098   2.389   0.867  14.807  2.4019  3.2151  0.4913
 2212SOL    HW218099   2.362   0.906  14.943  0.1369  0.0701 -0.2450
 2213SOL     OW18100   2.843   0.356   5.683 -0.6470  0.0576  0.2893
 2213SOL    HW118101   2.887   0.419   5.739  0.4128 -2.1940  1.9828
 2213SOL    HW218102   2.850   0.421   5.613  0.1196 -0.8056 -0.4494
 2214SOL     OW18103   2.571   3.303   9.336  0.2142  0.2166  0.3405
 2214SOL    HW118104   2.536   3.381   9.379  1.0055  1.0242 -0.4797
 2214SOL    HW218105   2.666   3.309   9.348 -0.0626  2.1694  1.5506
 2215SOL     OW18106   0.008   0.903   1.944 -0.1233 -0.4793 -0.0567
 2215SOL    HW118107   4.662   0.859   1.896 -2.1295 -0.1383  2.6066
 2215SOL    HW218108   0.025   0.971   1.879  1.2819  0.5271  1.3586
 2216SOL     OW18109   3.226   0.678   1.505 -0.1779 -0.0568 -0.5458
 2216SOL    HW118110   3.198   0.733   1.432 -0.2278 -0.6974 -1.0028
 2216SOL    HW218111   3.301   0.724   1.543 -1.4966  1.4566  0.2676
 2217SOL     OW18112   2.421   3.653   3.030  0.0429 -0.2021 -0.6222
 2217SOL    HW118113   2.439   3.731   2.978 -1.4882 -0.4453 -1.4873
 2217SOL    HW218114   2.328   3.634   3.020 -0.1881  0.5244  0.1146
 2218SOL     OW18115   2.835   2.671   3.309 -0.0988 -0.2691  0.7656
 2218SOL    HW118116   2.881   2.663   3.393  0.9381  1.6690  0.3949
 2218SOL    HW218117   2.761   2.616   3.334 -0.0364 -0.7423 -0.1023
 2219SOL     OW18118   3.792   1.414   9.265 -0.2568 -0.2204 -1.1081
 2219SOL    HW118119   3.805   1.320   9.263 -0.3023 -0.2418 -0.1880
 2219SOL    HW218120   3.880   1.448   9.244  0.3827 -2.1342 -1.4892
 2220SOL     OW18121   0.188   2.478   3.272 -0.8595  0.4175 -0.1886
 2220SOL    HW118122   0.225   2.403   3.318  0.7152  0.7010 -0.9914
 2220SOL    HW218123   0.232   2.483   3.187 -1.2827 -2.8131 -0.6052
 2221SOL     OW18124   2.505   3.381  12.282  0.0687 -0.1348  0.1224
 2221SOL    HW118125   2.579   3.349  12.332  0.2096  1.4045  0.9017
 2221SOL    HW218126   2.433   3.398  12.343 -1.5665  1.0844 -2.1568
 2222SOL     OW18127   2.649   2.782   2.391  0.4089 -0.2421  0.1658
 2222SOL    HW118128   2.744   2.783   2.403  0.6457  2.4986 -1.9796
 2222SOL    HW218129   2.631   2.769   2.298  1.7436  0.6859 -0.2248
 2223SOL     OW18130   2.194   2.530  17.654  0.3854 -0.1780  0.6286
 2223SOL    HW118131   2.103   2.554  17.672  0.1239 -1.5552  1.1212
 2223SOL    HW218132   2.194   2.446  17.699  1.6228 -0.9173 -0.7627
 2224SOL     OW18133   2.389   3.161   9.220 -0.2279 -0.0609 -0.0748
 2224SOL    HW118134   2.332   3.206   9.283 -0.4057 -0.0475 -0.2468
 2224SOL    HW218135   2.473   3.193   9.255  0.9744 -3.4876  0.1274
 2225SOL     OW18136   0.056   1.758   8.690 -0.1776 -0.3337  0.2331
 2225SOL    HW118137   0.141   1.728   8.658 -0.0290 -1.2304  1.4742
 2225SOL    HW218138   0.089   1.825   8.749  1.1964 -0.3308 -0.5438
 2226SOL     OW18139   2.479   2.296  15.588 -0.3352 -0.2981  0.2927
 2226SOL    HW118140   2.459   2.385  15.559 -0.1481  0.3110  2.0034
 2226SOL    HW218141   2.574   2.306  15.579 -0.3206 -0.0618  0.7142
 2227SOL     OW18142   2.747   0.335  11.509  0.1461  0.1826  0.3185
 2227SOL    HW118143   2.804   0.287  11.449  0.0033  1.3281 -0.7316
 2227SOL    HW218144   2.719   0.268  11.571 -0.3028 -0.6009 -0.7247
 2228SOL     OW18145   1.508   3.474   3.280 -0.9948  0.1399 -0.0866
 2228SOL    HW118146   1.416   3.478   3.254 -0.7479  0.9333 -0.8439
 2228SOL    HW218147   1.520   3.568   3.294  0.1338 -0.1201  0.6886
 2229SOL     OW18148   0.701   2.275  16.298 -0.5555 -0.5881 -0.3869
 2229SOL    HW118149   0.741   2.359  16.319 -1.0583 -0.1856 -1.0503
 2229SOL    HW218150   0.633   2.303  16.236 -0.8485  1.3250  0.7788
 2230SOL     OW18151   0.092   4.689   2.606 -0.5571  0.3816 -0.0044
 2230SOL    HW118152   0.172   0.018   2.610  1.3592 -2.2439 -2.8706
 2230SOL    HW218153   0.136   4.615   2.563 -0.4293  0.1999  0.4447
 2231SOL     OW18154   3.516   3.847   6.826  0.0324  0.5119  0.2106
 2231SOL    HW118155   3.544   3.938   6.826 -0.6756  0.7351  0.3317
 2231SOL    HW218156   3.587   3.801   6.781  0.0074  0.1525  0.5298
 2232SOL     OW18157   2.361   3.376  12.990  0.5648 -0.1931  0.0998
 2232SOL    HW118158   2.304   3.452  13.005 -1.9756 -1.4498 -3.0312
 2232SOL    HW218159   2.310   3.329  12.924 -0.8013 -0.0988  1.0977
 2233SOL     OW18160   4.604   4.459  10.365 -0.1564  0.1551 -0.0743
 2233SOL    HW118161   4.616   4.405  10.443 -1.9653  0.0927  0.1546
 2233SOL    HW218162   4.676   4.521  10.372 -0.8978  1.0648 -0.5447
 2234SOL     OW18163   2.560   2.162   3.340  0.1000 -0.3340  0.3476
 2234SOL    HW118164   2.600   2.164   3.427  0.3454 -1.0450  0.2556
 2234SOL    HW218165   2.469   2.174   3.367  0.3564  0.8349  0.6830
 2235SOL     OW18166   3.213   4.613   8.629 -0.7085 -0.0314  0.0407
 2235SOL    HW118167   3.301   4.574   8.628 -1.1156 -0.8562 -2.7922
 2235SOL    HW218168   3.239   4.704   8.614 -1.4471  0.2101  0.2420
 2236SOL     OW18169   2.231   0.716   3.230  0.5067 -0.0353  0.6737
 2236SOL    HW118170   2.157   0.763   3.268  0.4201  0.1014  0.3410
 2236SOL    HW218171   2.284   0.696   3.307  0.6845  2.0580  1.0945
 2237SOL     OW18172   2.020   4.437   5.656  0.6167 -0.1686 -0.2472
 2237SOL    HW118173   2.020   4.519   5.705  0.6257 -0.8174  0.8469
 2237SOL    HW218174   1.951   4.449   5.592 -1.2425 -1.2322  1.5711
 2238SOL     OW18175   4.612   4.250   4.518 -0.2253 -0.2627  0.4558
 2238SOL    HW118176   4.597   4.175   4.459  1.4915 -0.1316 -0.1481
 2238SOL    HW218177   4.691   4.225   4.565  0.4413 -0.5919 -0.8353
 2239SOL     OW18178   0.927   2.155   0.461  0.3653 -0.6924 -0.1248
 2239SOL    HW118179   0.908   2.144   0.554  2.1519  0.9303  0.4420
 2239SOL    HW218180   0.998   2.093   0.443  1.0581  0.4454 -1.3499
 2240SOL     OW18181   1.331   4.047   6.648 -0.4402  0.1581 -0.0697
 2240SOL    HW118182   1.378   4.102   6.710  0.2752 -0.5032 -0.0210
 2240SOL    HW218183   1.336   3.962   6.692  2.5248  0.6233  0.5173
 2241SOL     OW18184   1.515   3.284   7.608  0.2287 -0.0294  0.0188
 2241SOL    HW118185   1.482   3.342   7.540  0.4135 -0.3787 -0.3700
 2241SOL    HW218186   1.586   3.237   7.564 -0.2203  0.9754 -1.7658
 2242SOL     OW18187   1.491   3.051   5.435  0.3088  0.0761 -0.1416
 2242SOL    HW118188   1.471   3.095   5.353  0.8028  0.6763  0.0578
 2242SOL    HW218189   1.448   2.966   5.429  2.8088 -1.2336  0.2981
 2243SOL     OW18190   3.985   0.062  10.282  0.1446  0.0777 -0.5075
 2243SOL    HW118191   4.027   0.085  10.199  0.9307  0.3169 -0.0388
 2243SOL    HW218192   3.941   0.145  10.299 -1.5694 -0.6987 -1.1200
 2244SOL     OW18193   0.032   3.089   6.865  1.0356 -0.3163  0.0748
 2244SOL    HW118194   0.043   3.044   6.781 -1.2677  0.2684 -0.5243
 2244SOL    HW218195   4.661   3.099   6.862  0.8679 -2.1874 -1.3411
 2245SOL     OW18196   2.892   4.643   7.587 -0.2040 -0.4321 -0.0667
 2245SOL    HW118197   2.835   4.591   7.643  0.3112 -0.5371  0.3631
 2245SOL    HW218198   2.857   0.007   7.602  2.6453  0.6145  0.5196
 2246SOL     OW18199   1.503   0.725   0.914 -0.1395 -0.0114 -0.5500
 2246SOL    HW118200   1.581   0.676   0.887 -1.5707 -2.1147 -0.9058
 2246SOL    HW218201   1.485   0.692   1.002  0.1874  0.4523 -0.3072
 2247SOL     OW18202   0.712   2.950   3.096  0.5166 -0.0887  0.3830
 2247SOL    HW118203   0.707   2.890   3.170 -0.1927 -0.3781  0.0979
 2247SOL    HW218204   0.756   3.027   3.133  1.4096  0.4795 -1.8690
 2248SOL     OW18205   4.350   1.489   3.674 -0.6610  0.3266  0.3930
 2248SOL    HW118206   4.258   1.506   3.656 -0.8451 -0.3248  0.7193
 2248SOL    HW218207   4.373   1.434   3.599 -3.8592  0.2319 -0.5107
 2249SOL     OW18208   2.092   3.127   6.285  0.1805 -0.0304 -0.3648
 2249SOL    HW118209   2.087   3.149   6.378 -1.8863 -0.5596 -0.3602
 2249SOL    HW218210   2.054   3.039   6.291  1.0226 -0.2478  1.7790
 2250SOL     OW18211   3.794   2.097   8.606  0.2505  0.5256  0.2141
 2250SOL    HW118212   3.772   2.167   8.544  0.0127 -1.3225 -1.7516
 2250SOL    HW218213   3.739   2.025   8.576 -0.4442  0.6464  1.2018
 2251SOL     OW18214   3.587   1.616  15.780  0.2271 -0.0863 -0.4479
 2251SOL    HW118215   3.552   1.696  15.741 -0.8275 -0.0676  0.5298
 2251SOL    HW218216   3.535   1.597  15.858  1.5716  1.2577  0.7580
 2252SOL     OW18217   1.630   0.871  17.236  0.1945  0.3151 -0.0273
 2252SOL    HW118218   1.673   0.859  17.320 -2.1545  2.4437  1.4643
 2252SOL    HW218219   1.620   0.782  17.202 -0.3581 -0.5715  2.5075
 2253SOL     OW18220   3.869   0.640   1.746  0.4832 -0.2156  0.6520
 2253SOL    HW118221   3.960   0.635   1.719  0.5867  0.1340  0.9453
 2253SOL    HW218222   3.860   0.612   1.838 -0.9730 -3.5453 -0.4792
 2254SOL     OW18223   1.119   4.079  16.921  0.5345 -0.0909  0.1430
 2254SOL    HW118224   1.205   4.102  16.955 -0.2212  0.0992  1.9101
 2254SOL    HW218225   1.119   4.112  16.831 -2.2775 -2.2428 -0.6563
 2255SOL     OW18226   1.164   1.214   2.792  0.3483 -0.9378  0.0187
 2255SOL    HW118227   1.119   1.298   2.796  0.1436 -1.1684  2.7985
 2255SOL    HW218228   1.129   1.175   2.712  3.3504 -1.5526 -0.9704
 2256SOL     OW18229   1.840   3.025   4.359  0.1274 -0.0311  0.1386
 2256SOL    HW118230   1.830   3.085   4.433 -0.0997 -0.6965  0.6454
 2256SOL    HW218231   1.918   2.978   4.389  1.5516  1.4853 -1.2041
 2257SOL     OW18232   3.086   0.663   9.193 -0.4134 -0.3700  0.1025
 2257SOL    HW118233   3.051   0.585   9.150  0.9808 -1.4147  0.8781
 2257SOL    HW218234   3.139   0.690   9.118  0.7841  0.2620  1.1754
 2258SOL     OW18235   4.492   0.570   7.439  0.1741 -0.2025  0.0823
 2258SOL    HW118236   4.564   0.580   7.500 -0.9016  1.8091  1.0011
 2258SOL    HW218237   4.430   0.572   7.512  2.3490  3.2034  1.8292
 2259SOL     OW18238   2.906   0.844   5.725 -0.4918  0.3438 -0.1066
 2259SOL    HW118239   2.988   0.840   5.676 -0.3629  2.2060 -0.0641
 2259SOL    HW218240   2.883   0.928   5.685 -0.1867 -0.0872 -1.2032
 2260SOL     OW18241   3.187   1.693   8.986  0.1267 -0.0050 -0.0465
 2260SOL    HW118242   3.118   1.742   9.030  0.3896 -0.2662  0.6511
 2260SOL    HW218243   3.137   1.651   8.916  0.0900 -0.0124 -0.0156
 2261SOL     OW18244   1.498   3.220   7.862 -0.3298  0.0447  0.3303
 2261SOL    HW118245   1.495   3.256   7.773 -1.2725 -1.1979 -0.1450
 2261SOL    HW218246   1.417   3.171   7.847 -1.0342  0.4823  2.7279
 2262SOL     OW18247   4.114   4.129   7.312  0.1399 -0.8000 -0.6347
 2262SOL    HW118248   4.056   4.136   7.389 -1.7248 -1.5000 -1.9789
 2262SOL    HW218249   4.122   4.215   7.271 -0.6575 -0.7640 -0.7164
 2263SOL     OW18250   3.874   0.790   5.772  0.0700  0.0261 -0.4302
 2263SOL    HW118251   3.960   0.814   5.738  1.0554 -0.2673  1.8469
 2263SOL    HW218252   3.831   0.735   5.707 -1.5692 -0.0116  0.6868
 2264SOL     OW18253   4.175   3.994   2.211  0.4237  0.4960  0.6161
 2264SOL    HW118254   4.220   3.921   2.255 -0.2697 -0.8696 -0.9620
 2264SOL    HW218255   4.155   3.959   2.124  0.0147  2.7841 -0.1961
 2265SOL     OW18256   1.758   4.022   0.930 -0.0499  0.1430  0.1081
 2265SOL    HW118257   1.849   4.038   0.907 -0.3849 -0.7049 -1.7487
 2265SOL    HW218258   1.742   4.087   0.999  2.3899  1.3097 -0.4621
 2266SOL     OW18259   2.018   0.288   2.711  0.1465 -0.5908  0.2179
 2266SOL    HW118260   2.066   0.245   2.782 -1.6089  0.2564  1.9103
 2266SOL    HW218261   2.076   0.281   2.636  2.6542 -1.3334  2.2067
 2267SOL     OW18262   0.632   3.008  10.750 -0.0586 -0.2240 -0.1214
 2267SOL    HW118263   0.716   2.982  10.786 -0.3929  0.2753  1.0234
 2267SOL    HW218264   0.612   2.925  10.706 -0.6415  0.4506 -1.1249
 2268SOL     OW18265   4.356   2.401   2.737 -0.0564 -0.2539 -0.0286
 2268SOL    HW118266   4.425   2.462   2.713 -0.1008 -0.2013 -0.0226
 2268SOL    HW218267   4.323   2.439   2.818 -0.3969  0.6870 -0.6060
 2269SOL     OW18268   2.024   2.092   2.584 -0.5339  0.7396 -0.3265
 2269SOL    HW118269   2.018   1.997   2.589  0.4450  0.6997 -0.0674
 2269SOL    HW218270   2.005   2.107   2.676  0.2468 -0.2725  0.0018
 2270SOL     OW18271   1.369   1.573  11.215 -0.1686 -0.0986 -0.0986
 2270SOL    HW118272   1.397   1.621  11.137 -0.5805  1.6617  0.8368
 2270SOL    HW218273   1.279   1.545  11.202  0.3835 -1.8436 -0.1153
 2271SOL     OW18274   1.450   3.355   4.994  0.2754  0.0605  0.3784
 2271SOL    HW118275   1.441   3.389   4.905 -0.7177  0.4660  0.6233
 2271SOL    HW218276   1.383   3.400   5.047  1.8341  1.0284  1.5247
 2272SOL     OW18277   1.863   0.173  15.499 -0.2766 -0.1375 -0.5486
 2272SOL    HW118278   1.861   0.143  15.408 -0.3767  0.7487 -0.8383
 2272SOL    HW218279   1.863   0.268  15.486  2.4832  0.1472  1.5572
 2273SOL     OW18280   3.202   0.281   7.822  0.1890  0.6519 -0.0427
 2273SOL    HW118281   3.114   0.252   7.844  1.2511 -0.7852  2.3161
 2273SOL    HW218282   3.224   0.231   7.744  2.8726  2.2084 -0.2830
 2274SOL     OW18283   3.759   3.317   7.909 -0.3796  0.0561  0.2263
 2274SOL    HW118284   3.836   3.260   7.911 -0.9919 -0.7822 -0.1732
 2274SOL    HW218285   3.700   3.280   7.976 -2.4434  1.1673 -0.9849
 2275SOL     OW18286   3.238   0.427   3.432 -0.2156 -0.4321  0.0459
 2275SOL    HW118287   3.246   0.426   3.528  1.3308 -0.7596 -0.0890
 2275SOL    HW218288   3.171   0.362   3.410  1.1168 -1.5007 -0.8585
 2276SOL     OW18289   0.956   0.513   0.508  0.0142 -0.0657  0.0853
 2276SOL    HW118290   0.880   0.466   0.472  0.0818 -0.0058 -0.1386
 2276SOL    HW218291   1.010   0.439   0.537  0.8521  0.5015 -0.0492
 2277SOL     OW18292   4.370   4.265   2.805  0.8331 -0.4921  0.3571
 2277SOL    HW118293   4.340   4.211   2.732 -0.3637 -0.5310  0.8764
 2277SOL    HW218294   4.374   4.350   2.763 -0.6670 -0.1968  0.8099
 2278SOL     OW18295   1.350   3.772   9.535 -0.0826  0.1089  0.5068
 2278SOL    HW118296   1.444   3.755   9.528  0.0734  1.9845 -2.1375
 2278SOL    HW218297   1.352   3.819   9.452  0.5612 -0.0949  0.4059
 2279SOL     OW18298   3.571   1.565  14.554 -0.7665 -0.4772 -0.1088
 2279SOL    HW118299   3.514   1.625  14.603 -0.6010 -0.5558  0.1844
 2279SOL    HW218300   3.534   1.487  14.595 -0.8080 -0.3702  0.0611
 2280SOL     OW18301   4.123   3.328   4.719 -0.0743  0.0739 -0.0492
 2280SOL    HW118302   4.134   3.305   4.811 -2.6165  2.9690  0.9672
 2280SOL    HW218303   4.095   3.245   4.681  1.7142 -0.1743 -0.8507
 2281SOL     OW18304   0.662   2.723   4.948  0.4488  0.1042 -0.1068
 2281SOL    HW118305   0.693   2.810   4.975  2.7256 -0.7770  0.1721
 2281SOL    HW218306   0.569   2.741   4.954  0.7274  1.1153  1.1497
 2282SOL     OW18307   4.315   1.529   7.850  0.2412  0.0975  0.4622
 2282SOL    HW118308   4.304   1.439   7.881 -0.7478  0.5007  1.2981
 2282SOL    HW218309   4.381   1.564   7.910 -0.8149  1.1627  0.9905
 2283SOL     OW18310   1.174   4.286   4.319 -0.2297  0.4017  0.1841
 2283SOL    HW118311   1.223   4.243   4.389  1.0946  0.6546 -0.5772
 2283SOL    HW218312   1.220   4.370   4.312  1.1464 -0.4783 -1.5159
 2284SOL     OW18313   0.558   4.123   3.908  0.1830 -0.2850  0.5096
 2284SOL    HW118314   0.536   4.139   4.000 -1.0818 -1.7272  0.4430
 2284SOL    HW218315   0.467   4.117   3.881  1.2055 -1.6439 -2.5450
 2285SOL     OW18316   2.702   3.869   5.349  0.3061  0.2329  0.0606
 2285SOL    HW118317   2.790   3.838   5.327 -1.0645 -2.0911 -2.1823
 2285SOL    HW218318   2.674   3.797   5.405 -0.7844  0.8627  0.3159
 2286SOL     OW18319   0.044   3.624   0.573 -0.3979 -0.2825 -0.5377
 2286SOL    HW118320   0.069   3.647   0.662 -0.6812 -0.2292 -0.4721
 2286SOL    HW218321   4.685   3.581   0.590 -0.5513 -0.3998 -1.5506
 2287SOL     OW18322   0.495   4.722   0.188  0.6976  0.0281  0.3553
 2287SOL    HW118323   0.559   4.696   0.121  0.2884 -2.5823  1.0202
 2287SOL    HW218324   0.491   4.644   0.243 -1.4467 -0.2551 -0.2236
 2288SOL     OW18325   1.467   1.523   1.335 -0.6978 -0.1490  0.6439
 2288SOL    HW118326   1.378   1.504   1.305 -0.5527  0.3526 -0.0909
 2288SOL    HW218327   1.456   1.513   1.430  0.5222 -1.0358  0.6755
 2289SOL     OW18328   3.690   3.169   3.707  0.6633 -0.4787 -0.0072
 2289SOL    HW118329   3.616   3.163   3.647  0.5892 -0.5908  0.0972
 2289SOL    HW218330   3.681   3.258   3.741  0.5075  1.2989 -4.6919
 2290SOL     OW18331   4.360   3.363  12.929 -0.2963 -0.3830 -0.4250
 2290SOL    HW118332   4.285   3.303  12.924 -1.3495  0.9334 -0.4657
 2290SOL    HW218333   4.420   3.337  12.859 -0.5023  1.1770 -1.1772
 2291SOL     OW18334   3.588   2.831   3.228 -0.7994 -0.2634  0.6373
 2291SOL    HW118335   3.506   2.867   3.194  0.8964  3.2081  0.1856
 2291SOL    HW218336   3.620   2.785   3.151 -0.9466 -0.0267  0.4362
 2292SOL     OW18337   4.622   1.248   8.171  0.2324 -0.3985 -0.4375
 2292SOL    HW118338   4.691   1.263   8.107 -0.4425 -1.2652 -1.3736
 2292SOL    HW218339   4.586   1.337   8.171  0.7018 -0.2102  0.2519
 2293SOL     OW18340   3.170   2.777   3.129 -0.2469  0.3275  0.3060
 2293SOL    HW118341   3.083   2.744   3.108  0.7500  0.3052 -3.8999
 2293SOL    HW218342   3.201   2.702   3.179  1.2604  0.5613 -0.2750
 2294SOL     OW18343   3.918   4.462   4.680 -0.0638 -0.1362  0.2278
 2294SOL    HW118344   3.988   4.454   4.616 -0.1707 -0.3281  0.1361
 2294SOL    HW218345   3.840   4.459   4.625 -0.5089 -0.2974  0.8680
 2295SOL     OW18346   2.749   0.525   3.810  0.3226 -0.2641  0.6293
 2295SOL    HW118347   2.655   0.525   3.830  0.0076 -0.2927 -0.8456
 2295SOL    HW218348   2.786   0.558   3.892 -1.1756 -1.5558  1.8280
 2296SOL     OW18349   2.292   4.056   7.520 -0.7684 -0.3147  0.2336
 2296SOL    HW118350   2.280   4.143   7.482 -0.6501  0.5414  2.1382
 2296SOL    HW218351   2.269   4.074   7.612 -1.3969  2.3821 -0.4474
 2297SOL     OW18352   3.781   3.978   1.429  0.2235 -0.1051  0.0952
 2297SOL    HW118353   3.779   3.910   1.495  1.5279  1.1641  1.4513
 2297SOL    HW218354   3.704   4.027   1.460  1.2834  2.2201 -0.9545
 2298SOL     OW18355   1.964   0.120   9.890 -0.6038  0.3219  0.2543
 2298SOL    HW118356   1.885   0.087   9.846 -1.2886  0.7969  1.1218
 2298SOL    HW218357   1.916   0.157   9.964 -1.2967  0.5375 -0.3061
 2299SOL     OW18358   2.594   1.587   6.896 -1.6558  0.0699 -0.4453
 2299SOL    HW118359   2.652   1.655   6.862  1.3297 -1.1708  2.0418
 2299SOL    HW218360   2.596   1.603   6.991  0.1248  1.0470 -0.6413
 2300SOL     OW18361   2.647   0.052   5.787 -0.2091 -0.5404 -0.8460
 2300SOL    HW118362   2.590   4.701   5.798 -1.3142  0.5865  1.0928
 2300SOL    HW218363   2.593   0.131   5.783  0.3583 -0.2096 -1.9256
 2301SOL     OW18364   1.346   3.646   5.812 -0.2256  0.1835  0.2325
 2301SOL    HW118365   1.289   3.577   5.777 -1.4966  1.6734 -0.5905
 2301SOL    HW218366   1.341   3.626   5.905  0.0919 -1.2181 -0.0359
 2302SOL     OW18367   2.469   1.645  15.208  0.1402  0.1957  0.8159
 2302SOL    HW118368   2.493   1.566  15.256 -0.4814 -0.8574 -0.5897
 2302SOL    HW218369   2.488   1.721  15.264  2.2662  1.1670 -1.2177
 2303SOL     OW18370   0.799   3.762  14.219  0.1496  0.6732  0.2357
 2303SOL    HW118371   0.804   3.669  14.241  0.1161  0.2743 -1.4831
 2303SOL    HW218372   0.728   3.753  14.156  0.3248  1.8570 -0.1369
 2304SOL     OW18373   4.657   2.014   3.851  0.2525 -0.1651  0.2605
 2304SOL    HW118374   4.596   1.984   3.783 -1.5350  0.7105  1.4914
 2304SOL    HW218375   4.656   2.104   3.818 -1.5409 -0.0883  0.5416
 2305SOL     OW18376   1.039   1.617   8.048 -0.4643  0.3889 -0.1856
 2305SOL    HW118377   1.059   1.595   8.139 -3.2383  1.4408  0.6577
 2305SOL    HW218378   1.023   1.535   8.000  1.3116 -0.1764  0.1679
 2306SOL     OW18379   0.655   0.216   7.147 -0.8527  0.6945  0.2468
 2306SOL    HW118380   0.688   0.203   7.236  2.4869 -0.8241 -1.2520
 2306SOL    HW218381   0.681   0.306   7.128 -0.2715  0.7786  1.4287
 2307SOL     OW18382   2.479   0.581   6.996 -0.0924  0.5326 -0.6063
 2307SOL    HW118383   2.453   0.523   7.067  0.4070  0.6883 -0.3022
 2307SOL    HW218384   2.387   0.589   6.971 -0.3075  3.0699  1.0164
 2308SOL     OW18385   3.666   3.883  14.317  0.2230 -0.1334 -0.5661
 2308SOL    HW118386   3.656   3.962  14.263 -0.3861 -0.4949 -0.9739
 2308SOL    HW218387   3.733   3.914  14.377  1.4433  0.5742 -2.2786
 2309SOL     OW18388   1.491   4.193  10.185  0.3061  0.2353 -0.3863
 2309SOL    HW118389   1.519   4.161  10.099  1.1758  3.4674 -1.3051
 2309SOL    HW218390   1.578   4.207  10.223  0.4587 -0.2259 -0.5616
 2310SOL     OW18391   3.408   2.025   1.186 -0.2143  0.0177  0.2291
 2310SOL    HW118392   3.369   2.073   1.113  2.2470 -2.1552 -2.5481
 2310SOL    HW218393   3.495   2.057   1.161  0.0394 -1.1394 -0.4044
 2311SOL     OW18394   1.171   4.672   7.618 -0.3317 -0.1884 -0.0284
 2311SOL    HW118395   1.170   0.012   7.688 -0.1740 -0.4674  0.2296
 2311SOL    HW218396   1.221   4.601   7.659 -0.6442  0.3782  1.3408
 2312SOL     OW18397   2.975   2.174  17.239  0.4337 -0.6880 -0.3070
 2312SOL    HW118398   3.024   2.098  17.206 -0.7680 -1.5181 -0.1755
 2312SOL    HW218399   3.025   2.247  17.202  0.7937 -1.2933 -1.0085
 2313SOL     OW18400   0.269   0.735   1.770 -0.5153 -0.0335  0.2068
 2313SOL    HW118401   0.200   0.672   1.747 -1.9205  1.6314 -0.1040
 2313SOL    HW218402   0.345   0.680   1.791 -1.5547 -0.3196  3.1582
 2314SOL     OW18403   4.011   1.739   1.162 -0.1005  0.5528 -0.3508
 2314SOL    HW118404   3.922   1.710   1.139 -0.7281  1.5877  0.8224
 2314SOL    HW218405   4.015   1.716   1.255  1.3344  0.8293 -0.3487
 2315SOL     OW18406   1.310   0.736   0.599 -0.1261  0.2947 -0.7678
 2315SOL    HW118407   1.311   0.673   0.671 -0.0609  1.1233 -0.0497
 2315SOL    HW218408   1.402   0.743   0.576  0.5337 -1.0437  1.4544
 2316SOL     OW18409   1.721   1.708  17.209  0.7064  0.0036  0.2219
 2316SOL    HW118410   1.687   1.764  17.279  0.0351  0.6685 -0.6365
 2316SOL    HW218411   1.641   1.675  17.169  1.8919 -1.2933 -1.0743
 2317SOL     OW18412   0.691   3.954   7.482 -0.2713  0.3811 -0.0955
 2317SOL    HW118413   0.671   4.033   7.433 -0.2810  0.8289  0.6353
 2317SOL    HW218414   0.699   4.002   7.565 -0.2275 -0.4041  0.3589
 2318SOL     OW18415   3.637   1.849   1.974  0.0456 -0.2097 -0.0460
 2318SOL    HW118416   3.694   1.776   1.949  0.8169 -0.2559  1.8577
 2318SOL    HW218417   3.552   1.807   1.985  1.3904 -2.8287  0.4323
 2319SOL     OW18418   3.394   2.583   4.873  0.6273  0.3004 -0.6913
 2319SOL    HW118419   3.342   2.513   4.832 -0.6637  0.0255  1.4747
 2319SOL    HW218420   3.336   2.624   4.936  0.4675 -2.8865  1.2598
 2320SOL     OW18421   1.412   2.317   6.571  0.2668  0.0452 -0.2711
 2320SOL    HW118422   1.465   2.247   6.608 -1.4823 -0.0649  2.0078
 2320SOL    HW218423   1.395   2.284   6.483 -3.7004  3.5022 -0.8161
 2321SOL     OW18424   1.734   3.206  16.519  0.4716  0.4589  0.6492
 2321SOL    HW118425   1.662   3.255  16.480 -0.3027 -1.3848 -0.2318
 2321SOL    HW218426   1.713   3.186  16.610  2.5514  0.4576  1.1284
 2322SOL     OW18427   0.700   2.692   5.549 -0.1097 -0.4130  0.7621
 2322SOL    HW118428   0.615   2.712   5.588  0.7589 -1.3996  3.1898
 2322SOL    HW218429   0.746   2.728   5.625  0.3697  0.0754  0.2340
 2323SOL     OW18430   1.510   1.399   2.949 -0.5220 -0.3276  0.3545
 2323SOL    HW118431   1.510   1.486   2.988 -0.4726  0.2870 -1.0075
 2323SOL    HW218432   1.523   1.415   2.855 -1.2321 -0.8880  0.1572
 2324SOL     OW18433   0.347   3.963   4.335  0.2474  0.2473 -0.7448
 2324SOL    HW118434   0.423   3.987   4.281 -0.5781 -0.1277 -2.0643
 2324SOL    HW218435   0.282   3.957   4.265 -0.2507  1.7730 -0.4091
 2325SOL     OW18436   3.731   1.349  15.697  0.2422 -0.3451 -0.2442
 2325SOL    HW118437   3.695   1.438  15.696 -0.0196 -0.4325  1.3379
 2325SOL    HW218438   3.741   1.332  15.791 -3.0565 -1.6959 -0.1523
 2326SOL     OW18439   2.585   3.962   1.896  0.4270 -0.0122  0.1820
 2326SOL    HW118440   2.593   3.962   1.801 -1.5055 -0.8151  0.0231
 2326SOL    HW218441   2.671   3.944   1.935  0.4431  0.7304  0.4832
 2327SOL     OW18442   1.096   1.684   5.745 -0.1795  0.1764 -0.0481
 2327SOL    HW118443   1.013   1.731   5.751 -0.4179 -0.0220 -1.8851
 2327SOL    HW218444   1.155   1.751   5.780 -0.6199  0.3567  0.3539
 2328SOL     OW18445   2.516   4.083   5.401 -0.5589  0.4227  0.1739
 2328SOL    HW118446   2.473   4.028   5.465 -0.8594  0.2776 -0.1536
 2328SOL    HW218447   2.583   4.024   5.364  0.0964  1.2367  0.0575
 2329SOL     OW18448   1.040   0.171  11.971 -0.8268 -0.2414  0.2043
 2329SOL    HW118449   1.044   0.179  11.875  2.7227  0.6083  0.3989
 2329SOL    HW218450   1.095   0.246  11.992  0.8666 -1.2635 -0.4675
 2330SOL     OW18451   3.113   2.183   3.102  0.3346 -0.2553  0.3158
 2330SOL    HW118452   3.060   2.231   3.165 -1.0011  0.6536 -1.4822
 2330SOL    HW218453   3.089   2.223   3.018 -0.0198 -0.0464  0.5174
 2331SOL     OW18454   0.333   1.011   9.074 -0.2900 -0.1101 -0.0732
 2331SOL    HW118455   0.347   1.032   9.167  1.6293 -0.4552 -0.2962
 2331SOL    HW218456   0.251   0.961   9.067  0.4610 -1.3579 -0.0023
 2332SOL     OW18457   3.653   2.352   1.440 -0.2369  0.2915 -0.1277
 2332SOL    HW118458   3.746   2.354   1.462 -0.5124  1.0448  0.9531
 2332SOL    HW218459   3.631   2.288   1.508 -0.7131  0.8166  0.2142
 2333SOL     OW18460   4.384   0.182   4.798  0.1298 -0.0505 -0.2294
 2333SOL    HW118461   4.467   0.227   4.786  1.1328 -2.0532 -0.8606
 2333SOL    HW218462   4.339   0.203   4.715  2.6718 -0.4771 -1.7105
 2334SOL     OW18463   2.269   1.195   6.053  0.3470 -0.2339 -0.0345
 2334SOL    HW118464   2.255   1.186   5.959 -1.0760  0.9997  0.0533
 2334SOL    HW218465   2.192   1.157   6.097  1.5194 -1.3601  1.0515
 2335SOL     OW18466   1.252   1.892  16.092 -0.0156  0.1219  0.3464
 2335SOL    HW118467   1.166   1.916  16.127 -0.2188  0.6272 -0.5244
 2335SOL    HW218468   1.300   1.909  16.174  1.9161  0.6227 -0.8808
 2336SOL     OW18469   4.082   2.802  16.774  0.2247 -0.0023 -0.4194
 2336SOL    HW118470   4.138   2.763  16.707  1.7680 -0.9399  1.4056
 2336SOL    HW218471   4.127   2.772  16.853  0.8905  0.2976 -0.6854
 2337SOL     OW18472   4.348   0.059   1.812  0.5371 -0.3127  0.0042
 2337SOL    HW118473   4.399   0.100   1.742 -0.2593 -1.2756 -1.1385
 2337SOL    HW218474   4.259   0.066   1.777 -0.0591  0.0572  1.6175
 2338SOL     OW18475   0.193   2.516  11.071  0.7998  0.0189  0.1150
 2338SOL    HW118476   0.244   2.595  11.086 -1.3272  1.1979  1.1333
 2338SOL    HW218477   0.221   2.470  11.150 -1.1604  0.4794  1.0616
 2339SOL     OW18478   3.292   4.074  15.278  0.2437 -0.5716  0.8796
 2339SOL    HW118479   3.331   4.116  15.354  3.5795 -1.7770 -0.1607
 2339SOL    HW218480   3.267   4.161  15.247  0.8957 -0.4917  0.5743
 2340SOL     OW18481   2.006   3.046   3.106  0.8113 -0.2124 -0.4290
 2340SOL    HW118482   2.038   3.082   3.024  1.5471 -0.8066 -0.4082
 2340SOL    HW218483   1.928   2.997   3.081 -0.3079  2.1361 -1.4991
 2341SOL     OW18484   4.119   0.455   4.761  0.0761  0.3702  0.1275
 2341SOL    HW118485   4.116   0.471   4.855 -3.8308 -2.5014  0.4936
 2341SOL    HW218486   4.043   0.398   4.754 -0.8475  1.6013  0.1948
 2342SOL     OW18487   3.114   1.971   4.745  0.4791  0.8607 -0.0236
 2342SOL    HW118488   3.066   2.047   4.712 -3.5392 -1.9380 -0.6329
 2342SOL    HW218489   3.078   1.896   4.699 -2.3946  1.0635  1.9243
 2343SOL     OW18490   3.532   4.161   6.200 -0.1826  0.8547  0.3240
 2343SOL    HW118491   3.482   4.232   6.241  1.0340  1.7084  0.3183
 2343SOL    HW218492   3.463   4.099   6.178  0.4562  0.2712 -0.0266
 2344SOL     OW18493   4.118   3.954   8.056  0.0607  0.2224  0.5548
 2344SOL    HW118494   4.144   3.863   8.074 -0.1845  0.2006  0.8113
 2344SOL    HW218495   4.033   3.935   8.016 -0.7747  1.7118  1.6099
 2345SOL     OW18496   4.428   0.519   9.724 -0.0405  0.2021 -0.6777
 2345SOL    HW118497   4.469   0.599   9.691  1.2511  0.9542  2.8155
 2345SOL    HW218498   4.358   0.512   9.659 -2.2902  1.0396  1.6890
 2346SOL     OW18499   4.186   0.621  11.232 -0.8219 -0.0023  0.0307
 2346SOL    HW118500   4.160   0.713  11.220 -0.8696 -0.2501 -1.7736
 2346SOL    HW218501   4.145   0.582  11.155  0.5742  0.1660 -0.8144
 2347SOL     OW18502   4.261   0.396   2.203 -0.8587 -0.0479 -0.5251
 2347SOL    HW118503   4.290   0.305   2.202  0.8103  0.4632  0.6832
 2347SOL    HW218504   4.303   0.431   2.282 -1.4319 -0.4550 -0.0364
 2348SOL     OW18505   2.698   1.359   9.116  0.4704 -0.4903  0.3348
 2348SOL    HW118506   2.678   1.343   9.209 -2.3292 -3.5010 -0.8108
 2348SOL    HW218507   2.632   1.428   9.105 -0.3041 -1.0319  1.5569
 2349SOL     OW18508   1.014   1.889   9.635 -0.5439 -0.2321 -0.2063
 2349SOL    HW118509   0.965   1.934   9.703 -0.6975 -1.0801  0.2479
 2349SOL    HW218510   1.008   1.808   9.686  0.5494 -0.8469 -1.0538
 2350SOL     OW18511   0.087   3.770   6.430  0.2887  0.2310 -0.3151
 2350SOL    HW118512   0.170   3.814   6.446  1.0636 -1.6478  0.9633
 2350SOL    HW218513   0.018   3.836   6.420 -0.1241 -0.1450  0.0171
 2351SOL     OW18514   0.725   0.459   7.175 -0.0816  0.7228 -0.1110
 2351SOL    HW118515   0.799   0.519   7.164  0.5876 -0.0968 -0.1365
 2351SOL    HW218516   0.760   0.429   7.259  0.2069 -1.2788 -0.9456
 2352SOL     OW18517   1.776   4.249   7.720 -0.3238 -0.6211 -0.1211
 2352SOL    HW118518   1.809   4.220   7.635 -3.0216 -1.9683 -0.7150
 2352SOL    HW218519   1.854   4.248   7.776 -0.6720  0.7896  0.3787
 2353SOL     OW18520   3.993   0.378   3.926  0.4068 -0.0624  0.1934
 2353SOL    HW118521   3.992   0.287   3.955  0.7836 -0.3004 -0.5400
 2353SOL    HW218522   3.899   0.391   3.929  0.1556 -1.4862 -1.8344
 2354SOL     OW18523   1.965   0.536   2.901  0.4449  0.0859 -0.2963
 2354SOL    HW118524   1.954   0.496   2.815 -1.7040 -0.0893  0.0600
 2354SOL    HW218525   2.044   0.496   2.936 -0.7139 -2.0509 -0.1127
 2355SOL     OW18526   1.756   3.054   6.179 -0.0595 -0.0491 -0.2988
 2355SOL    HW118527   1.824   3.072   6.114  1.2441 -2.0591  0.4863
 2355SOL    HW218528   1.687   3.117   6.159 -1.6229 -0.4216  3.9500
 2356SOL     OW18529   3.393   3.762   4.950 -0.1014 -0.1156  0.2864
 2356SOL    HW118530   3.305   3.740   4.919  1.1032  1.8560 -4.5220
 2356SOL    HW218531   3.412   3.711   5.029 -1.2893 -2.1624 -0.7852
 2357SOL     OW18532   0.008   0.115   0.328 -0.0273 -0.0369  0.2335
 2357SOL    HW118533   0.047   0.027   0.329  2.6516  1.1390 -2.1302
 2357SOL    HW218534   0.061   0.158   0.261 -0.4608 -0.3362 -0.3036
 2358SOL     OW18535   1.141   0.304  10.560  0.0694  0.0488  0.2132
 2358SOL    HW118536   1.208   0.350  10.610 -1.3285  1.4817  0.7694
 2358SOL    HW218537   1.063   0.352  10.590  2.3183  2.4072  2.2980
 2359SOL     OW18538   4.616   1.450  16.866  0.2758 -0.1233  0.0461
 2359SOL    HW118539   4.702   1.456  16.825  0.3746 -0.5832  0.1982
 2359SOL    HW218540   4.605   1.537  16.905 -0.6054 -0.1048 -0.2284
 2360SOL     OW18541   3.679   1.984   7.409  0.3658 -0.6224  0.2956
 2360SOL    HW118542   3.739   1.950   7.342 -1.0530 -1.6745 -0.4578
 2360SOL    HW218543   3.740   2.012   7.477  2.1349  2.7034 -2.6536
 2361SOL     OW18544   2.288   0.893  13.675  0.7607 -0.1660  0.1756
 2361SOL    HW118545   2.230   0.819  13.696  1.6717 -1.5827 -2.3176
 2361SOL    HW218546   2.265   0.953  13.746 -1.5492 -0.4797 -0.3194
 2362SOL     OW18547   4.388   3.098   9.562  0.8171  0.1286  0.8545
 2362SOL    HW118548   4.405   3.101   9.468 -0.7014 -2.0054  0.5107
 2362SOL    HW218549   4.417   3.013   9.594 -0.3871 -0.4235  0.4746
 2363SOL     OW18550   0.139   0.055  16.745  0.2268  0.5911 -0.3210
 2363SOL    HW118551   0.200   0.072  16.816  0.1053 -2.9708  0.6357
 2363SOL    HW218552   0.072   0.011  16.798  1.6928  0.3889  1.3418
 2364SOL     OW18553   2.318   2.415   8.646  0.1337  0.1366  0.6563
 2364SOL    HW118554   2.387   2.408   8.712  1.6701 -0.2040 -0.9791
 2364SOL    HW218555   2.377   2.424   8.571 -2.4832 -0.5591 -1.4809
 2365SOL     OW18556   4.330   1.528   7.535 -0.0716 -0.0601 -0.1740
 2365SOL    HW118557   4.237   1.544   7.555 -0.2602  0.6597 -1.6737
 2365SOL    HW218558   4.331   1.444   7.490 -1.2966 -0.0432 -0.2285
 2366SOL     OW18559   4.568   1.038  15.390 -0.3046 -0.5474  0.0149
 2366SOL    HW118560   4.530   1.027  15.303  0.3820  1.0175 -0.4903
 2366SOL    HW218561   4.645   0.981  15.387  2.3966  3.0924  0.0833
 2367SOL     OW18562   2.926   2.499   6.893 -0.0365 -0.2793 -0.4375
 2367SOL    HW118563   2.887   2.418   6.858  1.0682 -0.5165 -1.1346
 2367SOL    HW218564   3.001   2.459   6.939  0.5215  1.3790  0.0723
 2368SOL     OW18565   4.572   4.154  11.919  0.0914 -0.2144  0.2630
 2368SOL    HW118566   4.572   4.088  11.988 -1.0624 -0.1136  0.3460
 2368SOL    HW218567   4.498   4.213  11.934 -1.2921 -1.4547 -1.7030
 2369SOL     OW18568   2.701   4.721   0.580 -0.3560  0.0854 -0.5301
 2369SOL    HW118569   2.681   0.090   0.575  0.2607  0.2243 -0.3881
 2369SOL    HW218570   2.791   4.710   0.549 -0.1986 -2.1842  0.6962
 2370SOL     OW18571   4.316   0.495   7.664  0.2745  0.0590 -0.3572
 2370SOL    HW118572   4.227   0.490   7.700  0.0815  0.9761 -0.7060
 2370SOL    HW218573   4.361   0.487   7.748 -1.5099 -2.2722  0.3950
 2371SOL     OW18574   1.210   2.297   4.612 -0.6186  0.7610 -0.1873
 2371SOL    HW118575   1.149   2.286   4.685 -1.3128  1.2693 -0.7005
 2371SOL    HW218576   1.164   2.238   4.553  0.0742  0.2863 -0.2554
 2372SOL     OW18577   1.773   2.812   7.654  0.9389 -0.3597  0.2838
 2372SOL    HW118578   1.849   2.755   7.650  2.1290  1.3036 -0.7691
 2372SOL    HW218579   1.700   2.750   7.659  0.4761  0.4130  3.1864
 2373SOL     OW18580   1.498   2.126  13.828  0.0942  0.6518 -0.3589
 2373SOL    HW118581   1.498   2.221  13.824  1.1155  0.6877  0.6432
 2373SOL    HW218582   1.504   2.102  13.735  0.3529 -1.4175  0.1815
 2374SOL     OW18583   3.043   2.955  15.149 -0.1547  0.5114  0.0715
 2374SOL    HW118584   3.098   2.893  15.101 -1.3332  1.1324 -2.1015
 2374SOL    HW218585   3.099   2.968  15.225 -1.2657 -1.6184  1.2517
 2375SOL     OW18586   3.960   0.931   9.142 -0.2935 -0.7452  0.4647
 2375SOL    HW118587   3.945   0.925   9.048  0.6764  1.1182  0.1898
 2375SOL    HW218588   3.960   0.840   9.172  0.2456 -0.4880  1.2386
 2376SOL     OW18589   1.313   2.973   8.367 -0.0156 -0.5570 -0.1167
 2376SOL    HW118590   1.330   2.890   8.411  1.2340 -0.4152 -0.3386
 2376SOL    HW218591   1.251   3.012   8.430 -1.0060 -0.1235 -1.3576
 2377SOL     OW18592   0.169   4.626   0.339 -0.1541  0.2723  0.2725
 2377SOL    HW118593   0.257   4.592   0.322 -0.9138 -0.4561 -2.2358
 2377SOL    HW218594   0.112   4.551   0.321 -0.4383  1.1062 -2.3300
 2378SOL     OW18595   2.205   4.381  15.547 -0.5548  0.0580 -0.3697
 2378SOL    HW118596   2.145   4.434  15.495 -1.2535  0.9209  1.2865
 2378SOL    HW218597   2.157   4.370  15.629  1.0864 -0.9573  0.4608
 2379SOL     OW18598   0.783   4.177   5.334 -0.5488 -0.2087  0.3592
 2379SOL    HW118599   0.732   4.105   5.296 -1.2982  0.4335  0.1337
 2379SOL    HW218600   0.720   4.249   5.326  2.1136  2.1375  0.8788
 2380SOL     OW18601   2.664   2.177   7.996  0.1693 -0.0730 -0.6262
 2380SOL    HW118602   2.613   2.242   7.947  0.1978 -0.4332 -1.1369
 2380SOL    HW218603   2.696   2.124   7.923 -3.5354 -0.4820 -1.9468
 2381SOL     OW18604   2.968   2.056   6.757 -0.0107  0.1041 -0.9657
 2381SOL    HW118605   3.008   1.988   6.811 -0.4434  0.0277 -0.7373
 2381SOL    HW218606   3.044   2.113   6.742  0.2844 -0.8872 -3.1855
 2382SOL     OW18607   3.911   1.987   3.694 -0.0305  0.3526  0.2578
 2382SOL    HW118608   3.863   2.045   3.754 -0.0057  0.6263  0.0109
 2382SOL    HW218609   3.859   1.990   3.614 -0.7741 -3.1541  0.5959
 2383SOL     OW18610   1.706   0.219   0.311 -0.2173  0.3068  0.0003
 2383SOL    HW118611   1.775   0.195   0.249 -0.1787  1.2813 -0.3290
 2383SOL    HW218612   1.697   0.313   0.299  1.4030  0.2934 -1.3413
 2384SOL     OW18613   0.542   1.556   3.303  0.2807 -0.1748  0.0860
 2384SOL    HW118614   0.625   1.556   3.350 -0.2713 -1.4854  1.0666
 2384SOL    HW218615   0.549   1.641   3.260 -1.8627  1.1264  2.3051
 2385SOL     OW18616   3.227   1.619   6.424  0.2250  0.0248  0.1303
 2385SOL    HW118617   3.161   1.661   6.370  1.8311  0.2442 -1.6396
 2385SOL    HW218618   3.287   1.688   6.452 -0.0168  0.2324  0.1413
 2386SOL     OW18619   3.512   3.724   7.075  0.4189 -0.5042  0.0272
 2386SOL    HW118620   3.507   3.787   7.003  0.3421  0.2611  0.7018
 2386SOL    HW218621   3.606   3.706   7.076  0.1455 -1.9758  0.0167
 2387SOL     OW18622   2.216   4.189   3.809  0.0541  0.4230 -0.2778
 2387SOL    HW118623   2.295   4.195   3.863  0.8670 -2.6837 -1.0917
 2387SOL    HW218624   2.171   4.270   3.831 -1.3583 -0.7658  1.1569
 2388SOL     OW18625   3.168   0.333   1.044 -1.1808  0.4216  0.9610
 2388SOL    HW118626   3.166   0.246   1.083 -0.1140 -0.9244 -1.9786
 2388SOL    HW218627   3.176   0.389   1.122  1.7455  0.4763  0.6246
 2389SOL     OW18628   0.367   0.007  16.109  0.0691 -0.3307 -0.3380
 2389SOL    HW118629   0.314   0.067  16.056  0.3855  0.4870  0.2744
 2389SOL    HW218630   0.308   4.657  16.119 -0.7314  0.7321  2.7808
 2390SOL     OW18631   2.125   4.699   4.649  0.1006  0.5357  0.3229
 2390SOL    HW118632   2.175   0.055   4.660 -0.4267  0.8229  0.6660
 2390SOL    HW218633   2.117   4.672   4.741  1.7247 -0.2138  0.2458
 2391SOL     OW18634   3.790   3.902   7.396 -0.1392 -0.0054 -0.4189
 2391SOL    HW118635   3.695   3.908   7.401  0.0772  1.6361  1.5570
 2391SOL    HW218636   3.805   3.968   7.328 -1.1510 -0.8109 -1.4204
 2392SOL     OW18637   1.406   2.983   1.008  0.3626 -0.5659 -0.3131
 2392SOL    HW118638   1.455   3.001   0.928 -0.7276 -1.6016 -1.2082
 2392SOL    HW218639   1.317   3.002   0.981 -0.2806 -1.8878  0.8846
 2393SOL     OW18640   4.138   0.773   1.734 -0.0609 -0.5850 -0.0527
 2393SOL    HW118641   4.206   0.839   1.718 -1.0233  0.5551  0.5842
 2393SOL    HW218642   4.112   0.795   1.824  1.1082 -0.4949  0.2692
 2394SOL     OW18643   4.585   2.861  16.407 -0.2444 -0.2743 -0.0199
 2394SOL    HW118644   4.666   2.884  16.453 -0.4755 -2.4683  1.4656
 2394SOL    HW218645   4.593   2.775  16.366 -0.3094  0.2089 -1.0579
 2395SOL     OW18646   2.582   2.610   7.454 -0.2953  0.1975 -0.0986
 2395SOL    HW118647   2.550   2.540   7.512  1.2576 -0.0747  0.4179
 2395SOL    HW218648   2.504   2.655   7.422 -1.8830 -0.4188  2.9400
 2396SOL     OW18649   0.139   1.904  11.722 -0.6457  0.1117  0.0705
 2396SOL    HW118650   0.057   1.900  11.772  1.1597  0.6220  3.0546
 2396SOL    HW218651   0.107   1.877  11.636  0.9671  1.2664 -0.8855
 2397SOL     OW18652   2.612   4.282   4.743  0.0570  0.6003  0.9223
 2397SOL    HW118653   2.694   4.282   4.793  0.6137  0.5642  0.0052
 2397SOL    HW218654   2.611   4.190   4.717 -0.9559  0.7429  0.4304
 2398SOL     OW18655   0.120   2.963   8.552 -0.4406  0.2235 -0.1576
 2398SOL    HW118656   0.130   2.982   8.645 -0.8174  0.3833 -0.1494
 2398SOL    HW218657   0.168   2.880   8.542  1.5604  1.4389 -0.6112
 2399SOL     OW18658   0.794   0.520   1.203  0.5923  0.2019 -0.6336
 2399SOL    HW118659   0.764   0.446   1.256 -0.4958 -0.2448 -1.8629
 2399SOL    HW218660   0.770   0.492   1.115  0.5021  1.9974 -1.1675
 2400SOL     OW18661   4.631   4.333   3.947  0.2133 -0.5477  0.4891
 2400SOL    HW118662   4.618   4.239   3.941 -1.3924 -0.3143  0.4455
 2400SOL    HW218663   4.693   4.353   4.018 -0.2935 -1.7382  1.2632
 2401SOL     OW18664   0.384   0.681   8.696 -0.1607 -0.2632  0.4679
 2401SOL    HW118665   0.291   0.665   8.684 -0.0895 -0.5186  0.2733
 2401SOL    HW218666   0.399   0.632   8.777 -0.1670 -0.5737  0.2800
 2402SOL     OW18667   0.495   1.184   8.913  0.1332 -0.4230  0.3770
 2402SOL    HW118668   0.439   1.109   8.931 -1.0472  0.4614  0.3675
 2402SOL    HW218669   0.496   1.236   8.994  0.2371 -1.3062  0.9440
 2403SOL     OW18670   4.547   3.612   8.171  0.1571  0.2573 -0.0510
 2403SOL    HW118671   4.609   3.586   8.103 -1.5972 -0.4298 -1.3719
 2403SOL    HW218672   4.518   3.524   8.193 -0.7266  0.4839 -0.3215
 2404SOL     OW18673   3.774   2.710   8.171  0.1823  0.8901  0.3323
 2404SOL    HW118674   3.838   2.641   8.152 -0.4500 -0.1795  2.1106
 2404SOL    HW218675   3.833   2.784   8.157  2.1421 -0.8040 -0.4771
 2405SOL     OW18676   3.708   0.689   4.252 -0.1083 -0.3553  0.6080
 2405SOL    HW118677   3.742   0.749   4.318  0.3608 -0.0783  0.1080
 2405SOL    HW218678   3.786   0.650   4.214 -0.0832  1.1192 -0.8831
 2406SOL     OW18679   3.650   3.157   3.174 -0.5585 -0.0903 -0.5454
 2406SOL    HW118680   3.687   3.175   3.087  2.4243  1.0983  0.9469
 2406SOL    HW218681   3.607   3.072   3.165  0.0621 -0.6263  1.6500
 2407SOL     OW18682   1.771   1.440   6.105 -0.3227 -0.0064 -0.5610
 2407SOL    HW118683   1.761   1.427   6.010  0.0771 -0.9702 -0.4744
 2407SOL    HW218684   1.776   1.347   6.126  0.7556  0.4103  1.0270
 2408SOL     OW18685   2.216   3.652  13.096 -0.2423  0.0364  0.4289
 2408SOL    HW118686   2.135   3.700  13.116  0.3028  0.5057  1.5074
 2408SOL    HW218687   2.203   3.576  13.153 -2.3144 -0.5709 -0.8348
 2409SOL     OW18688   2.450   0.460  15.422  0.2708 -0.0331 -0.6892
 2409SOL    HW118689   2.424   0.473  15.513  0.5485 -2.9549 -0.2030
 2409SOL    HW218690   2.382   0.398  15.396 -0.9273  0.2319  1.7711
 2410SOL     OW18691   4.508   3.945   2.965 -0.5634  0.1129  0.0835
 2410SOL    HW118692   4.497   4.023   3.019  2.0919  1.8326 -1.8545
 2410SOL    HW218693   4.535   3.876   3.026  0.4795 -1.4909 -2.1589
 2411SOL     OW18694   2.533   3.166   2.772  0.6460 -0.4738  0.3684
 2411SOL    HW118695   2.499   3.232   2.832 -0.1223 -0.8501  0.3469
 2411SOL    HW218696   2.476   3.091   2.785 -2.3301  1.7184 -0.0708
 2412SOL     OW18697   0.887   1.147  11.222 -0.3790 -0.3077  0.3728
 2412SOL    HW118698   0.948   1.215  11.251 -2.0497  1.1751  0.4180
 2412SOL    HW218699   0.837   1.137  11.304  0.7827 -1.9009  0.8939
 2413SOL     OW18700   0.472   0.570   8.471 -0.4479 -0.1292 -0.3457
 2413SOL    HW118701   0.416   0.615   8.535  2.3934  1.2217  1.2287
 2413SOL    HW218702   0.486   0.645   8.414  1.1750 -0.5050 -0.4508
 2414SOL     OW18703   1.070   4.653   0.101 -0.5603  0.3634 -0.3917
 2414SOL    HW118704   1.111   0.009   0.068 -1.0821  0.1562 -1.5650
 2414SOL    HW218705   1.018   4.679   0.177  0.9750  0.9596  0.4414
 2415SOL     OW18706   1.584   2.944   0.282  0.3410 -0.2957  0.0741
 2415SOL    HW118707   1.596   2.959   0.188  0.8422  1.8667  0.4896
 2415SOL    HW218708   1.505   2.890   0.282  0.0295  0.1338  3.3436
 2416SOL     OW18709   2.653   0.465   9.863 -0.3186 -0.5361  0.4801
 2416SOL    HW118710   2.700   0.394   9.909  1.1235 -0.8921 -1.5566
 2416SOL    HW218711   2.635   0.419   9.781  0.7289  1.0741 -0.6471
 2417SOL     OW18712   0.981   0.559   7.180  0.2828 -0.7092  0.9917
 2417SOL    HW118713   1.024   0.562   7.094 -2.2966 -2.1672 -0.3412
 2417SOL    HW218714   1.036   0.495   7.223 -0.6792 -1.2052  1.4866
 2418SOL     OW18715   4.059   2.408   4.285 -0.2276 -1.0310  0.1063
 2418SOL    HW118716   4.047   2.460   4.364 -0.8937 -0.5740 -0.2882
 2418SOL    HW218717   4.100   2.329   4.319  1.4106  0.7848  2.2964
 2419SOL     OW18718   2.566   0.979   3.405 -0.1617 -0.1012 -0.1859
 2419SOL    HW118719   2.615   0.929   3.469 -0.3480 -0.7261 -0.5337
 2419SOL    HW218720   2.476   0.969   3.437 -0.4434  2.6926 -0.0533
 2420SOL     OW18721   1.280   3.746  12.018 -0.0513  0.5458  0.3447
 2420SOL    HW118722   1.298   3.835  12.049  1.9889  0.6880 -1.2915
 2420SOL    HW218723   1.315   3.699  12.094  0.6510 -0.9953 -0.9389
 2421SOL     OW18724   1.641   3.482   3.590  0.4449  0.0869  0.0348
 2421SOL    HW118725   1.649   3.510   3.681  0.5383  2.7937 -0.8170
 2421SOL    HW218726   1.546   3.475   3.580  0.5809  1.7738 -2.4854
 2422SOL     OW18727   1.985   1.736  12.583 -0.8001 -0.0390  0.3425
 2422SOL    HW118728   1.953   1.768  12.498 -0.0862  0.5571  0.2908
 2422SOL    HW218729   1.923   1.777  12.643 -2.9443 -1.2052 -1.0786
 2423SOL     OW18730   4.357   0.987   2.848 -0.2484  0.3936 -0.1115
 2423SOL    HW118731   4.331   1.078   2.862 -1.4958 -0.0796  0.6747
 2423SOL    HW218732   4.428   0.987   2.784 -2.6185  0.8815 -2.6960
 2424SOL     OW18733   3.072   0.413   9.077  0.0494  0.2245 -0.5816
 2424SOL    HW118734   3.130   0.345   9.042  0.5474 -0.2271  1.1150
 2424SOL    HW218735   2.996   0.361   9.050  0.2475 -1.8356  2.8794
 2425SOL     OW18736   2.196   1.478   5.674 -0.8553 -0.1014  0.2536
 2425SOL    HW118737   2.198   1.558   5.622  1.1610 -1.6062 -2.0046
 2425SOL    HW218738   2.277   1.440   5.639 -0.3721 -0.9060  2.2401
 2426SOL     OW18739   0.396   1.440  17.650 -0.4609  0.2154  0.4182
 2426SOL    HW118740   0.338   1.372  17.617  0.0481  0.2697 -0.6047
 2426SOL    HW218741   0.463   1.458  17.584  1.4977 -0.6251  2.1735
 2427SOL     OW18742   2.021   0.107   3.965  1.0017  0.4131  0.0819
 2427SOL    HW118743   2.000   0.084   3.875  0.0069 -0.2771  0.4966
 2427SOL    HW218744   1.940   0.093   4.014  0.4548 -0.4755 -1.0859
 2428SOL     OW18745   3.976   4.302   5.515 -0.4301  0.0688 -0.2934
 2428SOL    HW118746   3.900   4.358   5.530 -0.9090 -0.5753 -0.2990
 2428SOL    HW218747   3.973   4.293   5.419 -0.8698  0.1463 -0.2868
 2429SOL     OW18748   1.325   4.254   9.359  0.0589  0.3008 -0.2466
 2429SOL    HW118749   1.319   4.223   9.268  1.4340 -2.3322  0.5688
 2429SOL    HW218750   1.399   4.199   9.385 -1.0499  0.6609  3.6664
 2430SOL     OW18751   0.777   1.129   9.430  0.2722  0.4138  0.6651
 2430SOL    HW118752   0.710   1.066   9.455  0.6574 -0.2492  0.0406
 2430SOL    HW218753   0.847   1.071   9.399 -1.7838 -1.9077  0.3971
 2431SOL     OW18754   0.579   4.086  15.232 -0.0145 -0.0190  0.0553
 2431SOL    HW118755   0.506   4.106  15.291  2.4164  1.0807  2.6995
 2431SOL    HW218756   0.639   4.055  15.300  0.1382 -0.0561 -0.0980
 2432SOL     OW18757   4.438   4.240  17.178 -0.5335  0.2562 -0.6620
 2432SOL    HW118758   4.464   4.331  17.193  2.5108 -1.0914  2.0324
 2432SOL    HW218759   4.492   4.209  17.105 -1.6244 -0.5454 -1.1291
 2433SOL     OW18760   3.750   0.126   3.627 -0.2332 -0.2627 -0.3315
 2433SOL    HW118761   3.753   0.221   3.622 -1.2601 -0.1023  1.8439
 2433SOL    HW218762   3.655   0.110   3.634  0.0697 -1.9529  0.0197
 2434SOL     OW18763   3.442   1.692   0.189 -0.1693 -0.7821  0.7267
 2434SOL    HW118764   3.419   1.602   0.165 -0.5915 -0.0120 -1.7236
 2434SOL    HW218765   3.371   1.706   0.251 -0.7437 -1.1945  0.1632
 2435SOL     OW18766   4.346   0.914   3.296 -0.3425  0.6132  0.2565
 2435SOL    HW118767   4.323   0.839   3.350  0.3354  0.9707  1.0218
 2435SOL    HW218768   4.376   0.875   3.213  0.0669 -1.7533  1.5189
 2436SOL     OW18769   1.269   1.479  17.660  0.0209 -0.5672  0.5568
 2436SOL    HW118770   1.179   1.449  17.663  0.3115 -1.5093 -0.4200
 2436SOL    HW218771   1.306   1.394  17.635  3.3735  0.9816  0.2755
 2437SOL     OW18772   1.657   1.825   2.645 -0.3882  0.1707  0.3249
 2437SOL    HW118773   1.604   1.903   2.663 -1.1199 -0.1818 -0.2994
 2437SOL    HW218774   1.655   1.816   2.549  0.2838 -3.1309  0.6263
 2438SOL     OW18775   4.648   4.119   4.879 -0.1281 -0.2242  0.2156
 2438SOL    HW118776   4.712   4.103   4.810  1.6455 -1.3086  2.1429
 2438SOL    HW218777   4.600   4.037   4.870  0.1327 -0.2336 -1.1642
 2439SOL     OW18778   0.398   3.950  15.661 -0.6570 -0.2755 -0.1508
 2439SOL    HW118779   0.468   3.959  15.727  0.0753 -0.1002 -0.9479
 2439SOL    HW218780   0.349   3.887  15.714  0.7016 -2.8453 -1.9116
 2440SOL     OW18781   1.679   0.416  10.654 -0.3583  0.4588 -0.2268
 2440SOL    HW118782   1.691   0.376  10.740 -0.0088  2.5376  0.6932
 2440SOL    HW218783   1.743   0.487  10.661 -0.4322  0.8865 -4.1480
 2441SOL     OW18784   3.097   4.544   4.212  0.1964  0.1764  0.0410
 2441SOL    HW118785   3.161   4.550   4.283  0.3121 -0.6357  0.0071
 2441SOL    HW218786   3.074   4.637   4.218  0.2970  0.1924  0.1723
 2442SOL     OW18787   0.433   1.944  11.429  0.0836 -0.6764 -0.3772
 2442SOL    HW118788   0.372   1.993  11.485  2.3120 -0.6562  2.0404
 2442SOL    HW218789   0.456   2.020  11.376 -0.2637  1.3951  2.4058
 2443SOL     OW18790   0.934   3.783   5.337  0.2012 -0.6997  0.4212
 2443SOL    HW118791   0.983   3.704   5.359  0.4015 -0.6088  0.3014
 2443SOL    HW218792   0.986   3.812   5.262  0.7549 -2.6694  0.0322
 2444SOL     OW18793   4.567   0.343   2.074 -0.0171  0.6605 -0.0082
 2444SOL    HW118794   4.481   0.301   2.073 -0.3698  1.3971 -0.4420
 2444SOL    HW218795   4.592   0.343   2.166 -1.0389  2.5291  0.2629
 2445SOL     OW18796   2.438   1.506   1.397  0.8637  0.5165 -0.4578
 2445SOL    HW118797   2.463   1.595   1.373  0.4037  0.8412  0.2618
 2445SOL    HW218798   2.502   1.452   1.351  1.6837  0.5484  0.6310
 2446SOL     OW18799   2.695   2.427   3.334 -0.0487  0.1001 -0.0355
 2446SOL    HW118800   2.646   2.393   3.259 -0.1598  1.6877 -0.6818
 2446SOL    HW218801   2.670   2.367   3.404  0.4209  0.5168  0.4844
 2447SOL     OW18802   2.154   3.339   5.418  0.0965 -0.1695  0.1574
 2447SOL    HW118803   2.198   3.257   5.398  0.9831  0.0712  1.1000
 2447SOL    HW218804   2.207   3.404   5.371 -0.9321  1.4882  1.2741
 2448SOL     OW18805   1.617   3.839   4.027  0.4030  0.3983 -0.3189
 2448SOL    HW118806   1.700   3.862   3.983  0.8879  0.0748  0.4278
 2448SOL    HW218807   1.604   3.752   3.988 -0.3275  0.3591  0.0335
 2449SOL     OW18808   4.191   2.249   0.159 -0.1258 -0.4890 -0.1108
 2449SOL    HW118809   4.099   2.275   0.152  0.1493  0.7632  0.9995
 2449SOL    HW218810   4.234   2.308   0.098 -1.0733 -1.3052 -1.5740
 2450SOL     OW18811   2.593   3.089  17.049 -0.2186  0.2553  0.5389
 2450SOL    HW118812   2.522   3.136  17.005  1.4815  2.2437 -0.1357
 2450SOL    HW218813   2.666   3.087  16.986  0.0268  0.4413  0.8148
 2451SOL     OW18814   3.510   0.145  11.093 -0.3140 -0.2224  0.0785
 2451SOL    HW118815   3.579   0.114  11.152 -1.1284 -2.1476  0.0296
 2451SOL    HW218816   3.565   0.191  11.030  0.1894 -1.1671 -0.1766
 2452SOL     OW18817   3.609   0.967   4.011  0.1668  0.4023  0.3937
 2452SOL    HW118818   3.636   1.050   4.051 -1.3236  0.7927  0.5892
 2452SOL    HW218819   3.687   0.919   4.041 -0.5134 -0.2831  1.0532
 2453SOL     OW18820   3.760   3.545   4.654 -0.0896  0.0127  0.1864
 2453SOL    HW118821   3.704   3.617   4.624 -0.1435  0.1383  0.5972
 2453SOL    HW218822   3.812   3.533   4.574 -1.2342 -1.0679 -0.4116
 2454SOL     OW18823   1.928   0.390  16.983 -0.0792 -0.2515 -0.0360
 2454SOL    HW118824   1.836   0.415  16.988  0.4564  1.7786 -0.2957
 2454SOL    HW218825   1.945   0.353  17.070 -0.9466 -1.6778 -0.4718
 2455SOL     OW18826   4.262   4.309   5.524 -0.6018 -0.0994 -0.4930
 2455SOL    HW118827   4.166   4.298   5.523 -0.7677  1.4702 -1.8758
 2455SOL    HW218828   4.277   4.291   5.616 -0.0093 -0.7153 -0.7018
 2456SOL     OW18829   0.226   4.170  16.927  0.3116 -0.0473 -0.4483
 2456SOL    HW118830   0.192   4.132  17.008 -0.7250  1.1585 -0.3055
 2456SOL    HW218831   0.198   4.103  16.866  0.3292  1.4682 -2.1222
 2457SOL     OW18832   1.756   2.322   0.740  0.2954 -0.0112  0.3797
 2457SOL    HW118833   1.819   2.299   0.809 -1.0382 -0.8501  1.3007
 2457SOL    HW218834   1.703   2.378   0.797  0.4598 -0.0587  0.5820
 2458SOL     OW18835   4.126   2.741   5.633 -0.0138  0.7420  0.3109
 2458SOL    HW118836   4.040   2.775   5.659  0.0594 -0.2792  1.8701
 2458SOL    HW218837   4.120   2.653   5.670  0.9917  0.1239 -0.9931
 2459SOL     OW18838   2.063   1.424   3.656 -0.5308  0.0735  0.0919
 2459SOL    HW118839   2.091   1.484   3.587 -1.4158  0.8163  0.3775
 2459SOL    HW218840   2.103   1.343   3.624 -0.4767 -0.7438  2.2477
 2460SOL     OW18841   2.595   3.113  14.598 -0.1064  0.0619 -0.6100
 2460SOL    HW118842   2.519   3.171  14.602  0.0730  0.3099 -0.8346
 2460SOL    HW218843   2.610   3.109  14.503 -1.8326 -1.7440 -0.7930
 2461SOL     OW18844   2.181   3.912   3.000  0.0666 -0.2619 -0.3998
 2461SOL    HW118845   2.109   3.916   2.938  0.4992  0.6713 -0.8492
 2461SOL    HW218846   2.245   3.892   2.932  1.7224 -0.0332  1.0683
 2462SOL     OW18847   1.089   1.564   6.038 -0.1770 -0.3410  0.0429
 2462SOL    HW118848   1.022   1.628   6.061  0.0045 -0.6928  1.5782
 2462SOL    HW218849   1.066   1.499   6.105 -2.5472  1.1053  0.6201
 2463SOL     OW18850   1.701   3.352   9.523  0.7659 -0.1561  0.3839
 2463SOL    HW118851   1.769   3.419   9.517 -0.8504  1.2460 -2.1890
 2463SOL    HW218852   1.670   3.361   9.614 -1.1384  1.3937 -0.4136
 2464SOL     OW18853   3.377   2.031  12.952 -0.2174 -0.2153 -0.2924
 2464SOL    HW118854   3.294   2.030  12.904 -1.2329  0.7058  1.4815
 2464SOL    HW218855   3.366   2.095  13.022 -0.5001 -0.3866 -0.1832
 2465SOL     OW18856   4.547   4.507   3.264  0.0584 -0.2111  0.4137
 2465SOL    HW118857   4.500   4.449   3.205 -0.6044  0.9848 -0.2318
 2465SOL    HW218858   4.604   4.437   3.296 -1.4909 -1.3580  0.7203
 2466SOL     OW18859   4.202   4.692   4.846 -0.1679 -0.4299 -0.3070
 2466SOL    HW118860   4.280   0.003   4.803  0.8166 -1.1620  0.8777
 2466SOL    HW218861   4.232   4.603   4.862 -1.0832 -0.8179 -0.7725
 2467SOL     OW18862   2.750   1.279   7.875  0.3005 -0.3782  0.2610
 2467SOL    HW118863   2.825   1.325   7.915  0.8638 -0.1147 -1.0808
 2467SOL    HW218864   2.686   1.316   7.936  0.1974 -0.4012  0.1654
 2468SOL     OW18865   4.687   0.219   1.719  0.0536  0.1176  0.6425
 2468SOL    HW118866   4.661   0.307   1.746 -0.1986  0.2554 -0.0591
 2468SOL    HW218867   4.685   0.235   1.625  1.2538 -3.0600  0.0764
 2469SOL     OW18868   3.201   2.939   4.530 -0.9092  0.1291 -0.6359
 2469SOL    HW118869   3.200   2.866   4.592  0.1700  0.3866 -0.3278
 2469SOL    HW218870   3.267   2.995   4.571 -1.7314  2.5535 -2.6650
 2470SOL     OW18871   3.722   3.559   4.336  0.6045 -0.2356 -0.2701
 2470SOL    HW118872   3.646   3.616   4.332  1.6044  1.2710  2.5295
 2470SOL    HW218873   3.756   3.581   4.249 -0.8238 -1.3120 -1.1169
 2471SOL     OW18874   1.868   2.825  13.952  0.1815  0.1140  0.3885
 2471SOL    HW118875   1.835   2.789  13.869  0.0004  0.5362  0.2747
 2471SOL    HW218876   1.951   2.851  13.912  0.2309  0.0829  0.4731
 2472SOL     OW18877   2.851   0.883  15.423  0.1100  0.1087  0.4995
 2472SOL    HW118878   2.793   0.914  15.353 -0.1111  2.8812  1.9102
 2472SOL    HW218879   2.900   0.811  15.383  0.8539  0.8603  0.0417
 2473SOL     OW18880   0.154   0.510   5.423  0.0406 -0.5748  0.0581
 2473SOL    HW118881   0.079   0.471   5.380 -1.0187  0.2677  1.1554
 2473SOL    HW218882   0.129   0.511   5.516  1.4433 -0.7270  0.4381
 2474SOL     OW18883   0.050   0.514   6.659 -0.9014 -0.0759  0.1920
 2474SOL    HW118884   0.096   0.431   6.673  0.2498  0.5004 -0.2183
 2474SOL    HW218885   4.703   0.493   6.719  0.4408 -1.5520  1.2815
 2475SOL     OW18886   0.880   4.332   6.705  0.0149  0.0095  0.3145
 2475SOL    HW118887   0.861   4.352   6.796 -0.8373  2.5816 -0.4263
 2475SOL    HW218888   0.960   4.281   6.710  1.0366  1.4670 -0.9025
 2476SOL     OW18889   0.192   2.985  15.196  0.1065  0.4532 -0.1822
 2476SOL    HW118890   0.146   2.994  15.113 -1.5053  1.2397  0.7737
 2476SOL    HW218891   0.117   2.984  15.257 -0.0998  0.5494 -0.4339
 2477SOL     OW18892   1.124   3.321   4.425 -0.1600 -0.3899 -0.2949
 2477SOL    HW118893   1.109   3.284   4.338 -1.6185  1.1652 -0.7145
 2477SOL    HW218894   1.120   3.415   4.403  0.0427 -0.6357 -1.3876
 2478SOL     OW18895   4.676   1.380   3.124  0.1297 -0.3579 -0.1771
 2478SOL    HW118896   4.624   1.315   3.078  1.8109 -2.7309  1.2754
 2478SOL    HW218897   4.630   1.464   3.114 -2.8241 -1.9816 -0.1254
 2479SOL     OW18898   1.286   0.454   9.395  0.3903 -0.2315  0.7157
 2479SOL    HW118899   1.268   0.443   9.302  1.4948  2.8453  0.1665
 2479SOL    HW218900   1.225   0.521   9.427  1.4051  1.3111 -0.6418
 2480SOL     OW18901   1.008   3.535   3.556 -0.0907  0.4514 -0.0310
 2480SOL    HW118902   1.020   3.583   3.474 -0.3421  2.2077  0.9421
 2480SOL    HW218903   1.063   3.588   3.615 -0.8843 -0.1219  1.2090
 2481SOL     OW18904   0.621   3.645   5.313  0.2109 -0.0845  0.1999
 2481SOL    HW118905   0.543   3.595   5.285 -1.2744  1.6536  1.2252
 2481SOL    HW218906   0.653   3.657   5.224 -1.4736  1.1390 -0.2394
 2482SOL     OW18907   3.666   1.110   8.241 -0.7209 -0.1373  0.2959
 2482SOL    HW118908   3.735   1.045   8.238 -0.6933  0.0584 -2.7262
 2482SOL    HW218909   3.668   1.129   8.335 -2.3308  1.3137  0.0370
 2483SOL     OW18910   1.903   1.910   1.376  0.7046 -0.5879 -0.1301
 2483SOL    HW118911   1.823   1.905   1.428 -0.3124  1.3598 -1.4781
 2483SOL    HW218912   1.925   1.818   1.366  4.4004  0.1404  1.3498
 2484SOL     OW18913   2.026   4.642   9.637  0.3691 -0.2625  0.6780
 2484SOL    HW118914   2.113   4.601   9.640  0.0167 -0.9799  1.1298
 2484SOL    HW218915   2.045   4.709   9.572  0.1917  0.2851  1.1902
 2485SOL     OW18916   0.740   2.862   9.954 -0.3399  0.2311  0.4946
 2485SOL    HW118917   0.743   2.930  10.021 -0.4682  1.1717 -0.4451
 2485SOL    HW218918   0.832   2.842   9.935  0.0018 -1.6011  4.2422
 2486SOL     OW18919   4.709   1.126   7.325  0.0877  0.0350 -0.3743
 2486SOL    HW118920   4.649   1.076   7.380 -1.4226  0.5245 -1.5633
 2486SOL    HW218921   4.700   1.213   7.365  1.3187  0.2447 -0.5762
 2487SOL     OW18922   2.517   1.094   7.575 -0.2308 -0.1081  0.6558
 2487SOL    HW118923   2.549   1.057   7.658  1.1885  0.0113  0.1701
 2487SOL    HW218924   2.598   1.081   7.526 -0.4917  1.6212 -0.2450
 2488SOL     OW18925   1.557   3.336  12.024  0.5194 -0.3800  0.6534
 2488SOL    HW118926   1.567   3.368  11.935 -1.8894 -0.1212  0.4764
 2488SOL    HW218927   1.465   3.349  12.044  0.5919  2.9221 -1.3156
 2489SOL     OW18928   2.002   0.021   6.925 -0.6586 -0.2587  0.2666
 2489SOL    HW118929   2.057   4.677   6.963  1.1625  1.4854  0.8034
 2489SOL    HW218930   1.997   0.090   6.992  2.2631  0.8882 -0.6484
 2490SOL     OW18931   2.873   4.141   5.167 -0.2811 -0.3937  0.4573
 2490SOL    HW118932   2.919   4.210   5.119 -1.6267  1.1256  1.3256
 2490SOL    HW218933   2.948   4.099   5.209  1.3633  1.5232 -0.5297
 2491SOL     OW18934   0.235   1.807  10.911 -0.0573 -0.1972  0.3503
 2491SOL    HW118935   0.328   1.819  10.893 -0.9024  0.7590 -3.4929
 2491SOL    HW218936   0.224   1.782  11.003 -0.7799 -2.6540 -0.4147
 2492SOL     OW18937   3.608   3.931   1.798  0.1417  0.2340  0.3996
 2492SOL    HW118938   3.619   4.019   1.762 -0.7989  0.7871  1.4612
 2492SOL    HW218939   3.516   3.933   1.826  0.9813 -0.4288  3.2097
 2493SOL     OW18940   4.678   2.861   3.259 -0.1880 -0.0321  0.0547
 2493SOL    HW118941   4.666   2.831   3.169  0.6267 -0.2220  0.0089
 2493SOL    HW218942   4.684   2.955   3.241  0.8363 -0.2483 -0.7639
 2494SOL     OW18943   3.627   0.088   8.661  0.1090  0.1901  0.0140
 2494SOL    HW118944   3.684   0.151   8.617  1.3004  0.3444  1.7860
 2494SOL    HW218945   3.690   0.019   8.678 -1.6307 -1.4118 -0.0138
 2495SOL     OW18946   2.197   1.434   7.876  0.0198 -0.1292  0.1332
 2495SOL    HW118947   2.226   1.488   7.950  2.0514 -1.7642  0.5364
 2495SOL    HW218948   2.126   1.379   7.910 -0.0509 -1.4326 -2.1205
 2496SOL     OW18949   4.679   1.550   0.313  1.2282  0.8635  0.7114
 2496SOL    HW118950   4.701   1.600   0.392  0.7125  2.1024  0.0710
 2496SOL    HW218951   4.617   1.491   0.356  0.9083  1.7309  1.4366
 2497SOL     OW18952   3.145   3.118   6.038 -0.3589 -0.2440 -0.4310
 2497SOL    HW118953   3.178   3.089   5.953 -1.5171 -3.3504  0.1820
 2497SOL    HW218954   3.201   3.194   6.052 -0.1556 -0.8632  2.1113
 2498SOL     OW18955   0.797   2.579   2.467  0.4497  0.3537  0.2761
 2498SOL    HW118956   0.871   2.630   2.500  0.4606 -0.6375  1.8018
 2498SOL    HW218957   0.756   2.649   2.416 -1.2134 -1.2324 -0.5763
 2499SOL     OW18958   0.152   3.395   4.734  0.8653  0.0468 -0.5257
 2499SOL    HW118959   0.207   3.329   4.692  1.9932  0.5924  0.1232
 2499SOL    HW218960   0.166   3.476   4.685  0.4625  1.3153  1.4949
 2500SOL     OW18961   0.691   3.384  11.483  1.1262  0.1492  0.9345
 2500SOL    HW118962   0.719   3.454  11.423 -3.0653  1.7095  0.7896
 2500SOL    HW218963   0.770   3.331  11.495  1.2238  0.0038 -0.2768
 2501SOL     OW18964   2.600   0.416   2.552 -0.3698 -0.0351 -0.0590
 2501SOL    HW118965   2.638   0.496   2.515 -1.7467  0.4298 -0.4352
 2501SOL    HW218966   2.532   0.404   2.487  1.5807  2.2468 -2.5200
 2502SOL     OW18967   3.223   2.688  13.339  0.0029 -0.1290 -0.2988
 2502SOL    HW118968   3.184   2.602  13.358 -0.5041 -0.0257 -0.8860
 2502SOL    HW218969   3.236   2.720  13.428 -0.4229 -2.1368  0.4911
 2503SOL     OW18970   1.204   0.540   6.624  0.1040 -0.7309 -0.4433
 2503SOL    HW118971   1.167   0.575   6.543  0.3367  0.1598 -0.1647
 2503SOL    HW218972   1.177   0.603   6.691 -0.3715 -3.2630  1.7572
 2504SOL     OW18973   1.180   0.186   5.106 -0.2118 -0.1464  0.0043
 2504SOL    HW118974   1.091   0.153   5.112 -1.9916  4.3844 -1.2462
 2504SOL    HW218975   1.185   0.243   5.182 -1.4971  0.6553 -0.5181
 2505SOL     OW18976   3.440   1.851   2.878  0.5882 -0.4522 -0.1401
 2505SOL    HW118977   3.370   1.848   2.812  0.6490  0.5517 -0.2471
 2505SOL    HW218978   3.441   1.942   2.906 -0.6410 -0.1652 -1.0311
 2506SOL     OW18979   0.682   2.088   7.160  0.5420  0.3754 -0.1425
 2506SOL    HW118980   0.627   2.028   7.110  0.8910  0.8715 -1.1231
 2506SOL    HW218981   0.765   2.043   7.176  1.5127  2.0460 -0.4214
 2507SOL     OW18982   1.886   3.972   5.816 -0.2888 -0.4571 -0.2140
 2507SOL    HW118983   1.883   4.004   5.906 -2.8251 -1.0236 -0.0927
 2507SOL    HW218984   1.915   4.047   5.764  0.0349 -0.4937 -0.0847
 2508SOL     OW18985   3.282   4.584  14.498  0.3362 -0.2468  0.0219
 2508SOL    HW118986   3.228   4.660  14.476  1.8085  0.6810 -0.3920
 2508SOL    HW218987   3.350   4.615  14.438 -2.4350  0.8441 -2.5238
 2509SOL     OW18988   1.623   3.588   5.043  0.0644  0.2924 -0.7439
 2509SOL    HW118989   1.641   3.509   5.094  0.3098  0.5867 -0.3661
 2509SOL    HW218990   1.635   3.652   5.113  0.7461 -0.6304 -0.0097
 2510SOL     OW18991   0.584   3.320   6.554  0.3778 -0.7991 -0.3770
 2510SOL    HW118992   0.532   3.347   6.478  0.4731 -1.9208 -0.8361
 2510SOL    HW218993   0.550   3.383   6.618  2.0385 -0.0086 -0.2615
 2511SOL     OW18994   2.328   0.369   7.700 -0.3042 -0.1436 -0.2321
 2511SOL    HW118995   2.257   0.315   7.735  0.8912 -0.0924  2.2868
 2511SOL    HW218996   2.387   0.375   7.775  1.2989 -0.9005 -1.4125
 2512SOL     OW18997   2.995   1.213  16.239  0.4931 -0.0818  0.1495
 2512SOL    HW118998   2.909   1.216  16.198  0.6123 -0.2418 -0.1142
 2512SOL    HW218999   3.022   1.126  16.210 -2.8140 -0.7011 -0.9695
 2513SOL     OW19000   1.243   0.463   0.086 -0.5324 -0.1527 -0.5632
 2513SOL    HW119001   1.304   0.406   0.038 -0.0765 -2.4350  2.7003
 2513SOL    HW219002   1.194   0.519   0.026  0.7502 -0.9015 -2.3241
 2514SOL     OW19003   0.364   0.317   5.843 -0.3120 -0.5474 -0.0655
 2514SOL    HW119004   0.394   0.404   5.872  3.4310 -1.5976 -0.8354
 2514SOL    HW219005   0.272   0.317   5.871  0.1224  1.1348  1.3924
 2515SOL     OW19006   4.703   3.363   4.373 -0.1025  0.1604  0.1272
 2515SOL    HW119007   4.660   3.294   4.424  4.3112 -0.6294  2.7765
 2515SOL    HW219008   4.624   3.410   4.347  0.1016  0.2439 -0.3347
 2516SOL     OW19009   4.465   2.969  11.381 -0.3609  0.5605  0.0935
 2516SOL    HW119010   4.402   3.006  11.443  1.2814  1.9842  0.9086
 2516SOL    HW219011   4.419   2.896  11.339  0.7239  0.2181 -0.5078
 2517SOL     OW19012   0.951   0.445   5.366 -0.0085 -0.1539 -0.7700
 2517SOL    HW119013   1.029   0.406   5.327  0.2950  0.1475 -0.4586
 2517SOL    HW219014   0.948   0.398   5.449  0.1020  0.0293 -0.6656
 2518SOL     OW19015   2.810   3.239   2.833 -0.0799 -0.1938  0.2568
 2518SOL    HW119016   2.728   3.222   2.787 -0.2472  1.3287  0.0037
 2518SOL    HW219017   2.790   3.218   2.924 -0.5504 -0.4346  0.0968
 2519SOL     OW19018   3.182   3.907   6.509  0.1747  0.1754  0.3720
 2519SOL    HW119019   3.200   3.848   6.583  0.3712  0.1559  0.3090
 2519SOL    HW219020   3.265   3.954   6.514  0.1461  0.1243  1.3652
 2520SOL     OW19021   2.673   1.652   4.115 -0.8174 -0.6831 -0.4338
 2520SOL    HW119022   2.600   1.592   4.134 -1.0574 -0.2405  0.0544
 2520SOL    HW219023   2.738   1.594   4.076  0.2737 -0.7448  1.4956
 2521SOL     OW19024   1.678   1.467   3.289  0.4006  0.0154 -0.2960
 2521SOL    HW119025   1.739   1.504   3.353  0.6778  1.1100 -1.1941
 2521SOL    HW219026   1.690   1.377   3.320 -0.7235 -0.0696 -0.1121
 2522SOL     OW19027   4.175   0.298   1.710  0.2419 -0.3119 -0.6355
 2522SOL    HW119028   4.239   0.358   1.747  1.1928 -1.5563 -0.2613
 2522SOL    HW219029   4.158   0.343   1.627  2.7704 -0.8142 -1.4260
 2523SOL     OW19030   2.143   4.123  17.050 -0.1489  0.3197 -0.0938
 2523SOL    HW119031   2.159   4.117  16.956  0.1674  2.7405 -0.1756
 2523SOL    HW219032   2.049   4.142  17.042  0.3404  2.0953 -1.4913
 2524SOL     OW19033   2.490   1.847   7.345 -0.3221  0.5309  1.3263
 2524SOL    HW119034   2.417   1.869   7.404  0.7959 -1.4751  3.4756
 2524SOL    HW219035   2.469   1.905   7.272  0.9235 -0.7802 -0.0616
 2525SOL     OW19036   4.625   1.676  10.820  0.3280 -0.0054  0.4313
 2525SOL    HW119037   4.533   1.666  10.847 -0.5564 -0.8851 -2.8638
 2525SOL    HW219038   4.623   1.771  10.825  0.1062  0.0629 -0.8017
 2526SOL     OW19039   4.405   2.384   4.296  0.3369  0.3035  0.0791
 2526SOL    HW119040   4.423   2.339   4.379 -1.3206 -0.8113 -0.1925
 2526SOL    HW219041   4.381   2.316   4.234  1.2637 -0.7189  0.8443
 2527SOL     OW19042   1.034   0.004  12.168  0.0949 -0.3382  0.3252
 2527SOL    HW119043   0.948   4.708  12.207  0.6432  0.1054  1.7846
 2527SOL    HW219044   1.021   0.060  12.092  0.1096  0.3561  0.8390
 2528SOL     OW19045   2.170   2.775   1.464 -0.0403  0.1306  0.2126
 2528SOL    HW119046   2.115   2.697   1.456  0.5266 -0.0990 -1.6299
 2528SOL    HW219047   2.250   2.727   1.439  0.2923 -0.5885  2.6196
 2529SOL     OW19048   1.208   0.173   1.504  0.1675  0.8093  0.5364
 2529SOL    HW119049   1.286   0.163   1.559  0.8072 -1.9383 -0.8849
 2529SOL    HW219050   1.180   0.081   1.506  0.9785  0.5711  1.2299
 2530SOL     OW19051   4.619   3.358   7.734 -0.2624  0.3760 -0.0894
 2530SOL    HW119052   4.673   3.386   7.659 -1.6301  1.8739 -0.5151
 2530SOL    HW219053   4.561   3.290   7.700  1.1055  0.7668 -3.2540
 2531SOL     OW19054   0.841   1.830   0.556 -0.3214  0.1373  0.0545
 2531SOL    HW119055   0.928   1.793   0.573 -0.3609 -0.2692 -0.6197
 2531SOL    HW219056   0.835   1.891   0.629  0.6554  0.6582 -0.2973
 2532SOL     OW19057   4.013   0.203   0.388  0.1425  0.2133  0.5394
 2532SOL    HW119058   4.045   0.290   0.367  1.4708 -0.4250 -0.0680
 2532SOL    HW219059   4.033   0.197   0.481 -2.3936 -0.0165  1.0754
 2533SOL     OW19060   3.447   2.155   8.900  0.3103  0.0086  0.0414
 2533SOL    HW119061   3.441   2.234   8.954  2.7475  0.9127 -1.0145
 2533SOL    HW219062   3.373   2.096   8.918  0.7403 -0.9970 -1.5385
 2534SOL     OW19063   2.813   3.226  13.142 -0.0032  0.1267 -0.3468
 2534SOL    HW119064   2.736   3.282  13.148  2.1701  2.8772  1.6048
 2534SOL    HW219065   2.869   3.265  13.209 -0.3408 -0.8095  0.4908
 2535SOL     OW19066   1.328   3.119  15.767  0.3502 -0.1375  0.3220
 2535SOL    HW119067   1.386   3.146  15.838 -0.9058  1.4552  0.7643
 2535SOL    HW219068   1.321   3.200  15.716  1.4358 -0.9305 -1.0985
 2536SOL     OW19069   2.825   4.676   4.892  0.1624 -0.0980 -0.1844
 2536SOL    HW119070   2.782   0.011   4.953  0.1898  0.7865 -1.0360
 2536SOL    HW219071   2.918   4.698   4.893 -1.0637  4.9289 -0.8928
 2537SOL     OW19072   3.350   1.858   7.944 -0.0712  0.0547 -0.2722
 2537SOL    HW119073   3.269   1.902   7.916 -0.3229 -0.9319 -1.0912
 2537SOL    HW219074   3.408   1.877   7.870  1.6603 -0.3365  0.9859
 2538SOL     OW19075   1.278   0.845   2.079  0.4917  0.4845 -0.0577
 2538SOL    HW119076   1.310   0.878   1.995  2.1296  1.7870  1.0567
 2538SOL    HW219077   1.271   0.925   2.130  0.1461 -1.0593  2.3126
 2539SOL     OW19078   1.164   0.986   8.503  0.2513 -0.4128  0.1365
 2539SOL    HW119079   1.141   0.897   8.530  0.5888 -0.7293 -0.6199
 2539SOL    HW219080   1.106   1.034   8.563  0.7735 -1.1190  1.2126
 2540SOL     OW19081   4.088   3.222   8.699  1.1235  0.1620 -0.0287
 2540SOL    HW119082   4.002   3.186   8.720  2.1100 -1.7147  0.7856
 2540SOL    HW219083   4.084   3.309   8.739 -1.7371  0.5347 -1.1118
 2541SOL     OW19084   1.473   1.382  17.341  0.4195 -0.3328 -0.4005
 2541SOL    HW119085   1.476   1.293  17.375  2.0883  0.1334  0.6545
 2541SOL    HW219086   1.557   1.417  17.368  0.4375 -1.4935  1.0450
 2542SOL     OW19087   2.548   2.938   3.481  0.4016  0.0209 -0.3108
 2542SOL    HW119088   2.475   2.887   3.445  2.7630 -2.2026 -1.9586
 2542SOL    HW219089   2.516   2.966   3.567 -2.5628  0.3024 -1.4935
 2543SOL     OW19090   2.418   1.987   3.603 -0.0298  0.0667  0.2168
 2543SOL    HW119091   2.440   1.940   3.523  0.6441 -2.4235  1.8606
 2543SOL    HW219092   2.496   1.988   3.658 -0.3860 -4.1481  0.8390
 2544SOL     OW19093   2.772   4.417   0.198 -0.2501  0.6760  0.0475
 2544SOL    HW119094   2.699   4.477   0.185  0.0079  0.3371 -3.0276
 2544SOL    HW219095   2.776   4.402   0.292  1.0078  1.1869  0.0661
 2545SOL     OW19096   0.998   1.894   6.322  0.2293  0.1357  0.4343
 2545SOL    HW119097   1.075   1.948   6.339 -1.4249  1.4806  3.5825
 2545SOL    HW219098   0.947   1.893   6.403  2.5992  0.0961  1.9142
 2546SOL     OW19099   0.715   1.081   1.165 -0.5199  0.3510  0.2893
 2546SOL    HW119100   0.668   1.091   1.248  2.5003 -0.0299  2.0394
 2546SOL    HW219101   0.759   0.996   1.162 -0.9972  0.0318  2.1513
 2547SOL     OW19102   4.493   1.696   4.064  0.5346 -0.0938  0.5368
 2547SOL    HW119103   4.446   1.742   3.994 -0.4327 -0.2504  1.0862
 2547SOL    HW219104   4.452   1.610   4.063 -1.8266  1.0035  2.2736
 2548SOL     OW19105   4.033   2.218   0.715 -0.5852 -0.2935  0.6533
 2548SOL    HW119106   3.986   2.297   0.689  1.0037  0.7190  0.8514
 2548SOL    HW219107   4.074   2.196   0.632  0.0608 -0.2145  0.9538
 2549SOL     OW19108   2.847   4.121   0.689  0.4431 -0.3504  0.8513
 2549SOL    HW119109   2.855   4.029   0.664  0.8949  0.4641 -1.9782
 2549SOL    HW219110   2.882   4.158   0.608 -2.8899 -1.2222 -0.9846
 2550SOL     OW19111   1.642   4.438   6.861  0.1151  0.2915 -0.0538
 2550SOL    HW119112   1.572   4.437   6.795 -1.5911 -0.0294  1.7696
 2550SOL    HW219113   1.692   4.365   6.825 -0.3877 -1.0816  2.0894
 2551SOL     OW19114   0.453   3.045   3.018  0.0642  0.6405 -0.2442
 2551SOL    HW119115   0.536   3.019   3.058 -0.5480 -2.1183 -0.7820
 2551SOL    HW219116   0.401   3.039   3.098 -1.1438  0.3856 -1.0644
 2552SOL     OW19117   1.428   2.357  17.695 -0.1445 -0.4576  0.7497
 2552SOL    HW119118   1.444   2.266  17.669 -2.0352 -0.0255 -1.9066
 2552SOL    HW219119   1.417   2.354   0.090 -0.7320 -1.6003  0.6474
 2553SOL     OW19120   4.644   2.152   8.568 -0.3893 -0.2856 -0.1573
 2553SOL    HW119121   4.560   2.158   8.614  1.1979 -0.1393  2.7572
 2553SOL    HW219122   4.707   2.147   8.641 -0.7774 -0.0717  0.1886
 2554SOL     OW19123   3.915   2.943   3.418  0.2309  0.2866  0.0524
 2554SOL    HW119124   3.823   2.928   3.439  0.2886  0.6030  0.5264
 2554SOL    HW219125   3.944   2.865   3.463  1.7133  0.3844 -0.7295
 2555SOL     OW19126   0.230   3.006  10.994 -0.1157  0.0209 -0.4762
 2555SOL    HW119127   0.246   2.918  10.961 -0.0030 -1.1891  2.8157
 2555SOL    HW219128   0.288   3.056  10.937  0.3838  0.9395  0.8267
 2556SOL     OW19129   2.722   4.684   1.138  0.4827  0.2128 -0.5461
 2556SOL    HW119130   2.681   0.029   1.190  1.3578  0.4117 -0.1106
 2556SOL    HW219131   2.810   4.704   1.171 -0.1701 -0.0934  1.4066
 2557SOL     OW19132   2.730   3.174   9.626  0.2592 -0.1550  0.3976
 2557SOL    HW119133   2.635   3.170   9.614  0.7868  0.3731 -3.8383
 2557SOL    HW219134   2.750   3.092   9.672 -2.6189 -1.0650  0.0740
 2558SOL     OW19135   3.635   2.228   5.487 -0.1532 -0.4248  0.2427
 2558SOL    HW119136   3.613   2.178   5.408  1.8670  1.0234 -1.2338
 2558SOL    HW219137   3.657   2.157   5.548 -3.5088  0.0106  1.9801
 2559SOL     OW19138   4.445   1.949  12.588 -0.1589 -0.1423  0.2060
 2559SOL    HW119139   4.410   2.034  12.618 -0.0422  0.1398 -0.4624
 2559SOL    HW219140   4.520   1.943  12.647 -1.2423 -1.9773  1.4003
 2560SOL     OW19141   2.072   2.117   5.624  0.4172  0.5453  0.0744
 2560SOL    HW119142   2.075   2.128   5.719 -1.4282 -0.9561  0.3147
 2560SOL    HW219143   2.005   2.183   5.609 -0.1023  0.0277  0.0867
 2561SOL     OW19144   2.431   3.415   4.704  0.3073 -0.1517  0.0020
 2561SOL    HW119145   2.438   3.403   4.798 -1.9765  0.1867  0.1983
 2561SOL    HW219146   2.420   3.510   4.711  1.6362  0.0395 -0.4486
 2562SOL     OW19147   1.651   3.349  11.492 -0.1313 -0.4772  0.3334
 2562SOL    HW119148   1.626   3.311  11.408  1.4549 -3.5341  1.2173
 2562SOL    HW219149   1.743   3.331  11.471  0.3853  0.8558  1.4595
 2563SOL     OW19150   2.997   2.850  13.548  0.2059 -0.0711  0.3655
 2563SOL    HW119151   3.048   2.914  13.499 -1.0594 -1.2180 -2.4423
 2563SOL    HW219152   3.073   2.795  13.566  1.1360  1.0629 -0.1162
 2564SOL     OW19153   4.314   2.874   6.202 -0.3598  0.6575 -0.1356
 2564SOL    HW119154   4.327   2.812   6.130 -1.0107  1.8543 -1.2884
 2564SOL    HW219155   4.389   2.856   6.258 -0.5292 -2.0444 -0.7401
 2565SOL     OW19156   1.257   1.766   7.298  0.1470 -0.3873  0.0352
 2565SOL    HW119157   1.347   1.765   7.265 -0.6771 -0.4801 -2.1713
 2565SOL    HW219158   1.234   1.857   7.278 -2.7530 -1.5249 -1.7439
 2566SOL     OW19159   1.792   2.741   8.002  0.2473  0.3727  0.2977
 2566SOL    HW119160   1.755   2.665   7.956 -3.5114  0.8078  2.6382
 2566SOL    HW219161   1.753   2.729   8.089  0.1937 -0.8596  0.1097
 2567SOL     OW19162   1.210   3.660   1.405  0.4985 -0.6507 -0.2552
 2567SOL    HW119163   1.305   3.664   1.405  0.4410  0.4726  0.6343
 2567SOL    HW219164   1.192   3.684   1.314 -0.4462 -0.6458 -0.0745
 2568SOL     OW19165   2.530   0.766  15.771  0.5642 -0.4864 -0.5102
 2568SOL    HW119166   2.606   0.712  15.751  1.2031 -0.9079  2.9831
 2568SOL    HW219167   2.556   0.859  15.769 -1.6113  0.0992 -1.0539
 2569SOL     OW19168   4.281   1.762   7.699  0.3600  0.3696  0.2289
 2569SOL    HW119169   4.282   1.750   7.604  2.5166  1.7907  0.0825
 2569SOL    HW219170   4.301   1.675   7.732 -1.0176 -0.7842 -1.9678
 2570SOL     OW19171   4.695   1.046   8.858  0.6172 -0.2864 -0.6949
 2570SOL    HW119172   4.714   1.128   8.903  2.9865 -1.3492  0.2434
 2570SOL    HW219173   0.006   0.994   8.930  0.5652  0.4476 -0.1329
 2571SOL     OW19174   0.572   0.206   3.233 -0.1018  0.0120  0.3011
 2571SOL    HW119175   0.479   0.225   3.243 -0.1485 -0.4462  0.7245
 2571SOL    HW219176   0.595   0.290   3.273 -2.6127  0.0816  1.5911
 2572SOL     OW19177   2.694   2.035  12.576  0.6273 -0.0915 -0.1444
 2572SOL    HW119178   2.606   2.069  12.589  0.7442 -0.4901  1.6210
 2572SOL    HW219179   2.684   1.940  12.562 -2.6642  0.0049  1.5520
 2573SOL     OW19180   1.704   0.450  17.605 -0.0501 -0.5340  0.0887
 2573SOL    HW119181   1.758   0.373  17.587  1.0601 -0.1935  1.9021
 2573SOL    HW219182   1.677   0.479  17.518  0.9677  0.6873  0.1836
 2574SOL     OW19183   2.111   3.048   7.664 -0.4233 -0.2987  0.0064
 2574SOL    HW119184   2.141   3.139   7.667  0.3487 -0.4595 -2.7641
 2574SOL    HW219185   2.017   3.070   7.664 -0.5265 -0.7423  1.7151
 2575SOL     OW19186   3.614   1.525   4.443  0.3918  0.0933 -0.1758
 2575SOL    HW119187   3.581   1.435   4.447  0.8216 -0.0492  0.1881
 2575SOL    HW219188   3.584   1.568   4.523 -1.3285  0.0722 -0.8230
 2576SOL     OW19189   3.743   0.349  11.435 -0.4642 -0.3238 -0.7379
 2576SOL    HW119190   3.697   0.421  11.478  1.1287  0.1791  0.1361
 2576SOL    HW219191   3.805   0.399  11.382 -1.5424 -0.4060 -2.1006
 2577SOL     OW19192   1.972   0.385   1.742  0.2660  0.7246 -0.2383
 2577SOL    HW119193   2.032   0.341   1.682 -1.1102 -1.7779  0.1792
 2577SOL    HW219194   1.964   0.318   1.810 -2.3923 -0.7897 -2.0229
 2578SOL     OW19195   2.709   0.137   2.265  0.0224  0.9505  0.0046
 2578SOL    HW119196   2.661   0.211   2.227 -0.8589  0.4988  0.2298
 2578SOL    HW219197   2.734   0.091   2.185  0.2941  1.1851 -0.0461
 2579SOL     OW19198   4.294   4.627  11.361 -0.0698  0.2096  0.1941
 2579SOL    HW119199   4.352   4.672  11.300 -1.0934 -0.1347 -1.0421
 2579SOL    HW219200   4.212   4.676  11.352  0.9731  1.9486  0.0899
 2580SOL     OW19201   3.368   3.795   7.306  0.1431 -0.7270  0.1359
 2580SOL    HW119202   3.413   3.865   7.355  0.5341  0.5820 -2.1065
 2580SOL    HW219203   3.397   3.803   7.215 -1.6553 -1.2330 -0.4801
 2581SOL     OW19204   2.898   4.280  15.656 -0.2402  0.0308  0.0890
 2581SOL    HW119205   2.983   4.258  15.617  0.1768  2.3891 -0.3330
 2581SOL    HW219206   2.923   4.307  15.744  1.9332 -1.6077  0.0010
 2582SOL     OW19207   0.279   1.586   4.232 -0.2757 -0.0474 -0.6224
 2582SOL    HW119208   0.345   1.623   4.291  0.4765 -0.1828 -1.3814
 2582SOL    HW219209   0.306   1.630   4.151 -1.0641 -1.0097 -1.4027
 2583SOL     OW19210   4.611   2.208   5.247 -0.1534  0.2731  0.0366
 2583SOL    HW119211   4.641   2.194   5.338  2.8334 -1.6212 -1.2081
 2583SOL    HW219212   4.695   2.206   5.201 -0.3476  0.7809 -0.3263
 2584SOL     OW19213   4.317   3.714   6.595 -0.3548  0.5802  0.0876
 2584SOL    HW119214   4.297   3.808   6.600  0.7594  0.8244 -0.0222
 2584SOL    HW219215   4.395   3.714   6.650 -0.2782 -2.5369 -0.0590
 2585SOL     OW19216   2.750   1.365   6.896  0.1263 -0.3104  0.1659
 2585SOL    HW119217   2.703   1.446   6.877  1.9463  0.6401 -0.3995
 2585SOL    HW219218   2.675   1.311   6.920 -0.8678  1.1669  0.3793
 2586SOL     OW19219   0.346   1.268   8.630 -0.0220 -0.0949 -0.0356
 2586SOL    HW119220   0.406   1.343   8.629 -1.5013  1.0843  0.5804
 2586SOL    HW219221   0.282   1.291   8.696  0.3114  3.4850 -0.9798
 2587SOL     OW19222   4.126   0.542  11.757  0.4040  0.0554  0.3392
 2587SOL    HW119223   4.078   0.461  11.770 -0.0995  0.6649  2.1780
 2587SOL    HW219224   4.080   0.573  11.679  1.0458 -1.3234 -0.5905
 2588SOL     OW19225   4.094   4.478   2.151 -0.1541  0.5048  0.2702
 2588SOL    HW119226   4.014   4.426   2.144  0.9601 -0.8675 -2.5046
 2588SOL    HW219227   4.157   4.433   2.094 -1.4302 -0.5110 -0.3514
 2589SOL     OW19228   2.438   4.031   3.242 -0.4896 -0.2350  0.4163
 2589SOL    HW119229   2.484   4.022   3.159 -2.5969 -2.1931 -0.5356
 2589SOL    HW219230   2.484   3.969   3.299  1.0084 -0.8382 -1.4431
 2590SOL     OW19231   1.828   4.490   2.875 -0.3070 -0.1610  0.5316
 2590SOL    HW119232   1.733   4.497   2.865 -0.2887 -1.3222 -0.3892
 2590SOL    HW219233   1.847   4.433   2.802  0.3878  1.5929 -0.6569
 2591SOL     OW19234   0.379   1.662  11.526 -0.2368 -0.5300 -0.5044
 2591SOL    HW119235   0.410   1.734  11.472  0.3767 -0.7417 -0.4410
 2591SOL    HW219236   0.446   1.597  11.502 -0.2586  0.0130 -2.0218
 2592SOL     OW19237   0.956   2.270   7.625 -0.1543  0.0476 -0.1273
 2592SOL    HW119238   0.968   2.343   7.686 -0.3607 -0.1301  0.1246
 2592SOL    HW219239   0.886   2.216   7.661 -0.0017  0.4214  0.7537
 2593SOL     OW19240   1.871   4.315   8.223 -0.6824  0.0074  0.1687
 2593SOL    HW119241   1.930   4.349   8.156 -1.0471  0.1047 -0.1034
 2593SOL    HW219242   1.832   4.237   8.183  0.4598 -0.5931  0.2067
 2594SOL     OW19243   3.250   4.133   2.831 -0.0124  0.3726  0.3823
 2594SOL    HW119244   3.343   4.129   2.811 -0.4304  0.4557 -1.6112
 2594SOL    HW219245   3.250   4.107   2.923  0.8441 -0.8707  0.0249
 2595SOL     OW19246   4.524   2.751  13.728 -0.0968  0.1774  0.3961
 2595SOL    HW119247   4.533   2.728  13.635  0.8753  1.1792  0.2506
 2595SOL    HW219248   4.532   2.670  13.777 -1.5626  1.3304  2.5276
 2596SOL     OW19249   2.285   2.293   3.899 -0.3716 -0.6526  0.0791
 2596SOL    HW119250   2.253   2.241   3.825 -0.3583  0.1249 -0.4690
 2596SOL    HW219251   2.324   2.217   3.943 -0.4261 -1.3965 -1.1485
 2597SOL     OW19252   1.545   2.075   7.735  0.4544  0.1034  0.1073
 2597SOL    HW119253   1.554   2.000   7.794 -2.4794 -0.4421 -0.1551
 2597SOL    HW219254   1.463   2.110   7.770 -0.5478 -1.0871 -1.0463
 2598SOL     OW19255   4.293   1.893  15.002  0.8060 -0.3257 -0.2456
 2598SOL    HW119256   4.357   1.851  14.945  0.3475 -1.0975 -0.1940
 2598SOL    HW219257   4.237   1.821  15.032  0.7687  0.9996  2.8518
 2599SOL     OW19258   4.463   0.313   3.129 -0.1190 -0.3143  0.0904
 2599SOL    HW119259   4.542   0.309   3.074 -0.0280  0.2601  0.1803
 2599SOL    HW219260   4.474   0.235   3.183 -2.0766 -0.2590  0.5822
 2600SOL     OW19261   3.591   3.685   7.745  0.3028 -0.1650  0.0993
 2600SOL    HW119262   3.589   3.774   7.711 -1.7797 -0.3272 -0.1567
 2600SOL    HW219263   3.660   3.688   7.812  0.2991  2.0718  0.0003
 2601SOL     OW19264   0.368   3.398  14.013 -0.2956 -0.0557 -0.1553
 2601SOL    HW119265   0.337   3.384  14.102  0.2583  0.0463  0.0526
 2601SOL    HW219266   0.311   3.463  13.972 -1.0134 -1.9872 -2.2047
 2602SOL     OW19267   1.908   2.718   4.575  0.2596  0.3790  0.2954
 2602SOL    HW119268   1.939   2.640   4.622 -1.2945  0.1474  0.9340
 2602SOL    HW219269   1.868   2.760   4.651  2.8811  1.3264  1.1323
 2603SOL     OW19270   2.214   3.062   9.586 -0.4217  0.3980 -0.8961
 2603SOL    HW119271   2.250   3.124   9.523  0.4181  1.5181  0.7043
 2603SOL    HW219272   2.146   3.110   9.633 -0.0433  2.5776 -2.5864
 2604SOL     OW19273   2.088   2.468   7.275  0.1702 -0.6481  0.2446
 2604SOL    HW119274   2.160   2.511   7.229  1.3330 -0.1399  2.5348
 2604SOL    HW219275   2.119   2.490   7.364  1.3123  4.4751 -1.4124
 2605SOL     OW19276   3.491   2.332   7.582  0.0010  0.0243 -0.4116
 2605SOL    HW119277   3.578   2.320   7.618  0.8288  2.1102 -1.7063
 2605SOL    HW219278   3.448   2.249   7.599  0.3473 -0.3235 -1.2396
 2606SOL     OW19279   2.706   2.404   7.792 -0.1976 -1.1020 -0.1635
 2606SOL    HW119280   2.765   2.334   7.818  0.6375 -0.1818  0.4332
 2606SOL    HW219281   2.680   2.375   7.705 -0.5728 -0.2454 -0.3414
 2607SOL     OW19282   3.856   0.358   5.589 -0.2821  0.1510 -0.2474
 2607SOL    HW119283   3.802   0.280   5.599  1.0224 -0.3606  2.9534
 2607SOL    HW219284   3.927   0.358   5.653 -2.1464  1.4435  1.8262
 2608SOL     OW19285   1.186   1.709   2.643  0.3423 -0.6324 -0.0371
 2608SOL    HW119286   1.107   1.724   2.694  1.2121  1.9285  0.5407
 2608SOL    HW219287   1.171   1.621   2.606 -0.2264 -0.7133  0.3965
 2609SOL     OW19288   2.669   0.690   0.420 -0.3918 -0.2420  0.3559
 2609SOL    HW119289   2.733   0.732   0.478  0.5599 -1.1357 -0.0321
 2609SOL    HW219290   2.693   0.710   0.329 -0.8942  0.5612  0.4002
 2610SOL     OW19291   1.419   1.517  11.523  0.4065  0.3945 -0.0821
 2610SOL    HW119292   1.445   1.592  11.576  0.7199 -0.5223  1.0851
 2610SOL    HW219293   1.393   1.564  11.444  0.6037  2.2339  0.9565
 2611SOL     OW19294   2.746   0.111  10.606  0.3853  0.1126 -0.4404
 2611SOL    HW119295   2.718   0.070  10.524  0.3109 -0.8579  0.0676
 2611SOL    HW219296   2.841   0.101  10.601  0.5604  0.6168  1.6955
 2612SOL     OW19297   0.021   4.021   6.306  0.5980  0.3746 -0.4575
 2612SOL    HW119298   0.100   3.992   6.260  0.0715  0.3309 -1.3198
 2612SOL    HW219299   4.719   4.101   6.262 -0.6434  1.2976  1.9583
 2613SOL     OW19300   3.409   1.923   7.300  0.2592  0.2651 -0.4182
 2613SOL    HW119301   3.403   1.937   7.206 -0.6315 -1.4448 -0.6131
 2613SOL    HW219302   3.489   1.970   7.324  1.3047 -1.6598 -0.1215
 2614SOL     OW19303   3.410   0.190   4.590  0.5941 -0.4946  0.3205
 2614SOL    HW119304   3.497   0.165   4.558  0.8649  0.8456 -0.0042
 2614SOL    HW219305   3.387   0.251   4.519 -2.2141 -1.2623  0.5826
 2615SOL     OW19306   3.390   3.002   5.116 -0.3855 -0.2628 -0.1952
 2615SOL    HW119307   3.474   3.036   5.148 -1.0279  0.2058  1.0048
 2615SOL    HW219308   3.329   3.039   5.180 -0.1361 -0.1899  0.0022
 2616SOL     OW19309   2.077   4.309   7.612  0.0085 -0.1119 -0.3806
 2616SOL    HW119310   2.103   4.242   7.549  0.4562 -0.6597  0.3921
 2616SOL    HW219311   2.077   4.276   7.701 -0.6487 -1.2044 -0.7883
 2617SOL     OW19312   2.539   3.498   6.612 -0.4773  0.2375 -0.6023
 2617SOL    HW119313   2.452   3.536   6.600 -1.0267 -0.4172  1.2475
 2617SOL    HW219314   2.525   3.424   6.672  0.5952 -0.7894 -1.6272
 2618SOL     OW19315   2.381   4.609  12.530  0.0455  0.0717 -0.1251
 2618SOL    HW119316   2.471   4.605  12.562 -1.0231  1.7619  3.0112
 2618SOL    HW219317   2.370   4.701  12.506 -0.9035  0.1822  0.7601
 2619SOL     OW19318   1.132   2.128   3.867  0.0461 -0.1244 -0.0101
 2619SOL    HW119319   1.076   2.055   3.838  0.6690 -0.5520 -0.1419
 2619SOL    HW219320   1.139   2.183   3.789 -0.1490 -1.8592 -1.2597
 2620SOL     OW19321   3.966   1.799  13.242  0.7232 -0.1721  0.7324
 2620SOL    HW119322   3.973   1.895  13.242 -1.0207 -0.0169 -1.5596
 2620SOL    HW219323   3.881   1.797  13.285 -0.8740  0.5999 -2.3710
 2621SOL     OW19324   3.322   2.595  10.532 -0.4957  0.2477  0.0257
 2621SOL    HW119325   3.332   2.501  10.515  3.7659  0.8431 -0.7187
 2621SOL    HW219326   3.382   2.636  10.470  0.1971  0.3219  0.7480
 2622SOL     OW19327   3.938   0.899  16.635 -0.2546  0.0391  0.1639
 2622SOL    HW119328   3.937   0.994  16.620  1.6117 -0.4684 -3.2031
 2622SOL    HW219329   4.030   0.872  16.635 -0.2240  0.1349 -1.0205
 2623SOL     OW19330   4.504   1.289   0.703  0.6682 -0.0311 -0.1547
 2623SOL    HW119331   4.456   1.313   0.624  0.8851  1.0520  0.0428
 2623SOL    HW219332   4.578   1.238   0.668  0.5878 -0.3218  0.1016
 2624SOL     OW19333   2.370   2.319   7.904 -0.3883 -0.6203 -0.3081
 2624SOL    HW119334   2.326   2.336   7.987 -0.4264 -1.4204 -0.1583
 2624SOL    HW219335   2.424   2.398   7.901 -1.8678  0.3666 -0.3856
 2625SOL     OW19336   2.269   3.096   6.785  0.0015 -0.1550  0.2958
 2625SOL    HW119337   2.270   3.188   6.813 -2.4446  0.1812 -0.6640
 2625SOL    HW219338   2.358   3.090   6.751 -0.4809  0.7163 -1.1629
 2626SOL     OW19339   1.145   2.826  14.186 -0.1636 -0.7191  0.3781
 2626SOL    HW119340   1.119   2.770  14.260 -0.7619  0.1049  0.7982
 2626SOL    HW219341   1.074   2.890  14.183 -1.2989 -2.0605 -1.5213
 2627SOL     OW19342   0.339   0.942   0.430  0.2601 -0.2646 -0.5942
 2627SOL    HW119343   0.277   0.926   0.359  0.0781  2.0560 -0.9744
 2627SOL    HW219344   0.398   1.004   0.387  1.5540  0.2265  1.8999
 2628SOL     OW19345   2.546   4.081   6.412  0.1437  0.5336 -0.3184
 2628SOL    HW119346   2.628   4.125   6.390  0.1843 -0.2271 -1.7473
 2628SOL    HW219347   2.590   3.996   6.417 -0.8125  0.2313  2.6639
 2629SOL     OW19348   4.047   3.583   9.311 -0.1572  0.0694  0.3161
 2629SOL    HW119349   4.019   3.659   9.361 -1.7505 -1.2029  1.3855
 2629SOL    HW219350   4.141   3.597   9.304 -0.3942  1.3878 -0.2269
 2630SOL     OW19351   1.263   2.647   8.824  0.2398 -0.3182  0.3546
 2630SOL    HW119352   1.306   2.571   8.863 -2.6102 -2.4569 -0.6294
 2630SOL    HW219353   1.282   2.727   8.873  3.0228 -0.7199 -0.1149
 2631SOL     OW19354   3.807   2.541  12.872  0.3856 -0.0626 -0.1680
 2631SOL    HW119355   3.731   2.599  12.877  1.6458  1.4330  1.5987
 2631SOL    HW219356   3.874   2.603  12.843 -0.4468  1.0037  0.1776
 2632SOL     OW19357   3.483   3.894   5.528  0.0053 -0.0559 -0.3937
 2632SOL    HW119358   3.446   3.910   5.615  1.3120 -0.2569  0.2019
 2632SOL    HW219359   3.520   3.806   5.536 -0.4210 -0.3158 -1.2399
 2633SOL     OW19360   2.600   3.525  12.574 -0.0264 -0.5399 -0.3001
 2633SOL    HW119361   2.628   3.589  12.509 -0.6778 -0.9912 -1.0229
 2633SOL    HW219362   2.583   3.571  12.656 -0.1308 -0.8318 -0.1568
 2634SOL     OW19363   0.633   3.945   8.695 -0.1187  0.1415  0.1487
 2634SOL    HW119364   0.614   4.033   8.664 -0.3521  0.0768  0.1077
 2634SOL    HW219365   0.570   3.933   8.766  0.6861 -1.7170  0.5509
 2635SOL     OW19366   3.171   2.063   5.332  0.1892 -0.5956  0.0894
 2635SOL    HW119367   3.247   2.108   5.294 -0.7753  1.3829  0.4988
 2635SOL    HW219368   3.171   2.096   5.422  2.2393  2.0342 -0.8747
 2636SOL     OW19369   0.598   3.223  12.059  0.2887  0.3019  0.1439
 2636SOL    HW119370   0.518   3.263  12.095 -0.7290 -1.1694 -0.4834
 2636SOL    HW219371   0.592   3.136  12.100 -0.4521  0.1320 -0.3225
 2637SOL     OW19372   3.397   3.332   3.143 -0.0637 -0.1959  0.4040
 2637SOL    HW119373   3.464   3.263   3.137  0.4877  0.4821 -1.2179
 2637SOL    HW219374   3.436   3.387   3.211  2.0587  0.1522 -1.0914
 2638SOL     OW19375   0.760   0.484   2.271  0.1281  0.0835 -0.3205
 2638SOL    HW119376   0.674   0.461   2.307  0.6324 -0.2562  0.6726
 2638SOL    HW219377   0.765   0.443   2.185 -0.8580 -2.9686  1.0423
 2639SOL     OW19378   2.832   0.584  11.295 -0.3083  0.0263 -0.3236
 2639SOL    HW119379   2.914   0.633  11.291  0.5863 -1.3800  0.6380
 2639SOL    HW219380   2.849   0.549  11.383  2.5988 -0.4037 -1.0545
 2640SOL     OW19381   0.637   2.213   1.085  0.0592  0.2116  0.3394
 2640SOL    HW119382   0.659   2.184   0.996  0.7296 -1.4042  1.0379
 2640SOL    HW219383   0.708   2.172   1.135  0.0741  0.6576  0.6870
 2641SOL     OW19384   1.810   4.620   9.369  0.6524  0.3915 -0.2019
 2641SOL    HW119385   1.722   4.647   9.344 -0.2316 -0.8527  1.5631
 2641SOL    HW219386   1.839   4.560   9.300 -0.4491 -0.4907  0.0940
 2642SOL     OW19387   0.864   1.425   5.780 -0.6961 -0.0972  0.4679
 2642SOL    HW119388   0.937   1.485   5.796 -0.7446 -0.3359  1.5679
 2642SOL    HW219389   0.842   1.429   5.686 -0.7372  0.9226  0.5238
 2643SOL     OW19390   3.810   1.832   6.355  0.1037  0.0942  0.2565
 2643SOL    HW119391   3.770   1.919   6.351 -0.9893 -0.3517  1.3777
 2643SOL    HW219392   3.897   1.859   6.381  0.9576  0.0383 -2.5346
 2644SOL     OW19393   0.750   2.552  11.484 -0.2764 -0.3348  0.3073
 2644SOL    HW119394   0.820   2.570  11.421 -2.0362  0.3813 -1.4407
 2644SOL    HW219395   0.788   2.574  11.569  1.5866 -2.7613  0.1126
 2645SOL     OW19396   0.531   0.798   9.015  0.8193  0.9085  0.2890
 2645SOL    HW119397   0.492   0.713   8.993  2.5699  0.0602  0.4650
 2645SOL    HW219398   0.457   0.858   9.013 -1.5843 -2.0812 -1.6825
 2646SOL     OW19399   0.681   0.365   4.254  0.1298 -0.4762  0.2448
 2646SOL    HW119400   0.705   0.396   4.341  1.4275  0.8477 -0.5957
 2646SOL    HW219401   0.757   0.380   4.198 -1.4240  3.8815 -0.6756
 2647SOL     OW19402   2.681   0.751   6.127  0.3650  0.6409 -0.2558
 2647SOL    HW119403   2.726   0.816   6.073  0.6899  0.3268 -0.3658
 2647SOL    HW219404   2.666   0.697   6.049  0.8338  0.7217 -0.3974
 2648SOL     OW19405   0.588   0.402  17.644  0.3073 -0.0627 -0.4168
 2648SOL    HW119406   0.644   0.478  17.661  0.7171 -1.0968  2.8439
 2648SOL    HW219407   0.566   0.405  17.551  0.7979  1.0853 -0.4949
 2649SOL     OW19408   3.805   4.472   1.868  0.0377  0.2877 -0.1923
 2649SOL    HW119409   3.883   4.447   1.819 -0.4393 -1.9019  0.1613
 2649SOL    HW219410   3.743   4.504   1.803  0.5442 -1.9205 -1.7534
 2650SOL     OW19411   3.722   4.720   5.500 -0.9379 -0.7328 -0.2135
 2650SOL    HW119412   3.645   0.033   5.541  0.2627  0.5930  0.8100
 2650SOL    HW219413   3.738   0.064   5.436 -1.3492 -0.3210  0.1244
 2651SOL     OW19414   1.945   3.079   5.960  0.4151 -0.5485  0.3201
 2651SOL    HW119415   2.000   3.153   5.935 -1.3926  0.9866  0.8419
 2651SOL    HW219416   2.017   3.025   5.991 -0.9061 -1.0727  2.4807
 2652SOL     OW19417   2.278   2.303   0.149  0.2742  0.0491 -0.0103
 2652SOL    HW119418   2.329   2.280   0.072 -0.6108 -0.9309 -0.3030
 2652SOL    HW219419   2.261   2.218   0.189  0.0098 -0.5956 -1.5100
 2653SOL     OW19420   4.515   4.593  14.831 -0.4108  0.0475 -0.2566
 2653SOL    HW119421   4.499   4.539  14.753 -2.0889 -0.3765  0.3808
 2653SOL    HW219422   4.570   4.665  14.800  0.8704 -0.7791  0.1375
 2654SOL     OW19423   3.265   2.481   2.774 -0.6205 -0.1791 -0.2042
 2654SOL    HW119424   3.227   2.568   2.759  0.4429  0.5566  1.3456
 2654SOL    HW219425   3.352   2.503   2.741 -0.2008 -0.2332  0.8684
 2655SOL     OW19426   4.482   2.185   6.580 -0.7475  0.1071  0.0335
 2655SOL    HW119427   4.522   2.264   6.616  0.0782 -0.1159 -0.3726
 2655SOL    HW219428   4.445   2.151   6.661 -0.3566 -3.4555 -1.2820
 2656SOL     OW19429   0.763   1.590   7.643 -0.3709 -0.3387  0.1452
 2656SOL    HW119430   0.720   1.657   7.590 -1.6258 -1.8410 -0.7796
 2656SOL    HW219431   0.844   1.582   7.592 -1.8830  1.3182 -2.5346
 2657SOL     OW19432   2.865   2.080  13.538  0.0000 -0.0203  0.7012
 2657SOL    HW119433   2.786   2.131  13.519  0.0343  1.0171  3.3604
 2657SOL    HW219434   2.820   1.996  13.530 -0.4324  0.4143 -1.4310
 2658SOL     OW19435   3.580   0.946  16.286 -0.6142 -0.0441 -0.2312
 2658SOL    HW119436   3.517   0.935  16.358 -0.5350 -0.8677 -0.2908
 2658SOL    HW219437   3.523   0.897  16.227  0.3920 -1.0134 -0.3953
 2659SOL     OW19438   2.991   1.178   7.708  1.0297 -0.4838 -0.2261
 2659SOL    HW119439   3.071   1.212   7.668 -0.2819  0.1041 -2.2975
 2659SOL    HW219440   2.993   1.234   7.786 -0.6443 -1.1201  0.2960
 2660SOL     OW19441   2.895   0.262   6.277 -0.0507  0.0638  0.6644
 2660SOL    HW119442   2.928   0.254   6.188  0.6744 -0.8146  1.0109
 2660SOL    HW219443   2.806   0.232   6.259  0.2918 -0.4440 -0.1577
 2661SOL     OW19444   0.825   3.259  11.195  0.3993  0.4154 -0.5023
 2661SOL    HW119445   0.870   3.215  11.122  0.5481  0.1303 -0.2395
 2661SOL    HW219446   0.841   3.352  11.180  0.1159  0.4377 -0.6705
 2662SOL     OW19447   3.110   4.469   8.417 -0.5813 -0.0895  0.2732
 2662SOL    HW119448   3.076   4.413   8.487 -1.7216 -0.6188 -0.6965
 2662SOL    HW219449   3.159   4.528   8.474 -1.4790  1.2074 -0.3144
 2663SOL     OW19450   1.882   3.577   9.522 -0.3228  0.1979 -0.1798
 2663SOL    HW119451   1.852   3.667   9.529 -2.2106 -0.5898  1.7807
 2663SOL    HW219452   1.936   3.587   9.444 -1.3671  0.8930 -0.8124
 2664SOL     OW19453   2.476   4.112   3.619  0.2809  0.4725  0.0232
 2664SOL    HW119454   2.419   4.036   3.626 -0.2015  0.8547  0.3213
 2664SOL    HW219455   2.420   4.178   3.661  0.0029  0.2889 -0.0615
 2665SOL     OW19456   4.662   1.852   2.643 -0.1128 -0.2827 -0.3704
 2665SOL    HW119457   4.704   1.857   2.730 -3.2460 -0.0783  1.1218
 2665SOL    HW219458   4.655   1.757   2.629  0.3239 -0.4839  0.7038
 2666SOL     OW19459   4.475   3.813   5.099  0.2244  0.9583  0.3217
 2666SOL    HW119460   4.428   3.741   5.058  1.1583 -0.7302  2.2567
 2666SOL    HW219461   4.417   3.820   5.175 -1.2645  2.0269 -0.9022
 2667SOL     OW19462   0.406   0.827   3.362 -0.3918  0.2390  0.0350
 2667SOL    HW119463   0.314   0.852   3.362 -0.8508 -1.4735 -0.0839
 2667SOL    HW219464   0.455   0.903   3.330  2.3725 -2.0608 -1.1558
 2668SOL     OW19465   0.353   0.034   2.186  0.0560  0.1264 -0.0586
 2668SOL    HW119466   0.341   0.075   2.271 -0.1113 -0.4753  0.2101
 2668SOL    HW219467   0.275   0.071   2.144 -0.3317  0.5203  1.0181
 2669SOL     OW19468   3.182   1.060   4.107 -0.0432  0.1254  0.2050
 2669SOL    HW119469   3.255   1.106   4.066  2.2496 -1.1543  2.8809
 2669SOL    HW219470   3.162   1.005   4.032 -1.5634 -2.1001  2.2416
 2670SOL     OW19471   4.636   2.582   4.323  0.1015 -0.2379 -0.9455
 2670SOL    HW119472   4.687   2.564   4.245  0.6110 -1.0514 -0.4250
 2670SOL    HW219473   4.577   2.506   4.320  0.1217 -0.3237  0.4316
 2671SOL     OW19474   2.348   1.115   7.342  0.1713 -0.3613  0.0964
 2671SOL    HW119475   2.401   1.103   7.421 -1.0821 -2.3132  0.6404
 2671SOL    HW219476   2.392   1.052   7.284  0.4625 -0.2320  0.1758
 2672SOL     OW19477   2.065   3.060   8.579 -0.3412 -0.3864  0.8514
 2672SOL    HW119478   2.055   3.132   8.641  1.2400  1.3388 -0.9314
 2672SOL    HW219479   2.076   3.110   8.499 -0.3620  0.2352  1.2367
 2673SOL     OW19480   2.573   1.943   4.361  0.0569  0.3707  0.6580
 2673SOL    HW119481   2.515   2.002   4.408  1.2468  0.2215  2.3159
 2673SOL    HW219482   2.617   1.887   4.426 -0.8194  1.5206  2.2115
 2674SOL     OW19483   1.868   2.076   5.962  0.1528  0.2899 -0.0317
 2674SOL    HW119484   1.813   2.106   5.890 -1.9811  0.7139  1.7833
 2674SOL    HW219485   1.821   1.992   5.962  0.8092 -0.0760  0.0497
 2675SOL     OW19486   3.405   3.383   3.784  0.1906 -0.1401  0.0674
 2675SOL    HW119487   3.493   3.413   3.809  0.0392  1.1291 -0.8845
 2675SOL    HW219488   3.398   3.294   3.818  1.7251 -0.2633  0.0618
 2676SOL     OW19489   3.989   2.555   8.109  0.1605  0.0350 -0.2066
 2676SOL    HW119490   4.040   2.483   8.070 -0.8799 -0.0485 -1.4017
 2676SOL    HW219491   4.020   2.539   8.198 -2.8644 -0.8680  0.6564
 2677SOL     OW19492   2.589   1.464  12.981 -0.0703 -0.3568 -0.5308
 2677SOL    HW119493   2.548   1.412  12.912  1.1825  1.3419 -2.5249
 2677SOL    HW219494   2.607   1.541  12.927 -1.4485  2.2061  2.6375
 2678SOL     OW19495   2.310   3.636   7.947 -0.4065 -0.5609  0.2681
 2678SOL    HW119496   2.219   3.635   7.976 -0.0561 -0.4126  1.3889
 2678SOL    HW219497   2.358   3.622   8.029 -1.3719 -2.4387  0.5063
 2679SOL     OW19498   0.963   3.659   7.193 -0.7519  0.5825 -0.2172
 2679SOL    HW119499   0.923   3.735   7.151 -1.4169 -0.0408 -0.7308
 2679SOL    HW219500   0.978   3.690   7.282  2.8634 -0.1859 -0.5438
 2680SOL     OW19501   0.975   2.746  12.467 -0.2193 -0.0299  0.9190
 2680SOL    HW119502   1.061   2.703  12.469  0.6144  1.6194  0.6330
 2680SOL    HW219503   0.986   2.839  12.485 -0.7301  0.2626 -0.2828
 2681SOL     OW19504   0.109   1.631  12.018  0.1856 -0.3460  0.1405
 2681SOL    HW119505   0.172   1.649  11.949 -0.6590  1.3782 -0.1855
 2681SOL    HW219506   0.060   1.714  12.014  2.0809  0.6815 -1.2826
 2682SOL     OW19507   2.012   4.257  15.316 -0.1247  0.0994  0.1934
 2682SOL    HW119508   2.019   4.178  15.263  0.1151  0.3358 -0.1297
 2682SOL    HW219509   1.929   4.240  15.361  1.6915 -2.0333  2.7075
 2683SOL     OW19510   1.461   4.294  11.344  0.4498 -0.1298 -0.8497
 2683SOL    HW119511   1.452   4.390  11.344  0.0730 -0.1625 -0.8474
 2683SOL    HW219512   1.410   4.277  11.264  1.6466  0.6194 -1.7650
 2684SOL     OW19513   0.433   0.701  10.279 -0.0790 -0.1362  0.1635
 2684SOL    HW119514   0.505   0.718  10.339  0.4664 -2.6079  0.2321
 2684SOL    HW219515   0.436   0.775  10.218 -1.9748 -0.9093 -0.8849
 2685SOL     OW19516   0.627   0.548  16.167  0.4489  0.2743  0.5054
 2685SOL    HW119517   0.649   0.488  16.239 -1.0505 -2.1030 -1.0512
 2685SOL    HW219518   0.700   0.609  16.157  1.7487 -1.1811  1.0578
 2686SOL     OW19519   3.636   0.877  11.124  0.0974 -0.0015 -0.7082
 2686SOL    HW119520   3.671   0.912  11.206  0.0076 -1.4359 -0.0671
 2686SOL    HW219521   3.588   0.956  11.099 -1.0480 -0.4484  0.1119
 2687SOL     OW19522   0.374   1.969   6.814 -1.0848 -0.4680  0.0427
 2687SOL    HW119523   0.359   1.935   6.725 -0.4377  2.6161 -1.2670
 2687SOL    HW219524   0.282   1.989   6.836 -1.1808  0.2372 -0.9792
 2688SOL     OW19525   4.714   0.962   2.800 -0.3536 -0.4836  0.2755
 2688SOL    HW119526   0.060   1.021   2.776 -1.3167  0.5718  0.0475
 2688SOL    HW219527   4.645   0.992   2.740  0.6302  1.2155 -0.0051
 2689SOL     OW19528   0.174   2.143  12.851 -0.2543  0.4919  0.0302
 2689SOL    HW119529   0.084   2.144  12.818 -0.0081  1.5506 -0.6257
 2689SOL    HW219530   0.162   2.199  12.927 -0.5151 -2.4382  2.1222
 2690SOL     OW19531   1.960   4.026   4.239  0.4165  0.0487 -0.1467
 2690SOL    HW119532   2.008   4.036   4.321  1.5818  0.4115 -0.8794
 2690SOL    HW219533   1.991   4.101   4.188  0.8348  0.4796  0.7368
 2691SOL     OW19534   4.098   4.723   5.202 -0.2520 -0.3927  0.0183
 2691SOL    HW119535   4.177   0.052   5.209 -0.9635  0.8062 -1.3742
 2691SOL    HW219536   4.126   4.647   5.253 -1.8217  0.1013  1.5940
 2692SOL     OW19537   2.714   2.418   5.668  0.3171 -0.5328 -0.0402
 2692SOL    HW119538   2.677   2.332   5.689 -0.1820  0.0367  1.3631
 2692SOL    HW219539   2.631   2.459   5.645  1.6306  1.8811 -0.4756
 2693SOL     OW19540   3.732   2.043   6.150 -0.0843  0.1840 -0.1013
 2693SOL    HW119541   3.802   1.983   6.122 -0.7530 -0.3765 -0.5863
 2693SOL    HW219542   3.695   2.060   6.063 -1.1935 -2.0721 -0.0579
 2694SOL     OW19543   4.098   2.982   8.481  0.2100 -0.0978 -0.7353
 2694SOL    HW119544   4.034   2.930   8.529  0.0105  1.8493  1.1251
 2694SOL    HW219545   4.119   3.053   8.542 -1.9144 -0.4594  0.3984
 2695SOL     OW19546   0.235   3.125  12.321  0.3284 -0.2713 -0.1134
 2695SOL    HW119547   0.225   3.050  12.262  1.2171 -1.3829  1.1409
 2695SOL    HW219548   0.291   3.183  12.270 -0.5149  0.3297 -0.3558
 2696SOL     OW19549   3.045   2.972   2.912 -0.1767  0.4385 -0.3585
 2696SOL    HW119550   2.985   2.907   2.947  2.4100 -1.7837 -0.0501
 2696SOL    HW219551   2.998   2.984   2.829  0.4228  0.0342 -0.7594
 2697SOL     OW19552   1.164   2.516  16.213 -0.1071  0.0893  0.1864
 2697SOL    HW119553   1.183   2.439  16.159 -0.3774 -0.5398  0.9936
 2697SOL    HW219554   1.250   2.505  16.254  0.8942  0.8841 -1.6554
 2698SOL     OW19555   1.661   3.695   7.160  0.1631  0.3773  0.3894
 2698SOL    HW119556   1.607   3.667   7.233 -2.5512  0.4975 -1.5488
 2698SOL    HW219557   1.635   3.787   7.160 -0.8039  0.1193 -0.6681
 2699SOL     OW19558   2.073   4.655   2.734  0.2829 -0.3394 -0.4002
 2699SOL    HW119559   2.149   4.611   2.697 -1.2004 -1.6770 -1.8455
 2699SOL    HW219560   2.064   4.608   2.817  0.4588 -0.6832 -0.5796
 2700SOL     OW19561   4.409   0.763  17.246 -0.1976 -0.2039  0.1094
 2700SOL    HW119562   4.320   0.744  17.275 -0.1729 -2.0895 -1.0492
 2700SOL    HW219563   4.416   0.857  17.229 -0.7097 -0.1254  0.3138
 2701SOL     OW19564   2.591   0.454  15.185 -0.0463 -0.3168  0.4896
 2701SOL    HW119565   2.558   0.451  15.275 -0.5687  0.1989  0.3168
 2701SOL    HW219566   2.513   0.476  15.135  1.5865 -1.6389 -2.6086
 2702SOL     OW19567   3.853   0.154   5.319  0.2441  0.2476 -0.0953
 2702SOL    HW119568   3.905   0.232   5.338  0.8393  0.0141 -0.7604
 2702SOL    HW219569   3.927   0.096   5.301  2.1029  2.5251  0.1911
 2703SOL     OW19570   1.152   3.819   4.321  0.3156  0.6668  0.0804
 2703SOL    HW119571   1.242   3.851   4.320  0.3318  0.6314  0.8315
 2703SOL    HW219572   1.127   3.849   4.234 -0.4017  0.0859  0.0805
 2704SOL     OW19573   0.167   3.728   7.334 -0.5095 -0.0917  0.1740
 2704SOL    HW119574   0.077   3.719   7.301 -1.1269  0.2880  1.7719
 2704SOL    HW219575   0.202   3.811   7.300 -1.9287  0.7125  0.6786
 2705SOL     OW19576   2.142   0.829   7.331  0.3414 -0.0755  1.0316
 2705SOL    HW119577   2.174   0.738   7.326  0.7967  0.0236  2.0867
 2705SOL    HW219578   2.218   0.884   7.350 -1.0885  1.8765  1.0526
 2706SOL     OW19579   0.496   3.142  13.690  0.4456  0.1169  0.2331
 2706SOL    HW119580   0.406   3.174  13.696 -0.1015 -1.0798 -1.5494
 2706SOL    HW219581   0.519   3.155  13.782 -1.2833 -3.0593  1.1173
 2707SOL     OW19582   0.500   1.899   8.980  0.4494  0.1375  0.0894
 2707SOL    HW119583   0.531   1.810   8.999  1.5434  0.8732  1.7283
 2707SOL    HW219584   0.585   1.941   8.963  0.2712  1.0694  1.5631
 2708SOL     OW19585   4.523   2.051   2.551  0.0432 -0.5056  0.6040
 2708SOL    HW119586   4.581   1.987   2.592 -0.7328 -0.8363  1.1793
 2708SOL    HW219587   4.510   2.018   2.462 -1.7525  1.4550  0.1234
 2709SOL     OW19588   0.702   3.237   1.706 -0.3099 -0.3203  0.0091
 2709SOL    HW119589   0.689   3.271   1.617  0.6163  1.4003  0.5178
 2709SOL    HW219590   0.612   3.219   1.731 -0.0082  0.2320  1.4731
 2710SOL     OW19591   2.666   1.346   8.142  0.3960 -0.7438 -0.4940
 2710SOL    HW119592   2.625   1.431   8.150 -1.9795 -1.7145 -2.5971
 2710SOL    HW219593   2.679   1.324   8.235 -2.6194  0.0989  0.1140
 2711SOL     OW19594   0.045   2.073   8.330 -0.2446 -0.3579  0.2876
 2711SOL    HW119595   0.020   2.117   8.411 -0.1386 -0.8956  0.6124
 2711SOL    HW219596   0.131   2.038   8.353  0.6089  0.9192 -0.9658
 2712SOL     OW19597   0.889   1.407   9.567  0.4424 -0.1220 -0.1442
 2712SOL    HW119598   0.978   1.375   9.580  0.4757 -0.1196 -0.3666
 2712SOL    HW219599   0.843   1.334   9.526  0.7787 -0.2492 -0.2898
 2713SOL     OW19600   2.772   4.166   3.975  1.0777  0.1235  0.6237
 2713SOL    HW119601   2.799   4.118   3.896  0.5381 -0.1304  0.5904
 2713SOL    HW219602   2.790   4.110   4.050  1.6255 -1.6072 -0.7910
 2714SOL     OW19603   0.747   0.661   3.456 -0.8410  0.4678 -0.1853
 2714SOL    HW119604   0.805   0.660   3.380  0.1181  1.4413  0.5265
 2714SOL    HW219605   0.669   0.707   3.425 -1.0906  0.2977  0.1909
 2715SOL     OW19606   3.450   3.126   3.533  0.0233 -0.3767  0.1242
 2715SOL    HW119607   3.402   3.147   3.453 -1.7789 -2.3209  0.6911
 2715SOL    HW219608   3.385   3.088   3.593  1.2257  2.8340  3.4737
 2716SOL     OW19609   0.505   0.518   7.639  0.6231  0.1409 -0.5518
 2716SOL    HW119610   0.467   0.525   7.727 -0.1048 -0.0301 -0.8502
 2716SOL    HW219611   0.493   0.610   7.614  1.7903  0.1012 -1.2729
 2717SOL     OW19612   3.468   1.300  13.407 -0.3380 -0.1141  0.4861
 2717SOL    HW119613   3.536   1.269  13.347  0.2398 -1.8289  2.0223
 2717SOL    HW219614   3.471   1.391  13.377  1.6703 -0.1097  0.6672
 2718SOL     OW19615   1.719   3.234  13.023 -0.3508 -0.0433  0.2876
 2718SOL    HW119616   1.691   3.295  12.955  1.2150 -0.4076 -0.6859
 2718SOL    HW219617   1.748   3.290  13.095 -0.3638 -0.6286  0.7484
 2719SOL     OW19618   2.973   1.338  14.002  0.2946 -0.3480  0.1711
 2719SOL    HW119619   2.897   1.367  13.951  0.1297 -1.7656 -0.3980
 2719SOL    HW219620   2.927   1.267  14.046 -0.5122  0.6056  0.8667
 2720SOL     OW19621   3.176   0.963   2.043  0.0486 -0.6452  0.7790
 2720SOL    HW119622   3.201   0.890   1.987  0.8389  0.2697 -0.0781
 2720SOL    HW219623   3.125   1.003   1.972  1.4575  0.2615  0.2595
 2721SOL     OW19624   1.535   4.671   5.616 -0.6624  0.6148 -0.3366
 2721SOL    HW119625   1.501   0.018   5.671 -0.9790 -1.7000  2.4743
 2721SOL    HW219626   1.461   4.610   5.619 -2.4148  2.6456 -1.5810
 2722SOL     OW19627   3.362   1.696   3.102  0.1257  0.3938 -0.2977
 2722SOL    HW119628   3.386   1.611   3.065  0.6150 -0.3440  1.7215
 2722SOL    HW219629   3.403   1.760   3.043  0.3392 -0.0893 -0.6729
 2723SOL     OW19630   2.076   3.935   9.421  0.3111  0.3978  0.2056
 2723SOL    HW119631   2.075   3.898   9.509  1.8444  0.7642  0.3834
 2723SOL    HW219632   2.169   3.951   9.402  0.1751  0.5871 -0.3150
 2724SOL     OW19633   0.185   0.514   9.762  0.2658 -0.3526 -0.1968
 2724SOL    HW119634   0.268   0.473   9.789  0.5590  0.9945  0.9284
 2724SOL    HW219635   0.131   0.515   9.841 -0.2830 -0.6507 -0.5679
 2725SOL     OW19636   4.090   4.073   3.641  0.4399 -0.3734 -0.3078
 2725SOL    HW119637   4.004   4.109   3.664  0.5031 -0.4802  0.0976
 2725SOL    HW219638   4.158   4.137   3.663  0.6076 -0.4051 -0.7521
 2726SOL     OW19639   3.174   4.688   2.840  0.1187 -0.6063  0.1658
 2726SOL    HW119640   3.168   4.593   2.848  1.4673 -0.6777  0.3125
 2726SOL    HW219641   3.100   4.700   2.899  0.0869 -1.6587  0.3418
 2727SOL     OW19642   2.739   3.566   7.405 -0.4295 -0.0114  0.1354
 2727SOL    HW119643   2.708   3.529   7.322 -0.5730 -0.4256  0.3716
 2727SOL    HW219644   2.797   3.498   7.439 -2.3114 -1.6201  0.1832
 2728SOL     OW19645   1.952   3.098  14.284  0.1768 -0.1716  0.4899
 2728SOL    HW119646   2.045   3.078  14.289  0.2957  0.4297  0.7467
 2728SOL    HW219647   1.939   3.135  14.197 -1.7992  0.0702  0.8732
 2729SOL     OW19648   0.375   2.007   0.292  0.0945  0.0536  0.8813
 2729SOL    HW119649   0.437   2.080   0.293 -0.4292  0.5216 -0.5457
 2729SOL    HW219650   0.333   2.025   0.208  1.0544  2.7285  0.9641
 2730SOL     OW19651   1.495   4.064  13.201  0.1075  0.1194 -0.2218
 2730SOL    HW119652   1.525   4.097  13.286 -2.8266  0.6225  0.5957
 2730SOL    HW219653   1.458   4.145  13.168 -1.7146 -0.3392  0.7023
 2731SOL     OW19654   0.400   2.804   2.766 -0.2040  0.0932  0.2588
 2731SOL    HW119655   0.398   2.887   2.719 -0.2144 -0.0898 -0.0594
 2731SOL    HW219656   0.489   2.796   2.802 -0.3708 -1.4391  0.3009
 2732SOL     OW19657   3.519   0.753   2.831  0.0674 -0.1793  0.4423
 2732SOL    HW119658   3.597   0.760   2.776 -0.5479 -0.6383 -0.4748
 2732SOL    HW219659   3.453   0.801   2.782 -0.4130 -1.6438 -0.3408
 2733SOL     OW19660   0.440   0.062   6.867 -0.0574  0.3657 -0.2051
 2733SOL    HW119661   0.536   0.063   6.864 -0.0499 -0.8577 -0.5462
 2733SOL    HW219662   0.424   0.111   6.786 -0.8151 -0.9936 -0.8914
 2734SOL     OW19663   2.581   2.358   6.923  0.0329  0.1666 -0.2430
 2734SOL    HW119664   2.647   2.368   6.855  0.7147  1.3173  0.5858
 2734SOL    HW219665   2.642   2.355   6.997  0.2756 -1.4062 -0.5057
 2735SOL     OW19666   0.602   4.200   8.644 -0.5947 -0.1981 -0.0352
 2735SOL    HW119667   0.642   4.201   8.731 -0.8522 -1.4524  0.1063
 2735SOL    HW219668   0.575   4.292   8.643  2.4514  0.6951  3.6168
 2736SOL     OW19669   4.510   1.634   3.299 -0.2255 -0.2719 -0.0990
 2736SOL    HW119670   4.541   1.684   3.224  1.4875  0.0845  0.8398
 2736SOL    HW219671   4.464   1.701   3.349  3.2480  2.5373 -0.6823
 2737SOL     OW19672   0.898   1.461  15.196 -0.0872 -0.4834  0.1431
 2737SOL    HW119673   0.852   1.453  15.279  0.9297  0.0769  0.7660
 2737SOL    HW219674   0.968   1.514  15.236  1.1036 -0.9039 -1.4004
 2738SOL     OW19675   0.774   0.313   7.423 -0.2099 -0.2383 -0.0513
 2738SOL    HW119676   0.852   0.293   7.474  1.5551 -0.4400 -2.8042
 2738SOL    HW219677   0.706   0.265   7.470 -0.3664  2.0397  2.0616
 2739SOL     OW19678   1.428   0.073   3.275 -0.4601 -0.2394 -0.0850
 2739SOL    HW119679   1.490   0.004   3.298  0.4834  1.0727  1.3456
 2739SOL    HW219680   1.388   0.096   3.359  0.2453 -0.0413  0.1935
 2740SOL     OW19681   1.804   2.668   5.455  0.1244  0.4715  0.0716
 2740SOL    HW119682   1.787   2.753   5.494 -1.5229 -0.4053  1.2459
 2740SOL    HW219683   1.883   2.634   5.496 -0.1910 -0.3595 -0.0001
 2741SOL     OW19684   4.431   0.111   7.001  0.0788 -0.2757  0.2079
 2741SOL    HW119685   4.399   0.189   7.047 -0.0213 -0.0138 -0.3118
 2741SOL    HW219686   4.448   0.049   7.072 -2.2461 -0.4242  0.6372
 2742SOL     OW19687   3.080   0.521   6.746  0.7766 -0.1158 -0.0224
 2742SOL    HW119688   3.121   0.607   6.751  0.9942 -0.3111  1.6792
 2742SOL    HW219689   3.040   0.541   6.662 -2.3142 -0.1877  1.4313
 2743SOL     OW19690   2.410   0.427  15.912  0.0774 -0.5768  0.0140
 2743SOL    HW119691   2.351   0.351  15.923 -1.4395  0.4522 -0.9933
 2743SOL    HW219692   2.394   0.475  15.994  1.5565 -1.5917  0.8998
 2744SOL     OW19693   3.584   4.103   6.925  0.0420  0.3552  0.1197
 2744SOL    HW119694   3.654   4.050   6.964  0.0572  0.9566  0.9141
 2744SOL    HW219695   3.514   4.119   6.987  0.6588  0.1056  0.8776
 2745SOL     OW19696   0.504   2.827   9.346 -0.0590  0.0005 -0.1719
 2745SOL    HW119697   0.585   2.866   9.381 -0.9599  1.1639  0.6101
 2745SOL    HW219698   0.499   2.865   9.258 -0.6083 -0.6436 -0.4126
 2746SOL     OW19699   2.906   0.391   2.283 -0.2277  0.2603 -0.2031
 2746SOL    HW119700   2.974   0.340   2.328 -0.4396  1.2015  1.1780
 2746SOL    HW219701   2.837   0.325   2.279 -0.4851  0.4323  1.3844
 2747SOL     OW19702   2.329   3.923   8.838  0.0532  0.3157 -0.4344
 2747SOL    HW119703   2.271   3.981   8.887  0.6085  0.7549 -0.3098
 2747SOL    HW219704   2.300   3.833   8.858  0.4064  0.5927  1.3701
 2748SOL     OW19705   1.971   3.306   3.786  0.3375  0.0177 -0.8077
 2748SOL    HW119706   2.050   3.269   3.825  0.3593  1.5280  0.5870
 2748SOL    HW219707   1.893   3.267   3.824  1.9210 -2.1629  0.1673
 2749SOL     OW19708   4.615   3.356   9.279 -0.2940  0.4273 -0.1549
 2749SOL    HW119709   4.649   3.338   9.367  1.1051 -2.3927 -1.2646
 2749SOL    HW219710   4.649   3.443   9.260 -1.0540  0.8660  0.4713
 2750SOL     OW19711   3.282   1.040   3.315 -0.0528 -0.5801 -0.1083
 2750SOL    HW119712   3.246   0.971   3.260  0.9987 -2.4694  1.6143
 2750SOL    HW219713   3.288   1.106   3.246 -0.5139 -0.4397 -0.0145
 2751SOL     OW19714   2.134   1.158   3.636 -0.0439  0.2346 -0.0928
 2751SOL    HW119715   2.134   1.084   3.575 -2.0872  0.8036 -0.7999
 2751SOL    HW219716   2.132   1.123   3.725  1.0265  1.7568  0.5343
 2752SOL     OW19717   2.307   3.442   7.420  0.6446  0.5234  0.2154
 2752SOL    HW119718   2.324   3.366   7.365  1.8332  2.4881 -2.1357
 2752SOL    HW219719   2.234   3.415   7.476 -0.0758  1.9979 -0.0026
 2753SOL     OW19720   0.348   0.066   5.520  0.8774  0.2242  0.4172
 2753SOL    HW119721   0.381   4.706   5.491  0.7893  0.8200 -1.4237
 2753SOL    HW219722   0.429   0.117   5.523 -0.9652  3.1648  0.3864
 2754SOL     OW19723   3.515   1.905  10.672  0.6546  0.7296  0.0367
 2754SOL    HW119724   3.531   2.000  10.668  1.2286  0.6875  1.1854
 2754SOL    HW219725   3.606   1.880  10.687 -0.0526 -0.7340  1.9161
 2755SOL     OW19726   0.373   3.468  13.704 -0.0310 -0.2998  0.1931
 2755SOL    HW119727   0.327   3.384  13.711 -0.7753  0.0923 -0.0600
 2755SOL    HW219728   0.359   3.496  13.794 -1.1112 -1.1220  0.2771
 2756SOL     OW19729   4.024   1.544   3.637  0.1816  0.7357  0.1095
 2756SOL    HW119730   4.053   1.494   3.713  1.1509  1.2460  0.0792
 2756SOL    HW219731   3.939   1.506   3.616  0.3727  0.3305  0.0671
 2757SOL     OW19732   0.319   2.410  11.288 -0.7681 -0.0231 -0.1990
 2757SOL    HW119733   0.280   2.365  11.363  1.0765 -0.2326  0.6281
 2757SOL    HW219734   0.402   2.436  11.328 -2.4295  3.0932  1.1873
 2758SOL     OW19735   3.433   3.625   8.314  0.1789  0.1790 -0.5933
 2758SOL    HW119736   3.510   3.598   8.265  0.8735 -1.3126  1.3649
 2758SOL    HW219737   3.449   3.719   8.304  0.7204  0.5420  3.6301
 2759SOL     OW19738   2.760   1.027  16.451 -0.1117 -0.3372  0.3837
 2759SOL    HW119739   2.741   0.994  16.363  0.4639 -1.7427  0.7880
 2759SOL    HW219740   2.744   1.121  16.451  2.0254  0.0284  0.0886
 2760SOL     OW19741   2.083   0.063   8.932  0.5559 -0.3468 -0.2176
 2760SOL    HW119742   2.068   0.048   8.838 -0.1152  1.5736 -0.4120
 2760SOL    HW219743   2.105   4.698   8.956  0.2963 -0.4284 -0.2816
 2761SOL     OW19744   4.276   1.518   1.653  0.0442 -0.1068  0.3005
 2761SOL    HW119745   4.274   1.613   1.644 -2.3621 -0.2831 -0.8539
 2761SOL    HW219746   4.235   1.500   1.738 -0.0596 -0.5160  0.1615
 2762SOL     OW19747   0.159   0.845   5.701 -0.3179 -0.7621  0.2563
 2762SOL    HW119748   0.230   0.905   5.725 -1.3097  0.0041  1.2639
 2762SOL    HW219749   0.095   0.916   5.696  2.0474  1.3874  0.6989
 2763SOL     OW19750   0.270   0.453  13.019 -0.2289 -0.0063  1.0548
 2763SOL    HW119751   0.347   0.508  13.030  1.0842 -1.1692 -2.2344
 2763SOL    HW219752   0.308   0.368  12.995 -0.1482 -0.0018  1.1697
 2764SOL     OW19753   1.452   2.596  16.766  0.1446 -0.3873  0.4269
 2764SOL    HW119754   1.539   2.628  16.788 -0.2920  1.2467 -0.2108
 2764SOL    HW219755   1.485   2.507  16.756  0.0637 -0.5157  1.3166
 2765SOL     OW19756   1.085   0.553   1.957 -0.1150  0.4857  0.1564
 2765SOL    HW119757   1.080   0.569   2.051 -1.7789  0.6744  0.0293
 2765SOL    HW219758   1.007   0.498   1.960  0.2229 -0.0469 -0.7095
 2766SOL     OW19759   1.184   2.480  10.286  0.0118  0.3515  0.2320
 2766SOL    HW119760   1.272   2.474  10.321  0.1372 -0.4000 -0.2155
 2766SOL    HW219761   1.159   2.566  10.321 -0.6045  0.9399 -1.6509
 2767SOL     OW19762   1.674   3.604   6.638 -0.3066 -0.9524  0.2542
 2767SOL    HW119763   1.691   3.535   6.702 -2.2774 -0.2834  1.4837
 2767SOL    HW219764   1.728   3.579   6.563 -0.2839 -0.8003  0.2189
 2768SOL     OW19765   0.709   2.103   7.774  0.4881 -0.4124 -0.1462
 2768SOL    HW119766   0.658   2.184   7.780  0.8803 -0.2553  1.0562
 2768SOL    HW219767   0.650   2.057   7.714  0.9509  0.2573 -1.1117
 2769SOL     OW19768   0.171   3.094  11.671 -0.2582  0.1151  0.0407
 2769SOL    HW119769   0.214   3.168  11.627  1.6002 -0.2795  1.1563
 2769SOL    HW219770   0.111   3.064  11.603  0.1997  1.6202 -1.0298
 2770SOL     OW19771   3.191   0.889   3.912 -0.3107 -0.3887 -0.8707
 2770SOL    HW119772   3.238   0.957   3.865  1.2660  0.8337  2.5088
 2770SOL    HW219773   3.178   0.845   3.828  1.4270  0.6866 -1.6904
 2771SOL     OW19774   3.829   4.527   2.828  0.1030 -0.3229 -0.1149
 2771SOL    HW119775   3.857   4.566   2.911  1.1005 -1.4180  0.0732
 2771SOL    HW219776   3.755   4.584   2.806  0.8351  1.1234  1.1534
 2772SOL     OW19777   1.415   4.290   5.698  0.8258 -0.2629 -0.2001
 2772SOL    HW119778   1.443   4.204   5.730  0.0959 -0.3939  0.0996
 2772SOL    HW219779   1.405   4.351   5.771 -0.0925  1.2167 -1.5628
 2773SOL     OW19780   1.760   4.073   1.633  0.5119  0.2380  0.0486
 2773SOL    HW119781   1.698   4.139   1.600 -0.3993  0.1323  1.5481
 2773SOL    HW219782   1.704   4.033   1.699  3.1767 -0.0355  2.1606
 2774SOL     OW19783   3.937   0.633   7.154 -0.0945  0.3826  0.2958
 2774SOL    HW119784   3.943   0.581   7.235 -1.1138  1.4243  1.0487
 2774SOL    HW219785   3.987   0.584   7.089  0.1331  0.8022  0.1575
 2775SOL     OW19786   0.802   4.078   1.393 -0.2081  0.7408 -0.2593
 2775SOL    HW119787   0.719   4.097   1.348 -1.0096  1.5707  1.5581
 2775SOL    HW219788   0.796   4.143   1.463 -0.9778  0.5711 -0.1632
 2776SOL     OW19789   1.943   0.664  17.483 -0.4132 -0.0696  0.2299
 2776SOL    HW119790   1.885   0.607  17.434  0.6970  1.3447 -2.7461
 2776SOL    HW219791   1.947   0.742  17.427  1.1742  0.7497  1.4810
 2777SOL     OW19792   3.783   2.645  15.977  0.5367 -0.1664  0.5368
 2777SOL    HW119793   3.752   2.607  16.060 -2.4815  0.8507 -0.1327
 2777SOL    HW219794   3.848   2.580  15.948  0.2093 -0.9285  1.4990
 2778SOL     OW19795   1.377   2.480   4.892 -0.9553  0.2107  0.6819
 2778SOL    HW119796   1.359   2.551   4.954  0.0874 -0.2966  1.5791
 2778SOL    HW219797   1.414   2.540   4.827 -1.5286 -1.4705 -1.1885
 2779SOL     OW19798   2.536   0.891   3.794  0.0814 -0.1787 -0.5305
 2779SOL    HW119799   2.500   0.802   3.799 -2.1726  0.8151  0.6746
 2779SOL    HW219800   2.548   0.920   3.884 -2.7162  1.9640 -0.8777
 2780SOL     OW19801   2.132   4.094  12.405  0.1618 -0.0029  0.5715
 2780SOL    HW119802   2.081   4.162  12.449 -2.7700 -0.7416 -1.6256
 2780SOL    HW219803   2.063   4.027  12.402 -0.9290  1.1819 -1.1968
 2781SOL     OW19804   2.422   1.924   5.374  0.0491  0.5717  0.6712
 2781SOL    HW119805   2.427   2.019   5.379  1.1608  0.5213  0.5554
 2781SOL    HW219806   2.347   1.909   5.432 -0.1116  0.7971  0.5223
 2782SOL     OW19807   0.333   3.884   1.101 -0.0449 -0.3070 -0.5520
 2782SOL    HW119808   0.281   3.804   1.089 -0.2890 -0.1515 -0.5207
 2782SOL    HW219809   0.333   3.887   1.196 -2.5989 -0.3291 -0.5593
 2783SOL     OW19810   3.643   3.200   4.955 -0.0816 -1.0388 -0.2597
 2783SOL    HW119811   3.570   3.260   4.966  0.3106 -0.8789  1.4985
 2783SOL    HW219812   3.713   3.263   4.937 -1.7532  0.1136 -2.7466
 2784SOL     OW19813   4.385   1.287   6.249  0.1703  0.1755 -0.4093
 2784SOL    HW119814   4.400   1.378   6.223 -0.7686  0.5236  0.2802
 2784SOL    HW219815   4.294   1.313   6.267 -0.0494 -2.8305  2.8406
 2785SOL     OW19816   2.343   3.182   5.761 -0.7311 -0.2713  0.0168
 2785SOL    HW119817   2.416   3.144   5.810  0.2940 -1.3377 -2.3700
 2785SOL    HW219818   2.392   3.226   5.691  0.6414 -2.9669 -0.7069
 2786SOL     OW19819   2.416   0.621   6.608 -0.0085  0.3751 -0.2518
 2786SOL    HW119820   2.346   0.599   6.546  0.3826 -1.5362 -0.0342
 2786SOL    HW219821   2.370   0.632   6.691  0.9968 -2.2229  0.6590
 2787SOL     OW19822   0.161   2.281  11.483 -0.2422  0.2748 -0.1794
 2787SOL    HW119823   0.211   2.212  11.525  0.2283  1.1947  0.7625
 2787SOL    HW219824   0.116   2.323  11.557 -0.4254  3.4995 -2.0916
 2788SOL     OW19825   0.122   2.573   1.829 -0.0218  0.1721  0.1235
 2788SOL    HW119826   0.140   2.479   1.829 -0.6582  0.0465  0.0664
 2788SOL    HW219827   0.129   2.604   1.739  0.1384 -3.1990 -1.0487
 2789SOL     OW19828   1.035   3.987   5.938 -0.0057  0.2245  0.0884
 2789SOL    HW119829   1.059   4.008   5.848 -1.4218  2.9799  0.3465
 2789SOL    HW219830   1.110   4.027   5.981  1.1172 -1.7099 -0.0720
 2790SOL     OW19831   3.603   2.953   7.454 -0.6877 -0.4507 -0.4350
 2790SOL    HW119832   3.635   2.867   7.479 -2.9259 -1.4131 -0.9438
 2790SOL    HW219833   3.541   2.971   7.525 -1.0727 -0.5896 -0.7416
 2791SOL     OW19834   3.899   1.208   6.140  0.2363  0.3517  0.7878
 2791SOL    HW119835   3.873   1.126   6.181  0.9645  1.1368  2.8396
 2791SOL    HW219836   3.824   1.267   6.140 -2.5760 -3.2411 -0.0761
 2792SOL     OW19837   1.436   1.523   9.779  0.5330 -0.2978 -0.0483
 2792SOL    HW119838   1.419   1.548   9.688 -2.3222  0.4042  0.6829
 2792SOL    HW219839   1.493   1.593   9.810 -0.1521 -1.0723  2.9335
 2793SOL     OW19840   4.437   0.910   8.902  0.0026  0.1793  0.1371
 2793SOL    HW119841   4.498   0.983   8.906  1.8222 -1.1437 -3.6297
 2793SOL    HW219842   4.400   0.931   8.816 -1.0169  1.6808  0.9461
 2794SOL     OW19843   3.654   2.987  13.184 -0.6437 -0.1900  0.0135
 2794SOL    HW119844   3.737   2.945  13.207 -1.5516 -1.9426  0.0210
 2794SOL    HW219845   3.588   2.935  13.230 -0.2673  0.3073  1.1244
 2795SOL     OW19846   2.589   3.029  13.799  0.1655  0.1090  0.2089
 2795SOL    HW119847   2.521   3.081  13.758  0.9418  0.5792 -0.4777
 2795SOL    HW219848   2.618   2.976  13.725 -1.1333  1.3268 -1.1620
 2796SOL     OW19849   0.197   1.366  13.569 -0.1404 -0.0093  0.2699
 2796SOL    HW119850   0.124   1.399  13.516  0.3368 -1.6981 -1.4489
 2796SOL    HW219851   0.263   1.435  13.563  0.6653 -0.6994  1.4191
 2797SOL     OW19852   4.415   1.758   1.366 -0.7249  0.5202  0.4679
 2797SOL    HW119853   4.358   1.791   1.296 -1.0593  0.3559  0.6681
 2797SOL    HW219854   4.355   1.774   1.439 -1.1128  0.8990  0.0705
 2798SOL     OW19855   0.318   0.967   5.127  0.1600 -0.0144 -0.1966
 2798SOL    HW119856   0.303   0.873   5.123 -0.2893  0.0898 -0.8989
 2798SOL    HW219857   0.378   0.962   5.053  0.2055 -0.8863 -0.0952
 2799SOL     OW19858   2.074   3.063   7.190  0.8239  0.1083 -0.0131
 2799SOL    HW119859   2.020   2.986   7.208  0.0618  0.7020  0.2271
 2799SOL    HW219860   2.059   3.102   7.276 -3.5124 -0.1112 -0.6586
 2800SOL     OW19861   0.686   0.200   2.402  0.8973 -0.2118  0.1916
 2800SOL    HW119862   0.612   0.256   2.381  0.0153 -0.8555  1.5899
 2800SOL    HW219863   0.651   0.136   2.464  0.1521 -0.7780 -0.7980
 2801SOL     OW19864   2.313   0.833   6.199 -0.6536 -0.2953  0.2350
 2801SOL    HW119865   2.323   0.809   6.107  0.0100 -1.4424  0.6061
 2801SOL    HW219866   2.233   0.885   6.199 -0.3590  0.1943 -1.8023
 2802SOL     OW19867   3.093   0.817   2.570  0.0402 -0.9498 -0.1266
 2802SOL    HW119868   3.021   0.760   2.543  0.4615 -0.6632 -1.8459
 2802SOL    HW219869   3.078   0.895   2.516  0.1515 -1.1874 -0.5004
 2803SOL     OW19870   1.604   4.355   2.952 -0.0329  0.0811  0.2169
 2803SOL    HW119871   1.526   4.324   2.997  0.5075 -1.9208 -0.2242
 2803SOL    HW219872   1.661   4.278   2.958 -1.2777 -0.9326 -0.9151
 2804SOL     OW19873   1.620   2.495   4.023  0.2790 -0.3561 -0.2004
 2804SOL    HW119874   1.534   2.452   4.025  0.5257 -0.9131 -1.7364
 2804SOL    HW219875   1.591   2.577   3.985 -1.0746  0.5413  2.7919
 2805SOL     OW19876   4.141   3.340   8.294 -0.7298  0.0674 -0.0693
 2805SOL    HW119877   4.122   3.395   8.217  2.6654 -0.3077 -1.2150
 2805SOL    HW219878   4.172   3.261   8.250  0.9048  0.7138 -0.0832
 2806SOL     OW19879   1.697   3.044   7.546 -0.3261  0.1037 -0.0148
 2806SOL    HW119880   1.605   3.032   7.571  0.1122 -1.1327  1.0441
 2806SOL    HW219881   1.727   2.953   7.535 -2.2286 -0.7609  1.9899
 2807SOL     OW19882   4.256   2.467   7.737 -0.1651 -0.2722 -0.1337
 2807SOL    HW119883   4.343   2.444   7.769 -0.3857 -1.6917 -0.5298
 2807SOL    HW219884   4.205   2.456   7.817 -0.4200 -1.3469 -0.4475
 2808SOL     OW19885   2.320   2.100   6.061 -0.3163  0.2585  0.3265
 2808SOL    HW119886   2.237   2.088   6.107 -0.9029  0.0303 -0.7933
 2808SOL    HW219887   2.368   2.018   6.071 -2.9601 -1.4709 -1.0565
 2809SOL     OW19888   2.741   1.896   8.178  0.3725 -0.6596 -0.1797
 2809SOL    HW119889   2.694   1.968   8.220 -3.0947 -3.0736  0.1113
 2809SOL    HW219890   2.761   1.936   8.094  0.2826 -2.0737 -0.8746
 2810SOL     OW19891   0.010   4.368   7.704  0.5095  0.9273  0.1102
 2810SOL    HW119892   0.014   4.273   7.713  1.4879  0.7852 -1.8069
 2810SOL    HW219893   0.029   4.391   7.795  0.1094 -0.8414  0.6332
 2811SOL     OW19894   2.923   1.270   9.555  0.1045  0.5767  0.0963
 2811SOL    HW119895   2.944   1.212   9.628 -1.4433 -1.6357 -1.2412
 2811SOL    HW219896   2.987   1.240   9.490 -0.5417  0.6347 -0.5650
 2812SOL     OW19897   1.172   3.254  11.178 -0.4063 -0.2644  0.1777
 2812SOL    HW119898   1.107   3.212  11.121  0.0090  0.6415 -0.9633
 2812SOL    HW219899   1.203   3.171  11.214  1.9584  0.6418  0.2092
 2813SOL     OW19900   2.135   2.893   6.013  0.3347 -0.7830 -0.3330
 2813SOL    HW119901   2.217   2.870   5.971  0.4270  1.8868 -1.6040
 2813SOL    HW219902   2.142   2.848   6.097 -0.0770 -1.5804 -0.7221
 2814SOL     OW19903   4.101   3.019   7.370 -0.2245  0.0738  0.7328
 2814SOL    HW119904   4.182   3.056   7.405 -0.4921  0.9039  0.4768
 2814SOL    HW219905   4.052   3.096   7.340 -1.1745 -0.7576  0.1572
 2815SOL     OW19906   0.582   0.137   0.413 -0.6762  0.0418 -0.2862
 2815SOL    HW119907   0.563   0.049   0.448  0.6418 -1.0150 -2.2445
 2815SOL    HW219908   0.546   0.131   0.324  1.0827 -0.0891 -0.9721
 2816SOL     OW19909   1.731   1.563   6.489  0.5720  0.6656  0.1875
 2816SOL    HW119910   1.720   1.616   6.410  0.6845 -0.6675 -0.7184
 2816SOL    HW219911   1.644   1.525   6.500 -0.2014  1.7591 -2.0864
 2817SOL     OW19912   1.173   0.778   2.317 -0.7873 -0.5830 -0.0175
 2817SOL    HW119913   1.122   0.699   2.330  1.9363 -2.1463  1.2748
 2817SOL    HW219914   1.205   0.777   2.227  0.7099 -0.2276  0.5044
 2818SOL     OW19915   3.999   1.540  11.954 -0.1103 -0.3070  0.4032
 2818SOL    HW119916   3.913   1.506  11.976 -0.1466 -0.1291  0.5343
 2818SOL    HW219917   4.024   1.491  11.875  0.7170 -3.1749  2.4173
 2819SOL     OW19918   1.639   4.399   4.887 -0.3033  0.0894 -0.7490
 2819SOL    HW119919   1.703   4.469   4.878  0.0185 -0.6142 -3.7916
 2819SOL    HW219920   1.633   4.370   4.797  1.6473  0.7502 -1.0963
 2820SOL     OW19921   2.183   1.633   7.676 -0.2909 -0.0085 -0.1983
 2820SOL    HW119922   2.164   1.708   7.731  2.0243  0.8602 -0.5774
 2820SOL    HW219923   2.197   1.562   7.738  0.5577 -0.2046 -0.6170
 2821SOL     OW19924   1.531   3.948   3.699 -0.0163  0.0836 -0.4690
 2821SOL    HW119925   1.462   3.988   3.751 -0.2101 -2.0960  0.9500
 2821SOL    HW219926   1.590   4.019   3.672 -0.4301  0.3974 -0.5423
 2822SOL     OW19927   2.605   3.847   6.062  0.2866 -0.5782  0.4687
 2822SOL    HW119928   2.686   3.882   6.100  1.5855 -0.7972 -2.1147
 2822SOL    HW219929   2.587   3.764   6.106 -3.2954  0.0915  0.2199
 2823SOL     OW19930   4.170   1.437   5.850 -0.9646  0.1442  0.0581
 2823SOL    HW119931   4.117   1.358   5.858  0.5266 -0.7971  0.7340
 2823SOL    HW219932   4.216   1.406   5.771 -1.2487  0.1161 -0.0974
 2824SOL     OW19933   0.541   3.270   4.821 -0.1049  0.3419 -0.0067
 2824SOL    HW119934   0.617   3.315   4.857 -1.8459  2.8811  0.4754
 2824SOL    HW219935   0.568   3.246   4.732 -1.0169 -0.7019 -0.0054
 2825SOL     OW19936   0.576   1.602   1.142  0.6098  0.1124 -0.1039
 2825SOL    HW119937   0.607   1.582   1.054  1.5545  1.0054  0.0256
 2825SOL    HW219938   0.644   1.661   1.175 -1.7858  1.8248  1.8213
 2826SOL     OW19939   0.904   2.560   0.935  0.0214 -0.2663 -0.2602
 2826SOL    HW119940   0.893   2.536   1.027  2.3306 -2.7474 -0.6262
 2826SOL    HW219941   0.972   2.627   0.936  0.0777 -0.3221 -0.3256
 2827SOL     OW19942   3.922   4.545  12.699  0.2808  0.1793 -0.1517
 2827SOL    HW119943   3.862   4.607  12.741  1.0515 -0.2389  1.5436
 2827SOL    HW219944   4.001   4.595  12.716 -0.3522  1.2761 -0.4217
 2828SOL     OW19945   2.289   2.980   4.255 -0.0786  0.5775 -0.3072
 2828SOL    HW119946   2.244   3.065   4.257  1.1367  1.2214 -0.1919
 2828SOL    HW219947   2.351   3.006   4.187  1.6657 -1.8491  0.3631
 2829SOL     OW19948   3.959   4.376  12.935 -0.5214  0.4233 -0.3650
 2829SOL    HW119949   3.950   4.447  12.871  0.7994 -0.4116 -1.4707
 2829SOL    HW219950   3.886   4.320  12.908 -1.2481  0.3271  1.7703
 2830SOL     OW19951   4.158   2.834   4.685  0.0247  0.1305 -0.4228
 2830SOL    HW119952   4.115   2.918   4.696  1.3554  1.0661 -2.4750
 2830SOL    HW219953   4.088   2.772   4.709 -1.0931  1.0055 -1.4218
 2831SOL     OW19954   0.384   0.829   7.619  0.3039 -0.3328 -0.1011
 2831SOL    HW119955   0.317   0.808   7.685 -0.7172  0.7267 -0.7955
 2831SOL    HW219956   0.456   0.837   7.682  0.6531  1.3346 -0.7064
 2832SOL     OW19957   3.729   0.736  16.363  0.1475 -0.5564  0.5299
 2832SOL    HW119958   3.819   0.766  16.363 -0.2959  0.7069 -1.3515
 2832SOL    HW219959   3.681   0.817  16.345  0.7481 -0.2508  0.3276
 2833SOL     OW19960   0.454   3.735   8.525  0.3539 -0.3256 -0.1239
 2833SOL    HW119961   0.454   3.830   8.537  0.6626 -0.4553  0.9337
 2833SOL    HW219962   0.497   3.726   8.440  0.2210 -2.7424  0.0656
 2834SOL     OW19963   1.317   4.422   6.902  0.4692 -0.3428 -0.0546
 2834SOL    HW119964   1.326   4.382   6.989  1.5872 -0.4139 -0.1970
 2834SOL    HW219965   1.357   4.509   6.912  1.7144 -0.5946 -2.8952
 2835SOL     OW19966   3.295   3.305   2.014 -0.0514 -0.1286 -0.7955
 2835SOL    HW119967   3.372   3.334   1.966  1.0834 -0.1475  0.9996
 2835SOL    HW219968   3.306   3.210   2.003 -1.8025 -0.3737 -0.3805
 2836SOL     OW19969   1.244   0.821  17.084  0.8304  0.2057 -0.0187
 2836SOL    HW119970   1.164   0.872  17.073 -0.1193 -1.1914  0.3687
 2836SOL    HW219971   1.302   0.877  17.135 -0.9825  2.4696 -0.4298
 2837SOL     OW19972   3.323   1.031  13.701 -0.3924 -0.1644  0.4610
 2837SOL    HW119973   3.237   1.023  13.744 -0.7480 -2.5864 -0.6573
 2837SOL    HW219974   3.376   1.065  13.773  1.3760 -1.5208 -0.2097
 2838SOL     OW19975   1.059   2.728   2.518  0.1134 -0.1599 -0.1418
 2838SOL    HW119976   1.088   2.792   2.454 -0.2150 -0.4313 -0.5651
 2838SOL    HW219977   1.031   2.782   2.592  2.4149  1.6826 -0.6225
 2839SOL     OW19978   4.180   3.259   9.793 -0.2058  0.3692  0.3037
 2839SOL    HW119979   4.248   3.260   9.726 -1.2812 -1.2143 -0.8174
 2839SOL    HW219980   4.173   3.346   9.832  0.4338  0.9305 -0.8433
 2840SOL     OW19981   4.642   2.037   7.703  0.4109  0.5005 -0.3601
 2840SOL    HW119982   4.575   2.080   7.755  2.2659  0.1623  2.2883
 2840SOL    HW219983   4.689   2.110   7.663 -0.9752  2.1249  1.0076
 2841SOL     OW19984   3.993   2.056   3.358  0.0391  0.0776  0.0999
 2841SOL    HW119985   3.900   2.059   3.380  0.1340 -2.1597  0.8572
 2841SOL    HW219986   4.011   1.967   3.388 -0.2410 -0.5195 -1.5370
 2842SOL     OW19987   1.214   1.384   9.879  0.3173 -0.3868  0.6560
 2842SOL    HW119988   1.301   1.424   9.869  0.2787 -0.5902 -0.4541
 2842SOL    HW219989   1.182   1.432   9.955  0.8647  0.2249  0.5053
 2843SOL     OW19990   2.160   4.166   6.219 -0.0531  0.4269 -0.4638
 2843SOL    HW119991   2.210   4.161   6.137  0.1199 -0.1064 -0.3257
 2843SOL    HW219992   2.086   4.213   6.180 -0.0139  1.2601  0.4783
 2844SOL     OW19993   4.275   0.715   2.371 -0.5573 -0.3722  0.4885
 2844SOL    HW119994   4.282   0.649   2.440 -1.4378 -1.7684 -0.7575
 2844SOL    HW219995   4.185   0.694   2.348 -0.7414 -0.4256  1.2456
 2845SOL     OW19996   1.254   0.512   7.699 -0.6556  0.3182 -0.1480
 2845SOL    HW119997   1.175   0.566   7.707 -1.6045 -0.8249 -1.8770
 2845SOL    HW219998   1.244   0.455   7.775 -1.8064 -0.1556 -0.6659
 2846SOL     OW19999   2.177   1.262   4.554  0.2079 -0.1835  0.4720
 2846SOL    HW120000   2.154   1.196   4.489 -2.6672  1.7140 -0.4481
 2846SOL    HW220001   2.207   1.215   4.632 -2.2028 -1.7049  0.4938
 2847SOL     OW20002   4.327   0.464  14.333  0.0808 -0.1934 -0.3166
 2847SOL    HW120003   4.269   0.527  14.289 -2.1166 -1.9229  0.1080
 2847SOL    HW220004   4.263   0.428  14.394 -0.2762  0.3716 -0.3531
 2848SOL     OW20005   2.849   3.455   6.182 -0.6611 -0.4653  0.0982
 2848SOL    HW120006   2.827   3.452   6.275  0.2227  1.2152  0.3555
 2848SOL    HW220007   2.797   3.525   6.141 -0.8980 -0.8752 -0.3023
 2849SOL     OW20008   3.112   4.572   7.887 -0.2762 -0.1502  0.3836
 2849SOL    HW120009   3.093   4.604   7.975 -0.1468 -1.7335  1.0013
 2849SOL    HW220010   3.180   4.631   7.854 -1.4181  0.8478 -0.1533
 2850SOL     OW20011   2.741   0.106   3.946 -0.3174 -0.0774  0.4524
 2850SOL    HW120012   2.707   0.017   3.938  1.0880 -0.5047 -0.7904
 2850SOL    HW220013   2.831   0.086   3.919 -0.6174  0.4237 -0.9052
 2851SOL     OW20014   3.702   4.267   0.920  0.3656 -0.3083 -0.1866
 2851SOL    HW120015   3.676   4.265   0.828 -1.8811  0.7882  0.4186
 2851SOL    HW220016   3.723   4.360   0.930  0.6935 -0.4056  0.0110
 2852SOL     OW20017   3.680   1.578   2.245  0.4536 -0.1543  0.3894
 2852SOL    HW120018   3.729   1.547   2.169  1.3360  0.7324  0.6016
 2852SOL    HW220019   3.746   1.603   2.309  1.6886 -1.9528 -0.1730
 2853SOL     OW20020   1.271   2.635   8.397  0.2085  0.4735  0.1782
 2853SOL    HW120021   1.333   2.684   8.451 -2.5495  2.6102  1.4476
 2853SOL    HW220022   1.197   2.632   8.458 -1.3980 -1.1813 -1.8656
 2854SOL     OW20023   2.219   3.737   3.963 -0.0084  0.2236 -0.3029
 2854SOL    HW120024   2.145   3.756   3.905  0.9876  1.5533 -1.1062
 2854SOL    HW220025   2.205   3.804   4.030 -1.1917 -0.7618  0.4456
 2855SOL     OW20026   0.082   2.197   0.304  0.1283 -0.1010  0.1372
 2855SOL    HW120027   0.166   2.219   0.342  0.4097  1.2941 -1.2930
 2855SOL    HW220028   0.113   2.217   0.215  2.1292 -1.3652  0.5522
 2856SOL     OW20029   0.287   1.213   4.522  0.5183  0.0554  0.4970
 2856SOL    HW120030   0.308   1.306   4.514  1.4133 -0.1822  0.0001
 2856SOL    HW220031   0.356   1.193   4.586 -0.7978  0.4287  2.0189
 2857SOL     OW20032   2.534   0.067   8.782 -0.5562 -0.7121 -0.0783
 2857SOL    HW120033   2.475   0.053   8.708  2.0265 -1.3102 -2.0372
 2857SOL    HW220034   2.515   0.159   8.797 -0.4927 -0.5859 -0.7983
 2858SOL     OW20035   3.963   3.619  16.887  0.1603  0.0927 -0.6168
 2858SOL    HW120036   3.950   3.559  16.814 -1.6270 -1.5320  1.0654
 2858SOL    HW220037   3.902   3.591  16.954 -1.3048  0.2879 -1.8805
 2859SOL     OW20038   3.640   0.416   7.383 -0.2723 -0.5850  0.1827
 2859SOL    HW120039   3.681   0.498   7.357  1.4631 -1.7496 -0.8225
 2859SOL    HW220040   3.605   0.377   7.304 -2.7899 -1.2097  1.6205
 2860SOL     OW20041   4.252   4.568  11.643  0.1692  0.3233  0.4070
 2860SOL    HW120042   4.270   4.592  11.552 -2.0000  0.1422 -0.0545
 2860SOL    HW220043   4.226   4.649  11.687 -2.2091  0.3922 -1.1343
 2861SOL     OW20044   2.534   3.686   7.789  0.0481  0.0892 -0.4871
 2861SOL    HW120045   2.466   3.635   7.834  2.0110 -0.7516  1.5032
 2861SOL    HW220046   2.532   3.654   7.699  0.1533 -2.0029  0.2641
 2862SOL     OW20047   2.827   3.941   2.000 -0.0902  0.2240 -0.0414
 2862SOL    HW120048   2.904   3.979   2.041  0.3676 -1.8671  1.0383
 2862SOL    HW220049   2.867   3.855   2.012  0.7450  0.6928  0.5086
 2863SOL     OW20050   1.527   4.098   9.938 -0.1061 -0.2296  0.1004
 2863SOL    HW120051   1.455   4.045   9.902 -0.1700 -0.7830  1.0262
 2863SOL    HW220052   1.601   4.082   9.880  1.1167  0.7105  1.4227
 2864SOL     OW20053   2.362   4.164   6.026  0.0892 -0.0336  0.0038
 2864SOL    HW120054   2.446   4.123   6.047  0.1255 -0.2647 -0.5973
 2864SOL    HW220055   2.326   4.124   5.947 -2.8725 -0.1321  1.3856
 2865SOL     OW20056   1.923   2.765  17.609  0.0740 -0.0482 -0.0711
 2865SOL    HW120057   1.909   2.729  17.697  1.2972 -0.5244 -0.0699
 2865SOL    HW220058   1.956   2.852  17.630  1.2349  0.3694 -3.6426
 2866SOL     OW20059   0.936   4.259  15.899  0.2559 -0.8553 -0.4279
 2866SOL    HW120060   0.852   4.299  15.877  2.1576  2.1984 -2.2257
 2866SOL    HW220061   0.971   4.340  15.938 -0.8429 -0.0822 -1.0522
 2867SOL     OW20062   1.707   3.560  16.714 -0.3394  0.1198 -0.0591
 2867SOL    HW120063   1.770   3.629  16.690  3.6961 -2.9570  1.6902
 2867SOL    HW220064   1.629   3.592  16.669 -1.1299  2.5021  3.0297
 2868SOL     OW20065   0.711   3.292   0.018  0.3628  0.5925  0.1316
 2868SOL    HW120066   0.782   3.232  17.697  0.8053  0.0801  3.1225
 2868SOL    HW220067   0.701   3.275   0.112  0.2200  0.5506  0.1097
 2869SOL     OW20068   3.469   1.110   4.583 -0.3887  0.1604 -0.0633
 2869SOL    HW120069   3.497   1.018   4.586  1.7021  0.7032 -3.2650
 2869SOL    HW220070   3.489   1.133   4.673  1.6044 -0.9257 -0.2230
 2870SOL     OW20071   4.256   2.603   2.921 -0.2420 -0.0938  0.0752
 2870SOL    HW120072   4.229   2.680   2.972  2.7730  1.4584 -0.6612
 2870SOL    HW220073   4.172   2.557   2.918  1.0505 -2.4083 -0.2325
 2871SOL     OW20074   1.065   3.138   5.847  0.1734  0.4831  0.0688
 2871SOL    HW120075   1.025   3.169   5.928 -1.9221 -0.1887 -0.7072
 2871SOL    HW220076   1.156   3.166   5.862 -0.1413 -0.2239  3.2223
 2872SOL     OW20077   2.679   0.593   8.262 -0.0512  0.2844 -0.3018
 2872SOL    HW120078   2.622   0.636   8.326 -0.9782 -0.6712 -0.4719
 2872SOL    HW220079   2.678   0.653   8.188  2.0490  2.2415  1.2450
 2873SOL     OW20080   0.417   4.346   7.215 -0.3693 -0.2545  1.0928
 2873SOL    HW120081   0.485   4.359   7.149 -1.5544 -0.0940 -0.0824
 2873SOL    HW220082   0.406   4.433   7.253  0.2010  0.3924 -0.2168
 2874SOL     OW20083   1.024   3.263   2.279 -0.9701  0.0580  0.0871
 2874SOL    HW120084   1.058   3.215   2.354  1.7818  2.3599  0.2897
 2874SOL    HW220085   0.974   3.194   2.235  0.4811 -1.1037  0.2566
 2875SOL     OW20086   4.609   3.135   5.647  0.3974  0.4812  0.3656
 2875SOL    HW120087   4.564   3.213   5.680  1.1403  0.6774  0.9025
 2875SOL    HW220088   4.637   3.093   5.728  0.2304  2.8437  1.6500
 2876SOL     OW20089   3.076   3.886  15.069  0.5014 -0.3794 -0.4147
 2876SOL    HW120090   3.134   3.868  14.995  0.5632 -0.2004 -0.4103
 2876SOL    HW220091   2.993   3.904  15.025  1.4332 -0.5447 -2.2545
 2877SOL     OW20092   3.173   2.437   6.577 -0.2884 -0.0824  0.1511
 2877SOL    HW120093   3.185   2.346   6.604  0.6215 -0.5054 -1.6708
 2877SOL    HW220094   3.117   2.466   6.650  0.6941  3.4762 -0.5041
 2878SOL     OW20095   4.294   0.509   9.476  0.6614 -0.5687  0.0566
 2878SOL    HW120096   4.200   0.490   9.470  0.7618 -1.1280  0.2223
 2878SOL    HW220097   4.323   0.432   9.427 -0.3682 -0.4138 -0.7989
 2879SOL     OW20098   1.797   1.480   9.046  0.3097 -0.2068  0.3455
 2879SOL    HW120099   1.788   1.388   9.022  0.3853 -0.4855  1.3563
 2879SOL    HW220100   1.888   1.497   9.024  0.5909  0.8277  2.2383
 2880SOL     OW20101   2.773   3.204   5.192 -0.0230 -0.4288 -0.4027
 2880SOL    HW120102   2.810   3.126   5.150 -0.1446 -0.8764  0.3320
 2880SOL    HW220103   2.844   3.229   5.251 -1.2630 -0.1368  0.9575
 2881SOL     OW20104   1.774   0.432   2.319  0.2995  0.0668 -0.4804
 2881SOL    HW120105   1.708   0.412   2.386  0.2283  0.4321 -0.4400
 2881SOL    HW220106   1.843   0.448   2.383 -1.3487  0.7214  1.1456
 2882SOL     OW20107   1.683   2.370   9.274 -0.2087 -0.1263 -0.0221
 2882SOL    HW120108   1.706   2.292   9.223  0.6186  1.1949 -1.6626
 2882SOL    HW220109   1.757   2.380   9.333 -1.3201 -0.2206  1.3790
 2883SOL     OW20110   2.682   2.227   3.569 -0.0198 -0.3302 -0.5665
 2883SOL    HW120111   2.670   2.154   3.630 -0.1117  1.6940  1.8384
 2883SOL    HW220112   2.636   2.293   3.620 -0.1154 -0.8040 -0.0422
 2884SOL     OW20113   1.203   0.137   6.486  0.4288 -0.0245 -0.1116
 2884SOL    HW120114   1.121   0.119   6.533 -0.0794  0.0353 -0.9741
 2884SOL    HW220115   1.169   0.147   6.397 -2.5692 -0.1090  0.9959
 2885SOL     OW20116   0.193   4.229  15.232  0.4326 -0.0336 -0.3743
 2885SOL    HW120117   0.213   4.138  15.256 -0.1537  1.0219  4.0917
 2885SOL    HW220118   0.239   4.276  15.302 -0.2123  0.5680 -0.3585
 2886SOL     OW20119   2.051   2.603   1.923  0.3079  0.4966  0.4661
 2886SOL    HW120120   2.095   2.556   1.852 -2.7334 -0.8139 -0.5334
 2886SOL    HW220121   1.999   2.529   1.954  2.1134 -0.6529  0.7527
 2887SOL     OW20122   3.762   4.517   0.957  0.1502 -0.2049 -0.0058
 2887SOL    HW120123   3.810   4.577   0.900  0.1474 -0.9182 -0.7696
 2887SOL    HW220124   3.681   4.566   0.970  0.4848 -0.2236  2.0482
 2888SOL     OW20125   3.885   3.621   2.622  0.5112 -0.1352  0.1406
 2888SOL    HW120126   3.945   3.600   2.694 -0.0471 -3.6422 -0.4287
 2888SOL    HW220127   3.866   3.535   2.585  0.1276 -0.3337  0.8073
 2889SOL     OW20128   1.585   0.657  11.071 -0.3380  0.0423 -0.0312
 2889SOL    HW120129   1.615   0.707  10.995 -2.3566 -0.6093 -1.2744
 2889SOL    HW220130   1.552   0.734  11.120  0.5446 -0.7872  1.8698
 2890SOL     OW20131   0.541   2.337   7.886 -0.1419  0.0337 -0.2369
 2890SOL    HW120132   0.479   2.270   7.856 -1.4268  1.6525 -1.2038
 2890SOL    HW220133   0.530   2.340   7.982  2.2646 -0.7918  0.0570
 2891SOL     OW20134   0.491   2.180  11.051 -0.0049 -0.1430 -0.1722
 2891SOL    HW120135   0.550   2.249  11.019 -0.3713 -0.6647 -1.9749
 2891SOL    HW220136   0.465   2.141  10.967  1.2375 -0.1240 -0.5645
 2892SOL     OW20137   3.163   2.719   7.821  0.2444  0.0593 -0.1829
 2892SOL    HW120138   3.068   2.714   7.807  0.5332 -1.9979 -1.4456
 2892SOL    HW220139   3.160   2.716   7.916  0.8134 -0.5901 -0.1812
 2893SOL     OW20140   3.853   1.980  17.474  0.4420 -0.0320  0.4683
 2893SOL    HW120141   3.936   2.021  17.449 -0.6989  1.6596 -0.4842
 2893SOL    HW220142   3.863   1.966  17.569 -0.7761  1.3989  0.8049
 2894SOL     OW20143   3.656   0.048   0.939 -0.4304 -0.2701 -0.0517
 2894SOL    HW120144   3.732   0.100   0.965 -0.2155  0.2825 -1.7473
 2894SOL    HW220145   3.639   0.089   0.854  0.3165  1.0307  0.4265
 2895SOL     OW20146   1.571   2.381  16.712 -0.7379 -0.4680  0.1793
 2895SOL    HW120147   1.592   2.304  16.659  0.4755  0.4779 -0.7289
 2895SOL    HW220148   1.592   2.352  16.801 -0.4725 -2.6795 -0.6053
 2896SOL     OW20149   1.350   1.819   5.547  0.0371  0.2791  0.1108
 2896SOL    HW120150   1.286   1.784   5.609  0.0832  1.6412  0.9237
 2896SOL    HW220151   1.420   1.850   5.606  0.4401  0.0282 -0.2382
 2897SOL     OW20152   4.692   2.311  15.362  0.0544  0.7478 -0.2416
 2897SOL    HW120153   4.692   2.266  15.446  0.1829 -0.4162 -0.8600
 2897SOL    HW220154   4.716   2.400  15.385  2.2440 -0.1449  0.8649
 2898SOL     OW20155   0.653   2.918   6.625  0.4482  0.5775  0.0419
 2898SOL    HW120156   0.731   2.961   6.661  1.0334 -0.0530 -0.4862
 2898SOL    HW220157   0.604   3.000   6.628 -1.0176 -0.3265  0.7549
 2899SOL     OW20158   1.653   4.072   2.550  0.3654  0.4303 -0.0706
 2899SOL    HW120159   1.681   4.161   2.528  0.4652  0.2482 -0.6654
 2899SOL    HW220160   1.638   4.028   2.467  1.5564 -2.1867  1.0830
 2900SOL     OW20161   2.268   2.351  12.718  0.5510  0.0043  0.1882
 2900SOL    HW120162   2.353   2.317  12.746  0.2071 -0.0678  1.1554
 2900SOL    HW220163   2.279   2.340  12.624 -1.3020 -0.0449 -0.0261
 2901SOL     OW20164   3.444   2.169   4.491  0.6522  0.8388  0.2789
 2901SOL    HW120165   3.353   2.141   4.475  0.8614 -0.2020  0.9228
 2901SOL    HW220166   3.472   2.214   4.411 -1.0489  0.7355 -0.3803
 2902SOL     OW20167   1.840   3.895  17.027  0.0413 -0.0394  0.4555
 2902SOL    HW120168   1.851   3.967  16.965  1.8922 -1.1451 -0.4824
 2902SOL    HW220169   1.897   3.826  16.994  2.1432  1.7645  0.2621
 2903SOL     OW20170   2.807   1.016   7.838 -0.2547 -0.1133 -0.6316
 2903SOL    HW120171   2.884   1.048   7.790 -0.5931  0.5937 -0.6980
 2903SOL    HW220172   2.768   1.098   7.869 -2.9884 -0.5969 -2.9204
 2904SOL     OW20173   0.509   0.024   6.419  0.1347  0.6478  0.5436
 2904SOL    HW120174   0.470   4.685   6.480  0.0519  2.4559  2.3987
 2904SOL    HW220175   0.602   0.017   6.440  0.0227  0.7690  1.0779
 2905SOL     OW20176   1.782   0.758   4.836 -0.1640  1.0513  0.3272
 2905SOL    HW120177   1.733   0.836   4.810  0.4739  0.7679 -1.6966
 2905SOL    HW220178   1.780   0.753   4.932  3.0639 -3.6875  0.1391
 2906SOL     OW20179   1.719   3.389  12.243 -0.2346  0.0920 -0.8254
 2906SOL    HW120180   1.663   3.337  12.185  0.4475  0.4842 -1.8517
 2906SOL    HW220181   1.695   3.344  12.324  0.7084 -3.5733 -2.5988
 2907SOL     OW20182   3.415   3.203  16.891 -0.0899  0.3910 -0.0570
 2907SOL    HW120183   3.499   3.196  16.935  0.4104 -0.0044 -1.0734
 2907SOL    HW220184   3.367   3.121  16.903  2.3015 -0.6713  1.9426
 2908SOL     OW20185   1.405   4.324  13.118 -0.3803  0.2265 -0.3247
 2908SOL    HW120186   1.450   4.386  13.060 -0.3511  0.9733  0.5098
 2908SOL    HW220187   1.317   4.341  13.083 -0.1622 -0.6198 -1.2938
 2909SOL     OW20188   3.821   3.327  12.999 -0.1342  0.2732  0.0900
 2909SOL    HW120189   3.840   3.238  12.969  1.7561  0.9079 -0.6181
 2909SOL    HW220190   3.888   3.335  13.067  2.4607 -0.4866 -2.4030
 2910SOL     OW20191   2.776   0.811  17.084  0.6179  0.5556  0.5360
 2910SOL    HW120192   2.844   0.786  17.021 -2.9112 -0.7525 -2.7899
 2910SOL    HW220193   2.803   0.767  17.165 -0.9510  0.9146  1.2588
 2911SOL     OW20194   0.928   2.103  10.300  0.1219  0.5582 -0.0345
 2911SOL    HW120195   0.889   2.149  10.374 -0.0151  2.6534 -1.3947
 2911SOL    HW220196   0.925   2.177  10.239 -1.0031  0.3807 -0.1966
 2912SOL     OW20197   2.588   1.154   2.838 -0.3096  0.4501 -0.4147
 2912SOL    HW120198   2.495   1.135   2.830  0.3786 -2.0553 -2.5490
 2912SOL    HW220199   2.607   1.177   2.747  0.6956 -0.0509 -0.3285
 2913SOL     OW20200   2.699   0.243  11.223  0.5137  0.7513 -0.2526
 2913SOL    HW120201   2.680   0.335  11.241 -0.4296  0.5303 -0.1326
 2913SOL    HW220202   2.793   0.231  11.239  0.5599  1.2116 -0.1546
 2914SOL     OW20203   3.257   1.006   0.459 -0.0756  0.2413 -0.2060
 2914SOL    HW120204   3.274   0.923   0.414  0.5305  0.3403 -0.1609
 2914SOL    HW220205   3.304   1.070   0.406  0.5454 -0.7440 -0.8615
 2915SOL     OW20206   3.619   1.615  16.716  0.3041  0.2399 -0.1441
 2915SOL    HW120207   3.612   1.641  16.624 -0.7139 -1.6785 -0.6139
 2915SOL    HW220208   3.563   1.671  16.770 -0.1390 -0.1900 -0.1598
 2916SOL     OW20209   0.793   3.422   6.829 -0.8371  0.5577 -0.5224
 2916SOL    HW120210   0.777   3.516   6.819  0.4828  0.7915 -0.4878
 2916SOL    HW220211   0.854   3.417   6.755  0.1160 -0.9251  0.3535
 2917SOL     OW20212   0.165   0.463   2.736  0.1165 -0.0360 -0.2172
 2917SOL    HW120213   0.127   0.529   2.794  1.7595 -0.1454  0.9975
 2917SOL    HW220214   0.216   0.412   2.799  1.0904 -0.8894 -1.7023
 2918SOL     OW20215   0.309   4.724   5.001  0.1521  0.0553  0.4241
 2918SOL    HW120216   0.231   0.026   4.952 -0.9954 -4.0440  0.0782
 2918SOL    HW220217   0.349   0.084   5.021  2.3785 -0.1934 -2.8805
 2919SOL     OW20218   3.309   2.475   1.016 -0.3255  0.1179 -0.1840
 2919SOL    HW120219   3.252   2.403   0.987 -1.1149 -0.1467  1.9840
 2919SOL    HW220220   3.386   2.428   1.047  0.7932  1.5241 -0.8737
 2920SOL     OW20221   1.933   3.350  16.734 -0.0865 -0.8060 -0.3117
 2920SOL    HW120222   1.891   3.430  16.702 -0.9735 -1.0323  0.2829
 2920SOL    HW220223   1.957   3.316  16.648  2.1954 -0.8449  0.3517
 2921SOL     OW20224   3.624   2.688   8.439 -0.4940 -0.1306  0.0055
 2921SOL    HW120225   3.544   2.657   8.397 -0.4951 -1.8207  1.2255
 2921SOL    HW220226   3.672   2.696   8.357 -1.2466 -0.8345 -0.4985
 2922SOL     OW20227   1.623   2.058  14.291 -0.3937  0.3836  0.2362
 2922SOL    HW120228   1.577   2.020  14.366 -1.1238  0.1149 -0.3578
 2922SOL    HW220229   1.572   2.017  14.222  0.2673  0.5023 -0.3199
 2923SOL     OW20230   3.397   1.860   2.392 -0.5054 -0.1973  0.2024
 2923SOL    HW120231   3.425   1.918   2.463  0.5077 -0.3142 -0.1015
 2923SOL    HW220232   3.428   1.774   2.421 -0.1880  0.0678  0.6657
 2924SOL     OW20233   2.007   1.645   4.926  0.0988 -0.2986 -1.0102
 2924SOL    HW120234   1.982   1.579   4.861  0.6532  0.0761 -1.6059
 2924SOL    HW220235   1.971   1.723   4.884 -0.4450 -0.1325 -0.2215
 2925SOL     OW20236   2.736   2.191   8.742 -1.0380  0.7593 -0.3760
 2925SOL    HW120237   2.676   2.117   8.731  0.0006 -0.2293  0.6729
 2925SOL    HW220238   2.770   2.178   8.831  1.1086  0.6121 -1.2242
 2926SOL     OW20239   3.012   2.888   8.073 -0.0868  0.1144  0.1761
 2926SOL    HW120240   3.062   2.969   8.066 -1.8342  1.1085 -0.6536
 2926SOL    HW220241   2.925   2.927   8.066  0.4713  0.9470 -1.8657
 2927SOL     OW20242   2.933   2.587   2.789  0.1201 -0.2528 -0.0996
 2927SOL    HW120243   2.909   2.579   2.882 -1.2591 -0.2675 -0.4572
 2927SOL    HW220244   3.014   2.637   2.800 -1.3592  1.8964  1.1915
 2928SOL     OW20245   3.106   1.049   8.629  0.3318  0.1459  0.3617
 2928SOL    HW120246   3.084   0.957   8.613 -0.8656  0.5921 -0.4876
 2928SOL    HW220247   3.197   1.035   8.605  0.2604  0.4679 -0.0865
 2929SOL     OW20248   3.372   2.184   9.195 -0.1645 -0.3213  0.6242
 2929SOL    HW120249   3.326   2.187   9.279 -0.4606 -1.4458  0.5054
 2929SOL    HW220250   3.449   2.238   9.212 -0.0216 -1.5819  3.9771
 2930SOL     OW20251   3.238   2.375   7.764  0.0862  0.0354  0.9406
 2930SOL    HW120252   3.262   2.433   7.836  2.5490 -0.1359  0.2487
 2930SOL    HW220253   3.302   2.408   7.701 -0.7903  2.1209  1.1715
 2931SOL     OW20254   1.044   0.919   5.198  0.5292  0.2562 -0.2328
 2931SOL    HW120255   1.126   0.928   5.149  0.8659 -0.2246  0.2350
 2931SOL    HW220256   1.070   0.949   5.286 -2.2272  1.8939  0.0290
 2932SOL     OW20257   2.521   4.464  12.805 -0.1175 -0.4118 -0.1188
 2932SOL    HW120258   2.553   4.499  12.722  1.9240  0.0782  0.8639
 2932SOL    HW220259   2.466   4.392  12.774 -0.0235 -0.3926 -0.3343
 2933SOL     OW20260   2.159   0.728   3.857  0.4635 -0.0458 -0.0901
 2933SOL    HW120261   2.179   0.793   3.924 -0.5773 -2.2080  2.3562
 2933SOL    HW220262   2.246   0.706   3.824  0.7323 -1.7932  1.7656
 2934SOL     OW20263   0.705   4.180   5.792 -0.4284 -0.2916 -0.1048
 2934SOL    HW120264   0.732   4.115   5.857 -0.4046  2.5213  2.6798
 2934SOL    HW220265   0.745   4.257   5.833 -0.6541 -0.2983  0.1310
 2935SOL     OW20266   4.617   0.793   5.928  0.0561 -0.0480 -0.3495
 2935SOL    HW120267   4.621   0.846   5.848  0.3450 -2.0093 -1.6370
 2935SOL    HW220268   4.583   0.713   5.889 -2.1454  0.2098  1.0166
 2936SOL     OW20269   0.133   1.213   3.733  0.7429  0.5441  0.1764
 2936SOL    HW120270   0.145   1.298   3.691 -1.0248  1.0313  0.6480
 2936SOL    HW220271   0.221   1.201   3.768  0.9974  0.9801 -0.3003
 2937SOL     OW20272   2.871   4.049   3.758  0.2466 -0.1998 -0.2313
 2937SOL    HW120273   2.864   4.095   3.674 -0.0137 -2.9829 -1.7097
 2937SOL    HW220274   2.795   3.996   3.734  0.1114  0.4121 -1.1721
 2938SOL     OW20275   2.471   1.530   9.170 -0.2242 -0.0915  0.0660
 2938SOL    HW120276   2.528   1.577   9.232 -0.0494 -1.6908  1.1129
 2938SOL    HW220277   2.436   1.602   9.117  1.0467  0.6470  0.2247
 2939SOL     OW20278   0.175   4.145   7.987 -0.2688  0.8283  0.1285
 2939SOL    HW120279   0.151   4.059   8.021  2.3242  0.1734  0.2582
 2939SOL    HW220280   0.132   4.146   7.901 -0.8634  1.2813  0.4269
 2940SOL     OW20281   0.714   2.318   8.183  0.0594  0.1756 -0.2824
 2940SOL    HW120282   0.680   2.406   8.169  1.9557  1.0492  0.6406
 2940SOL    HW220283   0.760   2.296   8.102  0.5409 -2.3857  0.6767
 2941SOL     OW20284   2.827   3.958  16.782 -1.0507  0.4630  0.3566
 2941SOL    HW120285   2.793   3.950  16.871 -0.5272  1.6882  0.6638
 2941SOL    HW220286   2.819   4.052  16.769  0.5151  0.1094 -3.0964
 2942SOL     OW20287   1.198   1.467   2.542  0.7335 -0.1826  0.3932
 2942SOL    HW120288   1.180   1.450   2.450 -3.5072  0.6687  1.0654
 2942SOL    HW220289   1.142   1.407   2.592 -1.7094  0.7048 -1.2415
 2943SOL     OW20290   0.227   4.083   4.915 -0.6334  0.1456  0.7122
 2943SOL    HW120291   0.151   4.129   4.950 -1.0780 -0.6232  0.7638
 2943SOL    HW220292   0.286   4.156   4.897 -1.5764  0.4267 -1.3100
 2944SOL     OW20293   3.043   0.269  10.904  0.0045  0.5332  0.3202
 2944SOL    HW120294   3.107   0.231  10.842 -1.1589  1.7389 -1.6137
 2944SOL    HW220295   2.979   0.199  10.918  1.7218 -0.2546  4.3037
 2945SOL     OW20296   2.896   3.041   7.248  0.0441 -0.2502  0.2093
 2945SOL    HW120297   2.906   3.018   7.341  0.6300  0.5334  0.3360
 2945SOL    HW220298   2.841   3.118   7.238 -0.8462 -1.1419 -1.8094
 2946SOL     OW20299   1.654   1.271   5.381 -0.5953  0.2003 -0.9384
 2946SOL    HW120300   1.593   1.311   5.319 -0.4669 -0.3737 -1.4375
 2946SOL    HW220301   1.596   1.241   5.451 -1.9229  0.7058 -1.8353
 2947SOL     OW20302   0.611   4.239   1.271  0.1365  0.2906  0.6002
 2947SOL    HW120303   0.543   4.273   1.329  0.4089  1.0322  0.4848
 2947SOL    HW220304   0.560   4.253   1.191 -0.7904 -2.0550  0.7764
 2948SOL     OW20305   0.158   4.030   1.999  0.2026  0.0136 -0.2958
 2948SOL    HW120306   0.215   4.083   2.055  0.1326 -1.5518  1.2482
 2948SOL    HW220307   0.085   4.032   2.062  0.7879 -1.4860  0.4286
 2949SOL     OW20308   2.771   3.016   1.191  0.2604  0.5039 -0.3344
 2949SOL    HW120309   2.788   3.096   1.141 -0.4424  1.0232  0.2616
 2949SOL    HW220310   2.782   2.955   1.118  2.9218  0.8049 -0.2021
 2950SOL     OW20311   3.470   1.414   8.870 -0.0265 -0.0201 -0.4061
 2950SOL    HW120312   3.455   1.506   8.890 -1.7232 -0.1736 -0.9262
 2950SOL    HW220313   3.540   1.378   8.924  0.5513  1.9489  0.1641
 2951SOL     OW20314   2.996   3.664  15.288  0.6447 -0.1856  0.3049
 2951SOL    HW120315   3.056   3.590  15.279  1.7623  0.5765  1.2678
 2951SOL    HW220316   2.958   3.669  15.201 -0.1270  1.1470  0.7109
 2952SOL     OW20317   3.941   2.770   2.336  0.1232 -0.0068 -0.4045
 2952SOL    HW120318   4.032   2.763   2.308 -0.3287  0.7823 -2.0539
 2952SOL    HW220319   3.896   2.718   2.270  0.2977  0.3042 -0.7685
 2953SOL     OW20320   0.334   4.222   1.708  0.2969 -0.5002  0.0015
 2953SOL    HW120321   0.247   4.253   1.732  1.0979 -1.6840  4.4127
 2953SOL    HW220322   0.339   4.142   1.760 -0.6794  0.6461  1.8281
 2954SOL     OW20323   1.078   2.326   2.353  0.2600  0.3873 -0.3088
 2954SOL    HW120324   1.046   2.260   2.415 -2.1222  1.8085 -0.0056
 2954SOL    HW220325   1.139   2.379   2.403 -1.9956  1.6736  1.0978
 2955SOL     OW20326   2.602   3.517   5.707  0.4404 -0.1610  0.5406
 2955SOL    HW120327   2.630   3.606   5.685 -0.8207  0.2005  0.3950
 2955SOL    HW220328   2.509   3.535   5.690  0.4617 -1.2054 -0.6484
 2956SOL     OW20329   1.086   3.928  16.286  0.9514 -0.0035  0.3302
 2956SOL    HW120330   0.993   3.949  16.280  0.4277 -2.3600  0.2564
 2956SOL    HW220331   1.078   3.837  16.314  2.3166 -1.5493 -4.3349
 2957SOL     OW20332   1.605   1.103   4.810 -0.4006 -0.0726 -0.0351
 2957SOL    HW120333   1.552   1.067   4.739 -0.1156 -1.1752  0.3187
 2957SOL    HW220334   1.536   1.162   4.841  0.0973  0.7199 -0.4218
 2958SOL     OW20335   2.567   1.286   2.591 -0.3743  0.2504  0.4709
 2958SOL    HW120336   2.587   1.379   2.600  2.8205 -0.3928  0.2113
 2958SOL    HW220337   2.513   1.282   2.512  1.0505  1.6172 -0.5506
 2959SOL     OW20338   3.532   3.822  15.043  0.5721 -0.3743 -0.1909
 2959SOL    HW120339   3.584   3.745  15.069  0.9559  0.7013  2.2739
 2959SOL    HW220340   3.543   3.809  14.949  0.2085 -2.7796  0.0964
 2960SOL     OW20341   1.782   1.532   1.943 -0.0277  0.0029 -0.4386
 2960SOL    HW120342   1.723   1.565   1.875  0.2502  2.0466  0.3182
 2960SOL    HW220343   1.829   1.614   1.961  1.4292 -0.7336 -0.9581
 2961SOL     OW20344   0.217   0.483   3.504 -0.9606  0.1830 -0.2060
 2961SOL    HW120345   0.303   0.523   3.514  0.5274 -2.8188 -0.9709
 2961SOL    HW220346   0.183   0.522   3.585  1.2250 -2.4713  1.9998
 2962SOL     OW20347   1.062   3.425   2.803 -0.2513 -0.1125  0.1993
 2962SOL    HW120348   1.101   3.361   2.862 -0.1326 -1.1419 -0.9846
 2962SOL    HW220349   1.084   3.391   2.716 -0.4340 -0.2593  0.2091
 2963SOL     OW20350   3.867   0.127   9.672  0.5662 -0.0464 -0.1545
 2963SOL    HW120351   3.902   0.199   9.724  1.2147 -0.0329 -0.6079
 2963SOL    HW220352   3.775   0.151   9.666 -0.4592 -3.9393  0.0559
 2964SOL     OW20353   1.304   1.119  13.003 -0.1388 -0.0774 -0.3628
 2964SOL    HW120354   1.228   1.096  13.056  0.9117 -0.3372  1.0297
 2964SOL    HW220355   1.368   1.050  13.023  1.7128  2.0361  0.9136
 2965SOL     OW20356   1.588   3.027   2.997 -0.1257  0.7933 -0.0046
 2965SOL    HW120357   1.603   3.031   3.092 -0.8481 -3.0576  0.2694
 2965SOL    HW220358   1.590   3.119   2.974  0.8910  0.2540 -2.0271
 2966SOL     OW20359   2.240   3.422  16.427  1.3536  0.3625  0.2749
 2966SOL    HW120360   2.163   3.370  16.449  0.7915  0.5454 -1.2465
 2966SOL    HW220361   2.225   3.425  16.332 -2.9334 -4.5323  0.7746
 2967SOL     OW20362   0.267   0.895   1.468 -0.5661  0.3036  0.1095
 2967SOL    HW120363   0.181   0.931   1.444 -1.9610 -1.9595  1.6638
 2967SOL    HW220364   0.247   0.802   1.469 -0.1952  0.2331  0.6396
 2968SOL     OW20365   0.020   0.096   4.041  0.5858  0.4665  0.9878
 2968SOL    HW120366   0.115   0.099   4.030  0.4995  2.0975  0.6630
 2968SOL    HW220367   4.716   0.050   3.963  1.8970 -1.1465  1.4474
 2969SOL     OW20368   2.172   3.359   6.159 -0.5640  0.3721  0.3664
 2969SOL    HW120369   2.135   3.361   6.071  2.0545 -1.1763 -0.7820
 2969SOL    HW220370   2.149   3.276   6.200 -0.7875  0.1680 -0.1815
 2970SOL     OW20371   2.638   4.261  11.423 -0.3456 -0.5721  0.4013
 2970SOL    HW120372   2.689   4.304  11.355 -1.1235 -1.4852 -0.7416
 2970SOL    HW220373   2.584   4.333  11.456  0.4983  0.6808 -0.9713
 2971SOL     OW20374   2.607   1.170   5.117  0.0304 -0.3807 -0.4895
 2971SOL    HW120375   2.532   1.141   5.065 -1.3084  1.0425  0.6665
 2971SOL    HW220376   2.635   1.245   5.066 -1.3646  0.9794  0.7551
 2972SOL     OW20377   0.809   1.506   9.850 -0.1274 -0.3133  0.7283
 2972SOL    HW120378   0.796   1.597   9.877  1.9151  0.8060 -2.0677
 2972SOL    HW220379   0.895   1.517   9.810 -0.2495  1.0580  0.8569
 2973SOL     OW20380   0.936   4.424   4.589  0.2317  0.2527  0.1863
 2973SOL    HW120381   0.870   4.492   4.588  0.0737  0.1103  1.3528
 2973SOL    HW220382   1.019   4.470   4.601 -0.2515  1.1227  0.1608
 2974SOL     OW20383   3.010   1.425   4.551 -0.2678 -0.1423  0.2158
 2974SOL    HW120384   2.963   1.464   4.477  3.8727  1.6230 -1.4277
 2974SOL    HW220385   3.074   1.370   4.507  0.7490  0.9100  0.3873
 2975SOL     OW20386   0.217   4.567  12.887  0.0686 -0.1612  0.5816
 2975SOL    HW120387   0.307   4.572  12.918  0.2138 -1.0269  0.3173
 2975SOL    HW220388   0.163   4.612  12.952  0.5766 -1.5329  1.9628
 2976SOL     OW20389   1.528   0.393   5.028  0.2058  0.4309  0.9821
 2976SOL    HW120390   1.451   0.445   5.050  0.0959  0.8110 -0.3073
 2976SOL    HW220391   1.530   0.320   5.090  2.1037  1.1794  1.8020
 2977SOL     OW20392   0.292   4.342   2.254  0.3343 -0.3374  0.1345
 2977SOL    HW120393   0.322   4.267   2.203  0.2234  0.4079 -1.0333
 2977SOL    HW220394   0.358   4.349   2.323  0.3174 -1.8318  0.2963
 2978SOL     OW20395   3.128   4.387   9.629 -0.2404  0.0711 -0.4706
 2978SOL    HW120396   3.094   4.300   9.654 -0.4738  0.4426  0.5262
 2978SOL    HW220397   3.146   4.387   9.535 -1.1872  0.4872 -0.6568
 2979SOL     OW20398   1.164   0.292   4.134 -0.6254  0.0637 -0.8676
 2979SOL    HW120399   1.233   0.250   4.081  2.0425  1.6894  1.3326
 2979SOL    HW220400   1.202   0.281   4.221  0.6018  3.1366 -1.0153
 2980SOL     OW20401   0.488   2.506   1.488 -0.0797 -0.5066 -0.1567
 2980SOL    HW120402   0.457   2.448   1.419 -0.6032  0.1607 -0.4909
 2980SOL    HW220403   0.570   2.461   1.507  0.6483 -0.0608 -2.2339
 2981SOL     OW20404   2.107   3.714   4.770  0.7599  0.3370 -0.3545
 2981SOL    HW120405   2.012   3.721   4.776  0.8169  0.7183  0.1874
 2981SOL    HW220406   2.142   3.645   4.827  0.2629  0.4347  0.0710
 2982SOL     OW20407   1.279   0.510   0.760  0.7541 -0.3327 -0.4383
 2982SOL    HW120408   1.312   0.454   0.830 -0.3155  0.2784  0.5596
 2982SOL    HW220409   1.220   0.452   0.713 -1.4706  0.8610  0.9147
 2983SOL     OW20410   3.068   0.076   4.254 -0.0517 -0.1477  0.2344
 2983SOL    HW120411   3.045   0.168   4.242 -2.1841 -0.7971 -0.5790
 2983SOL    HW220412   3.050   0.068   4.348  1.7414  0.3097  0.6157
 2984SOL     OW20413   2.947   3.116   3.327  0.3236 -0.2475  0.1725
 2984SOL    HW120414   2.930   3.035   3.374 -1.1986 -0.5390 -0.8763
 2984SOL    HW220415   2.915   3.182   3.388  0.8552 -1.7314  2.0399
 2985SOL     OW20416   0.992   1.667  12.237 -0.4028 -0.2176 -0.3449
 2985SOL    HW120417   1.047   1.666  12.315  0.2575  1.1723 -0.7944
 2985SOL    HW220418   0.990   1.574  12.213 -0.6059 -0.2288 -0.2806
 2986SOL     OW20419   2.225   2.193   2.843  0.1402 -0.1606  0.3425
 2986SOL    HW120420   2.133   2.167   2.843  0.1603 -0.2380 -1.5805
 2986SOL    HW220421   2.227   2.271   2.788  0.3852  0.0787  0.6906
 2987SOL     OW20422   1.678   2.968  13.021 -0.3038  0.1162  0.0215
 2987SOL    HW120423   1.756   2.928  13.059 -2.1583 -2.1680  1.4615
 2987SOL    HW220424   1.701   3.061  13.019  1.1037 -0.2993 -2.1841
 2988SOL     OW20425   0.584   2.482   3.119  0.5536  0.3833  0.1716
 2988SOL    HW120426   0.553   2.523   3.200 -0.5803 -0.6650  0.2692
 2988SOL    HW220427   0.499   2.447   3.093  1.9975 -1.5506 -1.9050
 2989SOL     OW20428   0.691   1.470  16.033 -0.5496  0.7143  0.3167
 2989SOL    HW120429   0.721   1.387  15.994 -1.0455  0.6739  0.0151
 2989SOL    HW220430   0.775   1.500  16.069  1.1512 -4.0016  0.2957
 2990SOL     OW20431   3.372   2.251   4.114  0.0617 -0.9255 -0.5877
 2990SOL    HW120432   3.457   2.236   4.156 -0.7062 -0.5437  1.0807
 2990SOL    HW220433   3.380   2.335   4.069  2.1001  0.0582  1.5782
 2991SOL     OW20434   1.745   1.408   7.266  0.4243  0.4477  0.3705
 2991SOL    HW120435   1.814   1.349   7.234 -1.3176 -0.5279 -1.5494
 2991SOL    HW220436   1.773   1.478   7.207  0.3173  0.5432  0.4357
 2992SOL     OW20437   0.753   3.909   4.539 -0.0517  0.1422 -0.3234
 2992SOL    HW120438   0.690   3.932   4.607  1.1209 -0.8946  1.0939
 2992SOL    HW220439   0.809   3.986   4.534 -0.5461  0.5885  1.1964
 2993SOL     OW20440   4.254   0.694   9.143  0.1933  0.4683  0.5506
 2993SOL    HW120441   4.190   0.684   9.214 -1.2117 -0.4961 -0.8427
 2993SOL    HW220442   4.337   0.688   9.190  0.7419  0.5487 -0.4199
 2994SOL     OW20443   1.883   0.241   5.889  0.1188 -0.3194  0.0778
 2994SOL    HW120444   1.847   0.207   5.807 -1.2009 -1.1816  1.0229
 2994SOL    HW220445   1.800   0.250   5.936  0.5852 -2.0003  1.2155
 2995SOL     OW20446   2.386   0.698   3.434  0.3224 -0.3617 -0.1568
 2995SOL    HW120447   2.390   0.616   3.484  1.9335 -0.9245 -1.2059
 2995SOL    HW220448   2.479   0.715   3.417  0.5620 -0.8170  0.6882
 2996SOL     OW20449   3.780   2.918   0.375  0.0455 -0.0275  0.1797
 2996SOL    HW120450   3.737   2.841   0.414 -0.9748  0.7048  0.5017
 2996SOL    HW220451   3.704   2.962   0.337  1.4761  1.7822 -0.5661
 2997SOL     OW20452   0.609   0.536   1.436 -0.1354 -0.5223 -0.7647
 2997SOL    HW120453   0.587   0.629   1.431 -0.7762 -0.5733  1.0641
 2997SOL    HW220454   0.683   0.530   1.497 -1.9377 -0.2076  1.4039
 2998SOL     OW20455   3.636   1.688   4.100  0.5320 -0.7994  0.3800
 2998SOL    HW120456   3.731   1.683   4.089  0.3892 -0.8419 -0.8330
 2998SOL    HW220457   3.642   1.654   4.189  1.0241  3.2614  1.8961
 2999SOL     OW20458   2.212   0.566   1.756 -0.6384 -0.3531  0.1195
 2999SOL    HW120459   2.248   0.484   1.788  0.1598 -0.0265  0.0789
 2999SOL    HW220460   2.126   0.534   1.731 -0.2370 -1.1660 -0.2223
 3000SOL     OW20461   3.984   3.284   6.712 -0.2343 -0.3386  0.8585
 3000SOL    HW120462   4.016   3.267   6.623  0.6571 -0.7601  1.2580
 3000SOL    HW220463   4.023   3.370   6.723  0.1122 -0.5265  1.1071
 3001SOL     OW20464   0.036   1.066   4.585 -0.0226 -0.6914  0.6400
 3001SOL    HW120465   0.101   1.133   4.565 -2.4357  0.6265 -2.6298
 3001SOL    HW220466   4.677   1.110   4.600 -1.0582 -2.7331  0.9784
 3002SOL     OW20467   0.814   1.838   5.747  0.0498 -0.6196 -0.7376
 3002SOL    HW120468   0.767   1.908   5.700  1.4644 -0.6078 -2.1254
 3002SOL    HW220469   0.740   1.797   5.792  1.8607 -2.0821  0.8849
 3003SOL     OW20470   0.311   2.154   7.120 -0.0929 -0.0242 -0.2500
 3003SOL    HW120471   0.386   2.097   7.134 -0.3128 -0.6260 -1.4989
 3003SOL    HW220472   0.312   2.172   7.026  2.1759 -1.5692 -0.5234
 3004SOL     OW20473   4.038   1.141   2.055 -0.8513 -0.4487 -1.0734
 3004SOL    HW120474   3.946   1.131   2.029 -0.5916 -2.2604 -1.3257
 3004SOL    HW220475   4.030   1.218   2.111  2.9044 -2.1761  1.7529
 3005SOL     OW20476   4.125   2.153   2.548 -0.6312  0.1898  0.2774
 3005SOL    HW120477   4.154   2.164   2.457 -0.9600 -0.1112  0.1384
 3005SOL    HW220478   4.210   2.157   2.591 -1.7835 -1.5983  2.6790
 3006SOL     OW20479   4.001   1.841   0.287  0.1387  0.0290 -0.4026
 3006SOL    HW120480   4.096   1.837   0.300 -0.2647  0.1808  2.6115
 3006SOL    HW220481   3.986   1.936   0.292  0.5119  0.0100  0.9646
 3007SOL     OW20482   1.979   1.466   8.338 -0.1894  0.1461  0.3997
 3007SOL    HW120483   1.884   1.461   8.346 -0.3091 -1.6923 -2.1240
 3007SOL    HW220484   1.998   1.374   8.319 -0.9239 -0.2401  1.5604
 3008SOL     OW20485   2.748   1.079   8.142  0.4850  0.2645 -0.1486
 3008SOL    HW120486   2.804   1.101   8.217  0.9192  1.1294 -0.7249
 3008SOL    HW220487   2.711   1.164   8.119 -0.0796 -0.1888 -0.9057
 3009SOL     OW20488   0.037   3.811   2.328  0.2958  0.4919  0.0778
 3009SOL    HW120489   0.065   3.756   2.401  0.0811 -1.3607 -1.2502
 3009SOL    HW220490   4.709   3.748   2.279  1.2771 -1.7223  1.8637
 3010SOL     OW20491   1.849   3.347   7.013  0.2691 -0.0456 -0.3541
 3010SOL    HW120492   1.839   3.441   6.995 -0.8473 -0.4357 -1.7609
 3010SOL    HW220493   1.942   3.339   6.989 -0.0374 -2.0613 -0.8074
 3011SOL     OW20494   3.914   3.375   3.074  0.6109 -0.5825  0.0166
 3011SOL    HW120495   3.850   3.430   3.121  1.5642  0.1823  0.4281
 3011SOL    HW220496   3.984   3.441   3.077 -0.6095  0.6894  0.4425
 3012SOL     OW20497   2.900   2.546   7.622  0.0076 -0.1005 -0.4118
 3012SOL    HW120498   2.869   2.475   7.678 -0.3624  0.1226 -0.3343
 3012SOL    HW220499   2.978   2.571   7.672 -0.1400  0.4396 -0.4419
 3013SOL     OW20500   4.634   0.517  16.870 -0.0861 -0.4295  0.0845
 3013SOL    HW120501   4.570   0.558  16.927 -0.9658 -0.5177 -0.8464
 3013SOL    HW220502   4.631   0.568  16.789 -0.1330  0.1429  0.4489
 3014SOL     OW20503   0.140   3.545   6.590 -0.4215 -0.5337  0.0244
 3014SOL    HW120504   0.096   3.611   6.536  0.0230  1.6014  2.2745
 3014SOL    HW220505   0.069   3.503   6.639 -0.1514 -1.3748 -0.3075
 3015SOL     OW20506   3.008   4.379   6.671 -0.1581  0.0822  0.3196
 3015SOL    HW120507   2.981   4.451   6.727  0.3660  0.7884 -0.3358
 3015SOL    HW220508   3.091   4.357   6.714  0.5450  1.5912 -0.2660
 3016SOL     OW20509   4.617   4.404  16.990 -0.1014 -0.0439  0.0360
 3016SOL    HW120510   4.620   4.496  16.966  1.0820 -0.2063 -0.4329
 3016SOL    HW220511   4.537   4.384  16.942 -0.6002 -0.5663  1.0629
 3017SOL     OW20512   1.998   2.865   2.040 -0.0745  0.5408 -0.1886
 3017SOL    HW120513   2.047   2.881   2.121 -1.4111  2.9235  0.1301
 3017SOL    HW220514   2.023   2.775   2.018  0.6689  0.3884  1.2821
 3018SOL     OW20515   0.830   4.641   7.680  0.0420  0.5210  0.0232
 3018SOL    HW120516   0.871   4.676   7.759  0.2879  1.2726 -0.4319
 3018SOL    HW220517   0.793   4.559   7.712  1.8008  0.3040  1.4725
 3019SOL     OW20518   0.611   4.404   8.115  0.3229  0.0368 -0.0244
 3019SOL    HW120519   0.557   4.482   8.120 -0.1577 -0.3917  1.4041
 3019SOL    HW220520   0.551   4.332   8.135 -0.8501  0.5903 -1.5807
 3020SOL     OW20521   2.557   3.238   2.474  0.4276  0.5162 -0.3462
 3020SOL    HW120522   2.558   3.239   2.570  0.3343  1.3453 -0.3493
 3020SOL    HW220523   2.560   3.330   2.447  0.2787 -0.0161 -2.1639
 3021SOL     OW20524   0.518   2.615   8.728  0.4760  0.6091 -0.0571
 3021SOL    HW120525   0.571   2.665   8.789 -1.0110  1.3402  0.6163
 3021SOL    HW220526   0.565   2.533   8.710 -0.0537  0.8739 -2.7096
 3022SOL     OW20527   2.817   4.598   8.548 -0.3393  0.0955  0.2958
 3022SOL    HW120528   2.875   4.620   8.475 -2.0448  0.6130 -0.8878
 3022SOL    HW220529   2.752   4.668   8.551 -2.3154 -1.6835 -0.7557
 3023SOL     OW20530   2.755   2.005   5.387  0.3459 -0.0638  0.6515
 3023SOL    HW120531   2.698   2.067   5.340  1.5112  1.0621  0.7165
 3023SOL    HW220532   2.830   1.997   5.327 -0.3286 -0.2419 -0.1765
 3024SOL     OW20533   1.079   0.404   3.083  0.4311  0.0764  0.3513
 3024SOL    HW120534   1.080   0.411   2.988  2.0217 -0.6402  0.3147
 3024SOL    HW220535   1.032   0.322   3.096  1.7574 -0.9923 -1.7144
 3025SOL     OW20536   0.040   1.212  12.220  0.2583 -0.2390  0.1941
 3025SOL    HW120537   0.112   1.251  12.171 -0.3359  0.7516  0.0950
 3025SOL    HW220538   0.063   1.231  12.312  3.0998  3.0490 -1.1899
 3026SOL     OW20539   0.784   2.325   6.652 -0.0364  0.0825  0.0906
 3026SOL    HW120540   0.747   2.386   6.715  1.2091  1.2852 -0.3572
 3026SOL    HW220541   0.823   2.258   6.707  0.0692 -1.0372 -1.3269
 3027SOL     OW20542   3.597   2.209   4.286 -0.2031 -0.4620  0.2722
 3027SOL    HW120543   3.654   2.286   4.282 -0.1792 -0.5878 -1.7080
 3027SOL    HW220544   3.658   2.141   4.259  0.2740  0.7829 -1.7876
 3028SOL     OW20545   2.956   1.095   3.338 -0.3834 -0.0789  0.0398
 3028SOL    HW120546   3.018   1.103   3.411 -1.4870  0.7392  0.8911
 3028SOL    HW220547   3.005   1.040   3.278  0.0588 -0.6862  0.9471
 3029SOL     OW20548   1.685   0.009  12.699 -0.7203  0.0274  0.2407
 3029SOL    HW120549   1.711   4.664  12.759  0.6811  1.7960  1.6604
 3029SOL    HW220550   1.643   4.678  12.633 -2.3838  3.3639 -1.5119
 3030SOL     OW20551   1.803   0.367   4.167  0.0022 -0.3639  0.0602
 3030SOL    HW120552   1.736   0.366   4.098  1.1567  1.3194 -1.0648
 3030SOL    HW220553   1.880   0.336   4.119 -0.6558 -2.7681  0.5586
 3031SOL     OW20554   1.339   4.582   3.914  0.3420 -0.2999 -0.0771
 3031SOL    HW120555   1.360   4.613   4.002 -1.5963  0.6300  0.0622
 3031SOL    HW220556   1.375   4.635   3.843  3.1519 -0.1064  1.5067
 3032SOL     OW20557   0.789   3.453   7.125 -0.2643 -0.3857  0.2421
 3032SOL    HW120558   0.847   3.528   7.142 -0.9444 -0.9260  5.0668
 3032SOL    HW220559   0.803   3.444   7.031  1.5735  0.0521  0.4661
 3033SOL     OW20560   2.350   2.591   7.198  0.2770  0.5224 -0.5945
 3033SOL    HW120561   2.343   2.670   7.252  0.5864 -0.6778  1.2282
 3033SOL    HW220562   2.424   2.615   7.142 -0.4721  0.6619 -1.5106
 3034SOL     OW20563   0.624   0.736   3.920 -0.1765 -0.8351 -0.0972
 3034SOL    HW120564   0.674   0.673   3.867  1.7756  2.2627 -1.9538
 3034SOL    HW220565   0.696   0.782   3.963 -0.7482 -0.7468  0.7607
 3035SOL     OW20566   0.606   2.988  12.176  0.3390 -0.0112  0.3252
 3035SOL    HW120567   0.569   2.924  12.114  0.8330  0.1126 -0.0953
 3035SOL    HW220568   0.657   2.938  12.239 -0.4500  1.9385  2.4949
 3036SOL     OW20569   1.337   3.496   1.692  0.0880  0.1123 -0.4417
 3036SOL    HW120570   1.246   3.525   1.699 -0.3903 -1.7800  1.3129
 3036SOL    HW220571   1.346   3.463   1.781  1.4465 -0.4763 -0.8004
 3037SOL     OW20572   4.408   4.285   3.495 -0.2434  0.1559  0.1312
 3037SOL    HW120573   4.477   4.317   3.552  0.7084 -1.4971 -0.1089
 3037SOL    HW220574   4.446   4.210   3.450 -1.0015 -0.2591  0.1805
 3038SOL     OW20575   3.702   2.678   2.998  1.0438  0.1235 -0.7846
 3038SOL    HW120576   3.628   2.619   3.017  1.3253  0.5585  1.6426
 3038SOL    HW220577   3.768   2.615   3.027 -0.3210  0.1334  2.3520
 3039SOL     OW20578   0.514   1.240   3.405 -0.0809  0.7070  0.6278
 3039SOL    HW120579   0.576   1.219   3.335  0.6925  0.1193  1.5041
 3039SOL    HW220580   0.545   1.324   3.439  1.1046  0.2730  0.6004
 3040SOL     OW20581   0.914   1.523   4.554  0.2244  0.3094  0.2030
 3040SOL    HW120582   0.945   1.601   4.507  4.3308 -1.6542 -0.3723
 3040SOL    HW220583   0.992   1.469   4.547 -0.0935 -0.1239  0.0049
 3041SOL     OW20584   2.984   1.818   7.760  0.1957 -0.2930  0.4346
 3041SOL    HW120585   2.908   1.862   7.798 -0.4096 -1.4433  0.5516
 3041SOL    HW220586   3.049   1.887   7.773 -1.3847  1.3838 -0.7225
 3042SOL     OW20587   3.654   2.110   3.866  0.4268  0.3681  0.1459
 3042SOL    HW120588   3.601   2.034   3.891  1.2574 -0.4189 -0.4473
 3042SOL    HW220589   3.623   2.127   3.776 -2.9937 -1.5713  0.9435
 3043SOL     OW20590   1.135   4.246   6.747  0.5773  0.0717 -0.4601
 3043SOL    HW120591   1.202   4.215   6.687  2.0022  2.4632 -0.0790
 3043SOL    HW220592   1.183   4.299   6.810  2.8058 -0.2823 -1.8459
 3044SOL     OW20593   0.253   3.214  13.786  0.2836  0.4271  0.7103
 3044SOL    HW120594   0.291   3.154  13.850  2.3096  0.0543 -0.8340
 3044SOL    HW220595   0.161   3.212  13.812  0.3197 -1.2667  0.6984
 3045SOL     OW20596   4.134   0.775  17.212 -0.1187 -0.2089 -0.0977
 3045SOL    HW120597   4.120   0.837  17.140  1.3602  1.1057  0.7284
 3045SOL    HW220598   4.098   0.826  17.284  1.1589  2.1688 -1.1157
 3046SOL     OW20599   1.098   1.085  13.559 -0.0831 -0.1301 -0.1874
 3046SOL    HW120600   1.105   1.062  13.652 -0.0591  0.5442 -0.0251
 3046SOL    HW220601   1.098   1.005  13.507  1.0324  0.7617 -1.5416
 3047SOL     OW20602   2.235   2.130   3.474  0.0510 -0.2920  0.2116
 3047SOL    HW120603   2.273   2.060   3.528 -1.9193  1.0872  3.4364
 3047SOL    HW220604   2.170   2.083   3.421  0.4466 -1.2386  0.5667
 3048SOL     OW20605   0.976   1.405   2.757  0.0530 -0.5943 -0.1461
 3048SOL    HW120606   0.963   1.495   2.784  0.1933 -0.0770 -1.8078
 3048SOL    HW220607   0.889   1.371   2.780 -0.5160  0.8252 -0.1887
 3049SOL     OW20608   1.735   4.437  13.605  0.1136  0.1764 -0.3586
 3049SOL    HW120609   1.735   4.515  13.660 -0.4957  1.2607 -1.8915
 3049SOL    HW220610   1.642   4.427  13.583 -0.0287 -1.6722  1.1050
 3050SOL     OW20611   3.567   2.333  10.121 -0.0796 -0.3424 -0.5490
 3050SOL    HW120612   3.482   2.355  10.157  0.1681  1.8960 -1.3189
 3050SOL    HW220613   3.563   2.389  10.043 -0.2761  1.0715  0.4864
 3051SOL     OW20614   1.381   1.128  17.456  0.2869 -0.2022 -0.1259
 3051SOL    HW120615   1.412   1.193  17.519 -2.2405  0.0313  0.8607
 3051SOL    HW220616   1.324   1.070  17.506  1.4186  0.4121  1.8736
 3052SOL     OW20617   4.132   2.655   0.276 -0.2099  0.1911 -0.0668
 3052SOL    HW120618   4.191   2.582   0.298  1.1982  1.3846  0.0941
 3052SOL    HW220619   4.153   2.702   0.356 -2.1989  0.3990  0.3447
 3053SOL     OW20620   4.692   0.250   6.283 -0.3581 -0.8683 -0.2827
 3053SOL    HW120621   0.013   0.276   6.203 -2.0465  1.3173 -0.5488
 3053SOL    HW220622   4.657   0.331   6.319 -0.4209 -1.4849  1.0163
 3054SOL     OW20623   0.597   3.669   9.001  0.2273  0.5434  0.3307
 3054SOL    HW120624   0.551   3.599   9.047  0.4050 -1.5711 -2.7473
 3054SOL    HW220625   0.521   3.701   8.953  0.3823  2.8355  1.5924
 3055SOL     OW20626   4.504   3.927  16.594 -0.3794 -0.3294 -0.4112
 3055SOL    HW120627   4.490   3.902  16.503 -4.7377  0.8674 -0.0308
 3055SOL    HW220628   4.599   3.912  16.600  0.0607  1.6841 -2.4980
 3056SOL     OW20629   3.403   3.325  11.452  0.4373  0.1786 -0.1609
 3056SOL    HW120630   3.448   3.241  11.461  0.4070  0.3773  1.7592
 3056SOL    HW220631   3.335   3.311  11.518  0.4836  1.3897  0.1449
 3057SOL     OW20632   2.884   2.652   0.779  0.4823  0.1416  0.0723
 3057SOL    HW120633   2.977   2.637   0.763  0.9283  1.7298  1.1178
 3057SOL    HW220634   2.865   2.583   0.843 -1.2785 -0.4420 -1.0993
 3058SOL     OW20635   1.994   1.866   7.272  0.0256  0.2903 -0.5101
 3058SOL    HW120636   2.037   1.793   7.316 -2.6729  0.5224  2.5387
 3058SOL    HW220637   1.975   1.831   7.185  1.2474 -2.0491  0.1829
 3059SOL     OW20638   4.094   0.185   0.632 -0.1378 -0.1500 -0.2585
 3059SOL    HW120639   4.122   0.105   0.677  0.9357  0.4246  0.1089
 3059SOL    HW220640   4.155   0.250   0.669 -0.5060 -0.8391  1.5638
 3060SOL     OW20641   1.140   3.060   6.364  0.1337  0.3883  0.2302
 3060SOL    HW120642   1.122   3.132   6.304  0.7199 -1.4294 -2.1020
 3060SOL    HW220643   1.055   3.043   6.406  0.7226 -0.7565  0.9731
 3061SOL     OW20644   4.528   2.708   2.267 -0.5473  0.3493  0.2301
 3061SOL    HW120645   4.509   2.623   2.227 -0.7608 -0.1817  1.4839
 3061SOL    HW220646   4.607   2.723   2.214 -1.0800 -0.4024 -0.7647
 3062SOL     OW20647   0.630   4.434   7.434  0.3186 -0.5293  0.2648
 3062SOL    HW120648   0.621   4.529   7.420 -0.5208 -0.5187  0.9007
 3062SOL    HW220649   0.598   4.416   7.522  1.6518 -1.5381  0.5466
 3063SOL     OW20650   4.097   0.426   1.030 -0.1171 -0.2049  0.5492
 3063SOL    HW120651   4.190   0.432   1.008  0.2825  0.2350  2.3569
 3063SOL    HW220652   4.059   0.478   0.959  2.0299  0.2602 -0.2886
 3064SOL     OW20653   2.480   1.873   6.023  0.3534 -0.1615  0.2021
 3064SOL    HW120654   2.559   1.819   6.035  1.0697  0.0835 -3.4760
 3064SOL    HW220655   2.419   1.815   6.069 -0.3332  0.4573  0.0693
 3065SOL     OW20656   0.090   3.582   4.546 -0.0474  0.0325  0.1741
 3065SOL    HW120657   0.037   3.522   4.495  2.2202 -1.3213 -0.5992
 3065SOL    HW220658   0.022   3.628   4.595 -0.6003 -1.6185  0.9389
 3066SOL     OW20659   2.700   3.400   8.264  0.3667  0.3206  0.4236
 3066SOL    HW120660   2.768   3.464   8.287 -0.5120  0.1443  3.5180
 3066SOL    HW220661   2.685   3.415   8.171  0.7820 -2.4787 -0.0826
 3067SOL     OW20662   3.899   0.959   8.211  0.2434 -0.3735  0.3420
 3067SOL    HW120663   3.961   0.985   8.280  1.1902 -0.5535 -0.4463
 3067SOL    HW220664   3.895   0.864   8.221  1.2156 -0.4831 -0.2541
 3068SOL     OW20665   3.926   0.506  14.771 -0.1120  0.3094  0.1149
 3068SOL    HW120666   3.871   0.523  14.694 -0.0800  0.3116  0.0925
 3068SOL    HW220667   3.971   0.590  14.771 -2.5025  1.5751 -0.4557
 3069SOL     OW20668   0.711   0.485   0.953 -0.2021  0.3230  0.1171
 3069SOL    HW120669   0.766   0.522   0.883 -1.5602  3.3366  0.6285
 3069SOL    HW220670   0.691   0.401   0.911 -2.9900  0.8084  0.4339
 3070SOL     OW20671   4.190   1.873   2.726  0.8112 -0.4817  0.2442
 3070SOL    HW120672   4.210   1.960   2.692 -3.3790  0.6404  0.6351
 3070SOL    HW220673   4.146   1.837   2.649  0.6347 -0.0783  0.1530
 3071SOL     OW20674   4.589   1.189   6.863  0.3894 -0.8328 -0.0942
 3071SOL    HW120675   4.680   1.173   6.837  0.5434 -0.5322  0.2524
 3071SOL    HW220676   4.578   1.115   6.922  1.1072  1.2520  2.6994
 3072SOL     OW20677   2.462   0.691   5.229  0.2379 -0.3140  0.0363
 3072SOL    HW120678   2.411   0.657   5.303 -0.1104  1.0525  0.4256
 3072SOL    HW220679   2.531   0.625   5.228  2.3627  1.9414 -2.6295
 3073SOL     OW20680   4.537   2.431  10.835  0.3091 -0.7335 -0.0650
 3073SOL    HW120681   4.574   2.343  10.828  0.3282 -0.6821 -0.5977
 3073SOL    HW220682   4.556   2.444  10.928 -0.4673  1.1286 -0.1630
 3074SOL     OW20683   4.143   3.919   0.378  0.0021  0.2261 -0.3610
 3074SOL    HW120684   4.122   4.010   0.358 -1.1842  0.1574  0.5588
 3074SOL    HW220685   4.064   3.898   0.427  2.2035  1.7415  3.8022
 3075SOL     OW20686   0.120   2.655   1.523 -0.4534  0.2401 -0.2324
 3075SOL    HW120687   0.033   2.625   1.499 -0.8079  3.0113 -2.3579
 3075SOL    HW220688   0.153   2.695   1.442 -1.6099  0.4142 -0.6136
 3076SOL     OW20689   1.143   0.041  10.456 -0.2970 -0.5111 -0.5015
 3076SOL    HW120690   1.168   0.126  10.492  0.1540 -1.0357  0.4256
 3076SOL    HW220691   1.052   0.066  10.436 -0.1775 -0.3154 -0.8066
 3077SOL     OW20692   1.849   1.508   4.027  0.0968  0.2901 -0.3214
 3077SOL    HW120693   1.942   1.489   4.032 -0.3269 -1.6821  0.2926
 3077SOL    HW220694   1.829   1.478   4.116 -0.3608  0.3501 -0.3998
 3078SOL     OW20695   2.210   3.765   3.273 -0.7769  0.2067  0.7987
 3078SOL    HW120696   2.122   3.750   3.307 -1.6741 -1.3546 -2.1302
 3078SOL    HW220697   2.198   3.794   3.182  1.0601 -1.3219  0.0781
 3079SOL     OW20698   4.504   1.423   5.094 -0.0214  0.0775  0.5828
 3079SOL    HW120699   4.544   1.498   5.049 -0.9041 -0.3239 -0.8598
 3079SOL    HW220700   4.506   1.366   5.018 -1.8904  0.3187  0.3538
 3080SOL     OW20701   4.525   1.406   1.645  0.1301 -0.1878  0.0475
 3080SOL    HW120702   4.573   1.481   1.608  0.5545 -0.1891  0.6061
 3080SOL    HW220703   4.435   1.436   1.652  0.0759  0.0897 -1.8599
 3081SOL     OW20704   1.928   4.417   6.405  0.3312  0.1513  0.6779
 3081SOL    HW120705   1.976   4.405   6.487 -0.7564 -2.3221  0.9465
 3081SOL    HW220706   1.926   4.512   6.391 -0.2938  0.0516  0.0697
 3082SOL     OW20707   2.988   0.107   4.510  0.4173 -0.7586 -0.3181
 3082SOL    HW120708   3.003   0.167   4.583  1.4057 -0.4938 -0.7301
 3082SOL    HW220709   2.918   0.049   4.540 -0.2543 -0.2224 -0.8418
 3083SOL     OW20710   3.135   1.166  14.769 -0.2725 -0.3210 -0.7364
 3083SOL    HW120711   3.138   1.229  14.841 -0.0847 -0.1907 -0.8593
 3083SOL    HW220712   3.043   1.174  14.742 -0.4406 -0.7190 -0.2777
 3084SOL     OW20713   1.452   0.061   0.340 -0.0625 -0.0312  0.3973
 3084SOL    HW120714   1.545   0.079   0.329 -0.1691  0.3331  0.1026
 3084SOL    HW220715   1.443   0.028   0.429 -2.6326  0.2368  0.2429
 3085SOL     OW20716   3.531   1.156  17.589  0.4483 -0.5326  0.5464
 3085SOL    HW120717   3.459   1.212  17.615  0.2725 -0.4114 -0.2050
 3085SOL    HW220718   3.482   1.114  17.518 -1.1854  1.3931  0.5443
 3086SOL     OW20719   3.385   0.707  16.571 -0.4940  0.2224  0.4432
 3086SOL    HW120720   3.351   0.762  16.641 -0.6357  0.5762  0.0897
 3086SOL    HW220721   3.393   0.768  16.499 -0.3804  0.3029  0.5233
 3087SOL     OW20722   4.260   1.440   8.213 -0.1885  0.1090  0.0877
 3087SOL    HW120723   4.173   1.479   8.226 -0.1629  0.7059 -1.6218
 3087SOL    HW220724   4.243   1.347   8.199 -0.3057  0.3370 -1.2467
 3088SOL     OW20725   4.174   0.829   7.785 -0.3699 -0.5872 -0.3709
 3088SOL    HW120726   4.180   0.881   7.865  0.6339 -1.4630  0.1257
 3088SOL    HW220727   4.267   0.807   7.780 -0.5413 -1.9296  2.1612
 3089SOL     OW20728   2.749   2.320  15.616  0.4665  0.0126 -0.3356
 3089SOL    HW120729   2.792   2.359  15.541 -2.1138 -0.0066 -1.8211
 3089SOL    HW220730   2.783   2.367  15.692  2.0045  0.8048 -1.5303
 3090SOL     OW20731   0.020   4.383  13.467  0.3988 -0.4359  0.1634
 3090SOL    HW120732   4.714   4.329  13.393 -3.5606  2.0662 -0.0328
 3090SOL    HW220733   4.660   4.422  13.491 -0.6845 -2.5069 -0.2192
 3091SOL     OW20734   2.058   1.254   4.939  0.6378  0.1935 -0.3383
 3091SOL    HW120735   1.983   1.222   4.888 -0.1742 -3.5700  3.2546
 3091SOL    HW220736   2.129   1.199   4.905  0.3610 -0.1360 -0.3832
 3092SOL     OW20737   1.162   3.379  16.857  0.0328 -0.4435  0.7967
 3092SOL    HW120738   1.119   3.293  16.853  0.1035 -0.5754  2.7756
 3092SOL    HW220739   1.250   3.368  16.821  0.4223 -1.8462  2.1567
 3093SOL     OW20740   4.135   3.981   3.364  0.5078  0.0061  0.3744
 3093SOL    HW120741   4.147   3.989   3.458 -2.3914  2.0486  0.5697
 3093SOL    HW220742   4.099   4.067   3.342 -0.9731 -0.5582  0.6275
 3094SOL     OW20743   0.795   0.395   3.880 -0.1790  0.2949  0.0733
 3094SOL    HW120744   0.790   0.489   3.863  1.1338  0.0230 -1.8546
 3094SOL    HW220745   0.839   0.393   3.965 -0.8469  1.9076  0.4468
 3095SOL     OW20746   3.105   0.969  16.144 -0.1411  0.7986  0.2511
 3095SOL    HW120747   3.153   0.961  16.061 -0.3192  0.6610  0.1640
 3095SOL    HW220748   3.080   0.880  16.166 -2.1874  0.9538 -1.4217
 3096SOL     OW20749   4.565   3.949   5.448 -0.4029 -0.3162 -0.2655
 3096SOL    HW120750   4.555   3.855   5.430 -0.2568 -0.0748 -1.6196
 3096SOL    HW220751   4.518   3.955   5.531 -1.4791 -0.6406 -0.8596
 3097SOL     OW20752   4.554   0.432   6.839  0.5072  0.0076  0.4612
 3097SOL    HW120753   4.549   0.342   6.805 -0.3142 -0.3513  1.5346
 3097SOL    HW220754   4.534   0.416   6.931  2.6100  0.8007  1.0530
 3098SOL     OW20755   1.404   1.989  17.440 -0.3804 -0.3259  0.4271
 3098SOL    HW120756   1.436   2.052  17.376  0.6640 -0.3672  0.9102
 3098SOL    HW220757   1.418   2.043  17.517 -1.1669 -1.8776  1.6450
 3099SOL     OW20758   3.864   0.603   6.089 -0.1364 -0.4633  0.1235
 3099SOL    HW120759   3.941   0.631   6.039  0.6986  0.2052  1.7858
 3099SOL    HW220760   3.910   0.588   6.172 -1.3615 -1.9339  0.5266
 3100SOL     OW20761   4.718   4.075   2.213  0.1435 -0.1175 -0.0489
 3100SOL    HW120762   0.022   4.014   2.281 -2.1030 -0.6390  0.4280
 3100SOL    HW220763   4.627   4.098   2.234 -0.5111 -1.0472 -1.8517
 3101SOL     OW20764   4.277   2.122   3.066  0.2280 -0.0789 -0.2773
 3101SOL    HW120765   4.322   2.053   3.018  0.0883 -0.4567  0.1343
 3101SOL    HW220766   4.339   2.154   3.132 -3.0787  1.1561  2.2218
 3102SOL     OW20767   1.256   3.807   8.671 -0.2438 -0.5138  0.3593
 3102SOL    HW120768   1.201   3.736   8.702  0.3917 -0.5345  1.4367
 3102SOL    HW220769   1.318   3.752   8.623  0.3506 -0.3251  0.9077
 3103SOL     OW20770   4.418   4.665   5.231  0.1534 -0.3109  0.4861
 3103SOL    HW120771   4.357   4.594   5.245  1.3067 -0.6231  3.8845
 3103SOL    HW220772   4.468   4.629   5.157  0.0550  2.3447 -0.9016
 3104SOL     OW20773   0.556   3.123  13.400  0.2937  0.4598 -0.0712
 3104SOL    HW120774   0.560   3.177  13.479  1.7324  2.7376 -1.6927
 3104SOL    HW220775   0.641   3.079  13.402  0.3231  0.4958 -0.4626
 3105SOL     OW20776   2.099   2.128   4.878  0.2087  0.0254 -0.2656
 3105SOL    HW120777   2.006   2.145   4.890  0.3853 -0.3031  1.6098
 3105SOL    HW220778   2.113   2.179   4.799  3.2177 -0.2468  0.0949
 3106SOL     OW20779   0.798   3.655   4.698  0.9096 -0.3185 -0.6374
 3106SOL    HW120780   0.781   3.739   4.740 -0.6049 -1.9351  2.0493
 3106SOL    HW220781   0.719   3.603   4.718  1.9785 -1.5108  0.4840
 3107SOL     OW20782   3.768   1.665   6.133 -0.0284 -0.1166 -1.0287
 3107SOL    HW120783   3.786   1.724   6.206 -0.7543 -1.9748  0.6469
 3107SOL    HW220784   3.745   1.579   6.168 -0.7501  0.3145 -0.4374
 3108SOL     OW20785   3.644   2.740   4.896 -0.5970 -0.0492 -0.0607
 3108SOL    HW120786   3.556   2.708   4.875 -0.9479  0.9918 -0.2151
 3108SOL    HW220787   3.665   2.715   4.986  0.5897 -1.4465 -0.7241
 3109SOL     OW20788   4.481   4.312   1.638  0.2945  0.0106 -0.5959
 3109SOL    HW120789   4.574   4.286   1.638  0.0462 -0.8484 -2.0518
 3109SOL    HW220790   4.442   4.239   1.591 -0.8394  0.3723 -0.1967
 3110SOL     OW20791   0.574   2.186   4.520  0.0860 -0.2470  0.2334
 3110SOL    HW120792   0.663   2.206   4.548 -0.0993  0.1863  0.5030
 3110SOL    HW220793   0.558   2.251   4.452 -0.8313 -0.0112  0.6718
 3111SOL     OW20794   0.309   4.275   8.440  0.0611  0.6551 -0.0872
 3111SOL    HW120795   0.250   4.201   8.447  0.1141  0.7239  1.0560
 3111SOL    HW220796   0.256   4.340   8.486  2.0248  0.8654  1.8784
 3112SOL     OW20797   1.777   3.760   5.507  0.1691  0.6123  0.3996
 3112SOL    HW120798   1.703   3.755   5.446  1.4925  0.1236 -1.1536
 3112SOL    HW220799   1.735   3.723   5.584  1.5963 -1.7279  0.0579
 3113SOL     OW20800   1.364   2.339   6.229  0.4681  0.1991 -0.3707
 3113SOL    HW120801   1.420   2.266   6.254  1.1111  1.2528  1.2527
 3113SOL    HW220802   1.327   2.312   6.145  0.2571 -1.6869  0.3282
 3114SOL     OW20803   1.983   3.201   2.814 -0.3578  0.2031 -0.4936
 3114SOL    HW120804   2.064   3.251   2.809  0.5332 -1.2384 -0.6139
 3114SOL    HW220805   1.921   3.258   2.771 -0.7522 -0.9208 -1.4212
 3115SOL     OW20806   4.192   4.192   4.574 -0.2452 -0.2490 -0.1003
 3115SOL    HW120807   4.210   4.113   4.522 -1.7795 -2.1423  2.2533
 3115SOL    HW220808   4.149   4.156   4.651  0.1069 -1.6488 -0.5528
 3116SOL     OW20809   3.686   2.909   4.106  0.2641 -0.1937  0.2462
 3116SOL    HW120810   3.766   2.864   4.077 -0.4127  0.5904 -2.8582
 3116SOL    HW220811   3.629   2.886   4.033 -1.3196 -3.5487  2.5815
 3117SOL     OW20812   4.353   0.291   4.552 -0.5300 -0.0745  0.4499
 3117SOL    HW120813   4.292   0.290   4.479  0.6790 -0.0219 -0.5731
 3117SOL    HW220814   4.341   0.385   4.565 -0.3559 -0.1891  1.4363
 3118SOL     OW20815   1.035   2.371   3.034  0.1290  0.1517  0.1967
 3118SOL    HW120816   0.943   2.357   3.054  0.3232  1.7561  2.2249
 3118SOL    HW220817   1.051   2.324   2.952 -0.8720  0.7041 -0.3182
 3119SOL     OW20818   0.456   4.173  10.909 -0.0443  0.3499 -0.4831
 3119SOL    HW120819   0.549   4.153  10.903  0.0374  0.7048 -0.4228
 3119SOL    HW220820   0.427   4.119  10.982  2.7724 -0.5684 -0.0666
 3120SOL     OW20821   3.783   4.466   5.569 -0.0331  0.4070 -0.2052
 3120SOL    HW120822   3.730   4.492   5.645 -2.6913 -2.3474 -1.0921
 3120SOL    HW220823   3.758   4.545   5.520  2.6993  1.6013  0.3260
 3121SOL     OW20824   0.389   0.588   5.944 -0.7092 -0.0900 -0.0347
 3121SOL    HW120825   0.383   0.595   5.849 -3.8518  0.3871  0.1724
 3121SOL    HW220826   0.440   0.667   5.961 -0.9123 -0.1215  0.7474
 3122SOL     OW20827   3.013   3.450  12.977 -0.6750 -0.1812 -0.2494
 3122SOL    HW120828   2.951   3.397  12.927 -1.2864  1.6898 -1.4529
 3122SOL    HW220829   3.000   3.540  12.947  0.5609 -0.1674 -0.7633
 3123SOL     OW20830   4.652   0.465   0.961  0.1316 -0.2360 -0.1393
 3123SOL    HW120831   4.559   0.444   0.950  0.3450 -0.8616 -0.7445
 3123SOL    HW220832   4.659   0.534   0.895 -0.4132 -0.2851 -0.2505
 3124SOL     OW20833   3.433   4.216   9.448 -0.2067 -0.1154  0.2099
 3124SOL    HW120834   3.412   4.150   9.383  1.1775  0.2866 -0.6480
 3124SOL    HW220835   3.500   4.172   9.499 -0.1055 -1.2903 -0.9442
 3125SOL     OW20836   2.886   3.456  12.637  0.0128 -0.5722  0.0402
 3125SOL    HW120837   2.916   3.547  12.629  0.5661 -0.6426  1.2275
 3125SOL    HW220838   2.811   3.458  12.696 -0.2003  0.5274 -0.2700
 3126SOL     OW20839   4.226   2.610   6.049 -0.1647 -0.3461  0.4845
 3126SOL    HW120840   4.312   2.645   6.026 -0.6972  0.2230 -0.6902
 3126SOL    HW220841   4.253   2.528   6.091  1.7795 -0.5596 -1.1715
 3127SOL     OW20842   0.204   1.368   0.812  0.0053  0.1401 -0.5391
 3127SOL    HW120843   0.161   1.391   0.895  0.0567  0.6220 -0.6451
 3127SOL    HW220844   0.264   1.305   0.851 -2.4546 -1.1974  1.1385
 3128SOL     OW20845   0.999   2.942   9.659 -0.2442  0.3846  0.4135
 3128SOL    HW120846   1.021   2.899   9.742 -2.5546 -0.0715  0.7899
 3128SOL    HW220847   0.988   3.030   9.695 -3.2156  0.7896 -1.4471
 3129SOL     OW20848   3.511   2.263   7.894  0.7380  0.1028 -0.0239
 3129SOL    HW120849   3.470   2.350   7.894 -0.3338 -0.4040 -0.5004
 3129SOL    HW220850   3.464   2.212   7.961  0.2619  1.1980  0.4925
 3130SOL     OW20851   2.727   2.959   7.745  0.0943 -0.6174  0.4447
 3130SOL    HW120852   2.757   2.975   7.656 -1.3107 -1.1964 -0.1389
 3130SOL    HW220853   2.633   2.943   7.732 -0.1374  2.3233 -1.4757
 3131SOL     OW20854   1.930   2.003   3.646  0.0682 -0.2951  0.0811
 3131SOL    HW120855   1.837   1.995   3.627 -0.0681 -0.0083  0.6255
 3131SOL    HW220856   1.960   1.913   3.638  1.7566  0.2697 -0.0705
 3132SOL     OW20857   0.956   2.600  11.653  0.4488 -0.2254  0.1911
 3132SOL    HW120858   1.045   2.617  11.620  1.5087 -2.6262  1.8372
 3132SOL    HW220859   0.956   2.617  11.747  0.4869  0.9415 -0.0073
 3133SOL     OW20860   1.270   3.612   5.103 -0.2152 -0.0322 -0.5406
 3133SOL    HW120861   1.316   3.547   5.155 -0.1698 -0.5957 -1.2873
 3133SOL    HW220862   1.196   3.564   5.066  0.0238 -0.6635 -0.2060
 3134SOL     OW20863   2.817   4.383  12.308  0.0954 -0.8176  0.0930
 3134SOL    HW120864   2.752   4.366  12.239  1.5582 -0.7885 -1.2781
 3134SOL    HW220865   2.799   4.475  12.328 -0.5492 -1.0191  0.4616
 3135SOL     OW20866   4.469   2.584   1.748 -0.2381  0.9779 -0.1968
 3135SOL    HW120867   4.428   2.610   1.665  1.0928  2.3855 -0.4152
 3135SOL    HW220868   4.451   2.492   1.732  2.0062  0.3923  0.6457
 3136SOL     OW20869   4.271   4.284   2.005  0.1602 -0.3054 -0.0520
 3136SOL    HW120870   4.258   4.198   1.964 -1.9902 -1.2176  2.5359
 3136SOL    HW220871   4.329   4.329   1.944  2.2686 -1.9981  0.7103
 3137SOL     OW20872   4.492   3.354   8.260  0.0168 -0.9250  0.1945
 3137SOL    HW120873   4.476   3.311   8.176 -0.3024 -0.6909  0.1355
 3137SOL    HW220874   4.509   3.270   8.303  0.0067 -0.2698  1.4994
 3138SOL     OW20875   1.825   0.043   2.637 -0.3729 -0.1817 -0.2401
 3138SOL    HW120876   1.876   0.021   2.560  0.5907  0.6437  0.1605
 3138SOL    HW220877   1.863   4.706   2.699 -1.3719  1.2636  1.8375
 3139SOL     OW20878   0.922   0.346  10.035  0.1596 -0.2781 -0.1186
 3139SOL    HW120879   0.829   0.365  10.038  0.2267 -0.6750  4.2463
 3139SOL    HW220880   0.968   0.408  10.091  1.7073 -0.4816 -1.1579
 3140SOL     OW20881   1.350   0.629   5.254  0.1213  0.1363 -0.3132
 3140SOL    HW120882   1.363   0.687   5.329  1.8628 -0.3756 -0.2206
 3140SOL    HW220883   1.384   0.683   5.182  0.5215  0.3784  0.0615
 3141SOL     OW20884   0.671   1.529   5.069 -0.5668 -0.1327  0.1037
 3141SOL    HW120885   0.592   1.555   5.021  1.6854  2.2170 -2.3577
 3141SOL    HW220886   0.643   1.441   5.094  0.6838 -0.7380 -0.6416
 3142SOL     OW20887   3.422   2.212   6.415 -0.1924 -0.2596 -0.2105
 3142SOL    HW120888   3.376   2.244   6.337 -1.9830  1.3771  1.5381
 3142SOL    HW220889   3.362   2.144   6.445 -0.2438 -0.4141 -0.6672
 3143SOL     OW20890   0.545   0.560   9.845  0.2930 -0.1921  0.3003
 3143SOL    HW120891   0.594   0.491   9.800 -2.4575 -3.0379  1.5983
 3143SOL    HW220892   0.574   0.542   9.935  0.0307 -1.1790  0.1942
 3144SOL     OW20893   3.817   3.106   5.735  0.1334 -0.3024  0.0615
 3144SOL    HW120894   3.886   3.171   5.748 -0.3395  0.1075  0.5111
 3144SOL    HW220895   3.739   3.160   5.743  0.6308 -0.0481  3.2191
 3145SOL     OW20896   1.533   0.869  13.836 -0.2066  0.5693 -0.0769
 3145SOL    HW120897   1.484   0.949  13.852 -0.0405  1.1236 -2.3628
 3145SOL    HW220898   1.507   0.811  13.907 -0.9540  0.3044 -0.5767
 3146SOL     OW20899   3.629   3.500   8.168 -0.3317 -0.2223 -0.5992
 3146SOL    HW120900   3.662   3.441   8.236 -2.2984 -1.1291 -0.4169
 3146SOL    HW220901   3.599   3.439   8.101 -2.5144  3.2016 -2.7415
 3147SOL     OW20902   0.339   3.515  13.369  0.4745 -0.4481  0.2894
 3147SOL    HW120903   0.419   3.498  13.418  0.2694 -2.3006 -0.0127
 3147SOL    HW220904   0.299   3.587  13.419  1.7870  0.6206 -0.1932
 3148SOL     OW20905   1.884   3.481   3.430  0.0712  0.2802  0.1895
 3148SOL    HW120906   1.905   3.410   3.369  0.8237 -0.4883  1.3636
 3148SOL    HW220907   1.796   3.453   3.456  0.5876 -2.8193 -1.3835
 3149SOL     OW20908   2.743   4.593   3.370 -0.1562 -0.1763  0.0546
 3149SOL    HW120909   2.748   4.535   3.446 -1.3234  0.4575  0.6103
 3149SOL    HW220910   2.713   4.535   3.300  1.7634 -1.3170  0.1869
 3150SOL     OW20911   0.146   2.068   6.411  0.6615 -0.0200  0.1383
 3150SOL    HW120912   0.130   2.142   6.352  0.4671 -0.4239 -0.3176
 3150SOL    HW220913   0.058   2.031   6.412  0.8016 -0.3472  0.5304
 3151SOL     OW20914   3.346   3.216  16.349 -0.5415 -0.0602 -0.1843
 3151SOL    HW120915   3.399   3.211  16.429 -0.2829  2.9939 -0.1698
 3151SOL    HW220916   3.415   3.218  16.282 -0.2550 -1.5253  0.0667
 3152SOL     OW20917   1.118   1.170   4.687  0.1652 -0.8905  0.0536
 3152SOL    HW120918   1.102   1.124   4.605 -2.4744 -1.8937  1.1324
 3152SOL    HW220919   1.182   1.231   4.651  0.8668 -1.0098  1.0782
 3153SOL     OW20920   1.805   0.809   6.519 -0.4015  0.5704  0.2113
 3153SOL    HW120921   1.772   0.722   6.495 -0.6701  0.6498  0.2910
 3153SOL    HW220922   1.724   0.856   6.500  0.8604  2.4537 -0.4816
 3154SOL     OW20923   2.716   0.714   3.460 -0.5294  0.2103  0.0949
 3154SOL    HW120924   2.771   0.774   3.509  0.8919  0.5353 -1.9138
 3154SOL    HW220925   2.765   0.638   3.493  1.7843  0.9843 -1.5776
 3155SOL     OW20926   3.078   0.578  15.085 -0.1783 -0.0032 -0.3857
 3155SOL    HW120927   3.039   0.491  15.082  1.4019 -0.6848 -1.2167
 3155SOL    HW220928   2.996   0.627  15.078 -0.3510 -0.1198  0.9196
 3156SOL     OW20929   1.271   2.136   0.660  0.1113 -0.6572 -0.3153
 3156SOL    HW120930   1.353   2.184   0.649 -1.6373  2.5497  0.6563
 3156SOL    HW220931   1.284   2.111   0.751 -0.1011  0.9179  0.1532
 3157SOL     OW20932   3.597   3.970   2.236  0.5086  0.1094  0.0002
 3157SOL    HW120933   3.589   4.040   2.171  1.7018  1.1711  0.9899
 3157SOL    HW220934   3.603   4.021   2.317 -1.9242  2.0141 -1.0120
 3158SOL     OW20935   1.333   3.103  17.225 -0.0209  0.3944  0.3723
 3158SOL    HW120936   1.392   3.144  17.163 -1.2787 -0.2722 -1.2750
 3158SOL    HW220937   1.378   3.134  17.303 -0.6223  0.6103  0.6328
 3159SOL     OW20938   3.588   0.144   9.602  0.4914 -0.2276  0.1698
 3159SOL    HW120939   3.519   0.191   9.554  1.5205  0.1531 -0.9315
 3159SOL    HW220940   3.566   0.168   9.692 -1.9186 -2.2175  0.1185
 3160SOL     OW20941   3.072   0.150   5.481 -1.1569 -0.5450  0.4303
 3160SOL    HW120942   2.988   0.127   5.522  0.0432 -0.6121  2.8826
 3160SOL    HW220943   3.074   0.245   5.471 -0.9636 -0.5960  0.0100
 3161SOL     OW20944   4.493   0.345  12.887 -0.0698 -0.3939  0.3836
 3161SOL    HW120945   4.521   0.429  12.852 -1.4126 -0.4239 -0.7878
 3161SOL    HW220946   4.563   0.330  12.951  2.1544 -3.3079 -2.6741
 3162SOL     OW20947   2.059   1.635   7.409  0.0798 -0.2053  0.2480
 3162SOL    HW120948   2.030   1.545   7.424  0.8987 -0.1806  1.9465
 3162SOL    HW220949   2.114   1.657   7.484 -1.3042  0.3990  1.0724
 3163SOL     OW20950   3.953   2.824   7.270 -0.5204  0.6732 -0.0822
 3163SOL    HW120951   3.884   2.846   7.207 -1.3939 -1.4615  0.1198
 3163SOL    HW220952   3.986   2.910   7.293  2.4134 -0.0409 -1.6137
 3164SOL     OW20953   2.828   4.217  12.728 -0.1954  0.1896  0.1004
 3164SOL    HW120954   2.787   4.244  12.810  0.2112 -0.1772  0.4272
 3164SOL    HW220955   2.864   4.299  12.693 -0.5962  0.6161  0.6916
 3165SOL     OW20956   4.660   2.652  15.128  0.4945 -0.1757  0.1579
 3165SOL    HW120957   4.710   2.614  15.200  0.4454 -0.8385 -0.1581
 3165SOL    HW220958   4.696   2.614  15.047 -2.5529  0.8511 -1.6658
 3166SOL     OW20959   4.416   0.651  11.523  0.5003  0.4673  0.3049
 3166SOL    HW120960   4.402   0.600  11.443 -0.3175  0.6089  0.3556
 3166SOL    HW220961   4.370   0.731  11.497  0.7224  0.3077 -0.5847
 3167SOL     OW20962   0.482   1.912   7.066 -0.4113  0.2674  0.9287
 3167SOL    HW120963   0.494   1.818   7.053  0.3130  0.2359  1.8382
 3167SOL    HW220964   0.451   1.922   6.976 -1.2925 -1.5582  1.0456
 3168SOL     OW20965   4.189   0.621   5.820  0.6239  0.2595 -0.5178
 3168SOL    HW120966   4.218   0.571   5.897 -3.2734 -1.9653 -0.4747
 3168SOL    HW220967   4.160   0.699   5.868  1.9511  1.5234 -1.7763
 3169SOL     OW20968   3.436   0.462   9.154  0.7416  0.3107  0.3663
 3169SOL    HW120969   3.471   0.507   9.077  1.2256 -0.7337 -0.0079
 3169SOL    HW220970   3.426   0.535   9.215  1.3554 -0.1715  1.0489
 3170SOL     OW20971   1.534   0.351   9.586 -0.2437  0.0793  0.2775
 3170SOL    HW120972   1.444   0.332   9.562  0.7169 -0.6983 -2.6191
 3170SOL    HW220973   1.526   0.444   9.607  1.7026  0.8213 -2.2300
 3171SOL     OW20974   3.531   2.644  15.175  0.0356  0.0581 -0.4377
 3171SOL    HW120975   3.537   2.611  15.264  0.5859 -0.5797 -0.7113
 3171SOL    HW220976   3.604   2.707  15.177  0.9217 -0.9257 -1.5528
 3172SOL     OW20977   0.249   0.215   9.283 -0.0487  0.1808 -0.2241
 3172SOL    HW120978   0.159   0.229   9.312 -0.2862 -1.7622 -0.0243
 3172SOL    HW220979   0.243   0.120   9.277 -1.1414  0.3839 -2.4541
 3173SOL     OW20980   3.874   0.546  15.588 -0.0271  0.5330  0.1887
 3173SOL    HW120981   3.917   0.623  15.624 -1.8107  1.6617 -0.1115
 3173SOL    HW220982   3.781   0.569  15.591  0.3934  1.9535  2.0962
 3174SOL     OW20983   0.874   3.712   2.480  0.0028  0.6336 -0.3012
 3174SOL    HW120984   0.912   3.652   2.416  1.0874  0.4027  0.5502
 3174SOL    HW220985   0.827   3.648   2.533  0.2254  0.6713 -0.0571
 3175SOL     OW20986   2.807   2.964   5.951 -0.1758 -0.2641 -0.1056
 3175SOL    HW120987   2.844   2.879   5.929  0.1293 -0.2122  0.2069
 3175SOL    HW220988   2.858   2.983   6.030 -1.3679  3.8057 -0.3234
 3176SOL     OW20989   0.447   1.956   5.538  0.1422  0.0541 -0.4085
 3176SOL    HW120990   0.529   1.998   5.565  0.2398 -0.1637 -0.3673
 3176SOL    HW220991   0.393   2.033   5.558  0.0909  0.2368 -1.2718
 3177SOL     OW20992   3.074   3.519   2.463  0.0970  0.3605 -1.0429
 3177SOL    HW120993   3.098   3.481   2.378  1.6722 -1.3715  0.1888
 3177SOL    HW220994   2.979   3.509   2.458  0.0188  1.2747 -1.4800
 3178SOL     OW20995   3.001   3.988   4.446  0.0348  0.8711  0.4233
 3178SOL    HW120996   3.068   3.925   4.421  1.0888  1.7536  1.0454
 3178SOL    HW220997   3.010   4.049   4.372 -0.8921 -0.1079 -0.5179
 3179SOL     OW20998   1.158   0.286  15.357 -0.0696 -0.0703  0.0239
 3179SOL    HW120999   1.217   0.247  15.421  0.4502 -0.8905 -0.9589
 3179SOL    HW221000   1.078   0.253  15.399  0.6297 -3.0889 -1.0223
 3180SOL     OW21001   2.171   3.165  10.742 -0.3808  0.2747 -0.1217
 3180SOL    HW121002   2.193   3.119  10.662 -0.9604 -2.5343  1.3359
 3180SOL    HW221003   2.231   3.120  10.802 -0.4035  0.3880 -0.0139
 3181SOL     OW21004   4.344   2.861   8.769 -0.4054  0.0645  0.4988
 3181SOL    HW121005   4.316   2.879   8.860  2.4236  1.7189  1.0248
 3181SOL    HW221006   4.265   2.814   8.742 -0.6343  0.8559 -0.2049
 3182SOL     OW21007   3.427   0.917   7.624 -0.0175 -0.5207 -0.5454
 3182SOL    HW121008   3.374   0.931   7.702  2.2124 -1.0086  1.0546
 3182SOL    HW221009   3.511   0.959   7.643  1.0498 -2.1782 -1.5549
 3183SOL     OW21010   0.788   0.911   2.578  0.0036  0.5153  0.0593
 3183SOL    HW121011   0.737   0.992   2.584  0.9461  1.0171  1.2598
 3183SOL    HW221012   0.788   0.903   2.483  0.1171  2.1375 -0.0808
 3184SOL     OW21013   1.645   2.584   7.540  0.0945 -0.1745  0.1809
 3184SOL    HW121014   1.557   2.590   7.578  0.0944  0.8625 -0.0014
 3184SOL    HW221015   1.619   2.555   7.453 -1.0303 -1.7229  1.0388
 3185SOL     OW21016   3.903   2.431   6.478  0.4998  0.5629 -0.5134
 3185SOL    HW121017   3.906   2.516   6.434 -0.2135  1.2664  0.7933
 3185SOL    HW221018   3.869   2.384   6.401  0.5270 -0.0733 -0.1397
 3186SOL     OW21019   3.584   2.403  11.339  0.0504  0.1683  0.9332
 3186SOL    HW121020   3.546   2.338  11.398 -0.3879  0.8538  1.4193
 3186SOL    HW221021   3.527   2.414  11.263  0.0521 -0.1085  0.8947
 3187SOL     OW21022   4.328   1.160   5.343  0.2891  0.6762 -0.4844
 3187SOL    HW121023   4.264   1.113   5.396 -1.8337  1.3152 -2.4771
 3187SOL    HW221024   4.278   1.239   5.321 -1.1836  1.0034  4.1122
 3188SOL     OW21025   0.028   4.593   4.438 -0.2459  0.0760  0.1409
 3188SOL    HW121026   0.017   4.498   4.443  0.8690 -0.0688 -0.2207
 3188SOL    HW221027   4.688   4.610   4.370  2.7782  2.7334 -2.0276
 3189SOL     OW21028   2.120   4.650   3.736  1.1477 -0.2879  0.3128
 3189SOL    HW121029   2.138   4.664   3.643  0.0482  1.1960  0.3193
 3189SOL    HW221030   2.026   4.669   3.742  0.7304 -1.5887 -2.1559
 3190SOL     OW21031   4.196   3.045   7.106  0.7228 -0.1718 -0.3418
 3190SOL    HW121032   4.179   3.063   7.013 -5.0468 -0.2034  0.7177
 3190SOL    HW221033   4.129   3.100   7.146  0.7206 -0.0369 -0.5321
 3191SOL     OW21034   4.012   3.395  13.211 -0.1553  0.1154  0.3929
 3191SOL    HW121035   3.993   3.481  13.250  1.4941  0.2146  0.9987
 3191SOL    HW221036   3.990   3.344  13.289  0.6370  0.1880  0.6577
 3192SOL     OW21037   2.620   0.155   5.294  0.0788 -0.6530 -0.3146
 3192SOL    HW121038   2.645   0.072   5.334 -0.5007 -0.1327  1.1326
 3192SOL    HW221039   2.663   0.223   5.345 -0.6526  1.8299 -2.9715
 3193SOL     OW21040   3.195   3.682   5.660  0.2155 -0.4217 -0.0552
 3193SOL    HW121041   3.172   3.776   5.661  1.9930  0.0118 -0.6561
 3193SOL    HW221042   3.122   3.653   5.714  1.1247 -1.3357  0.6721
 3194SOL     OW21043   4.415   2.293   0.759  0.1239  0.0552  0.0488
 3194SOL    HW121044   4.507   2.275   0.739 -0.3700 -0.5721 -1.7048
 3194SOL    HW221045   4.412   2.376   0.710 -1.1882 -1.8679 -3.1620
 3195SOL     OW21046   4.540   0.425   7.825 -0.1263 -0.4794 -0.2277
 3195SOL    HW121047   4.591   0.393   7.899  1.9080  1.5136 -0.7516
 3195SOL    HW221048   4.512   0.341   7.790 -2.3446  0.1246  0.1197
 3196SOL     OW21049   1.753   2.365   9.895  0.3420 -0.7238 -0.3287
 3196SOL    HW121050   1.669   2.335   9.860  0.1550 -0.0334 -0.4632
 3196SOL    HW221051   1.764   2.294   9.959 -0.8154 -1.0653 -0.5121
 3197SOL     OW21052   0.573   4.399  16.910 -0.2598 -0.0480 -0.0878
 3197SOL    HW121053   0.666   4.416  16.927 -0.8107  1.8808  1.0201
 3197SOL    HW221054   0.530   4.485  16.912  2.9270  1.5048  1.1790
 3198SOL     OW21055   3.248   0.056  11.023  0.1696  0.1910  0.2451
 3198SOL    HW121056   3.277   0.132  11.073 -0.1798  0.4665  0.0228
 3198SOL    HW221057   3.321   4.719  11.034 -0.9838 -1.4058 -1.0691
 3199SOL     OW21058   1.466   0.167   1.609  0.2537 -0.1679  0.0371
 3199SOL    HW121059   1.498   0.203   1.527  0.8214 -0.6065  0.0698
 3199SOL    HW221060   1.509   0.081   1.616 -0.0863 -0.2804  0.8279
 3200SOL     OW21061   1.341   2.328   2.869 -0.0135  0.0243 -0.0015
 3200SOL    HW121062   1.336   2.414   2.827 -2.8627  0.8695  2.0889
 3200SOL    HW221063   1.417   2.337   2.927  2.2319 -0.3682 -2.8565
 3201SOL     OW21064   2.049   0.237   7.080  0.4661  0.1876  0.4095
 3201SOL    HW121065   2.081   0.298   7.014  1.0432 -0.4704  0.0750
 3201SOL    HW221066   2.097   0.263   7.159  0.8784  0.2912  0.1255
 3202SOL     OW21067   4.154   4.528  15.100  0.3649 -0.0333  0.5438
 3202SOL    HW121068   4.063   4.509  15.079 -0.1003  0.5152  2.0714
 3202SOL    HW221069   4.142   4.605  15.154  3.3646 -0.8063  2.3508
 3203SOL     OW21070   2.962   4.693   0.393  0.7009 -0.0073 -0.2480
 3203SOL    HW121071   2.918   0.042   0.351  0.0253 -1.1907 -1.5937
 3203SOL    HW221072   3.003   0.013   0.468  1.4809 -0.1278 -0.6035
 3204SOL     OW21073   2.705   4.671   6.505  0.6937 -0.3888 -0.0147
 3204SOL    HW121074   2.651   4.611   6.453 -2.2706  2.6187 -0.3855
 3204SOL    HW221075   2.658   0.026   6.480 -1.5896 -0.9870  2.3048
 3205SOL     OW21076   1.085   0.757   0.415  0.0969  0.0631 -0.1373
 3205SOL    HW121077   1.159   0.743   0.473  0.1947 -1.0786 -0.5443
 3205SOL    HW221078   1.029   0.684   0.441  1.0559 -0.9095 -0.8294
 3206SOL     OW21079   1.613   0.605   9.508  0.0773  0.5548  0.2567
 3206SOL    HW121080   1.538   0.664   9.521  0.7113  1.7110 -1.3333
 3206SOL    HW221081   1.600   0.567   9.421 -1.5393  2.3472 -0.2972
 3207SOL     OW21082   4.036   4.322  13.179  0.6595  0.9741  0.1634
 3207SOL    HW121083   4.006   4.347  13.092 -0.4999  4.3655  1.5148
 3207SOL    HW221084   3.970   4.254  13.191 -0.9804  2.7165  1.1785
 3208SOL     OW21085   0.155   3.497   6.196 -0.0772  0.1068 -0.0227
 3208SOL    HW121086   0.078   3.551   6.211  1.0040  1.0616  2.0951
 3208SOL    HW221087   0.182   3.513   6.106  0.1013 -2.1873 -0.3909
 3209SOL     OW21088   0.219   1.812   3.366  0.0895  0.1202  0.2272
 3209SOL    HW121089   0.239   1.721   3.346 -1.1200  0.1734 -1.1674
 3209SOL    HW221090   0.234   1.809   3.460  1.4406  1.6909  0.0616
 3210SOL     OW21091   1.100   2.429   2.076 -0.4426  0.5943  0.2032
 3210SOL    HW121092   1.161   2.502   2.090  1.8910 -1.0898 -1.3633
 3210SOL    HW221093   1.083   2.393   2.163  2.2030 -2.5492 -0.6095
 3211SOL     OW21094   4.701   0.574   6.174  0.4497  0.4737 -0.1146
 3211SOL    HW121095   0.007   0.565   6.264  1.0749 -1.8230 -0.5627
 3211SOL    HW221096   0.014   0.658   6.146 -0.6312  0.4735 -1.5511
 3212SOL     OW21097   4.534   3.206   7.165 -0.0203  0.2074 -0.2423
 3212SOL    HW121098   4.470   3.275   7.183 -0.1987  0.0768 -0.3754
 3212SOL    HW221099   4.529   3.191   7.070  2.9467 -2.1622 -0.0246
 3213SOL     OW21100   1.452   3.717   4.883 -0.2352  0.6866  0.4475
 3213SOL    HW121101   1.509   3.668   4.942 -0.3104  1.3347  1.0571
 3213SOL    HW221102   1.370   3.710   4.933  0.2159 -1.2704  0.9053
 3214SOL     OW21103   1.404   4.642   7.999 -0.4081 -0.1077  0.4949
 3214SOL    HW121104   1.456   4.595   8.064 -1.1550 -1.5428  0.0512
 3214SOL    HW221105   1.438   4.618   7.912 -1.0063 -1.0657  0.5336
 3215SOL     OW21106   1.172   0.154   5.928  0.8260  0.1189 -0.4084
 3215SOL    HW121107   1.163   0.088   5.997  2.6079  0.5608  0.2516
 3215SOL    HW221108   1.135   0.113   5.850  0.2274 -1.6025  0.7716
 3216SOL     OW21109   0.873   2.450   8.987  0.1219  0.3600  0.1722
 3216SOL    HW121110   0.928   2.521   8.954  0.7678 -1.1030 -1.9253
 3216SOL    HW221111   0.835   2.480   9.069 -0.1602 -0.7507  0.4505
 3217SOL     OW21112   2.296   1.651  14.791 -0.3325 -0.4571 -0.0855
 3217SOL    HW121113   2.220   1.623  14.842 -0.9169 -2.3679 -2.0255
 3217SOL    HW221114   2.318   1.579  14.731 -1.9230 -2.4081  1.6567
 3218SOL     OW21115   3.222   4.621   3.876 -0.1822  0.2536  0.0850
 3218SOL    HW121116   3.303   4.580   3.845 -1.4309 -1.6900 -0.5815
 3218SOL    HW221117   3.162   4.547   3.885 -1.0855  1.2884  2.6512
 3219SOL     OW21118   0.900   2.836  11.164 -0.1306  0.4631  0.0193
 3219SOL    HW121119   0.872   2.847  11.255  0.5324  2.0862  0.0427
 3219SOL    HW221120   0.945   2.751  11.167  1.1929  1.0945 -2.2791
 3220SOL     OW21121   4.587   4.466   8.529 -0.1042 -0.4778  0.6794
 3220SOL    HW121122   4.607   4.373   8.537  0.1506 -0.5410 -0.7670
 3220SOL    HW221123   4.627   4.493   8.612 -0.8498  0.0907  0.8569
 3221SOL     OW21124   0.599   4.170   0.574  0.3536  0.0186  0.6684
 3221SOL    HW121125   0.652   4.240   0.534 -0.5317  0.5434  0.4143
 3221SOL    HW221126   0.572   4.217   0.653  0.1706 -1.9294  1.7669
 3222SOL     OW21127   2.148   1.552  11.719  0.0611 -0.2716  0.4127
 3222SOL    HW121128   2.063   1.568  11.759  0.0802 -1.2872  0.8768
 3222SOL    HW221129   2.125   1.504  11.639 -2.0449  1.6512 -0.1307
 3223SOL     OW21130   2.628   1.355   1.302  0.1247  0.3305  0.5354
 3223SOL    HW121131   2.692   1.286   1.321 -0.0240  0.3228  1.0111
 3223SOL    HW221132   2.669   1.382   1.221 -1.2894  0.8931 -0.0023
 3224SOL     OW21133   0.418   0.247  14.286 -0.4643  0.0295 -0.2680
 3224SOL    HW121134   0.337   0.215  14.246 -0.4895 -1.3198  0.8503
 3224SOL    HW221135   0.393   0.256  14.378 -1.0365 -0.0969 -0.4102
 3225SOL     OW21136   2.166   4.060   3.247 -0.2321  0.0992 -0.4531
 3225SOL    HW121137   2.150   3.993   3.181  0.8304 -1.6489  1.0868
 3225SOL    HW221138   2.262   4.056   3.248 -0.1471  2.1927 -0.2782
 3226SOL     OW21139   2.451   3.554  16.754  0.4786  0.5702 -0.1657
 3226SOL    HW121140   2.516   3.527  16.820 -1.9525 -0.2462  1.9145
 3226SOL    HW221141   2.515   3.596  16.697  0.0382  0.8627 -0.4379
 3227SOL     OW21142   1.779   1.708   1.101 -0.6291  0.0077  0.3694
 3227SOL    HW121143   1.823   1.708   1.186  0.3918 -0.3373 -0.1548
 3227SOL    HW221144   1.793   1.800   1.077  0.2773  0.3502  2.1670
 3228SOL     OW21145   3.340   2.951   8.277  0.2844  0.0545  0.1996
 3228SOL    HW121146   3.435   2.963   8.275  0.0430  2.0236  0.6564
 3228SOL    HW221147   3.308   3.018   8.217  2.6961  2.0899  1.1807
 3229SOL     OW21148   0.049   2.623   7.820  0.2723  0.4955 -0.3775
 3229SOL    HW121149   0.054   2.631   7.724  0.9636  1.8971 -0.2351
 3229SOL    HW221150   0.140   2.647   7.837 -0.1554  1.9458 -0.0684
 3230SOL     OW21151   2.546   3.983   2.990 -0.7508 -0.0749 -0.0583
 3230SOL    HW121152   2.483   3.936   2.936 -0.8210 -1.1962  1.0115
 3230SOL    HW221153   2.621   3.923   2.984 -0.7076 -0.0982  0.7983
 3231SOL     OW21154   2.075   3.443  10.761  0.0315  0.4260  0.5036
 3231SOL    HW121155   2.105   3.362  10.720  0.3065 -0.0667  1.6750
 3231SOL    HW221156   1.986   3.424  10.790  0.6266 -3.5549 -0.2189
 3232SOL     OW21157   1.202   3.976   2.895 -0.4569 -0.1801  0.0654
 3232SOL    HW121158   1.120   3.949   2.854 -0.2086 -1.3562  0.3441
 3232SOL    HW221159   1.268   3.965   2.826 -2.3093  0.8793 -1.8781
 3233SOL     OW21160   0.712   1.328   0.335  0.1712 -0.4087 -0.2105
 3233SOL    HW121161   0.630   1.331   0.286 -0.6523  1.4675  1.2518
 3233SOL    HW221162   0.727   1.419   0.362  1.0988 -0.0290 -2.0255
 3234SOL     OW21163   2.939   3.691   5.533 -0.4442 -0.0559  0.1981
 3234SOL    HW121164   2.892   3.617   5.495  0.4533 -1.9582  2.8296
 3234SOL    HW221165   3.026   3.651   5.536 -0.2571  0.2991 -0.3741
 3235SOL     OW21166   0.902   2.621  12.701  0.1911 -0.3383 -0.2732
 3235SOL    HW121167   0.940   2.536  12.680  0.5453 -0.1830 -0.2633
 3235SOL    HW221168   0.929   2.671  12.623 -1.1027  0.4863 -0.1826
 3236SOL     OW21169   0.640   2.451   6.852  0.2659  0.1033 -0.1660
 3236SOL    HW121170   0.658   2.448   6.945  0.1632 -1.3240 -0.2030
 3236SOL    HW221171   0.612   2.362   6.832 -2.6248  1.0235 -0.2269
 3237SOL     OW21172   2.448   2.185  15.833 -0.3939 -1.0485  0.5382
 3237SOL    HW121173   2.474   2.213  15.746 -1.0127 -2.8737 -0.2286
 3237SOL    HW221174   2.478   2.260  15.884 -1.0175  0.9708 -2.0493
 3238SOL     OW21175   3.698   2.074  13.239  0.1809 -0.1396 -0.2162
 3238SOL    HW121176   3.692   1.978  13.247  1.3700 -0.0734  1.4809
 3238SOL    HW221177   3.793   2.082  13.249 -0.4352  1.8108  3.6280
 3239SOL     OW21178   2.377   1.440   6.125 -0.1114 -0.5161 -0.1341
 3239SOL    HW121179   2.438   1.387   6.177  0.8460  0.3214 -0.4031
 3239SOL    HW221180   2.320   1.373   6.088 -2.0809  1.7095 -1.0913
 3240SOL     OW21181   2.542   2.849  17.482 -0.3117  0.6538 -0.0447
 3240SOL    HW121182   2.471   2.914  17.481 -0.7511  0.1781  0.3164
 3240SOL    HW221183   2.564   2.838  17.389 -0.3548 -1.1216  0.1523
 3241SOL     OW21184   2.212   1.159   1.865  1.0912  0.4745 -0.4720
 3241SOL    HW121185   2.171   1.094   1.807 -1.1667  1.1433  0.3535
 3241SOL    HW221186   2.250   1.108   1.936 -1.7450  0.3526  0.9778
 3242SOL     OW21187   1.163   3.584   2.472  0.3033 -0.4849  0.0356
 3242SOL    HW121188   1.178   3.496   2.507  0.9507 -0.0608  0.8327
 3242SOL    HW221189   1.251   3.601   2.439  0.6585 -0.3911  1.0266
 3243SOL     OW21190   2.240   3.973   3.650  1.1566 -0.5299  0.2498
 3243SOL    HW121191   2.218   4.033   3.720  0.0291 -1.0380  0.3380
 3243SOL    HW221192   2.161   3.975   3.596  1.2190  0.2448  0.1969
 3244SOL     OW21193   0.987   0.106   6.629  0.0474  0.6782 -0.3689
 3244SOL    HW121194   1.023   0.034   6.680 -1.3988 -0.2405 -0.6448
 3244SOL    HW221195   0.971   0.181   6.687  1.1886  0.3713  0.3308
 3245SOL     OW21196   2.611   2.729   0.189 -0.2987 -0.2107 -0.3581
 3245SOL    HW121197   2.519   2.733   0.162  0.0769 -1.2521 -1.7980
 3245SOL    HW221198   2.615   2.795   0.259  0.6278 -0.6891  0.0367
 3246SOL     OW21199   2.048   4.260   4.126  0.6207 -0.3667  0.0823
 3246SOL    HW121200   2.016   4.328   4.186  1.7130 -0.7176  1.0523
 3246SOL    HW221201   2.106   4.310   4.069  0.6292 -1.0541 -0.5126
 3247SOL     OW21202   3.654   2.134   1.056 -0.5041 -0.2997 -0.0594
 3247SOL    HW121203   3.740   2.169   1.080 -0.2607  1.4259 -3.4761
 3247SOL    HW221204   3.646   2.175   0.969  3.0306 -0.5748 -0.5132
 3248SOL     OW21205   3.976   2.066  13.212  0.5817  0.0421  0.0509
 3248SOL    HW121206   4.049   2.092  13.269  0.2879  0.4966  0.2195
 3248SOL    HW221207   3.999   2.121  13.138  0.5976  0.1875  0.1625
 3249SOL     OW21208   3.740   3.746   9.251 -0.8948 -0.3682 -0.6344
 3249SOL    HW121209   3.733   3.667   9.199  0.6232  0.4957 -2.1616
 3249SOL    HW221210   3.680   3.732   9.324 -0.5380  1.1193 -0.0476
 3250SOL     OW21211   1.411   4.489   5.984 -1.5365 -0.5967  0.2894
 3250SOL    HW121212   1.450   4.402   5.990 -2.1261 -0.8575  0.3327
 3250SOL    HW221213   1.482   4.547   5.957 -0.4941 -2.2102 -0.4152
 3251SOL     OW21214   0.755   3.415   4.930  0.0542  0.1774  0.2041
 3251SOL    HW121215   0.781   3.503   4.959  0.4557 -0.0510  0.5416
 3251SOL    HW221216   0.795   3.415   4.843  1.1884  0.6744  0.7239
 3252SOL     OW21217   2.300   1.842   6.361 -0.3550  0.0205 -0.1080
 3252SOL    HW121218   2.315   1.934   6.339 -1.5534  0.3345  0.3970
 3252SOL    HW221219   2.308   1.798   6.276  0.7811 -1.8157  0.9548
 3253SOL     OW21220   3.194   2.525   3.235 -0.0528 -0.1084  0.6744
 3253SOL    HW121221   3.277   2.480   3.252  0.9647  1.2096 -0.8699
 3253SOL    HW221222   3.144   2.470   3.296  0.9022  0.0052  1.5653
 3254SOL     OW21223   0.340   2.483   3.994 -0.2767  0.5236 -0.3185
 3254SOL    HW121224   0.367   2.523   3.912 -2.5080 -1.2710 -1.9155
 3254SOL    HW221225   0.394   2.540   4.049 -0.7316  0.9506 -0.3199
 3255SOL     OW21226   2.967   3.811   5.220 -0.4392 -0.5019 -0.1866
 3255SOL    HW121227   2.989   3.839   5.131  2.6903  0.0625  0.7465
 3255SOL    HW221228   3.040   3.842   5.275 -0.6569 -1.2568  0.5304
 3256SOL     OW21229   4.437   2.716   3.295  0.3028  0.2958 -0.0146
 3256SOL    HW121230   4.494   2.788   3.269 -0.6498  0.1718 -2.4258
 3256SOL    HW221231   4.400   2.753   3.375  0.5984 -3.0061  1.6727
 3257SOL     OW21232   2.463   4.063  11.320  0.7754 -0.3152  0.7457
 3257SOL    HW121233   2.515   4.128  11.368  2.3269  2.0502 -4.1358
 3257SOL    HW221234   2.512   3.981  11.315 -0.9233 -1.4062  1.7895
 3258SOL     OW21235   1.709   3.032   8.671 -0.2902  0.4020 -0.4969
 3258SOL    HW121236   1.707   2.936   8.665  0.4992  0.3676 -0.3160
 3258SOL    HW221237   1.785   3.055   8.617  0.8542  0.5054  1.1570
 3259SOL     OW21238   4.274   3.969   0.681  0.0895 -0.1371  0.2489
 3259SOL    HW121239   4.264   3.985   0.774  1.1132  1.4415  0.0956
 3259SOL    HW221240   4.194   3.926   0.650 -0.6394  1.3322  0.0863
 3260SOL     OW21241   4.546   3.933   4.702  0.1074  0.4240 -0.3673
 3260SOL    HW121242   4.542   3.851   4.752  0.4784  1.6652  1.6860
 3260SOL    HW221243   4.603   3.916   4.626  0.5175  0.2220 -0.0130
 3261SOL     OW21244   0.638   0.394  15.933 -0.1437  0.3620 -0.2136
 3261SOL    HW121245   0.728   0.363  15.921 -0.7103 -2.3733  2.5349
 3261SOL    HW221246   0.646   0.443  16.015  0.9946  1.7486 -1.1704
 3262SOL     OW21247   4.059   2.131   5.792  0.0014  0.3857  0.3299
 3262SOL    HW121248   4.054   2.073   5.716 -2.9326 -0.4934  1.2157
 3262SOL    HW221249   4.007   2.204   5.759  1.4139  1.1904 -0.1480
 3263SOL     OW21250   2.682   0.941  11.989  1.2656 -0.3564  0.1303
 3263SOL    HW121251   2.662   0.849  11.971  0.7112  0.1689 -2.0174
 3263SOL    HW221252   2.735   0.974  11.915 -1.7714  1.6931 -1.1223
 3264SOL     OW21253   4.663   1.557  17.368  0.3128 -0.0638  0.1061
 3264SOL    HW121254   4.671   1.465  17.395  2.8168  0.2306  0.3331
 3264SOL    HW221255   0.020   1.589  17.406  0.7179  3.0728 -3.4022
 3265SOL     OW21256   1.246   2.483   6.749 -0.3854 -0.4266 -0.0041
 3265SOL    HW121257   1.286   2.413   6.698  1.1926  1.2079 -1.0096
 3265SOL    HW221258   1.247   2.562   6.696  1.9302  0.6240  1.6224
 3266SOL     OW21259   1.906   1.324   5.473 -0.1417 -0.3934  0.5466
 3266SOL    HW121260   1.957   1.344   5.394 -1.3722  2.7844  0.5693
 3266SOL    HW221261   1.821   1.294   5.441  0.0275  0.6285 -0.8480
 3267SOL     OW21262   2.832   3.605   4.283  0.3005  0.4366  0.0292
 3267SOL    HW121263   2.798   3.662   4.214 -0.7626 -0.6428 -0.3342
 3267SOL    HW221264   2.778   3.628   4.358  0.1133  2.7303 -0.7969
 3268SOL     OW21265   3.915   3.786   4.413  0.1336  0.1241 -0.4943
 3268SOL    HW121266   3.825   3.781   4.447  0.1732  0.5552 -0.3231
 3268SOL    HW221267   3.959   3.747   4.488 -0.0016 -2.2278 -1.6534
 3269SOL     OW21268   3.679   1.379   4.707  0.2216  0.0161  0.2470
 3269SOL    HW121269   3.605   1.344   4.757  0.1569  1.1104  0.8864
 3269SOL    HW221270   3.716   1.295   4.678  2.0753  1.0993 -0.4817
 3270SOL     OW21271   2.742   4.082   8.360 -0.4437 -0.1777 -0.2607
 3270SOL    HW121272   2.803   4.145   8.322  0.0302  1.0689  2.6563
 3270SOL    HW221273   2.688   4.137   8.416  1.7796 -0.7568  2.4424
 3271SOL     OW21274   2.008   3.193  14.901 -0.0025  0.1951  0.0064
 3271SOL    HW121275   2.013   3.127  14.831  1.4063  0.5944 -0.2557
 3271SOL    HW221276   2.098   3.223  14.898 -0.4935  1.6275 -0.5343
 3272SOL     OW21277   0.902   1.502   3.183 -0.4886 -0.0020  0.1701
 3272SOL    HW121278   0.921   1.588   3.147 -0.2116  0.2529  0.9279
 3272SOL    HW221279   0.813   1.496   3.149  0.2609 -1.6605 -1.5322
 3273SOL     OW21280   4.355   2.716   4.508  0.0021 -0.1387  0.1913
 3273SOL    HW121281   4.317   2.773   4.576 -0.7934  0.7591 -1.0094
 3273SOL    HW221282   4.448   2.731   4.525  0.5341 -1.5359 -1.5655
 3274SOL     OW21283   1.645   0.432   3.425 -0.3369  0.3066 -0.0992
 3274SOL    HW121284   1.732   0.435   3.466 -0.4744  0.1020  0.2112
 3274SOL    HW221285   1.647   0.355   3.369  0.1710  0.6125 -0.5004
 3275SOL     OW21286   2.275   3.478   3.856 -0.2545  0.0985  0.3652
 3275SOL    HW121287   2.245   3.568   3.871  0.5914  0.3718  0.4150
 3275SOL    HW221288   2.201   3.439   3.903 -1.5085 -1.4978 -2.9309
 3276SOL     OW21289   3.198   1.612  14.691  0.1520  0.2911  0.2047
 3276SOL    HW121290   3.204   1.706  14.677 -0.7553  0.0471 -1.7946
 3276SOL    HW221291   3.162   1.591  14.605  1.1633 -0.2400 -0.0866
 3277SOL     OW21292   2.440   4.141   5.038  0.0895  0.1244 -0.8005
 3277SOL    HW121293   2.369   4.079   5.024 -0.0163 -0.1073  0.7754
 3277SOL    HW221294   2.521   4.091   5.032 -1.3189 -1.8329 -3.2997
 3278SOL     OW21295   1.433   2.102   6.374  0.1284 -0.1086 -0.1563
 3278SOL    HW121296   1.430   2.015   6.333  1.1739 -0.6845  0.9732
 3278SOL    HW221297   1.459   2.075   6.463  0.2468 -2.3402 -0.8586
 3279SOL     OW21298   2.009   4.406   2.621 -0.2693 -0.1310 -0.1182
 3279SOL    HW121299   1.994   4.491   2.579  1.3184  0.5566  0.7349
 3279SOL    HW221300   2.062   4.351   2.563  1.2618  0.4973  0.7070
 3280SOL     OW21301   1.014   2.446  12.539 -0.4137  0.0762 -0.4769
 3280SOL    HW121302   0.951   2.469  12.471  0.0700  1.0705 -0.5800
 3280SOL    HW221303   1.094   2.492  12.515  0.7807 -0.8481  1.7199
 3281SOL     OW21304   2.715   3.942   2.621  0.0612 -0.2213  0.2855
 3281SOL    HW121305   2.784   3.895   2.574 -1.3725 -0.8292 -1.1832
 3281SOL    HW221306   2.671   3.875   2.673  0.8748  0.5017  1.9265
 3282SOL     OW21307   1.536   3.781  12.470  0.3961  0.8496 -0.1983
 3282SOL    HW121308   1.621   3.742  12.490  0.3092  0.2150 -1.0769
 3282SOL    HW221309   1.563   3.866  12.436 -1.0856  2.1263  1.7969
 3283SOL     OW21310   0.075   1.143   1.780 -1.3172  0.0003 -0.4517
 3283SOL    HW121311   0.074   1.166   1.688  0.5091  0.4694 -0.3648
 3283SOL    HW221312   0.009   1.204   1.814  0.2620  0.7867  1.2467
 3284SOL     OW21313   2.725   4.436   6.833  0.5321 -0.4783 -0.4342
 3284SOL    HW121314   2.717   4.389   6.916  2.4239  0.2435  0.1491
 3284SOL    HW221315   2.802   4.485   6.862 -1.1129  2.1024 -0.4494
 3285SOL     OW21316   1.537   1.654  12.631 -0.0412  0.2261 -0.1375
 3285SOL    HW121317   1.546   1.578  12.574  3.2514  0.9685 -0.5746
 3285SOL    HW221318   1.502   1.604  12.705 -2.1550  2.4881  0.4078
 3286SOL     OW21319   4.251   3.027   3.734  0.2218 -0.6437  0.1327
 3286SOL    HW121320   4.200   3.016   3.815  1.8876 -0.8762  1.1469
 3286SOL    HW221321   4.190   3.066   3.672  0.2707 -0.0174  0.4813
 3287SOL     OW21322   0.390   0.249   6.669 -0.6140 -0.2920  0.3500
 3287SOL    HW121323   0.385   0.281   6.579 -3.0788 -1.8068 -0.0519
 3287SOL    HW221324   0.303   0.215   6.688 -1.8231  2.5127 -0.2425
 3288SOL     OW21325   0.635   2.834   6.956 -0.5824 -0.1453 -0.0585
 3288SOL    HW121326   0.690   2.841   7.034 -0.8059  0.0664  0.0792
 3288SOL    HW221327   0.699   2.820   6.886 -1.3667  2.1412 -1.2277
 3289SOL     OW21328   0.478   1.671   4.382 -0.0595  0.1175 -0.2220
 3289SOL    HW121329   0.555   1.635   4.337  1.0420  0.4354  1.4236
 3289SOL    HW221330   0.494   1.765   4.375 -0.5184  0.1675 -0.6512
 3290SOL     OW21331   0.395   0.786   9.860  0.1897 -0.0509  0.4911
 3290SOL    HW121332   0.445   0.706   9.873  1.0955  0.3949 -0.2002
 3290SOL    HW221333   0.386   0.810   9.953 -1.0984  3.2566 -0.4819
 3291SOL     OW21334   0.268   1.591  11.121 -0.2036  0.9294 -0.4221
 3291SOL    HW121335   0.346   1.541  11.098 -2.0085  0.0195 -4.4773
 3291SOL    HW221336   0.204   1.520  11.130  1.3408 -0.3440  0.4957
 3292SOL     OW21337   3.412   1.419  14.129 -1.1121  0.0739  0.1773
 3292SOL    HW121338   3.455   1.491  14.175  0.9289  0.3562 -2.1447
 3292SOL    HW221339   3.467   1.342  14.146 -2.2020 -0.9430 -0.9351
 3293SOL     OW21340   3.641   0.119  11.355  0.3323  0.0266  0.4308
 3293SOL    HW121341   3.675   0.206  11.376  0.2285  0.0652  0.4404
 3293SOL    HW221342   3.714   0.072  11.394  0.4171  0.6247  0.9800
 3294SOL     OW21343   0.871   2.177   5.353 -0.1693 -0.5059  0.2979
 3294SOL    HW121344   0.878   2.223   5.270  2.8486  2.3647  2.1736
 3294SOL    HW221345   0.805   2.110   5.336 -0.6959 -0.3276  1.6461
 3295SOL     OW21346   2.565   1.156   6.079 -0.0244  0.6219 -0.1718
 3295SOL    HW121347   2.606   1.170   5.994  0.3583  1.4817  0.1583
 3295SOL    HW221348   2.480   1.118   6.055  1.8888 -2.0183 -2.8347
 3296SOL     OW21349   3.024   1.872  14.207  0.0996  0.0826 -0.7236
 3296SOL    HW121350   3.003   1.827  14.125  0.8008  1.0023 -1.4050
 3296SOL    HW221351   3.109   1.831  14.227  0.1158 -0.4214 -1.8193
 3297SOL     OW21352   2.619   4.598   9.396 -0.2976 -0.4381  0.0859
 3297SOL    HW121353   2.575   4.536   9.338  0.8708  0.4018 -1.6913
 3297SOL    HW221354   2.544   4.617   9.452 -0.0365  0.9538 -0.0406
 3298SOL     OW21355   1.726   1.726  14.252  0.1465  0.0884  0.1428
 3298SOL    HW121356   1.724   1.772  14.336 -1.1098 -0.1296  0.2266
 3298SOL    HW221357   1.636   1.697  14.244  0.3304 -0.7460  1.1101
 3299SOL     OW21358   2.108   2.283   4.664  0.3757 -0.6371  0.0933
 3299SOL    HW121359   2.027   2.244   4.631 -0.7900  0.3303  1.8035
 3299SOL    HW221360   2.114   2.361   4.610  0.0722 -0.4173  0.3722
 3300SOL     OW21361   0.359   4.581   7.323 -0.0774  0.1316 -0.1205
 3300SOL    HW121362   0.392   4.595   7.412 -1.3936 -1.3215  0.6047
 3300SOL    HW221363   0.355   4.669   7.286 -0.1481  0.9288  1.7760
 3301SOL     OW21364   0.678   1.924   1.772  0.4068 -0.1369 -0.0612
 3301SOL    HW121365   0.751   1.982   1.747  0.3481  0.9834  2.3720
 3301SOL    HW221366   0.686   1.861   1.700  3.4192 -0.3897  0.4769
 3302SOL     OW21367   1.307   0.167   3.502  0.4042 -0.3572  0.3943
 3302SOL    HW121368   1.283   0.254   3.470 -0.9718 -0.4238  1.2668
 3302SOL    HW221369   1.239   0.155   3.568 -0.8374 -3.2771 -1.3904
 3303SOL     OW21370   2.030   4.299   9.323 -0.4476  0.0099  0.3975
 3303SOL    HW121371   2.071   4.385   9.314 -0.9125  0.2501  0.5375
 3303SOL    HW221372   2.057   4.271   9.410  3.6530 -1.2381 -1.2616
 3304SOL     OW21373   1.175   1.097   3.859  0.2543  0.2637  0.4400
 3304SOL    HW121374   1.248   1.051   3.817 -1.3664 -1.1443 -0.8288
 3304SOL    HW221375   1.220   1.181   3.872 -1.4256  1.4534 -1.3542
 3305SOL     OW21376   4.443   3.754  11.439  0.4342  0.0787  0.1834
 3305SOL    HW121377   4.432   3.660  11.423 -1.2437  0.3078 -0.0780
 3305SOL    HW221378   4.511   3.764  11.373 -0.4106 -3.3900 -1.2599
 3306SOL     OW21379   3.884   2.684   6.305  0.5372 -0.2666  0.0645
 3306SOL    HW121380   3.794   2.684   6.336  0.1315 -1.3987 -1.0883
 3306SOL    HW221381   3.879   2.772   6.267 -2.7371  0.3488  1.9977
 3307SOL     OW21382   0.180   2.245   3.658  0.2549  0.7748  0.2167
 3307SOL    HW121383   0.152   2.337   3.664 -0.2059  0.6088  0.6277
 3307SOL    HW221384   0.203   2.216   3.746 -1.0112 -2.3874 -0.5001
 3308SOL     OW21385   4.416   3.890   0.331 -0.2118 -0.2039 -0.3377
 3308SOL    HW121386   4.438   3.845   0.249 -0.8680  0.6855 -1.0134
 3308SOL    HW221387   4.320   3.899   0.336 -0.1489 -1.1949  2.1768
 3309SOL     OW21388   3.986   3.092   4.697  0.1171 -0.0402 -0.2252
 3309SOL    HW121389   4.018   3.070   4.785 -1.1013  1.0751  0.4781
 3309SOL    HW221390   3.899   3.052   4.699 -0.7374  2.1136  3.9573
 3310SOL     OW21391   2.075   0.088   9.424  0.0972  0.1849 -0.2199
 3310SOL    HW121392   1.995   0.122   9.385 -1.8098 -1.4862  2.2112
 3310SOL    HW221393   2.147   0.118   9.368 -0.0303  2.3349  0.7559
 3311SOL     OW21394   2.137   4.557   7.609 -0.1993  0.1300  0.2035
 3311SOL    HW121395   2.200   4.554   7.537 -1.0756 -0.7929 -0.5105
 3311SOL    HW221396   2.113   4.467   7.631 -1.4318 -0.1246 -2.2999
 3312SOL     OW21397   2.704   3.490   5.076 -0.1792 -0.2382 -0.2385
 3312SOL    HW121398   2.789   3.520   5.042  0.2678  0.0027  1.1205
 3312SOL    HW221399   2.734   3.423   5.138 -3.7641 -0.7325  0.9557
 3313SOL     OW21400   4.055   0.569   8.486 -0.1263  0.1146 -0.1802
 3313SOL    HW121401   4.093   0.494   8.531  1.1959  1.5265  1.0457
 3313SOL    HW221402   4.091   0.642   8.536  2.4805 -1.4910  0.2541
 3314SOL     OW21403   0.089   4.147   4.645 -0.0689 -0.4722  0.3282
 3314SOL    HW121404   0.144   4.075   4.614 -1.7043 -1.9806  0.9376
 3314SOL    HW221405   0.155   4.207   4.679 -0.6532  0.9812 -1.1208
 3315SOL     OW21406   4.458   1.950  11.051  0.6951 -0.2937 -0.3020
 3315SOL    HW121407   4.441   2.045  11.052  0.8093 -0.2700 -1.2711
 3315SOL    HW221408   4.516   1.945  10.975 -2.6626  3.1917 -3.1293
 3316SOL     OW21409   1.317   2.399  15.625  0.0719 -0.2347  0.1725
 3316SOL    HW121410   1.263   2.324  15.651  2.4851 -1.4113  1.7210
 3316SOL    HW221411   1.275   2.475  15.666  0.9247  1.3976 -1.9896
 3317SOL     OW21412   3.951   0.987   7.268 -0.2639 -0.2875  0.1402
 3317SOL    HW121413   3.874   0.973   7.212 -1.1453 -2.6220  1.8899
 3317SOL    HW221414   3.901   0.980   7.350  0.0580 -1.4793  0.2434
 3318SOL     OW21415   2.019   3.936   2.763 -0.4493  0.9006  0.1172
 3318SOL    HW121416   1.997   3.939   2.670 -0.7507  2.2874  0.2212
 3318SOL    HW221417   2.050   4.023   2.788 -0.2498  1.2995 -1.4940
 3319SOL     OW21418   3.531   3.413   4.597  0.3063 -0.2822 -0.4342
 3319SOL    HW121419   3.607   3.463   4.625  0.6955 -2.0689  1.6970
 3319SOL    HW221420   3.488   3.473   4.536  1.0537  1.2796  0.5711
 3320SOL     OW21421   2.926   4.686   6.347 -0.0619 -0.1766 -0.3606
 3320SOL    HW121422   2.874   4.670   6.426  1.2471 -0.4555  0.4675
 3320SOL    HW221423   2.884   0.036   6.305 -0.5715 -0.4784 -0.3843
 3321SOL     OW21424   3.685   3.744  12.197 -0.1316 -0.5781  0.3149
 3321SOL    HW121425   3.692   3.734  12.292  0.9843 -0.4443  0.2471
 3321SOL    HW221426   3.623   3.817  12.187  0.8560 -0.1629 -2.8940
 3322SOL     OW21427   3.096   3.994   5.937 -0.3246 -0.1236  0.2071
 3322SOL    HW121428   3.071   4.012   5.847 -2.5454 -0.4711  0.7587
 3322SOL    HW221429   3.013   3.959   5.969  0.0646 -2.9142 -1.7952
 3323SOL     OW21430   3.167   4.487   5.124  0.3459  0.0734 -0.4333
 3323SOL    HW121431   3.124   4.561   5.168  1.6792  1.7127 -1.9185
 3323SOL    HW221432   3.249   4.487   5.173  0.0785  1.4995  0.0288
 3324SOL     OW21433   4.012   0.275   6.685 -0.9963  0.0677 -0.1717
 3324SOL    HW121434   3.942   0.228   6.731  0.6112 -2.5043 -0.3392
 3324SOL    HW221435   4.087   0.257   6.741 -0.5764 -1.8526 -1.3416
 3325SOL     OW21436   0.612   1.375   9.339 -0.2696 -0.2058 -0.2274
 3325SOL    HW121437   0.688   1.429   9.319  0.3203 -0.2022  1.9661
 3325SOL    HW221438   0.639   1.289   9.371 -0.9016 -0.6649 -0.9399
 3326SOL     OW21439   1.653   3.919  17.230 -0.2383  0.0552  0.3271
 3326SOL    HW121440   1.716   3.907  17.158 -0.8972 -1.2309 -0.0339
 3326SOL    HW221441   1.694   3.979  17.292 -1.6036 -0.7752  2.0024
 3327SOL     OW21442   1.065   2.610   9.280  0.0262 -0.0339  0.1103
 3327SOL    HW121443   1.120   2.671   9.329  1.0642  0.3736 -1.5694
 3327SOL    HW221444   1.124   2.535   9.283 -0.2412 -0.3334 -2.4598
 3328SOL     OW21445   1.012   0.932  14.582 -0.6623 -0.2391 -0.6703
 3328SOL    HW121446   0.934   0.959  14.631 -1.2386  0.6450 -2.0687
 3328SOL    HW221447   1.077   0.970  14.641 -1.4346  0.4458 -0.2589
 3329SOL     OW21448   3.074   0.593   9.558  0.3260 -0.0944 -0.5971
 3329SOL    HW121449   3.017   0.653   9.510 -0.5828  1.0654  1.9583
 3329SOL    HW221450   3.153   0.647   9.558 -1.4404  2.4735  2.0261
 3330SOL     OW21451   4.226   2.883  14.533 -0.2623 -0.4733 -0.5457
 3330SOL    HW121452   4.284   2.823  14.578  0.5540  2.0912  1.8226
 3330SOL    HW221453   4.268   2.894  14.447  1.0955  1.7410  0.3887
 3331SOL     OW21454   1.105   0.286  15.744 -0.4160 -0.0961 -0.1611
 3331SOL    HW121455   1.165   0.251  15.678 -3.0349 -1.9943 -1.4977
 3331SOL    HW221456   1.155   0.355  15.788 -0.2533 -1.9889  2.6487
 3332SOL     OW21457   0.740   4.153   0.126  0.1261 -0.4606 -0.0277
 3332SOL    HW121458   0.776   4.151   0.214 -0.6815  0.4273  0.3190
 3332SOL    HW221459   0.772   4.238   0.095 -1.2588  0.6027  1.5202
 3333SOL     OW21460   1.864   1.034   7.018 -0.7822  0.4910  0.0593
 3333SOL    HW121461   1.869   0.947   7.058 -0.7188  0.3697 -0.2170
 3333SOL    HW221462   1.784   1.027   6.965 -0.7643  0.9950 -0.0328
 3334SOL     OW21463   4.696   2.778   3.008 -0.3139  0.7449 -0.1196
 3334SOL    HW121464   0.039   2.720   2.974 -1.1595 -0.9915  1.1502
 3334SOL    HW221465   4.681   2.838   2.935 -0.3170 -1.1794 -1.7265
 3335SOL     OW21466   0.406   4.572   7.628 -0.8746  0.5081 -0.0904
 3335SOL    HW121467   0.405   4.481   7.656 -2.2760  0.7943  0.7613
 3335SOL    HW221468   0.440   4.618   7.705 -3.0421 -0.8613  1.6863
 3336SOL     OW21469   3.518   2.378   5.802  0.1035 -0.3432 -0.2567
 3336SOL    HW121470   3.507   2.284   5.792 -0.0083 -0.0521 -2.7234
 3336SOL    HW221471   3.567   2.376   5.885  0.1946 -0.1557 -0.3057
 3337SOL     OW21472   2.814   4.352  11.211  0.2469  0.0225 -0.8710
 3337SOL    HW121473   2.874   4.279  11.221  0.9776  0.5422 -1.4167
 3337SOL    HW221474   2.783   4.326  11.124 -0.1491  0.5398 -0.8889
 3338SOL     OW21475   1.631   2.090   4.791  0.0344  0.2840 -0.0629
 3338SOL    HW121476   1.602   2.166   4.843  0.1390 -0.5494  1.2170
 3338SOL    HW221477   1.557   2.030   4.796 -1.0421  1.6081 -0.0272
 3339SOL     OW21478   3.266   0.976   7.834  0.1016  0.6194 -0.0799
 3339SOL    HW121479   3.302   1.053   7.877 -1.1676  0.9928  0.2872
 3339SOL    HW221480   3.179   1.002   7.804  0.1396  1.5207  0.6166
 3340SOL     OW21481   1.240   0.285  10.018 -0.3854  0.1928 -0.3745
 3340SOL    HW121482   1.304   0.282   9.946 -0.7994  1.7853 -0.8074
 3340SOL    HW221483   1.254   0.367  10.066 -0.9023  0.9102 -1.4513
 3341SOL     OW21484   1.335   3.150   5.195 -0.1802 -0.3134  0.2427
 3341SOL    HW121485   1.335   3.140   5.100 -0.8629 -1.8170  0.3934
 3341SOL    HW221486   1.242   3.140   5.215 -0.1882 -0.1022  0.3150
 3342SOL     OW21487   2.151   4.438   3.930  0.0443  0.4848  0.1469
 3342SOL    HW121488   2.216   4.492   3.976 -1.6843  1.8158  1.0018
 3342SOL    HW221489   2.102   4.496   3.872  0.7919  0.5076 -0.4666
 3343SOL     OW21490   3.988   2.728  12.796 -0.0158 -0.3561 -0.2127
 3343SOL    HW121491   3.978   2.764  12.884  0.1995  1.1389 -0.8005
 3343SOL    HW221492   3.953   2.798  12.741  0.6669 -0.4664 -0.7890
 3344SOL     OW21493   1.618   3.462   8.338  0.2537  0.1440 -0.0937
 3344SOL    HW121494   1.637   3.545   8.383 -3.0411 -0.5992  2.6107
 3344SOL    HW221495   1.700   3.446   8.292  0.4431  0.6526  0.0638
 3345SOL     OW21496   0.576   1.117   1.390 -0.2346 -0.0956  0.4121
 3345SOL    HW121497   0.552   1.081   1.476  2.1670  0.7050  1.4316
 3345SOL    HW221498   0.566   1.210   1.409 -2.0649  0.1911 -2.0027
 3346SOL     OW21499   1.421   1.420  10.898  0.1524  0.0729 -0.5020
 3346SOL    HW121500   1.349   1.388  10.953 -0.5321  0.3016 -1.2671
 3346SOL    HW221501   1.401   1.514  10.890 -2.5796 -0.6897 -2.7936
 3347SOL     OW21502   4.156   2.654   3.731  0.2997 -0.1666 -0.3199
 3347SOL    HW121503   4.209   2.575   3.726 -1.6960 -1.5460  0.5117
 3347SOL    HW221504   4.161   2.670   3.825  1.9845 -0.6771 -0.3247
 3348SOL     OW21505   4.465   2.480  12.596  0.2406 -0.0679 -0.1762
 3348SOL    HW121506   4.464   2.385  12.607 -1.4903  0.1574  1.5827
 3348SOL    HW221507   4.548   2.505  12.636  1.1311  1.0839 -2.7125
 3349SOL     OW21508   4.649   3.160   2.380 -0.2812 -0.3494  0.0680
 3349SOL    HW121509   4.608   3.200   2.303  3.3066 -0.4212 -1.8878
 3349SOL    HW221510   4.584   3.090   2.392 -1.8206  1.0806  0.0238
 3350SOL     OW21511   0.662   1.739   2.440 -0.0990  0.5500  0.6865
 3350SOL    HW121512   0.697   1.652   2.418 -0.5577  0.4933  0.1805
 3350SOL    HW221513   0.731   1.798   2.411  2.8355 -2.1048  2.2287
 3351SOL     OW21514   3.901   3.109   8.051 -0.8661 -0.2148  0.0091
 3351SOL    HW121515   3.936   3.068   8.131 -0.5815 -1.0242 -0.5299
 3351SOL    HW221516   3.908   3.030   7.998 -1.9575 -1.2370  1.3584
 3352SOL     OW21517   1.386   1.934   7.954  0.0447 -0.3328 -0.8521
 3352SOL    HW121518   1.434   1.866   8.001 -0.8339  0.2148  0.8569
 3352SOL    HW221519   1.318   1.881   7.913  0.4961 -0.4815 -1.3931
 3353SOL     OW21520   3.172   0.480  11.730 -0.2684  0.5867  0.6339
 3353SOL    HW121521   3.263   0.494  11.703 -0.6249  0.5068 -0.6072
 3353SOL    HW221522   3.172   0.507  11.821 -0.3436  0.1910  0.7500
 3354SOL     OW21523   4.464   0.866   2.247  0.0781  0.1361  0.0695
 3354SOL    HW121524   4.481   0.836   2.157 -2.8822 -2.3722  0.3458
 3354SOL    HW221525   4.387   0.816   2.274  0.2914 -0.0246  0.3830
 3355SOL     OW21526   1.549   1.833   3.269 -0.0204 -0.1743 -0.1271
 3355SOL    HW121527   1.564   1.913   3.220 -0.5245  0.4639  0.7468
 3355SOL    HW221528   1.507   1.869   3.348 -0.1839 -0.0854 -0.2542
 3356SOL     OW21529   4.344   4.259   1.058  0.3247 -0.2499  0.4017
 3356SOL    HW121530   4.368   4.305   0.978 -1.1082 -2.4425 -1.2809
 3356SOL    HW221531   4.313   4.175   1.026  0.3006  0.3107 -1.0177
 3357SOL     OW21532   2.471   2.585   4.204  0.3730  0.2776 -0.4272
 3357SOL    HW121533   2.472   2.564   4.110  0.7117  1.4844 -0.6952
 3357SOL    HW221534   2.508   2.503   4.238 -1.0654 -0.4875 -0.6982
 3358SOL     OW21535   2.522   4.245  14.788  0.0037  0.4355 -0.2134
 3358SOL    HW121536   2.503   4.279  14.700 -0.8558 -1.7278 -0.8625
 3358SOL    HW221537   2.576   4.309  14.834 -0.0848  0.3629 -0.0078
 3359SOL     OW21538   2.831   0.107   5.597  0.5210 -0.0002  0.3208
 3359SOL    HW121539   2.815   0.197   5.624  0.1496  0.5729 -1.7678
 3359SOL    HW221540   2.786   0.060   5.667  0.5545  2.0538  1.6910
 3360SOL     OW21541   0.949   2.448  12.141 -0.3679  0.1147 -0.3095
 3360SOL    HW121542   0.998   2.367  12.124 -1.2027 -0.4786  0.1032
 3360SOL    HW221543   1.010   2.504  12.188  1.2120 -1.5004 -0.4377
 3361SOL     OW21544   1.552   2.510   0.835  0.3246  0.2423  0.5215
 3361SOL    HW121545   1.560   2.594   0.880 -1.5172 -1.4542  3.9907
 3361SOL    HW221546   1.457   2.504   0.835  0.3442 -0.1180  0.5062
 3362SOL     OW21547   2.412   1.426   6.589 -0.1238 -0.4349 -0.0651
 3362SOL    HW121548   2.374   1.373   6.519  0.1003 -2.0459  1.0227
 3362SOL    HW221549   2.416   1.361   6.660  4.0748 -0.9530 -0.7869
 3363SOL     OW21550   1.076   1.401   0.361  0.5222 -0.7469 -0.0734
 3363SOL    HW121551   1.058   1.320   0.313  0.4746  0.3266 -1.8410
 3363SOL    HW221552   1.012   1.456   0.315  3.3800  0.8042 -2.1725
 3364SOL     OW21553   0.874   0.127   1.033 -0.6617 -0.1457 -0.5282
 3364SOL    HW121554   0.948   0.188   1.022  2.0143 -3.2702  0.1281
 3364SOL    HW221555   0.816   0.172   0.972 -2.3492 -0.4263  0.8565
 3365SOL     OW21556   1.327   0.177   9.456  0.5964  0.5884 -0.0198
 3365SOL    HW121557   1.330   0.257   9.404  1.5984  1.9047  2.1278
 3365SOL    HW221558   1.248   0.195   9.507  0.0207  0.7553 -0.9612
 3366SOL     OW21559   4.404   3.267   3.374  0.4104  0.1611  1.0161
 3366SOL    HW121560   4.463   3.256   3.449 -0.3533 -0.6810  1.4928
 3366SOL    HW221561   4.468   3.301   3.311 -0.2135  0.5980  0.6136
 3367SOL     OW21562   2.250   0.649   6.832  0.4170  0.0245 -0.1424
 3367SOL    HW121563   2.267   0.719   6.895 -2.1126 -0.7271  1.3902
 3367SOL    HW221564   2.170   0.678   6.787 -0.7474 -0.8128  1.3821
 3368SOL     OW21565   2.712   1.668  12.801  0.0332 -0.1996  0.1006
 3368SOL    HW121566   2.797   1.640  12.836  0.8539  1.7643 -0.3686
 3368SOL    HW221567   2.730   1.759  12.825 -0.2800  0.1110 -0.8484
 3369SOL     OW21568   2.073   2.793   2.925  0.2637  0.5258 -0.0082
 3369SOL    HW121569   1.979   2.808   2.934  0.5164  1.5311  0.9254
 3369SOL    HW221570   2.075   2.730   2.853 -0.2238 -1.1230  1.4150
 3370SOL     OW21571   1.796   3.302  15.019 -0.4588  0.0491 -0.0144
 3370SOL    HW121572   1.726   3.290  14.955 -0.5895  0.7146  0.0069
 3370SOL    HW221573   1.875   3.267  14.977 -0.1946 -0.3201  0.7855
 3371SOL     OW21574   0.053   0.985   7.652  0.0795  0.3164 -0.6673
 3371SOL    HW121575   0.115   1.048   7.615  1.6523 -0.7991  0.0830
 3371SOL    HW221576   4.699   0.993   7.598  0.4794  1.9181 -1.0071
 3372SOL     OW21577   1.376   3.473   8.858  0.1084  0.5218  0.5194
 3372SOL    HW121578   1.355   3.407   8.923  1.5228 -0.3157  0.1262
 3372SOL    HW221579   1.334   3.427   8.786  0.4611  0.2699  0.4780
 3373SOL     OW21580   3.435   2.955  15.454 -0.0879  0.0469 -0.5119
 3373SOL    HW121581   3.518   2.985  15.418  0.5738 -0.7270  0.3605
 3373SOL    HW221582   3.460   2.958  15.546 -0.7795 -1.1362 -0.2851
 3374SOL     OW21583   4.504   1.668   9.134  0.2391 -0.0558  0.1974
 3374SOL    HW121584   4.556   1.659   9.054 -1.3903  1.7958 -1.0746
 3374SOL    HW221585   4.572   1.664   9.201  0.2217 -1.0449  0.1604
 3375SOL     OW21586   3.363   3.620   9.211  0.1540  0.5507  0.1133
 3375SOL    HW121587   3.303   3.684   9.249 -0.7153  0.0791 -0.4546
 3375SOL    HW221588   3.428   3.628   9.281 -0.4566  0.7984  0.6478
 3376SOL     OW21589   2.336   0.791  10.649  0.0173  0.0681 -0.6085
 3376SOL    HW121590   2.366   0.717  10.596 -0.4103 -0.2509 -0.4055
 3376SOL    HW221591   2.409   0.794  10.711 -0.4827  0.7425 -0.0605
 3377SOL     OW21592   1.928   1.387   5.140  0.2418 -0.2591  0.4154
 3377SOL    HW121593   1.957   1.351   5.056  3.4731  0.9752  0.9852
 3377SOL    HW221594   1.836   1.401   5.120  0.1106  0.2221  1.3430
 3378SOL     OW21595   2.524   1.038  15.740 -0.4239  0.8299  0.0205
 3378SOL    HW121596   2.521   1.093  15.818 -2.0821  0.8108 -0.0229
 3378SOL    HW221597   2.572   1.089  15.674 -0.1524 -0.0815 -0.4963
 3379SOL     OW21598   0.394   3.799   3.394 -0.3435 -0.0512 -0.1511
 3379SOL    HW121599   0.334   3.727   3.371  2.3301 -2.3221 -0.0342
 3379SOL    HW221600   0.391   3.788   3.489  0.1829  0.0981 -0.1209
 3380SOL     OW21601   3.147   0.741   8.252  0.1724 -0.0047  0.3434
 3380SOL    HW121602   3.222   0.743   8.193 -0.1856 -1.2116 -0.1376
 3380SOL    HW221603   3.092   0.680   8.204 -0.0296  0.3622  0.1142
 3381SOL     OW21604   2.419   1.662   8.506 -0.1428  0.2805  0.0445
 3381SOL    HW121605   2.372   1.711   8.438 -1.9072 -0.7672  0.5207
 3381SOL    HW221606   2.438   1.583   8.454  2.9361  1.7922 -1.1606
 3382SOL     OW21607   4.419   1.838  12.338 -0.0329  0.0491  0.0945
 3382SOL    HW121608   4.437   1.885  12.419  0.8632 -0.7399  0.3540
 3382SOL    HW221609   4.441   1.746  12.354 -1.2025 -0.2790 -0.2041
 3383SOL     OW21610   0.408   1.578   6.758 -0.2770  0.6529  0.3741
 3383SOL    HW121611   0.322   1.537   6.762 -0.5095  1.1966  0.9785
 3383SOL    HW221612   0.426   1.579   6.664 -2.3425  0.9797 -0.0117
 3384SOL     OW21613   1.407   0.580   7.221  0.2241 -0.5273 -0.1008
 3384SOL    HW121614   1.483   0.551   7.171  0.1970 -2.5480  0.9978
 3384SOL    HW221615   1.445   0.597   7.308 -1.3022 -0.6916  0.6038
 3385SOL     OW21616   1.612   3.438  13.260 -0.1563 -0.1796 -0.4333
 3385SOL    HW121617   1.580   3.501  13.325 -0.6565 -0.8370 -0.0425
 3385SOL    HW221618   1.686   3.482  13.218  0.1890 -0.7608 -0.4395
 3386SOL     OW21619   2.649   1.909   9.529  0.3645  0.0134 -0.8298
 3386SOL    HW121620   2.667   2.001   9.548 -2.6309  0.5542 -0.5829
 3386SOL    HW221621   2.558   1.922   9.502  0.2485 -0.1940 -0.5281
 3387SOL     OW21622   2.933   1.676   5.395  0.1415 -0.2237  0.8382
 3387SOL    HW121623   2.886   1.758   5.408  0.8968  0.4358 -0.6800
 3387SOL    HW221624   2.923   1.662   5.301  1.7678 -1.3915  0.8390
 3388SOL     OW21625   1.602   2.710   5.741 -0.1187  0.6317  0.1678
 3388SOL    HW121626   1.642   2.796   5.729  1.5774 -0.4342 -2.0409
 3388SOL    HW221627   1.671   2.646   5.723 -0.6889  0.3971 -1.2301
 3389SOL     OW21628   3.485   0.960   6.345  0.0129 -0.0915 -0.0154
 3389SOL    HW121629   3.545   0.887   6.328 -0.5171 -0.6975  0.7083
 3389SOL    HW221630   3.473   0.938   6.438 -0.0735 -1.3599 -0.3273
 3390SOL     OW21631   0.155   2.372  10.836  0.2585 -0.1783 -0.1969
 3390SOL    HW121632   0.158   2.434  10.909  0.9390  2.1500 -2.2059
 3390SOL    HW221633   0.177   2.293  10.885  1.1496 -1.7462 -3.1097
 3391SOL     OW21634   0.135   0.549   4.954  0.3462  0.0034  0.8689
 3391SOL    HW121635   0.089   0.468   4.976  0.1375 -0.7842 -2.4817
 3391SOL    HW221636   0.218   0.537   5.001 -0.2120 -3.4631  0.9822
 3392SOL     OW21637   2.823   2.469   7.296 -0.0636 -0.1451  0.3189
 3392SOL    HW121638   2.771   2.538   7.337  1.3813  0.1011  1.7032
 3392SOL    HW221639   2.903   2.521   7.287  0.0290 -0.0846  1.5005
 3393SOL     OW21640   1.528   0.426   4.769  0.3417  0.3208 -0.3593
 3393SOL    HW121641   1.521   0.401   4.861 -0.1296 -2.2603 -1.0875
 3393SOL    HW221642   1.518   0.521   4.779  0.8594  0.0846  2.3257
 3394SOL     OW21643   1.790   0.788   0.825 -0.1130  0.9451 -0.2659
 3394SOL    HW121644   1.751   0.817   0.907 -2.2707  0.7214 -1.1897
 3394SOL    HW221645   1.865   0.845   0.808  0.0690  0.4409 -1.1414
 3395SOL     OW21646   3.597   0.950   2.534  0.3234 -0.0253 -0.3120
 3395SOL    HW121647   3.576   1.041   2.513  2.5657  0.4888 -0.3704
 3395SOL    HW221648   3.522   0.930   2.590  3.3656 -3.3102  2.6722
 3396SOL     OW21649   0.216   4.700   1.285  0.0332  0.3922 -0.2843
 3396SOL    HW121650   0.250   4.627   1.336 -0.3362 -0.8558 -1.8214
 3396SOL    HW221651   0.137   4.665   1.244 -0.4339  0.8778  0.1937
 3397SOL     OW21652   0.807   4.678   1.508 -0.2813 -0.3844  0.6274
 3397SOL    HW121653   0.875   4.665   1.441 -0.4692  0.9382  0.1992
 3397SOL    HW221654   0.862   4.658   1.584 -0.4903  0.0363  0.8877
 3398SOL     OW21655   4.202   2.515   7.396  0.1027  0.0643 -0.3166
 3398SOL    HW121656   4.124   2.491   7.445  1.8148  1.2334  2.9646
 3398SOL    HW221657   4.254   2.574   7.451  1.5780  1.3531 -3.0528
 3399SOL     OW21658   0.811   0.334   1.983  0.4591  0.5713 -0.7122
 3399SOL    HW121659   0.778   0.244   1.983 -0.3831  0.8828 -2.2206
 3399SOL    HW221660   0.826   0.343   1.889  1.1577  0.5217 -0.6038
 3400SOL     OW21661   3.434   2.083   9.498 -0.0779  0.2270 -0.5265
 3400SOL    HW121662   3.492   2.064   9.425  1.2150  0.9897  0.3192
 3400SOL    HW221663   3.474   2.158   9.542  0.0062  0.6346 -1.3006
 3401SOL     OW21664   0.587   3.498   8.414 -0.0407 -0.5456 -0.3192
 3401SOL    HW121665   0.636   3.510   8.496  0.8248 -1.6528 -0.6793
 3401SOL    HW221666   0.499   3.494   8.450  0.3354 -0.4818  0.6196
 3402SOL     OW21667   1.759   3.496   5.873 -0.4303  0.3379  0.0748
 3402SOL    HW121668   1.832   3.541   5.831 -0.4626 -1.2196 -1.6527
 3402SOL    HW221669   1.759   3.524   5.965  0.3787  0.3080  0.0837
 3403SOL     OW21670   1.107   4.178   2.079 -0.2908  0.3259 -0.1367
 3403SOL    HW121671   1.187   4.132   2.053 -1.0445 -2.3447  2.2046
 3403SOL    HW221672   1.052   4.112   2.036 -0.6128  1.9755 -2.2698
 3404SOL     OW21673   2.871   3.833   8.894 -0.4880 -0.0190  0.5390
 3404SOL    HW121674   2.805   3.881   8.845  1.1875  0.6587 -1.0513
 3404SOL    HW221675   2.821   3.754   8.915 -0.9101  0.0781 -0.1168
 3405SOL     OW21676   3.719   1.262   7.019 -0.4887  0.2354  0.3972
 3405SOL    HW121677   3.668   1.242   7.097  0.7303 -2.0153  0.6018
 3405SOL    HW221678   3.713   1.358   7.021 -0.3391  0.2560 -0.1801
 3406SOL     OW21679   0.657   0.969  10.104  0.6702  0.0347 -0.0876
 3406SOL    HW121680   0.703   1.008  10.030  0.9860  0.3822  0.2904
 3406SOL    HW221681   0.734   0.929  10.145 -3.6488 -4.0908  3.9706
 3407SOL     OW21682   3.076   3.638   3.951  0.3186 -0.1014 -0.3707
 3407SOL    HW121683   3.119   3.567   3.903  2.6592  0.9930  0.1531
 3407SOL    HW221684   3.001   3.658   3.895 -0.6961 -1.5527  0.4679
 3408SOL     OW21685   2.580   2.422  12.735 -0.1966 -0.4002  0.3615
 3408SOL    HW121686   2.609   2.490  12.795  0.6987 -2.3729  2.1849
 3408SOL    HW221687   2.572   2.348  12.795 -0.9837 -2.5974 -2.4266
 3409SOL     OW21688   3.833   2.866   9.634 -0.4431  0.4885 -0.4140
 3409SOL    HW121689   3.897   2.928   9.668  1.6480 -1.9777  0.1093
 3409SOL    HW221690   3.876   2.825   9.558 -0.9877  0.6880 -0.8356
 3410SOL     OW21691   3.316   2.748   5.671  0.1286 -0.2155  0.2123
 3410SOL    HW121692   3.400   2.746   5.625  1.4917  3.2901  2.5475
 3410SOL    HW221693   3.293   2.656   5.659 -1.6105  0.4708 -1.5558
 3411SOL     OW21694   2.074   2.206   8.191  0.2973  0.0147  0.0262
 3411SOL    HW121695   2.050   2.298   8.195 -1.5378 -0.2972 -3.4312
 3411SOL    HW221696   2.168   2.215   8.175 -0.0156  1.3214 -1.1116
 3412SOL     OW21697   2.032   3.772   5.756  0.1773 -0.0392  0.0336
 3412SOL    HW121698   2.070   3.792   5.841  0.6496 -2.7372  0.4678
 3412SOL    HW221699   1.969   3.843   5.769  1.0977  1.3452 -3.1520
 3413SOL     OW21700   0.834   0.487   8.834  0.3321  0.1808 -0.1060
 3413SOL    HW121701   0.815   0.395   8.853  2.2096 -0.5960 -2.0451
 3413SOL    HW221702   0.758   0.519   8.786  1.4083 -0.1437 -2.0244
 3414SOL     OW21703   4.181   1.820   8.249  0.2109 -0.0084  0.0181
 3414SOL    HW121704   4.149   1.809   8.338 -2.3576  0.9918 -0.7740
 3414SOL    HW221705   4.146   1.749   8.196 -1.3615  0.2662  0.6934
 3415SOL     OW21706   1.339   3.182   2.848 -0.1119 -0.2741  0.3657
 3415SOL    HW121707   1.414   3.225   2.889  1.3980 -3.8647  1.4060
 3415SOL    HW221708   1.324   3.234   2.769  0.1362 -1.9209 -0.7711
 3416SOL     OW21709   2.807   4.229   6.514  0.1975 -0.1193  0.1088
 3416SOL    HW121710   2.864   4.293   6.557  0.3592  0.2183 -0.6216
 3416SOL    HW221711   2.859   4.192   6.443 -0.9628 -0.6970 -0.4422
 3417SOL     OW21712   3.828   3.800   6.797 -0.0894 -0.0020  0.0789
 3417SOL    HW121713   3.803   3.756   6.878  1.0417  0.5991  0.7711
 3417SOL    HW221714   3.915   3.834   6.818 -0.4999  0.8484  0.4056
 3418SOL     OW21715   2.447   2.328   6.574  0.5058 -0.0969 -0.1947
 3418SOL    HW121716   2.484   2.241   6.556 -0.4791 -0.6351  0.3977
 3418SOL    HW221717   2.356   2.314   6.597  1.0511 -1.6373  1.0350
 3419SOL     OW21718   1.237   3.038  15.448 -0.1937 -0.2680 -0.0495
 3419SOL    HW121719   1.236   3.131  15.471  1.1094  0.3229 -2.3392
 3419SOL    HW221720   1.313   3.028  15.392  0.7764 -3.0436  1.7414
 3420SOL     OW21721   1.324   4.266   4.058 -0.1045 -0.4160 -0.2098
 3420SOL    HW121722   1.294   4.296   4.144  0.7389  0.9697 -0.3958
 3420SOL    HW221723   1.420   4.260   4.060 -0.1472 -0.8837  0.5006
 3421SOL     OW21724   1.830   0.140  17.698 -0.1497  0.0491  0.2707
 3421SOL    HW121725   1.788   0.091   0.069 -1.3584 -0.9241 -1.1061
 3421SOL    HW221726   1.775   0.127  17.620  3.1302 -0.7354 -1.9316
 3422SOL     OW21727   3.496   0.022   9.229  0.6816 -0.4459  0.3301
 3422SOL    HW121728   3.447   0.007   9.148 -0.2680  1.7069  0.4946
 3422SOL    HW221729   3.547   0.100   9.205  0.6928 -0.7154 -0.5482
 3423SOL     OW21730   0.255   1.414   2.777 -0.2373  0.6762  0.2553
 3423SOL    HW121731   0.256   1.478   2.706 -0.4789  1.2268  0.7465
 3423SOL    HW221732   0.161   1.395   2.780 -0.1451  0.1296 -0.4476
 3424SOL     OW21733   2.652   4.184   6.969  0.0497 -0.0807  0.8017
 3424SOL    HW121734   2.664   4.137   6.886  0.6238 -1.4049  1.6357
 3424SOL    HW221735   2.718   4.130   7.013 -1.5420 -1.1098  1.9001
 3425SOL     OW21736   0.589   2.535   5.769  0.4343  0.0028  0.0828
 3425SOL    HW121737   0.580   2.530   5.864 -0.2355  1.4336  0.0868
 3425SOL    HW221738   0.550   2.618   5.745 -0.2426  0.6688  3.5583
 3426SOL     OW21739   3.570   0.400   2.895  0.4112 -0.2957 -0.0372
 3426SOL    HW121740   3.639   0.372   2.834  1.0627 -0.8350  0.9562
 3426SOL    HW221741   3.499   0.342   2.869 -1.2669  1.8518 -0.2581
 3427SOL     OW21742   3.302   3.369  16.697  0.2557 -0.2621  0.2308
 3427SOL    HW121743   3.375   3.333  16.748  2.2566 -0.0444 -2.4941
 3427SOL    HW221744   3.235   3.355  16.764  0.2097 -1.0866  0.0108
 3428SOL     OW21745   0.743   2.388   2.637 -0.0335 -0.5862 -0.5922
 3428SOL    HW121746   0.784   2.306   2.612  1.7559 -0.4553  1.8738
 3428SOL    HW221747   0.771   2.439   2.562  0.0113 -1.3327 -1.0802
 3429SOL     OW21748   1.079   4.486   2.842  0.8406  0.0028  0.6631
 3429SOL    HW121749   1.137   4.410   2.855  3.9168  1.5691 -3.9187
 3429SOL    HW221750   1.146   4.552   2.826  0.7912 -0.3661 -1.0687
 3430SOL     OW21751   4.365   3.187   8.633  0.1378  0.5869  1.1331
 3430SOL    HW121752   4.272   3.186   8.652  0.2646  1.5387  1.8337
 3430SOL    HW221753   4.371   3.255   8.565 -1.8811 -0.1821  0.2174
 3431SOL     OW21754   3.738   0.989   6.771  0.6928  0.1958  0.3349
 3431SOL    HW121755   3.669   0.991   6.837  1.6418 -0.3080  1.3527
 3431SOL    HW221756   3.801   0.925   6.804  0.1705 -0.3228  0.3290
 3432SOL     OW21757   2.309   4.194   6.500  0.1504  0.4876  0.8555
 3432SOL    HW121758   2.281   4.273   6.453  0.3839 -0.3805 -0.7488
 3432SOL    HW221759   2.379   4.153   6.448  0.0809  0.2332  0.9641
 3433SOL     OW21760   1.521   2.733   1.031 -0.3655 -0.2246 -0.4278
 3433SOL    HW121761   1.478   2.720   1.116  1.2663  0.1333  0.4369
 3433SOL    HW221762   1.477   2.812   0.999 -1.1409 -1.1157 -1.5651
 3434SOL     OW21763   0.086   3.578   5.708 -0.5503  0.0534 -0.3099
 3434SOL    HW121764   0.026   3.572   5.782 -1.9762  0.9141 -1.4046
 3434SOL    HW221765   0.044   3.534   5.634  0.2821 -1.1065 -0.0838
 3435SOL     OW21766   3.506   4.318  11.888  0.5121 -0.5421 -0.7974
 3435SOL    HW121767   3.519   4.299  11.981  0.4590  0.3151 -0.6124
 3435SOL    HW221768   3.571   4.259  11.851 -0.2937  0.0977 -3.2288
 3436SOL     OW21769   4.091   4.690   2.749  0.0871 -0.1777  0.4464
 3436SOL    HW121770   4.098   4.641   2.668  0.0498  2.5081 -1.1796
 3436SOL    HW221771   4.181   4.722   2.756  1.2288 -3.1355 -1.0819
 3437SOL     OW21772   0.155   3.527  15.099  0.3842 -0.0312  0.9229
 3437SOL    HW121773   0.146   3.436  15.070  2.4036  0.3640 -0.9526
 3437SOL    HW221774   0.246   3.542  15.124  0.8228  0.7685 -1.1483
 3438SOL     OW21775   3.176   1.847   6.007 -0.4364  0.4198  0.5148
 3438SOL    HW121776   3.119   1.875   5.936 -1.0171 -2.5098 -0.1698
 3438SOL    HW221777   3.142   1.893   6.084 -2.4079 -0.0030 -0.1004
 3439SOL     OW21778   4.469   4.629  15.181  0.3965 -0.0233  0.2877
 3439SOL    HW121779   4.438   4.679  15.257  1.9937 -0.0085  0.9324
 3439SOL    HW221780   4.516   4.557  15.223 -0.0617  0.3182  1.3968
 3440SOL     OW21781   2.659   1.254  15.249 -0.7682  0.3825  0.3543
 3440SOL    HW121782   2.628   1.334  15.290  0.8366  1.3733 -0.3377
 3440SOL    HW221783   2.666   1.282  15.157 -0.3236 -1.1190 -0.0735
 3441SOL     OW21784   3.056   1.849   1.829 -0.3672  0.3613 -0.0239
 3441SOL    HW121785   3.039   1.825   1.738 -0.9600  0.5338  0.0450
 3441SOL    HW221786   2.965   1.849   1.859  0.3536 -0.1443  2.1496
 3442SOL     OW21787   1.136   3.674   9.903  0.7844  0.1890 -0.5495
 3442SOL    HW121788   1.211   3.697   9.959 -0.1518 -1.4564  1.3795
 3442SOL    HW221789   1.069   3.733   9.937 -0.3135 -0.3974 -1.7269
 3443SOL     OW21790   0.408   4.663   4.142  0.5824 -0.1197 -0.4995
 3443SOL    HW121791   0.497   4.697   4.154 -0.1599  1.6394 -0.0307
 3443SOL    HW221792   0.355   4.696   4.214 -0.9558 -1.2362 -1.1232
 3444SOL     OW21793   1.213   3.536   7.129 -0.4275 -0.2350  0.3712
 3444SOL    HW121794   1.277   3.552   7.199 -0.5888 -2.3608  0.9815
 3444SOL    HW221795   1.136   3.585   7.158  0.5316  1.8476 -0.5660
 3445SOL     OW21796   4.001   4.620  12.253 -0.0987 -0.0485  0.0649
 3445SOL    HW121797   4.046   4.651  12.332  0.2379 -0.4121  0.0150
 3445SOL    HW221798   4.037   4.683  12.190  0.9136 -1.4078 -0.6967
 3446SOL     OW21799   4.405   3.669   2.892 -0.2667 -0.1764  0.2156
 3446SOL    HW121800   4.322   3.710   2.867  0.1306  1.0748  0.9750
 3446SOL    HW221801   4.456   3.745   2.917 -2.9614  0.8165  2.7163
 3447SOL     OW21802   1.233   0.963   0.754 -1.0511  0.0733  0.8740
 3447SOL    HW121803   1.143   0.947   0.781 -1.8264  1.9883 -0.5540
 3447SOL    HW221804   1.257   0.888   0.700  0.2346 -0.7678  2.6149
 3448SOL     OW21805   0.456   3.172   1.458 -0.3065  0.2313  0.7506
 3448SOL    HW121806   0.391   3.234   1.426  0.4782  0.4867 -0.3467
 3448SOL    HW221807   0.415   3.165   1.544  1.1590  1.2568  1.5392
 3449SOL     OW21808   4.183   3.839   3.154 -0.7991 -0.6109 -0.0737
 3449SOL    HW121809   4.169   3.882   3.239 -2.9594 -3.2225  0.8818
 3449SOL    HW221810   4.157   3.910   3.095 -0.7322  1.0467  1.8914
 3450SOL     OW21811   1.760   1.442   7.934 -0.2042 -0.3108 -0.1925
 3450SOL    HW121812   1.836   1.398   7.970 -0.4240 -0.3297  0.2529
 3450SOL    HW221813   1.748   1.411   7.844  1.0360  0.8687 -0.7462
 3451SOL     OW21814   3.878   4.508   9.723  0.1711  0.3401  0.3697
 3451SOL    HW121815   3.967   4.529   9.751 -0.8478  1.2450  2.8610
 3451SOL    HW221816   3.840   4.594   9.744 -0.6491 -0.4250  2.0134
 3452SOL     OW21817   1.142   1.084   8.154 -0.2669 -0.0152  0.4414
 3452SOL    HW121818   1.112   1.070   8.064 -0.8683 -1.3757  0.8489
 3452SOL    HW221819   1.055   1.091   8.191  0.3981 -0.5508  2.1143
 3453SOL     OW21820   4.350   1.055   1.354  0.4368  0.2068  0.0052
 3453SOL    HW121821   4.337   1.139   1.311  1.8196  0.6511  0.4375
 3453SOL    HW221822   4.351   1.091   1.443  1.3586 -1.5696  0.7042
 3454SOL     OW21823   1.100   1.593  14.030  0.1509  0.2981 -0.0331
 3454SOL    HW121824   1.161   1.631  14.092  1.2769  0.9170 -1.5183
 3454SOL    HW221825   1.124   1.501  14.033 -1.0055 -0.0344 -0.8100
 3455SOL     OW21826   3.324   1.382   4.330 -0.1483  0.1889 -0.2519
 3455SOL    HW121827   3.323   1.385   4.234  0.9062  0.0639 -0.2646
 3455SOL    HW221828   3.404   1.334   4.349  0.2837  1.0456  0.1024
 3456SOL     OW21829   1.884   0.723  16.162  0.2771  0.6010  0.1370
 3456SOL    HW121830   1.822   0.672  16.110  1.8388 -0.7351 -0.4272
 3456SOL    HW221831   1.879   0.812  16.129 -3.2372  0.1412 -0.5285
 3457SOL     OW21832   1.093   0.189   7.854  0.1545  0.1504  0.2159
 3457SOL    HW121833   1.107   0.142   7.935  0.5478  0.6795  0.4527
 3457SOL    HW221834   1.152   0.263   7.866 -1.0833  1.6749 -2.8855
 3458SOL     OW21835   0.911   4.086   8.798  0.0704  0.4446 -1.0291
 3458SOL    HW121836   0.841   4.135   8.842  1.6136 -0.9604  2.9068
 3458SOL    HW221837   0.857   4.016   8.760 -0.3382 -0.3069  0.9382
 3459SOL     OW21838   2.458   4.342   7.773  0.2509 -0.6842 -0.4093
 3459SOL    HW121839   2.494   4.260   7.740  0.0699 -0.5925 -0.8308
 3459SOL    HW221840   2.455   4.404   7.701 -0.6420  0.0235  0.2331
 3460SOL     OW21841   4.249   0.749   6.422  0.1941  0.0279 -0.5348
 3460SOL    HW121842   4.243   0.837   6.457  0.0684  0.4566 -1.6264
 3460SOL    HW221843   4.302   0.700   6.485 -0.6183 -0.1656 -0.0050
 3461SOL     OW21844   0.558   0.149   8.389 -0.2889 -0.2250  0.1501
 3461SOL    HW121845   0.553   0.213   8.318 -1.5001 -1.6154 -1.0216
 3461SOL    HW221846   0.465   0.129   8.395 -0.5203  0.6679 -0.5930
 3462SOL     OW21847   3.568   2.360   8.211 -0.6110 -0.2657 -0.3081
 3462SOL    HW121848   3.473   2.356   8.221 -0.4803 -1.6144  0.2890
 3462SOL    HW221849   3.588   2.446   8.174  0.8043 -0.5577 -0.2095
 3463SOL     OW21850   2.899   0.879   4.206  0.7090 -0.7191  0.6241
 3463SOL    HW121851   2.883   0.974   4.204 -1.2848 -1.0868 -0.4786
 3463SOL    HW221852   2.899   0.853   4.114 -0.0517 -0.3942  0.5289
 3464SOL     OW21853   3.140   1.504  14.118 -0.1127 -0.2119  0.0167
 3464SOL    HW121854   3.081   1.428  14.111  0.8775 -1.0236  0.5040
 3464SOL    HW221855   3.223   1.463  14.140 -0.7424 -1.1686  0.6153
 3465SOL     OW21856   0.051   3.387   6.831 -0.7455 -0.3499 -0.6040
 3465SOL    HW121857   0.073   3.316   6.891 -1.3913  1.1333  1.4024
 3465SOL    HW221858   0.096   3.464   6.866 -0.6129  0.3386 -2.2825
 3466SOL     OW21859   4.361   4.401   4.522  0.7649  0.8292  0.3674
 3466SOL    HW121860   4.307   4.326   4.543  1.8023  0.4055  1.5428
 3466SOL    HW221861   4.430   4.359   4.470  0.2382  0.0490  0.3078
 3467SOL     OW21862   2.338   0.706   4.787 -0.1411  0.1010 -0.5987
 3467SOL    HW121863   2.367   0.794   4.813 -1.6590  0.3337  0.3154
 3467SOL    HW221864   2.247   0.707   4.817  0.8514 -0.5733  2.3505
 3468SOL     OW21865   3.524   0.826   9.094 -0.0823 -0.3652  0.1118
 3468SOL    HW121866   3.469   0.771   9.149 -0.5860  0.7523  0.7218
 3468SOL    HW221867   3.458   0.858   9.032 -0.2413  1.0258  1.0033
 3469SOL     OW21868   0.466   3.936   8.934 -0.6475 -0.1577 -0.1075
 3469SOL    HW121869   0.460   3.914   9.027  1.9280  2.1720  0.6174
 3469SOL    HW221870   0.389   3.992   8.930 -0.4559  0.1353  0.3163
 3470SOL     OW21871   3.518   1.613  14.290  0.2241  0.4112 -0.4560
 3470SOL    HW121872   3.568   1.558  14.350  1.1741  1.0659 -0.6557
 3470SOL    HW221873   3.581   1.685  14.286  0.4521  0.2712  0.6469
 3471SOL     OW21874   4.059   0.788   4.286  0.3142  0.0567  0.0395
 3471SOL    HW121875   4.138   0.840   4.270 -1.3092  2.1683 -1.1625
 3471SOL    HW221876   4.097   0.747   4.364 -0.3002 -0.8150 -0.1271
 3472SOL     OW21877   3.818   3.346   2.785 -0.5185 -0.0166 -0.5365
 3472SOL    HW121878   3.877   3.302   2.724  0.9180  0.1134  0.7415
 3472SOL    HW221879   3.857   3.327   2.871  1.9272  0.6009 -1.4902
 3473SOL     OW21880   2.413   2.550   2.930  0.8318 -0.1417  0.4350
 3473SOL    HW121881   2.449   2.638   2.942  1.9284 -0.6425  0.7648
 3473SOL    HW221882   2.318   2.562   2.930  0.9145  0.5378  0.8556
 3474SOL     OW21883   2.156   3.071  16.079  0.6516 -0.2735  0.4902
 3474SOL    HW121884   2.183   3.022  16.001 -1.0132  2.0325 -1.4964
 3474SOL    HW221885   2.203   3.148  16.047  0.9427 -1.5566 -2.1866
 3475SOL     OW21886   3.363   4.474  16.317 -0.3988  0.0257 -0.2135
 3475SOL    HW121887   3.338   4.443  16.230  0.5456 -3.8463  0.9178
 3475SOL    HW221888   3.451   4.510  16.306  0.6325 -2.9154 -1.6452
 3476SOL     OW21889   3.047   2.632  10.634  0.6038  0.0785 -0.4332
 3476SOL    HW121890   3.140   2.614  10.622  0.7501  0.5014  0.0577
 3476SOL    HW221891   3.052   2.667  10.723 -0.6064  3.9497 -1.8987
 3477SOL     OW21892   0.582   3.430  13.500 -0.1070 -0.2855 -0.0107
 3477SOL    HW121893   0.677   3.434  13.509 -0.0481 -0.5641 -0.5337
 3477SOL    HW221894   0.555   3.412  13.590  1.9821  0.3818  0.7640
 3478SOL     OW21895   3.604   2.979   8.853 -0.2787 -0.5519  0.3202
 3478SOL    HW121896   3.660   2.961   8.928 -1.6996 -0.4014  1.4214
 3478SOL    HW221897   3.609   2.898   8.802  1.2147 -0.2085 -0.0800
 3479SOL     OW21898   2.170   1.735  16.847 -0.0708 -0.0401 -0.4414
 3479SOL    HW121899   2.221   1.758  16.770 -0.9689  1.9252 -0.4353
 3479SOL    HW221900   2.110   1.667  16.817  0.9786 -1.3431  0.4300
 3480SOL     OW21901   0.236   2.260   1.971 -0.7397  0.0179  0.2701
 3480SOL    HW121902   0.227   2.264   2.066  0.5479  2.0713  0.3090
 3480SOL    HW221903   0.330   2.273   1.954 -0.5921 -0.5436  0.6488
 3481SOL     OW21904   0.702   2.657   1.609 -0.3367  0.4935  0.3001
 3481SOL    HW121905   0.654   2.594   1.556 -0.4920 -0.5682  1.6883
 3481SOL    HW221906   0.691   2.737   1.558  0.8581  0.4623 -0.0155
 3482SOL     OW21907   2.926   2.241   8.270 -0.0840  0.2925 -0.1128
 3482SOL    HW121908   2.944   2.259   8.362 -1.8020 -2.2517  0.7078
 3482SOL    HW221909   2.953   2.330   8.247  1.5649 -0.1389  0.1497
 3483SOL     OW21910   1.197   2.939   7.981  0.2574 -0.3415 -0.8127
 3483SOL    HW121911   1.189   2.885   8.060  0.0138  1.8823  0.6739
 3483SOL    HW221912   1.167   3.018   8.025 -0.4704  0.2052 -2.2837
 3484SOL     OW21913   1.038   0.636  10.844  0.2946 -0.1034 -0.4529
 3484SOL    HW121914   0.946   0.658  10.857  0.0831 -1.2273 -0.1034
 3484SOL    HW221915   1.018   0.588  10.764 -2.0971  1.3089 -0.6965
 3485SOL     OW21916   1.581   2.036   8.332 -0.6159  0.3364 -0.6409
 3485SOL    HW121917   1.655   2.019   8.274  0.4920  3.6247 -0.2026
 3485SOL    HW221918   1.517   1.970   8.304  0.2010 -0.0586 -1.5651
 3486SOL     OW21919   0.443   0.698   4.856 -0.3781 -0.7802  0.2041
 3486SOL    HW121920   0.512   0.655   4.807  0.6194  2.9754 -1.6568
 3486SOL    HW221921   0.495   0.770   4.893 -0.7088 -0.1970 -0.4802
 3487SOL     OW21922   0.191   3.898   4.538 -0.4838 -0.9008  0.0828
 3487SOL    HW121923   0.250   3.919   4.466  0.1509  0.9370  1.1507
 3487SOL    HW221924   0.251   3.851   4.596  1.2914  1.3872  0.0875
 3488SOL     OW21925   3.775   0.070   6.455 -0.2488  0.0101 -0.4646
 3488SOL    HW121926   3.831   0.115   6.391  1.9938 -3.2285 -0.7848
 3488SOL    HW221927   3.806   4.704   6.452 -0.2399 -0.0119  0.1582
 3489SOL     OW21928   3.335   3.301   7.616  0.1226 -0.0041 -0.2199
 3489SOL    HW121929   3.415   3.345   7.644  1.0884 -3.2342  2.0838
 3489SOL    HW221930   3.339   3.333   7.526  1.6615 -3.3970 -1.3776
 3490SOL     OW21931   0.851   1.131  13.968 -0.1554 -0.5678 -0.0058
 3490SOL    HW121932   0.889   1.119  14.054 -1.9896 -1.8325  0.6307
 3490SOL    HW221933   0.768   1.162  14.004 -0.3862 -0.7601 -0.3741
 3491SOL     OW21934   1.661   3.057  10.788  0.1659 -0.0816  0.3622
 3491SOL    HW121935   1.679   3.008  10.708  0.7189 -1.2087  1.1796
 3491SOL    HW221936   1.745   3.099  10.809  0.4188  0.1493 -1.0631
 3492SOL     OW21937   2.906   4.636  14.459 -0.0155  0.2121  0.3988
 3492SOL    HW121938   2.856   4.635  14.540 -0.5066 -0.5725  0.0931
 3492SOL    HW221939   2.979   4.692  14.483  1.7811 -2.3373  0.8582
 3493SOL     OW21940   0.751   1.581   6.275 -0.0543  0.5078  0.2044
 3493SOL    HW121941   0.831   1.541   6.242 -2.0697 -1.7075 -1.9828
 3493SOL    HW221942   0.749   1.555   6.367 -0.6331 -0.1269  0.0209
 3494SOL     OW21943   4.639   2.639   3.841 -0.1064 -0.0804  0.0272
 3494SOL    HW121944   4.704   2.625   3.772  0.1452 -2.3571  0.7114
 3494SOL    HW221945   4.561   2.676   3.800 -0.2105  1.2556  1.4461
 3495SOL     OW21946   1.378   3.590  11.632 -0.0652 -0.4397  0.2522
 3495SOL    HW121947   1.396   3.568  11.723  2.4074  0.9439  0.0805
 3495SOL    HW221948   1.309   3.526  11.612 -0.8631  0.5630 -0.2086
 3496SOL     OW21949   3.999   4.063  14.135 -0.0312  0.7056 -0.0046
 3496SOL    HW121950   4.090   4.075  14.108  0.5725 -3.9548 -0.1076
 3496SOL    HW221951   3.971   3.980  14.096 -0.9966  0.1427  1.8955
 3497SOL     OW21952   3.797   0.136   6.751 -0.3836 -0.0564 -0.2753
 3497SOL    HW121953   3.776   0.120   6.659  0.2000 -0.7603 -0.2900
 3497SOL    HW221954   3.804   0.044   6.776  0.9379 -0.0228 -0.5194
 3498SOL     OW21955   3.032   0.083   8.894 -0.6852  0.2585 -0.5729
 3498SOL    HW121956   3.099   0.150   8.882  0.1983 -0.5177 -0.0449
 3498SOL    HW221957   2.969   0.120   8.955 -0.5530 -3.2227  1.6761
 3499SOL     OW21958   2.087   0.235   6.062 -0.5164  0.1589  0.0052
 3499SOL    HW121959   2.014   0.216   6.004  0.4689  0.1707 -1.2458
 3499SOL    HW221960   2.129   0.150   6.077 -2.0176 -0.2625  1.7162
 3500SOL     OW21961   1.968   4.375   8.681 -0.0819 -0.0686 -0.9849
 3500SOL    HW121962   1.947   4.287   8.712 -2.3616  0.0519 -2.2111
 3500SOL    HW221963   2.054   4.365   8.639  0.7812 -0.7954  0.9428
 3501SOL     OW21964   4.222   1.997  11.199  0.4195  0.0918 -0.0949
 3501SOL    HW121965   4.245   2.086  11.226  1.2876 -0.2438  0.2607
 3501SOL    HW221966   4.147   2.020  11.143  1.1294  1.5949 -0.4399
 3502SOL     OW21967   2.855   1.967   2.356 -0.4223  0.0251 -0.1639
 3502SOL    HW121968   2.842   2.018   2.276 -0.3141 -0.6509 -0.6105
 3502SOL    HW221969   2.797   2.004   2.423 -0.5846 -0.5129 -0.0020
 3503SOL     OW21970   4.311   1.303   0.922  0.4859  0.1825 -0.1047
 3503SOL    HW121971   4.328   1.397   0.921  0.6074  0.1656  1.4191
 3503SOL    HW221972   4.357   1.278   0.841 -1.6229 -1.0398 -0.9250
 3504SOL     OW21973   3.162   2.093   7.423  0.4578 -0.0503  0.0197
 3504SOL    HW121974   3.154   2.118   7.331 -0.5348 -2.3207 -0.5002
 3504SOL    HW221975   3.093   2.027   7.431  0.8007 -0.3388  0.5855
 3505SOL     OW21976   3.061   0.023   1.578  0.0726  0.0828  0.2103
 3505SOL    HW121977   3.144   0.041   1.535  0.3260 -0.6568  0.3784
 3505SOL    HW221978   3.082   4.711   1.664  0.1306  0.3179  0.2940
 3506SOL     OW21979   1.410   3.103   3.993  0.1768  0.1231  0.1083
 3506SOL    HW121980   1.392   3.048   4.069  3.2098 -2.3016 -0.9284
 3506SOL    HW221981   1.334   3.161   3.993 -1.3343 -1.8509  0.3165
 3507SOL     OW21982   4.035   4.094   6.225  0.1901  0.7205 -0.7036
 3507SOL    HW121983   4.005   4.079   6.136  0.8145  1.6775 -1.0679
 3507SOL    HW221984   4.093   4.019   6.235 -2.5866 -1.4084 -0.2705
 3508SOL     OW21985   0.919   3.833   9.041  0.1363 -0.1706 -0.1031
 3508SOL    HW121986   0.876   3.815   8.957  0.8321 -0.0058 -0.4925
 3508SOL    HW221987   0.997   3.780   9.029  1.3093  1.1853  1.5346
 3509SOL     OW21988   4.245   4.215  10.847 -0.1870 -0.2627  0.0209
 3509SOL    HW121989   4.290   4.258  10.919  0.5779  0.7053 -1.0238
 3509SOL    HW221990   4.200   4.148  10.899  0.0938  0.9927  1.8660
 3510SOL     OW21991   0.382   2.940   7.773  0.5293  0.2070  0.1156
 3510SOL    HW121992   0.380   2.846   7.760 -0.2853  0.0544  1.3782
 3510SOL    HW221993   0.358   2.959   7.683  2.0223  0.3892 -0.2447
 3511SOL     OW21994   4.086   2.260   2.794  0.2006 -0.8504  0.2862
 3511SOL    HW121995   4.155   2.214   2.842  0.5701 -1.0429 -0.4243
 3511SOL    HW221996   4.084   2.214   2.710  0.2361 -1.2011  0.4781
 3512SOL     OW21997   3.940   2.847   4.214  0.3803  0.0694  0.0465
 3512SOL    HW121998   3.870   2.903   4.247  0.9354 -0.0631  1.4112
 3512SOL    HW221999   4.008   2.857   4.280 -0.5384  0.8675  0.8585
 3513SOL     OW22000   3.528   3.088  13.552  0.1418  0.9354  0.0447
 3513SOL    HW122001   3.623   3.082  13.554  0.1512  0.6744 -1.0823
 3513SOL    HW222002   3.508   3.141  13.474  0.2727  0.9690  0.0356
 3514SOL     OW22003   1.355   0.112   8.346 -0.5367  0.8781 -0.3162
 3514SOL    HW122004   1.298   0.102   8.270 -1.7867  0.5990  0.6518
 3514SOL    HW222005   1.440   0.105   8.302 -0.9210 -0.6237 -0.8133
 3515SOL     OW22006   1.789   3.794   9.756 -0.0268  0.0954 -0.3016
 3515SOL    HW122007   1.695   3.790   9.771 -0.1216 -0.9647 -1.1250
 3515SOL    HW222008   1.812   3.705   9.782 -0.4527  0.1719  0.3262
 3516SOL     OW22009   3.344   1.035  14.101 -0.0757  0.3940  0.2585
 3516SOL    HW122010   3.377   1.103  14.160 -1.1162 -0.5592  1.9621
 3516SOL    HW222011   3.407   1.041  14.029 -0.5815 -0.5913 -0.2689
 3517SOL     OW22012   0.259   2.588  11.703  0.1956  0.1438  0.3205
 3517SOL    HW122013   0.204   2.605  11.780  0.9733 -0.0537  0.9202
 3517SOL    HW222014   0.337   2.540  11.731 -1.4273 -0.7366  3.3242
 3518SOL     OW22015   4.583   1.171   2.975  0.1147  0.2233 -0.1367
 3518SOL    HW122016   4.587   1.079   2.948 -0.3948 -0.4007  1.8797
 3518SOL    HW222017   4.505   1.200   2.927  0.6966 -0.3988 -1.4568
 3519SOL     OW22018   1.736   4.429   3.849  0.0631  0.1015 -0.3058
 3519SOL    HW122019   1.651   4.395   3.823 -0.1874  0.4850  0.0095
 3519SOL    HW222020   1.771   4.351   3.893  0.8269  0.5336 -0.1507
 3520SOL     OW22021   0.324   2.856  14.687  0.4183  0.1117 -0.4157
 3520SOL    HW122022   0.301   2.801  14.762 -0.0852  0.9578  0.0567
 3520SOL    HW222023   0.386   2.914  14.731  0.7839  0.1937 -1.0470
 3521SOL     OW22024   1.114   2.671  14.419  0.0830  0.1502  0.5775
 3521SOL    HW122025   1.073   2.643  14.501 -1.8276 -0.3741 -0.5601
 3521SOL    HW222026   1.192   2.615  14.418  1.7028  2.4050  0.5260
 3522SOL     OW22027   4.206   4.102  10.594 -0.0649 -0.3115  0.1273
 3522SOL    HW122028   4.230   4.146  10.676 -0.6424 -0.9520  0.6393
 3522SOL    HW222029   4.145   4.037  10.630 -0.5064 -0.6817 -1.3123
 3523SOL     OW22030   2.199   2.007   5.123  0.2190 -0.1099 -0.3307
 3523SOL    HW122031   2.143   2.061   5.067 -1.7367 -0.7831  0.9880
 3523SOL    HW222032   2.190   2.043   5.211  1.3259  2.1936 -1.1559
 3524SOL     OW22033   3.707   4.158   4.622 -0.2149  0.0870  0.0973
 3524SOL    HW122034   3.753   4.131   4.543 -1.4619  1.1166 -0.9731
 3524SOL    HW222035   3.689   4.251   4.607  0.2523  0.2656  0.6055
 3525SOL     OW22036   2.439   0.480   4.230 -0.2450 -0.4485  0.1463
 3525SOL    HW122037   2.495   0.540   4.280 -0.8249 -1.7112  2.3056
 3525SOL    HW222038   2.465   0.394   4.262  0.9894 -0.3061 -0.4588
 3526SOL     OW22039   3.581   3.705  16.944  0.2297 -0.3055  0.0943
 3526SOL    HW122040   3.519   3.722  17.015  0.3612 -0.2868  0.2040
 3526SOL    HW222041   3.646   3.654  16.993  1.8300  1.5913 -0.0550
 3527SOL     OW22042   3.131   1.648   3.777  0.2184  0.3487 -0.3622
 3527SOL    HW122043   3.170   1.735   3.777  0.8304  0.0634  1.8676
 3527SOL    HW222044   3.129   1.634   3.682  1.8428  0.0783 -0.3697
 3528SOL     OW22045   2.480   3.876   5.815  0.5679 -0.1759 -0.3024
 3528SOL    HW122046   2.504   3.884   5.908  0.0517  1.6203 -0.3107
 3528SOL    HW222047   2.534   3.800   5.795  1.7328  0.3927  0.6473
 3529SOL     OW22048   3.902   4.462  15.067 -0.2742  0.0022  0.0385
 3529SOL    HW122049   3.845   4.471  14.991 -1.9571  1.0273  1.4031
 3529SOL    HW222050   3.834   4.432  15.128 -0.6365  1.0367  0.1496
 3530SOL     OW22051   0.926   3.801   2.979 -0.4642  0.5994 -1.3805
 3530SOL    HW122052   0.900   3.884   3.020  0.0414  0.2607 -0.3763
 3530SOL    HW222053   0.848   3.798   2.924 -1.6212 -2.5352  0.4290
 3531SOL     OW22054   2.125   4.174  16.758  0.1497 -0.8520  0.5406
 3531SOL    HW122055   2.173   4.160  16.676 -1.2630  0.6319 -0.5399
 3531SOL    HW222056   2.165   4.258  16.781 -0.0184 -0.9965  1.3487
 3532SOL     OW22057   2.295   3.561   5.337  0.4502 -0.1394  0.1199
 3532SOL    HW122058   2.239   3.619   5.387  1.2581  1.5488 -0.9467
 3532SOL    HW222059   2.327   3.620   5.269 -0.8111 -0.0950 -0.4339
 3533SOL     OW22060   0.956   4.017  14.915  0.4462  0.1927 -0.4916
 3533SOL    HW122061   1.004   4.020  14.832  0.9997 -1.1547 -0.2210
 3533SOL    HW222062   0.869   4.023  14.877 -0.4112  0.7968  1.5981
 3534SOL     OW22063   1.317   0.978   3.311  0.4638 -0.1183 -0.1500
 3534SOL    HW122064   1.236   0.935   3.336  0.1832 -0.9277 -2.4074
 3534SOL    HW222065   1.310   0.984   3.215  0.3626 -1.2844 -0.2162
 3535SOL     OW22066   4.299   2.140   3.368  0.4962 -0.0809 -0.2060
 3535SOL    HW122067   4.232   2.135   3.300 -0.6839 -1.5635  1.0910
 3535SOL    HW222068   4.319   2.233   3.366  1.2001 -0.2148  0.2730
 3536SOL     OW22069   1.308   0.305   6.130  0.0866  0.1352 -0.1234
 3536SOL    HW122070   1.345   0.217   6.131 -2.4510 -0.9474 -2.7446
 3536SOL    HW222071   1.217   0.283   6.148 -0.3267  0.6365 -1.5864
 3537SOL     OW22072   3.142   1.155   1.236  0.2513 -0.1051 -0.1327
 3537SOL    HW122073   3.058   1.112   1.252  0.6569 -0.3244  1.4055
 3537SOL    HW222074   3.174   1.087   1.178 -0.0269  0.5683 -1.0699
 3538SOL     OW22075   0.307   2.274   3.404  0.7020  0.1402  0.1244
 3538SOL    HW122076   0.400   2.255   3.421  0.2287 -1.5733  0.8467
 3538SOL    HW222077   0.267   2.252   3.488  2.9934 -2.9823  0.4143
 3539SOL     OW22078   3.767   1.839   4.511  0.0356 -0.0085 -0.4817
 3539SOL    HW122079   3.733   1.913   4.561  0.5432 -0.0397 -0.0863
 3539SOL    HW222080   3.703   1.835   4.440 -0.0050 -0.8397 -0.4092
 3540SOL     OW22081   2.546   0.335   6.856 -0.4565  0.7295  0.1219
 3540SOL    HW122082   2.473   0.294   6.810  1.0499 -0.8234 -0.9134
 3540SOL    HW222083   2.507   0.420   6.874 -0.1060  1.2446 -1.5119
 3541SOL     OW22084   0.810   2.412   7.401  0.1813  0.2593 -0.1091
 3541SOL    HW122085   0.735   2.354   7.389  0.7510 -0.3954 -0.5316
 3541SOL    HW222086   0.855   2.370   7.474  2.4404  1.4387 -0.8074
 3542SOL     OW22087   2.801   3.396   6.502 -0.1224  0.2984 -0.2411
 3542SOL    HW122088   2.734   3.413   6.569  0.9992  4.5041 -0.2224
 3542SOL    HW222089   2.876   3.420   6.556  1.0604 -1.3678 -1.1655
 3543SOL     OW22090   3.499   4.252   9.093 -0.2462  0.2237 -0.2026
 3543SOL    HW122091   3.422   4.195   9.092  0.4787 -0.7043 -4.3052
 3543SOL    HW222092   3.501   4.285   9.183 -4.7593 -1.1739  0.4034
 3544SOL     OW22093   4.563   1.619   2.981 -0.3174 -0.5545  0.1084
 3544SOL    HW122094   4.483   1.670   2.983  1.0076  1.5106  0.6961
 3544SOL    HW222095   4.542   1.555   2.913  0.4754 -0.9334  0.2059
 3545SOL     OW22096   2.231   0.161  14.777  0.3036  0.4723 -0.6087
 3545SOL    HW122097   2.220   0.140  14.870 -0.1655  0.7696 -0.5951
 3545SOL    HW222098   2.305   0.221  14.782  1.8490 -1.5401  1.1390
 3546SOL     OW22099   0.898   4.420   5.528 -0.2604  0.4527  0.0499
 3546SOL    HW122100   0.967   4.373   5.575 -0.7957  0.2712  0.6573
 3546SOL    HW222101   0.871   4.359   5.460  2.3401 -0.6997  0.0445
 3547SOL     OW22102   0.960   1.528   1.948 -0.2164 -0.4525 -0.1530
 3547SOL    HW122103   1.034   1.468   1.936  1.4746  1.3147  1.3387
 3547SOL    HW222104   1.003   1.612   1.930 -0.1068 -0.6250 -0.7033
 3548SOL     OW22105   2.567   1.144  15.495  0.0263  0.0542 -0.0461
 3548SOL    HW122106   2.489   1.198  15.486  0.6930  0.2500 -4.4785
 3548SOL    HW222107   2.599   1.157  15.406 -0.0487  0.0832 -0.0684
 3549SOL     OW22108   0.376   1.430   9.209 -0.5291 -0.3081  0.5584
 3549SOL    HW122109   0.396   1.481   9.130 -1.3083 -0.4492  0.2633
 3549SOL    HW222110   0.460   1.420   9.253  0.6602  0.3218 -1.5556
 3550SOL     OW22111   1.543   4.013   9.173 -0.3711  0.7065 -0.7068
 3550SOL    HW122112   1.571   4.054   9.255 -3.3313  0.3117  0.4926
 3550SOL    HW222113   1.479   3.948   9.202  0.6353 -0.1546 -0.3758
 3551SOL     OW22114   4.552   3.053   7.830  0.3962 -0.1683  0.3229
 3551SOL    HW122115   4.590   3.032   7.745 -1.0686 -0.1318 -0.3410
 3551SOL    HW222116   4.603   2.999   7.890 -1.5398 -1.3520  0.9276
 3552SOL     OW22117   3.579   0.312   7.141  0.2093  0.1151  0.0218
 3552SOL    HW122118   3.660   0.339   7.098  0.7199  0.3264  1.1452
 3552SOL    HW222119   3.557   0.240   7.081  0.6480 -0.1594  0.1947
 3553SOL     OW22120   3.404   2.754   7.693 -0.0495 -0.8981  0.0528
 3553SOL    HW122121   3.396   2.848   7.677  3.0350 -0.6199  0.1928
 3553SOL    HW222122   3.312   2.729   7.709 -0.6024 -0.5507 -2.5852
 3554SOL     OW22123   4.126   2.040  17.312 -0.9597 -0.5016 -0.3790
 3554SOL    HW122124   4.188   1.969  17.296 -0.8848 -0.4551 -0.2938
 3554SOL    HW222125   4.145   2.066  17.402  1.0258  1.7785 -1.4591
 3555SOL     OW22126   0.997   0.355   2.408  0.3185  0.4643 -0.6756
 3555SOL    HW122127   0.992   0.281   2.470  0.8517  2.0122  1.2329
 3555SOL    HW222128   0.940   0.328   2.337  0.3546 -2.0652  0.2178
 3556SOL     OW22129   2.715   3.702   4.583  0.3943 -0.0814 -0.7464
 3556SOL    HW122130   2.707   3.607   4.597 -0.7232  0.0845 -0.2601
 3556SOL    HW222131   2.719   3.739   4.671  1.1476  1.6444 -1.5154
 3557SOL     OW22132   1.610   4.482   9.547  0.4386 -0.0190 -0.0999
 3557SOL    HW122133   1.568   4.398   9.566 -0.9819  0.6652 -0.2282
 3557SOL    HW222134   1.533   4.536   9.531 -0.3667 -1.1040  0.0874
 3558SOL     OW22135   1.394   3.224   9.026  0.4918  0.1764 -0.1387
 3558SOL    HW122136   1.376   3.154   9.089  0.5332  0.4862  0.2167
 3558SOL    HW222137   1.433   3.174   8.955  3.2252  0.1427  1.3777
 3559SOL     OW22138   0.330   0.178   1.499  0.2395  0.1118 -0.4054
 3559SOL    HW122139   0.337   0.090   1.463 -2.2168  0.3870 -1.5657
 3559SOL    HW222140   0.288   0.168   1.585  3.7436 -0.9089  1.1706
 3560SOL     OW22141   4.196   1.805   0.850  0.3051  0.4296  0.1352
 3560SOL    HW122142   4.198   1.832   0.941  0.3278  1.9754 -0.3270
 3560SOL    HW222143   4.204   1.884   0.797  1.1785  0.1443 -0.1629
 3561SOL     OW22144   2.563   1.775   7.787  0.0292  0.2160  0.1269
 3561SOL    HW122145   2.627   1.714   7.752  0.9357  0.9489  0.5166
 3561SOL    HW222146   2.487   1.774   7.728  0.8417 -0.8686 -0.9004
 3562SOL     OW22147   3.863   2.985   5.485 -0.2346  0.1795  0.3129
 3562SOL    HW122148   3.915   2.918   5.528  1.0378  1.6475  1.0359
 3562SOL    HW222149   3.840   3.042   5.558  0.0673  0.4716  0.1804
 3563SOL     OW22150   0.520   3.747  13.766  0.1856  0.0139 -0.3641
 3563SOL    HW122151   0.491   3.793  13.845 -0.1529 -0.3103 -0.2979
 3563SOL    HW222152   0.451   3.681  13.761 -1.5058  1.7942 -0.7893
 3564SOL     OW22153   0.991   1.200   5.911  0.2525  0.0205 -0.0001
 3564SOL    HW122154   0.944   1.269   5.862 -0.9961 -0.3203  0.7201
 3564SOL    HW222155   1.003   1.235   5.999 -0.9289  0.4964 -0.0233
 3565SOL     OW22156   4.565   0.445   1.821 -0.1928 -0.3205 -0.1280
 3565SOL    HW122157   4.541   0.425   1.912  0.7013  3.4440  0.9595
 3565SOL    HW222158   4.480   0.472   1.787  0.7615  0.5233 -1.8172
 3566SOL     OW22159   0.649   3.882   4.266 -0.2272  0.2078  0.1158
 3566SOL    HW122160   0.660   3.964   4.314 -0.6592 -0.1342  0.8025
 3566SOL    HW222161   0.613   3.827   4.335 -1.0566  1.4218  0.6409
 3567SOL     OW22162   2.958   3.590   7.155 -0.5937 -0.1343 -0.0313
 3567SOL    HW122163   3.011   3.645   7.213 -2.2315  1.6946 -0.2500
 3567SOL    HW222164   3.003   3.615   7.075 -0.5026  0.7867  0.3037
 3568SOL     OW22165   3.356   0.097   9.462  0.4301  0.3071  0.2652
 3568SOL    HW122166   3.327   0.172   9.411  1.3848 -0.0377 -0.7804
 3568SOL    HW222167   3.396   0.048   9.391  1.4358  1.7956 -0.1813
 3569SOL     OW22168   1.710   1.816   8.553 -0.5228 -0.3037  0.0153
 3569SOL    HW122169   1.633   1.845   8.504  0.1067  4.3905  1.7956
 3569SOL    HW222170   1.745   1.765   8.481  1.3532  0.0130  0.7107
 3570SOL     OW22171   4.042   3.206   4.264  0.0534  0.3361 -0.3689
 3570SOL    HW122172   4.023   3.291   4.304  1.0272 -0.0996  1.0353
 3570SOL    HW222173   3.956   3.164   4.258  0.3172 -0.0644 -1.3260
 3571SOL     OW22174   4.589   3.498   1.926  0.0167  0.0362 -0.3785
 3571SOL    HW122175   4.534   3.448   1.866 -2.5244  0.1461  1.8041
 3571SOL    HW222176   4.656   3.513   1.860  0.4589  2.1913  0.5635
 3572SOL     OW22177   1.849   0.442   3.584  0.5448  0.3310 -0.0003
 3572SOL    HW122178   1.809   0.407   3.664  0.9139  0.9283  0.4426
 3572SOL    HW222179   1.916   0.493   3.630  2.0258  1.1174 -3.1017
 3573SOL     OW22180   4.412   3.250   5.148  0.2957  0.3066  0.0235
 3573SOL    HW122181   4.388   3.178   5.206 -1.1085 -0.6447 -1.7246
 3573SOL    HW222182   4.358   3.322   5.180 -1.0393 -0.5045 -0.4055
 3574SOL     OW22183   3.620   2.901   4.459 -0.5151 -0.4962 -0.9962
 3574SOL    HW122184   3.568   2.972   4.420 -0.3636  1.9280  3.1747
 3574SOL    HW222185   3.694   2.949   4.496 -1.4474 -0.0635  0.3294
 3575SOL     OW22186   3.729   1.180   5.130  0.0225 -0.4096  0.2507
 3575SOL    HW122187   3.813   1.138   5.118  0.5318 -0.7857  5.3231
 3575SOL    HW222188   3.758   1.254   5.183  2.2912 -1.8810  1.0241
 3576SOL     OW22189   1.301   3.785   8.343  0.3532 -0.0236  0.3818
 3576SOL    HW122190   1.342   3.719   8.401 -1.3054 -0.7491  0.7164
 3576SOL    HW222191   1.234   3.815   8.405 -0.8318 -0.3743 -0.7419
 3577SOL     OW22192   3.054   3.952   2.137 -0.1178  0.2100  0.3882
 3577SOL    HW122193   3.132   3.970   2.085 -0.1366 -0.7123  0.0339
 3577SOL    HW222194   3.089   3.925   2.222 -2.1696  1.1840  1.5597
 3578SOL     OW22195   1.457   1.719   5.292  0.4882 -0.1519  0.3749
 3578SOL    HW122196   1.379   1.747   5.243 -0.0694  0.9592  1.8957
 3578SOL    HW222197   1.426   1.755   5.375 -2.3664 -0.1369 -0.6609
 3579SOL     OW22198   2.669   2.183   9.572  0.8634 -0.2603  0.3688
 3579SOL    HW122199   2.745   2.238   9.558 -0.3673  1.2865 -0.2623
 3579SOL    HW222200   2.606   2.254   9.557 -0.6901 -1.9962 -1.2445
 3580SOL     OW22201   2.177   1.417   2.525  0.4445 -0.3321 -0.9623
 3580SOL    HW122202   2.083   1.435   2.527  0.6816  0.6430  1.0353
 3580SOL    HW222203   2.226   1.496   2.500 -0.1165  0.8742  1.7754
 3581SOL     OW22204   2.351   3.691   6.199  0.4327 -0.0302  0.2441
 3581SOL    HW122205   2.333   3.783   6.220  2.3421  0.4794 -0.3386
 3581SOL    HW222206   2.409   3.665   6.270  0.1296 -2.6128 -0.4601
 3582SOL     OW22207   2.747   2.826   0.973  0.5933  0.1210  0.4073
 3582SOL    HW122208   2.664   2.855   0.934 -0.5739  0.8518  3.4203
 3582SOL    HW222209   2.807   2.866   0.911  1.4731  0.3950  1.4359
 3583SOL     OW22210   1.732   1.600  10.922 -0.4740 -0.2968  0.0703
 3583SOL    HW122211   1.721   1.507  10.902  2.1066 -0.6716  0.3751
 3583SOL    HW222212   1.680   1.602  11.002  1.8875  0.4715  1.6027
 3584SOL     OW22213   0.125   1.039   6.568 -0.0444  1.0230  0.3846
 3584SOL    HW122214   0.045   1.028   6.518  2.3978 -0.4919 -3.2068
 3584SOL    HW222215   0.107   0.968   6.629  0.6987 -0.4951 -1.1474
 3585SOL     OW22216   4.636   0.266  16.659 -0.2750  0.1488 -0.6461
 3585SOL    HW122217   4.709   0.223  16.703  0.5886  0.3250 -1.9078
 3585SOL    HW222218   4.596   0.318  16.729 -0.7262 -0.1288 -0.6969
 3586SOL     OW22219   3.667   1.068  11.328 -0.4580 -0.5324 -0.4336
 3586SOL    HW122220   3.754   1.051  11.293  0.2753 -1.5916  1.9237
 3586SOL    HW222221   3.679   1.148  11.378 -0.3792 -0.6274 -0.3027
 3587SOL     OW22222   0.162   3.433   7.245  0.1766 -0.0336  0.6740
 3587SOL    HW122223   0.127   3.383   7.318  0.6309 -1.6019 -0.1763
 3587SOL    HW222224   0.171   3.365   7.178 -0.6528  1.1167 -0.6039
 3588SOL     OW22225   3.011   1.320   5.641 -0.2013 -0.1331 -0.1159
 3588SOL    HW122226   3.082   1.262   5.668 -0.8863 -0.7726  0.2877
 3588SOL    HW222227   3.061   1.402   5.636 -0.1150 -0.1996 -0.3392
 3589SOL     OW22228   2.879   0.912  11.643 -0.9322 -0.4089 -0.0325
 3589SOL    HW122229   2.812   0.962  11.690  0.5100  1.7211 -0.2443
 3589SOL    HW222230   2.898   0.964  11.564 -1.7339 -0.3492 -0.1811
 3590SOL     OW22231   4.486   0.984   5.719 -0.1032 -0.3133  0.9329
 3590SOL    HW122232   4.431   1.033   5.781  1.0409  2.4598 -0.2320
 3590SOL    HW222233   4.547   1.050   5.686  0.0497 -0.8754  0.0939
 3591SOL     OW22234   1.527   3.151  16.297 -0.1923 -0.3912 -0.3116
 3591SOL    HW122235   1.579   3.190  16.227  0.6622  0.8195  1.0018
 3591SOL    HW222236   1.476   3.094  16.239  0.9128 -1.0452 -0.6330
 3592SOL     OW22237   3.339   4.534   6.933  0.5405  0.0893  0.0054
 3592SOL    HW122238   3.359   4.554   6.842 -0.9557 -0.4352 -0.4253
 3592SOL    HW222239   3.280   4.607   6.952  1.4257  0.8154 -0.0054
 3593SOL     OW22240   2.538   2.154   6.250  0.1931 -0.3876  0.0210
 3593SOL    HW122241   2.514   2.149   6.342  1.2389  1.9587  0.4160
 3593SOL    HW222242   2.451   2.175   6.214 -0.2110  0.1889  1.3386
 3594SOL     OW22243   3.573   3.267   5.713  0.0725  1.1177 -0.1721
 3594SOL    HW122244   3.574   3.357   5.747  1.7608  1.5057 -1.2275
 3594SOL    HW222245   3.490   3.234   5.747  0.3346 -2.2367 -2.7944
 3595SOL     OW22246   2.772   0.305   4.154 -0.6589 -0.0341 -0.7170
 3595SOL    HW122247   2.754   0.265   4.070  1.3404  0.3884 -1.3488
 3595SOL    HW222248   2.865   0.287   4.168 -0.7801  1.1223  1.5190
 3596SOL     OW22249   0.292   1.283   5.658  0.6231 -0.2450 -0.0031
 3596SOL    HW122250   0.356   1.341   5.619 -0.5610  0.4160 -0.9480
 3596SOL    HW222251   0.210   1.330   5.648  0.9421 -0.1472 -2.0599
 3597SOL     OW22252   3.543   1.325   1.851  0.4221 -0.2683  0.3626
 3597SOL    HW122253   3.455   1.341   1.816  0.2096  0.9187  1.4218
 3597SOL    HW222254   3.516   1.336   1.942 -0.0592  1.2913  0.0290
 3598SOL     OW22255   0.642   0.856   8.751  0.4572  0.1194  0.5158
 3598SOL    HW122256   0.623   0.795   8.822  1.5145  1.3714  1.8720
 3598SOL    HW222257   0.599   0.804   8.684 -0.7695  0.2743  1.1842
 3599SOL     OW22258   3.148   3.985   3.330 -0.2703  1.1866  0.1901
 3599SOL    HW122259   3.056   3.971   3.305  0.2021 -1.5490 -0.0027
 3599SOL    HW222260   3.193   3.939   3.260 -0.1633 -1.1398  1.7722
 3600SOL     OW22261   1.579   4.277   6.549  0.6113 -0.5342 -0.4198
 3600SOL    HW122262   1.546   4.362   6.576 -1.0508 -0.6374 -2.1380
 3600SOL    HW222263   1.654   4.265   6.608  1.4879  2.8275 -0.8357
 3601SOL     OW22264   0.195   2.487   2.367 -0.7163 -0.0043 -0.4015
 3601SOL    HW122265   0.177   2.530   2.283  2.2176  1.2527 -0.3814
 3601SOL    HW222266   0.161   2.398   2.354  0.4545 -0.6471  0.8893
 3602SOL     OW22267   1.588   3.503   2.781 -0.4125  0.6048  0.4612
 3602SOL    HW122268   1.532   3.573   2.814  0.8340  1.9465 -0.2634
 3602SOL    HW222269   1.616   3.538   2.696  1.3306  0.5516  1.0113
 3603SOL     OW22270   3.300   3.811  14.885  0.3314 -0.4853  0.0431
 3603SOL    HW122271   3.367   3.821  14.954  0.4807  0.6101 -0.2612
 3603SOL    HW222272   3.293   3.715  14.886  1.0864 -0.5322  1.1934
 3604SOL     OW22273   2.476   3.710  13.114 -0.1502 -0.2901  0.2967
 3604SOL    HW122274   2.506   3.661  13.191 -0.7607 -1.4461 -0.2004
 3604SOL    HW222275   2.380   3.703  13.110 -0.0928 -0.5668 -0.5005
 3605SOL     OW22276   0.207   1.748   4.924 -0.0401  0.0496 -0.5428
 3605SOL    HW122277   0.189   1.839   4.945 -0.3125 -0.1916  0.2635
 3605SOL    HW222278   0.221   1.750   4.829  0.3206  0.1557 -0.4854
 3606SOL     OW22279   4.504   2.288   3.185 -0.1088  0.1010 -0.1864
 3606SOL    HW122280   4.526   2.355   3.121  1.0984  0.1534  0.3006
 3606SOL    HW222281   4.457   2.346   3.245  1.3145  0.9431  0.0962
 3607SOL     OW22282   0.624   1.345  17.217 -0.0792 -1.0457  0.8878
 3607SOL    HW122283   0.702   1.325  17.165 -0.8500 -0.5129 -0.4919
 3607SOL    HW222284   0.557   1.296  17.170 -0.8891 -0.3725  1.3264
 3608SOL     OW22285   1.856   3.198   5.664  0.1525  0.0435 -0.1091
 3608SOL    HW122286   1.873   3.272   5.607  0.4874 -0.0679 -0.1522
 3608SOL    HW222287   1.944   3.174   5.693 -0.0251 -0.4624  0.0235
 3609SOL     OW22288   3.821   2.530   3.783 -0.0721 -0.2790 -0.0945
 3609SOL    HW122289   3.820   2.571   3.870 -0.5080 -1.6327  0.5363
 3609SOL    HW222290   3.869   2.592   3.727  0.8151 -1.0639 -0.2046
 3610SOL     OW22291   4.029   0.148   3.195 -0.1711 -0.6698  0.2276
 3610SOL    HW122292   4.092   0.181   3.130 -0.4975 -0.2402  0.1303
 3610SOL    HW222293   4.092   0.108   3.255 -2.4969 -2.8249  1.1854
 3611SOL     OW22294   2.549   3.041   2.079 -0.1657 -0.5357  0.3103
 3611SOL    HW122295   2.611   3.068   2.147  0.1821  0.7672 -0.5277
 3611SOL    HW222296   2.474   3.101   2.087 -0.8844 -1.2409 -1.3170
 3612SOL     OW22297   0.925   0.857   1.312 -0.3288 -0.3550  0.0364
 3612SOL    HW122298   0.967   0.883   1.230  0.1417 -0.5746  0.2054
 3612SOL    HW222299   0.965   0.771   1.326  0.1065 -0.2627 -0.6234
 3613SOL     OW22300   2.523   0.870  16.968  0.7470 -0.0788  0.3450
 3613SOL    HW122301   2.602   0.888  17.020  0.5290 -1.7031  1.2416
 3613SOL    HW222302   2.492   0.791  17.011  1.1292  0.0223  0.8103
 3614SOL     OW22303   3.558   3.244   9.237 -0.3059 -0.6461  0.0742
 3614SOL    HW122304   3.517   3.158   9.235 -1.1676 -0.1907 -1.1970
 3614SOL    HW222305   3.601   3.251   9.322 -1.3743  0.6156  0.5071
 3615SOL     OW22306   4.095   1.664   8.011 -0.0311  0.2028  0.3131
 3615SOL    HW122307   4.015   1.610   8.011  0.1857 -0.1249  0.6894
 3615SOL    HW222308   4.152   1.605   7.961  0.0340  0.3984  0.1598
 3616SOL     OW22309   1.244   1.155   0.506  0.1571 -0.0915  0.1777
 3616SOL    HW122310   1.313   1.128   0.567  1.2092 -2.3062 -1.9754
 3616SOL    HW222311   1.260   1.249   0.508 -0.0757 -0.0670  0.9828
 3617SOL     OW22312   0.844   4.036   3.109 -0.4816  0.0696  0.7483
 3617SOL    HW122313   0.754   4.049   3.139 -0.9668  1.6632 -1.4096
 3617SOL    HW222314   0.876   4.126   3.116  0.6193 -0.1083 -2.1919
 3618SOL     OW22315   1.015   0.389  11.330  0.1967 -0.2211  0.2106
 3618SOL    HW122316   0.943   0.433  11.375  1.2420  0.4050  1.2684
 3618SOL    HW222317   1.000   0.404  11.236  0.5425  1.2065  0.3858
 3619SOL     OW22318   1.480   2.311   0.616  0.3064 -0.0965  0.3179
 3619SOL    HW122319   1.569   2.293   0.647  0.2390 -0.5881  0.2197
 3619SOL    HW222320   1.456   2.385   0.672  1.2165  1.3742 -1.1964
 3620SOL     OW22321   4.665   0.618   0.715 -0.2347  0.2304  0.4642
 3620SOL    HW122322   4.663   0.705   0.674  0.7864  0.4578  0.8958
 3620SOL    HW222323   4.704   0.570   0.642  0.8461  0.3923  0.9312
 3621SOL     OW22324   1.023   3.423  16.536 -0.1188  0.3015  0.0924
 3621SOL    HW122325   1.037   3.485  16.608 -0.7841 -0.4192  0.8370
 3621SOL    HW222326   0.945   3.385  16.577 -0.3012 -1.0165 -1.4915
 3622SOL     OW22327   0.181   1.176   6.934  0.2216 -0.1485  0.2559
 3622SOL    HW122328   0.255   1.122   6.908  0.1761  1.2681 -2.8846
 3622SOL    HW222329   0.200   1.162   7.026  3.8233  1.4807 -0.2321
 3623SOL     OW22330   2.186   3.181   3.914  0.2204  0.0833  0.5265
 3623SOL    HW122331   2.148   3.102   3.952  0.2322  0.2383  0.8621
 3623SOL    HW222332   2.257   3.200   3.976  1.0123 -1.6188  0.1248
 3624SOL     OW22333   3.832   2.659   1.630  0.3166 -0.2972  0.0772
 3624SOL    HW122334   3.830   2.726   1.562  0.8029 -2.5514 -2.1313
 3624SOL    HW222335   3.748   2.614   1.623 -0.2991  0.9000 -0.2107
 3625SOL     OW22336   1.999   0.476   5.814 -0.0466  0.6506 -0.1115
 3625SOL    HW122337   1.965   0.391   5.842 -1.4649  1.7080  1.4451
 3625SOL    HW222338   1.928   0.521   5.768 -0.7538 -2.3944 -1.9885
 3626SOL     OW22339   1.960   4.321   6.145  0.2595 -0.1918 -0.5714
 3626SOL    HW122340   1.932   4.392   6.087  1.2668  2.3846  2.0635
 3626SOL    HW222341   1.948   4.359   6.232  1.1498  0.8856 -0.9178
 3627SOL     OW22342   4.320   0.727  11.807 -0.7301 -0.5276  0.5044
 3627SOL    HW122343   4.337   0.779  11.729  0.9715  1.4256  2.1976
 3627SOL    HW222344   4.259   0.660  11.775 -3.2562  1.8960  0.1900
 3628SOL     OW22345   2.134   2.595   6.464  0.1911 -0.1772  0.4782
 3628SOL    HW122346   2.098   2.511   6.436  1.2967  0.1260 -1.8120
 3628SOL    HW222347   2.065   2.639   6.514  3.0077  5.0031 -0.2519
 3629SOL     OW22348   0.498   3.341  13.220  0.5201 -0.1963 -0.4383
 3629SOL    HW122349   0.549   3.299  13.290  2.8170 -0.3810 -2.2284
 3629SOL    HW222350   0.456   3.412  13.270 -0.6791 -0.4628 -1.0564
 3630SOL     OW22351   1.247   2.630   2.192  0.6268 -0.6297  0.2503
 3630SOL    HW122352   1.320   2.630   2.131  1.9993 -0.5887  1.8985
 3630SOL    HW222353   1.185   2.691   2.151  2.6902  0.6619 -0.9451
 3631SOL     OW22354   4.014   3.113   0.407  0.1055  0.1885  0.4387
 3631SOL    HW122355   3.985   3.187   0.353  0.1851  1.1873  1.7664
 3631SOL    HW222356   4.102   3.144   0.429  0.4779  1.0454 -2.2322
 3632SOL     OW22357   0.247   0.010  16.984 -0.2404 -0.3575  0.3204
 3632SOL    HW122358   0.292   4.664  17.031  0.5466 -0.8772 -1.2329
 3632SOL    HW222359   0.172   0.008  17.043 -1.4439  0.8945 -1.1840
 3633SOL     OW22360   3.235   3.590   2.076 -0.0617  0.2705  0.0335
 3633SOL    HW122361   3.250   3.562   1.985 -1.0638 -0.5538  0.1204
 3633SOL    HW222362   3.192   3.510   2.106  0.1623  0.4433  0.8002
 3634SOL     OW22363   4.146   2.140   4.359 -0.1725  0.3082  0.2743
 3634SOL    HW122364   4.169   2.086   4.434  1.0762  1.0835  0.4472
 3634SOL    HW222365   4.170   2.078   4.290  1.0308  1.5379 -0.4200
 3635SOL     OW22366   1.965   1.204   5.897 -0.0685 -0.2576 -0.2504
 3635SOL    HW122367   2.045   1.257   5.900 -0.0203 -0.2408 -2.1215
 3635SOL    HW222368   1.976   1.168   5.809 -0.9382 -2.3316  0.4899
 3636SOL     OW22369   4.509   4.282   9.921  0.0160 -0.1061 -0.5377
 3636SOL    HW122370   4.483   4.228   9.996  1.2178  0.8211  0.5646
 3636SOL    HW222371   4.590   4.326   9.947 -1.7992  2.3323  1.0748
 3637SOL     OW22372   4.231   3.112   4.097  0.3302  0.2395 -0.1214
 3637SOL    HW122373   4.177   3.047   4.053 -0.0677  0.7896 -0.4402
 3637SOL    HW222374   4.170   3.146   4.163 -0.3888 -0.0315 -0.6492
 3638SOL     OW22375   3.533   2.879   3.884 -0.8709 -0.2169 -0.0295
 3638SOL    HW122376   3.465   2.835   3.935 -0.0828  0.4575  1.6007
 3638SOL    HW222377   3.524   2.831   3.802 -1.2186  1.7130 -1.1286
 3639SOL     OW22378   0.541   3.020  14.814 -0.0621  0.2448 -0.4933
 3639SOL    HW122379   0.633   3.021  14.839 -0.1687 -2.3704 -0.0157
 3639SOL    HW222380   0.512   2.993  14.901 -1.0107  0.5621 -0.7098
 3640SOL     OW22381   1.211   2.024   8.189 -0.0526 -0.3332 -0.3590
 3640SOL    HW122382   1.158   1.977   8.253 -1.1129  0.0764 -0.9379
 3640SOL    HW222383   1.282   1.964   8.166  0.1637 -0.2598  0.1169
 3641SOL     OW22384   0.115   1.426   9.143  0.2939 -0.4000  0.3610
 3641SOL    HW122385   0.104   1.517   9.114  4.3859 -0.2716 -0.8478
 3641SOL    HW222386   0.195   1.423   9.195  0.0020  2.7094  0.9887
 3642SOL     OW22387   3.244   1.521   5.667 -0.0488  0.3186  0.1501
 3642SOL    HW122388   3.280   1.434   5.687  1.3581  0.9545  0.3756
 3642SOL    HW222389   3.267   1.572   5.744 -0.4665  0.3817  0.2332
 3643SOL     OW22390   1.881   2.068   6.653  0.1552 -0.0564 -0.1972
 3643SOL    HW122391   1.945   2.078   6.724  0.9391 -2.2279 -0.5837
 3643SOL    HW222392   1.880   1.973   6.650 -0.5166  0.0342 -2.8008
 3644SOL     OW22393   1.489   3.993   5.224  0.1381 -0.5340 -0.1970
 3644SOL    HW122394   1.504   4.049   5.147 -0.9662  0.8554  0.5973
 3644SOL    HW222395   1.400   4.018   5.249 -0.0700 -0.5588 -0.9103
 3645SOL     OW22396   3.973   1.761   3.113 -0.0405  0.4489  0.3226
 3645SOL    HW122397   4.028   1.684   3.097  0.6757  1.2003 -0.8226
 3645SOL    HW222398   4.024   1.831   3.071 -0.6064  1.9625  2.1216
 3646SOL     OW22399   2.872   4.454   7.373  0.6001 -0.1692 -0.1810
 3646SOL    HW122400   2.965   4.436   7.362  0.6497 -0.5620  0.8893
 3646SOL    HW222401   2.872   4.526   7.435  2.3625 -0.2931 -0.0503
 3647SOL     OW22402   3.923   2.051   4.783 -0.5265 -0.4107  0.3980
 3647SOL    HW122403   3.872   2.052   4.864 -1.0382 -0.0082  0.0696
 3647SOL    HW222404   3.856   2.053   4.714  1.3727 -0.5436 -1.4728
 3648SOL     OW22405   0.241   4.619   8.321  0.2637 -1.1408  0.2282
 3648SOL    HW122406   0.225   4.712   8.340  0.1571 -1.0439 -0.3248
 3648SOL    HW222407   0.208   4.582   8.403 -1.6069  1.0529  0.4567
 3649SOL     OW22408   4.288   1.711   5.877  0.7980  0.0607 -0.0315
 3649SOL    HW122409   4.265   1.623   5.847 -2.7981  0.7612  0.6510
 3649SOL    HW222410   4.272   1.761   5.797  0.9394 -1.9595 -1.3176
 3650SOL     OW22411   1.234   4.083   5.235  0.0680  0.0671 -0.0621
 3650SOL    HW122412   1.260   4.169   5.270  1.4588  0.3334 -1.7359
 3650SOL    HW222413   1.143   4.072   5.261  0.5591 -0.3740  1.4543
 3651SOL     OW22414   4.165   0.815  14.500  0.1306  0.0378  0.0626
 3651SOL    HW122415   4.182   0.724  14.526  1.9214  0.7124  1.3006
 3651SOL    HW222416   4.177   0.801  14.406 -1.6913  0.0988 -0.1786
 3652SOL     OW22417   3.453   4.372   1.668  0.1718  0.4303  0.5392
 3652SOL    HW122418   3.436   4.444   1.607 -1.3471 -0.1814  0.2283
 3652SOL    HW222419   3.366   4.368   1.708 -0.3922  0.2356 -0.6779
 3653SOL     OW22420   0.919   4.317   0.723  0.2748  0.7661 -0.3467
 3653SOL    HW122421   0.984   4.345   0.787  0.7887  0.0530 -0.5520
 3653SOL    HW222422   0.965   4.256   0.665 -2.7838 -1.7464 -0.1399
 3654SOL     OW22423   4.417   1.976  15.815 -0.2966  0.0094  0.0101
 3654SOL    HW122424   4.380   2.037  15.878  1.0508 -0.3355  1.1268
 3654SOL    HW222425   4.493   2.024  15.781  0.3839 -1.3421 -0.4043
 3655SOL     OW22426   2.620   1.224   7.231 -0.3453  0.5403  0.0834
 3655SOL    HW122427   2.693   1.285   7.230 -0.4367  0.5981 -1.9623
 3655SOL    HW222428   2.548   1.273   7.271 -0.1266  0.4977  0.5269
 3656SOL     OW22429   2.008   4.687   5.770  0.1279  0.7351 -0.2838
 3656SOL    HW122430   1.919   4.720   5.766 -0.3483 -0.5095  0.1887
 3656SOL    HW222431   2.039   0.007   5.691  1.1224  0.3556 -0.1154
 3657SOL     OW22432   3.510   4.573   4.416  0.1816 -0.3514 -0.4417
 3657SOL    HW122433   3.420   4.599   4.436  0.5954 -0.6486  1.7379
 3657SOL    HW222434   3.495   4.542   4.327 -0.9447  0.2205 -0.4550
 3658SOL     OW22435   0.014   4.515   7.302  0.1193 -0.4944 -0.7946
 3658SOL    HW122436   0.069   4.569   7.358  0.8283 -0.0273 -1.9301
 3658SOL    HW222437   0.073   4.483   7.233 -1.5583 -1.7650 -1.6328
 3659SOL     OW22438   1.615   2.823   6.112  0.1519 -0.1865 -0.4340
 3659SOL    HW122439   1.688   2.869   6.152 -1.2903 -0.4037  2.4513
 3659SOL    HW222440   1.631   2.730   6.129  0.3810 -0.1273 -0.3304
 3660SOL     OW22441   0.865   2.233   9.386  1.2494  0.3781 -0.0842
 3660SOL    HW122442   0.869   2.318   9.342 -0.5980 -0.0384 -1.0548
 3660SOL    HW222443   0.824   2.247   9.471  0.5690 -0.5822 -0.2451
 3661SOL     OW22444   2.499   1.965   5.051 -0.7451 -0.4646 -0.4659
 3661SOL    HW122445   2.449   1.932   5.126 -1.8094  1.3949 -0.3395
 3661SOL    HW222446   2.530   2.048   5.088 -0.1747 -1.4102  1.1834
 3662SOL     OW22447   3.986   4.430   2.615 -0.0064 -0.5181 -0.1066
 3662SOL    HW122448   3.916   4.474   2.568 -0.7128 -1.8053 -0.2605
 3662SOL    HW222449   3.958   4.465   2.700  0.7756  0.8335 -0.4021
 3663SOL     OW22450   3.980   2.717   3.554  0.6221 -0.0213  0.0933
 3663SOL    HW122451   3.945   2.642   3.507  1.6621  0.7986 -1.9735
 3663SOL    HW222452   4.050   2.669   3.599  0.3817  1.1690  1.7459
 3664SOL     OW22453   0.169   3.189   7.109  0.9930 -0.2681 -0.0523
 3664SOL    HW122454   0.207   3.103   7.131  2.7942  0.3291 -0.8394
 3664SOL    HW222455   0.118   3.158   7.034  1.7142 -2.7802  0.4800
 3665SOL     OW22456   3.360   1.598   4.841  0.1741 -0.3766 -0.1802
 3665SOL    HW122457   3.428   1.639   4.786 -2.2921  2.0195 -1.4465
 3665SOL    HW222458   3.397   1.510   4.841 -2.5291 -1.5073 -2.2502
 3666SOL     OW22459   2.487   1.670   1.721  0.1190  0.1308 -0.1981
 3666SOL    HW122460   2.578   1.674   1.693  0.6301  0.8141  1.6196
 3666SOL    HW222461   2.475   1.720   1.802 -1.4771 -1.2194  0.3896
 3667SOL     OW22462   1.359   2.375   7.499 -0.0449 -0.0929  0.2260
 3667SOL    HW122463   1.374   2.399   7.590  0.6947 -3.4568  1.0091
 3667SOL    HW222464   1.316   2.291   7.517 -0.9499  0.8748  2.5613
 3668SOL     OW22465   2.284   2.883  11.921  0.1584  0.2172  0.9149
 3668SOL    HW122466   2.362   2.839  11.886 -1.0172 -1.1749  0.0467
 3668SOL    HW222467   2.213   2.818  11.924 -0.8311  1.1874 -1.7886
 3669SOL     OW22468   2.633   3.445  16.991 -0.3894  0.5281  0.0056
 3669SOL    HW122469   2.631   3.425  17.084 -4.5592 -0.1307 -0.2372
 3669SOL    HW222470   2.727   3.457  16.974 -0.1751  1.6660  1.9597
 3670SOL     OW22471   0.335   4.375   9.761  0.2839 -0.3494  0.0512
 3670SOL    HW122472   0.338   4.396   9.668 -3.1481 -1.5077 -0.3387
 3670SOL    HW222473   0.384   4.450   9.795 -0.3793  0.0234  0.2068
 3671SOL     OW22474   2.138   2.803   8.561  0.2829 -0.3884  0.1122
 3671SOL    HW122475   2.102   2.888   8.584  2.2526  0.0305  1.6850
 3671SOL    HW222476   2.066   2.775   8.505 -1.3236  0.5931  1.6834
 3672SOL     OW22477   2.712   2.649  16.908 -0.0124  0.3994 -0.5032
 3672SOL    HW122478   2.789   2.636  16.963 -0.4002  3.4706  0.7855
 3672SOL    HW222479   2.639   2.678  16.962  1.0315  1.0207  0.5863
 3673SOL     OW22480   1.537   4.381   9.926 -0.1130  0.0839  0.5505
 3673SOL    HW122481   1.521   4.412  10.015 -1.2446 -1.9397  1.0347
 3673SOL    HW222482   1.533   4.287   9.945 -0.3458  0.5415  2.7300
 3674SOL     OW22483   1.636   1.971   4.137  0.6221 -0.0544  0.0980
 3674SOL    HW122484   1.712   1.973   4.195 -0.0264  1.7782  0.8995
 3674SOL    HW222485   1.688   1.954   4.059 -0.9912 -0.1485 -0.9467
 3675SOL     OW22486   3.543   1.163   7.223 -0.1102 -0.1555  0.5438
 3675SOL    HW122487   3.468   1.141   7.278 -0.9493 -1.4863 -1.1409
 3675SOL    HW222488   3.602   1.182   7.296 -0.3551  1.2341  0.3957
 3676SOL     OW22489   2.174   4.557   5.380  0.0862  0.2133 -0.1919
 3676SOL    HW122490   2.232   4.491   5.341 -1.1389 -1.2871  0.5579
 3676SOL    HW222491   2.236   4.625   5.408 -0.9888  0.6952  1.0123
 3677SOL     OW22492   1.171   3.958   3.458  0.2269 -0.2149  0.1096
 3677SOL    HW122493   1.145   3.958   3.366  3.9349 -0.1959 -0.9278
 3677SOL    HW222494   1.230   4.032   3.449  0.4453 -0.3051  0.7990
 3678SOL     OW22495   1.591   4.504  10.425  0.1045  0.1141 -0.6936
 3678SOL    HW122496   1.612   4.420  10.464 -1.4012 -0.5311 -1.2692
 3678SOL    HW222497   1.501   4.513  10.457 -0.3452 -0.0679 -1.8996
 3679SOL     OW22498   3.674   1.017   7.661  0.0136 -0.3880 -0.3368
 3679SOL    HW122499   3.754   1.069   7.673  0.0396 -1.0088  2.2053
 3679SOL    HW222500   3.654   0.973   7.744 -1.6291 -0.1919 -0.6335
 3680SOL     OW22501   1.634   4.547   1.004  0.2954  0.9330  0.5955
 3680SOL    HW122502   1.600   4.579   0.920 -0.2208  1.4573  1.0032
 3680SOL    HW222503   1.585   4.603   1.065  1.0313  1.7749  0.4060
 3681SOL     OW22504   3.085   4.613   6.136 -0.0055 -0.3400  0.3904
 3681SOL    HW122505   3.071   4.675   6.208  1.4331  0.1459  0.2454
 3681SOL    HW222506   3.079   4.663   6.055  1.6967 -0.9079 -0.0804
 3682SOL     OW22507   3.845   1.488   2.935  0.1449 -0.0879  0.0573
 3682SOL    HW122508   3.841   1.421   2.867  1.8686  0.5120 -0.6200
 3682SOL    HW222509   3.766   1.538   2.916  0.8833  0.1012 -2.4800
 3683SOL     OW22510   4.613   4.615  14.436 -0.3002  0.1788  0.2457
 3683SOL    HW122511   4.613   4.654  14.349 -0.1362 -0.0343  0.1490
 3683SOL    HW222512   4.706   4.590  14.436 -0.6250 -1.0653  3.7712
 3684SOL     OW22513   1.639   4.211  14.613  0.2225 -0.0059 -0.4922
 3684SOL    HW122514   1.727   4.235  14.641  0.1547 -1.0643  0.6433
 3684SOL    HW222515   1.648   4.116  14.606 -0.0849  0.0193 -1.2019
 3685SOL     OW22516   4.510   4.564   9.473  0.0653  0.2463  0.1139
 3685SOL    HW122517   4.492   4.495   9.537 -0.0452  0.7799  0.6512
 3685SOL    HW222518   4.519   4.517   9.390  0.4508  0.6195 -0.0511
 3686SOL     OW22519   0.376   3.079   2.624  0.3394 -0.3973  0.1836
 3686SOL    HW122520   0.369   3.174   2.629  0.5341 -0.5523  3.3276
 3686SOL    HW222521   0.324   3.067   2.545  1.9025  0.5646 -0.9862
 3687SOL     OW22522   3.531   3.651   1.951  0.8578  0.0209 -0.4969
 3687SOL    HW122523   3.625   3.641   1.968  1.1201  1.2091 -1.2786
 3687SOL    HW222524   3.528   3.618   1.861 -0.1217  2.0282 -1.2037
 3688SOL     OW22525   4.160   4.653   6.407 -0.3174  0.0431 -0.0260
 3688SOL    HW122526   4.155   4.662   6.312  0.3485 -0.3721 -0.0996
 3688SOL    HW222527   4.151   4.558   6.418 -1.6786  0.1881  0.0971
 3689SOL     OW22528   1.041   1.288   6.182 -0.0453  0.1223 -0.3819
 3689SOL    HW122529   0.959   1.241   6.197  0.1256 -0.4948 -1.3949
 3689SOL    HW222530   1.069   1.296   6.274  2.0332 -1.9483 -0.8429
 3690SOL     OW22531   4.483   3.914   8.514 -0.1559 -0.1795 -0.3551
 3690SOL    HW122532   4.554   3.879   8.460  1.8397 -0.2718  2.3004
 3690SOL    HW222533   4.417   3.862   8.468 -1.2258  1.8147 -1.0696
 3691SOL     OW22534   0.058   4.208   8.772  0.6462  0.4032 -0.0187
 3691SOL    HW122535   0.093   4.128   8.811  1.4269  0.9561  0.4090
 3691SOL    HW222536   0.024   4.165   8.693  0.2603  0.0738  0.3307
 3692SOL     OW22537   3.066   1.794   2.304 -0.2228 -0.3146  0.1658
 3692SOL    HW122538   3.099   1.823   2.219  0.7586 -2.7738 -0.2908
 3692SOL    HW222539   3.006   1.863   2.331 -1.0977 -0.6526 -0.9091
 3693SOL     OW22540   1.255   0.381  10.303  0.9333  0.0712 -0.1061
 3693SOL    HW122541   1.349   0.377  10.284  0.7870 -0.2181 -0.7935
 3693SOL    HW222542   1.244   0.354  10.394 -1.2478 -0.9463 -0.6656
 3694SOL     OW22543   0.824   2.692   7.409 -0.0900 -0.0584 -0.2890
 3694SOL    HW122544   0.884   2.660   7.476 -1.2674 -1.0909  0.2720
 3694SOL    HW222545   0.789   2.605   7.389  0.4836 -0.0741 -1.2421
 3695SOL     OW22546   4.454   2.964   2.485 -0.2340  0.2740  0.4212
 3695SOL    HW122547   4.449   2.875   2.449 -0.0103  1.2249 -1.9781
 3695SOL    HW222548   4.464   2.955   2.579  0.0731 -2.4552  0.1270
 3696SOL     OW22549   0.440   4.678  11.405 -0.1364 -0.0234 -0.3676
 3696SOL    HW122550   0.366   0.010  11.429  2.7053  3.0241  1.1107
 3696SOL    HW222551   0.517   0.010  11.405 -0.0118 -0.1893 -1.8378
 3697SOL     OW22552   3.574   2.594   9.224  0.2526 -0.0594 -0.0722
 3697SOL    HW122553   3.545   2.634   9.142 -1.9087 -2.9972 -0.7573
 3697SOL    HW222554   3.510   2.624   9.288  1.5194  2.4675 -0.0044
 3698SOL     OW22555   4.543   0.624   2.978 -0.1544  0.2612  0.0403
 3698SOL    HW122556   4.632   0.607   2.950 -1.2228 -4.2983 -0.5793
 3698SOL    HW222557   4.552   0.559   3.048  2.2174  0.2019 -0.3409
 3699SOL     OW22558   2.549   0.659   2.339  0.9314  0.4898 -0.7731
 3699SOL    HW122559   2.640   0.689   2.343  0.7872  0.9499 -1.0748
 3699SOL    HW222560   2.511   0.706   2.265  1.0856 -0.0825 -1.2197
 3700SOL     OW22561   3.881   1.801  15.893 -0.5313  1.0292  0.3862
 3700SOL    HW122562   3.942   1.866  15.860  0.3862  0.5645  1.1746
 3700SOL    HW222563   3.893   1.739  15.821  0.9432 -0.7100  2.1206
 3701SOL     OW22564   2.100   4.545   2.970  0.4532 -0.4271 -0.4184
 3701SOL    HW122565   2.148   4.479   3.019  2.7159  1.0319 -0.6641
 3701SOL    HW222566   2.009   4.519   2.986 -0.2986  1.5842 -1.3237
 3702SOL     OW22567   4.519   2.032   4.993  0.7799 -0.0732  0.3338
 3702SOL    HW122568   4.537   1.941   5.015 -0.4432 -0.3302  0.2651
 3702SOL    HW222569   4.480   2.020   4.906  1.6676 -2.0921  0.2105
 3703SOL     OW22570   2.171   4.036   8.162 -0.0471 -0.6811 -0.2306
 3703SOL    HW122571   2.225   4.074   8.092  1.6046 -1.0549  0.8375
 3703SOL    HW222572   2.247   4.029   8.220  0.9461 -0.6463 -1.5212
 3704SOL     OW22573   2.268   3.912   5.094  0.2387  0.1838  0.2390
 3704SOL    HW122574   2.341   3.854   5.114 -1.0357 -2.0040 -1.3547
 3704SOL    HW222575   2.231   3.929   5.181  1.2066 -0.2451  0.7312
 3705SOL     OW22576   3.770   0.242   7.666  0.1187  0.2999 -0.1597
 3705SOL    HW122577   3.806   0.327   7.641  2.3079 -0.8068 -0.7169
 3705SOL    HW222578   3.820   0.180   7.613  0.3565 -0.1147  0.5529
 3706SOL     OW22579   1.035   0.406   9.793  0.0851 -0.4038  0.6454
 3706SOL    HW122580   1.039   0.385   9.887 -1.8145 -0.0988  0.7818
 3706SOL    HW222581   0.973   0.478   9.792 -0.1375 -0.6152 -0.5159
 3707SOL     OW22582   2.527   2.840   6.154 -0.6784  0.2174 -0.2497
 3707SOL    HW122583   2.480   2.823   6.072 -0.1686 -0.8716 -0.3135
 3707SOL    HW222584   2.586   2.914   6.141 -0.9412  0.6832  1.1878
 3708SOL     OW22585   4.119   1.444   6.754 -0.5490  0.2331  0.3141
 3708SOL    HW122586   4.185   1.375   6.762 -0.0134  0.7238  0.1163
 3708SOL    HW222587   4.107   1.462   6.847  2.4892  2.5468  0.2465
 3709SOL     OW22588   4.698   3.746  10.940  0.1948 -0.3439 -0.3818
 3709SOL    HW122589   4.657   3.791  10.866 -0.8579  0.2033  0.5415
 3709SOL    HW222590   0.061   3.746  10.902  0.1885 -2.2684 -0.3887
 3710SOL     OW22591   1.914   1.861  16.923  0.5518  0.5085  0.5620
 3710SOL    HW122592   1.882   1.810  16.998 -0.4467  1.1555  0.5770
 3710SOL    HW222593   2.004   1.829  16.918  0.4196 -0.0414  1.5659
 3711SOL     OW22594   3.904   0.221  15.242  0.2810 -0.1954 -0.3694
 3711SOL    HW122595   3.901   0.144  15.184  1.6122  0.2331 -1.0167
 3711SOL    HW222596   3.913   0.286  15.173  1.0545  0.3840  0.2851
 3712SOL     OW22597   1.776   4.720   4.044 -0.3256  0.0119  0.2886
 3712SOL    HW122598   1.760   4.707   4.137  1.9439  0.2056  0.6990
 3712SOL    HW222599   1.794   4.628   4.029  0.2910  0.3284 -0.8936
 3713SOL     OW22600   0.821   0.649   3.764  0.2191  0.5252 -0.0181
 3713SOL    HW122601   0.877   0.725   3.750 -0.2780  0.9722  0.3664
 3713SOL    HW222602   0.797   0.642   3.672  1.8585  3.0623 -0.6267
 3714SOL     OW22603   3.161   0.355  12.144  0.0703  0.0884  0.1972
 3714SOL    HW122604   3.095   0.341  12.212 -1.3309 -0.1859 -1.2147
 3714SOL    HW222605   3.228   0.294  12.173  1.3829  1.3994 -0.0550
 3715SOL     OW22606   0.040   3.577   8.771 -0.3532  0.3648 -0.6767
 3715SOL    HW122607   4.679   3.579   8.813 -0.0444 -1.3946  0.0413
 3715SOL    HW222608   0.086   3.623   8.841 -1.2291  0.3406 -0.0791
 3716SOL     OW22609   1.500   3.122   9.855 -0.2080  0.4242 -0.3288
 3716SOL    HW122610   1.473   3.075   9.777 -1.5681  0.9353 -0.1775
 3716SOL    HW222611   1.430   3.112   9.920  0.1937  2.3671  0.4070
 3717SOL     OW22612   0.530   3.184  13.980  0.2334  0.0005 -0.3287
 3717SOL    HW122613   0.485   3.263  14.010 -0.2079  0.1405 -1.3676
 3717SOL    HW222614   0.457   3.122  13.972  0.9734 -0.8115 -0.8494
 3718SOL     OW22615   3.141   1.290   0.547 -0.1491  0.2097  0.0665
 3718SOL    HW122616   3.048   1.283   0.526 -0.4095  0.9801  0.9740
 3718SOL    HW222617   3.177   1.253   0.466  1.8105 -1.6643  1.8000
 3719SOL     OW22618   4.281   3.380   2.270 -0.4875 -0.4770  0.2184
 3719SOL    HW122619   4.283   3.313   2.339 -2.3508 -1.2611 -0.4632
 3719SOL    HW222620   4.345   3.346   2.208 -1.4472 -2.5155  0.3335
 3720SOL     OW22621   2.079   4.630  11.486 -0.4585  0.6164  0.2921
 3720SOL    HW122622   2.165   4.672  11.489  0.4530 -1.1518 -1.2460
 3720SOL    HW222623   2.097   4.569  11.415  0.8962  1.2822  0.0668
 3721SOL     OW22624   0.024   2.101   3.451 -0.4447  0.1365 -0.2230
 3721SOL    HW122625   0.015   2.017   3.406  1.9055 -0.4048  0.3080
 3721SOL    HW222626   0.083   2.098   3.526 -0.6061 -1.7431 -0.1907
 3722SOL     OW22627   3.791   3.380   8.378 -0.3641 -0.3583 -0.4816
 3722SOL    HW122628   3.801   3.474   8.391 -1.4519 -0.0061 -2.3224
 3722SOL    HW222629   3.875   3.356   8.338 -0.0072 -1.2842  0.8117
 3723SOL     OW22630   4.647   4.264   7.427 -0.4566 -0.8495 -0.2704
 3723SOL    HW122631   4.636   4.357   7.408  0.0837 -0.4082  1.4868
 3723SOL    HW222632   4.647   4.274   7.523 -0.1600  2.6887 -0.6341
 3724SOL     OW22633   0.649   2.805   2.404  0.0120  0.0099  0.3574
 3724SOL    HW122634   0.570   2.751   2.398  0.2212 -0.3746  1.0359
 3724SOL    HW222635   0.622   2.892   2.375 -0.4087  0.0630  0.9032
 3725SOL     OW22636   0.517   0.778   2.946 -0.0015 -0.2075 -0.1540
 3725SOL    HW122637   0.435   0.771   2.996  0.1009 -1.0893 -0.1222
 3725SOL    HW222638   0.480   0.750   2.863 -1.7719  1.2442  0.1427
 3726SOL     OW22639   4.340   3.051   0.903  0.0384  0.0644  0.4817
 3726SOL    HW122640   4.266   2.992   0.888  1.4290 -1.4593 -0.4986
 3726SOL    HW222641   4.323   3.118   0.838  0.1206  0.4929  0.9070
 3727SOL     OW22642   3.217   2.600   4.602  0.1219 -1.1173 -0.2943
 3727SOL    HW122643   3.143   2.609   4.543 -0.4591 -1.5640  0.3609
 3727SOL    HW222644   3.212   2.673   4.664  2.6016  0.4674 -1.9758
 3728SOL     OW22645   0.201   1.337  12.023 -0.3564  0.8910  0.4467
 3728SOL    HW122646   0.185   1.319  11.931  0.1077 -0.9927  0.7464
 3728SOL    HW222647   0.262   1.411  12.031  0.2529  0.5179 -0.8920
 3729SOL     OW22648   1.018   3.253   3.582 -0.1974 -0.8628 -0.3346
 3729SOL    HW122649   0.942   3.211   3.542 -0.1796  1.2105 -2.5625
 3729SOL    HW222650   1.025   3.334   3.531 -1.5232 -0.4239  0.1845
 3730SOL     OW22651   2.291   1.958  17.110 -0.4935  0.1897  0.1510
 3730SOL    HW122652   2.370   2.011  17.126 -0.9428  0.6626  0.8109
 3730SOL    HW222653   2.264   1.990  17.024  1.1711  1.1935 -0.0013
 3731SOL     OW22654   0.300   3.111   8.062  0.1090  0.1289  0.5835
 3731SOL    HW122655   0.221   3.165   8.060  1.9708  2.7770 -1.8823
 3731SOL    HW222656   0.343   3.144   8.140  2.0143 -0.6582 -0.1441
 3732SOL     OW22657   4.102   2.341   7.232  0.1882  0.1259 -0.3153
 3732SOL    HW122658   4.157   2.400   7.283 -0.0988 -0.0235  0.1722
 3732SOL    HW222659   4.027   2.399   7.220 -0.0177 -0.3722 -1.4360
 3733SOL     OW22660   2.481   4.029   4.662  0.1598 -0.2238 -1.0705
 3733SOL    HW122661   2.438   3.999   4.582 -0.0109  0.9062 -1.4090
 3733SOL    HW222662   2.400   4.033   4.713  1.6305  1.0128  1.1477
 3734SOL     OW22663   2.460   1.424   8.405 -0.0430 -0.4154  0.0076
 3734SOL    HW122664   2.539   1.374   8.423  0.2638 -0.6246 -1.9835
 3734SOL    HW222665   2.400   1.356   8.436 -1.8848  0.7584 -0.9339
 3735SOL     OW22666   3.423   3.018   7.656  0.3532  0.2176  0.3837
 3735SOL    HW122667   3.357   3.083   7.631 -0.7896 -1.4927 -1.0512
 3735SOL    HW222668   3.420   3.033   7.751  0.5779 -2.8872  0.8792
 3736SOL     OW22669   0.788   3.871   1.561  0.0837 -0.5983 -0.0739
 3736SOL    HW122670   0.829   3.790   1.531 -0.4131 -1.1994  0.8768
 3736SOL    HW222671   0.833   3.934   1.504 -1.0918  0.2266 -0.0850
 3737SOL     OW22672   2.002   4.361  15.711 -0.1035  0.0681 -0.4008
 3737SOL    HW122673   1.948   4.317  15.646 -1.7203 -1.2475  1.8257
 3737SOL    HW222674   1.944   4.391  15.782  1.1767  1.6764 -0.0232
 3738SOL     OW22675   1.947   1.024   2.058  0.1556  0.1626  0.3034
 3738SOL    HW122676   1.996   1.090   2.106  2.0485 -1.5523  0.7105
 3738SOL    HW222677   1.937   1.059   1.970 -1.8053  1.6398  1.1048
 3739SOL     OW22678   1.585   2.154   8.580  0.3092 -0.0028 -0.0413
 3739SOL    HW122679   1.680   2.148   8.589  0.3742  0.2233 -0.5469
 3739SOL    HW222680   1.577   2.124   8.489 -0.5481 -1.4242  0.5014
 3740SOL     OW22681   4.429   0.803   7.861  0.2417  0.0045  0.6907
 3740SOL    HW122682   4.411   0.773   7.950  1.3102 -1.4323  0.4181
 3740SOL    HW222683   4.481   0.879   7.886 -0.9561  0.8936  0.4384
 3741SOL     OW22684   1.897   0.198  13.115  0.4664  1.0093  0.1852
 3741SOL    HW122685   1.958   0.175  13.045 -1.1261 -0.0804 -0.8498
 3741SOL    HW222686   1.840   0.122  13.105 -0.9974  2.0229  0.9126
 3742SOL     OW22687   0.355   2.301   8.188  0.0506 -0.7822 -0.1548
 3742SOL    HW122688   0.344   2.393   8.162 -0.3410 -0.9437 -0.5714
 3742SOL    HW222689   0.334   2.267   8.101 -0.8767  1.2506 -0.7262
 3743SOL     OW22690   1.013   0.645   7.692 -0.2166  0.2549  0.0623
 3743SOL    HW122691   0.920   0.637   7.671  0.4454 -1.4372 -2.2745
 3743SOL    HW222692   1.041   0.732   7.665  1.7428 -1.3602 -3.1275
 3744SOL     OW22693   3.727   3.719   3.883 -0.2209  0.0539  0.1305
 3744SOL    HW122694   3.779   3.798   3.866  1.5636 -0.7877  1.6941
 3744SOL    HW222695   3.783   3.683   3.951  0.2291  1.2844  0.4062
 3745SOL     OW22696   0.323   4.185   2.589 -0.4618  0.4678  0.2052
 3745SOL    HW122697   0.380   4.109   2.574 -1.6233  0.0718 -2.2482
 3745SOL    HW222698   0.250   4.138   2.630 -0.7908  0.6336 -0.1875
 3746SOL     OW22699   4.245   2.998   1.925 -0.0158  0.4374 -0.0352
 3746SOL    HW122700   4.235   3.047   1.843  2.0301  2.1192  0.7345
 3746SOL    HW222701   4.330   3.034   1.951 -0.8497  1.4082  1.3744
 3747SOL     OW22702   0.698   2.319  11.949  0.2376 -0.4852 -0.1957
 3747SOL    HW122703   0.782   2.357  11.925 -0.2176 -0.0847 -1.1891
 3747SOL    HW222704   0.654   2.400  11.976 -0.4591 -0.2267 -2.0611
 3748SOL     OW22705   2.472   3.635   7.530  0.1078 -0.1604 -0.1240
 3748SOL    HW122706   2.399   3.582   7.499  0.4898 -2.7700  3.3903
 3748SOL    HW222707   2.535   3.609   7.462 -0.4963  0.4847 -0.9291
 3749SOL     OW22708   2.195   3.651  12.215  0.1775 -0.0510  0.3449
 3749SOL    HW122709   2.277   3.662  12.166 -1.0792  0.4257 -1.6496
 3749SOL    HW222710   2.161   3.740  12.210 -0.9501 -0.5940 -1.5324
 3750SOL     OW22711   1.426   1.682  16.762 -0.1999 -0.2469  0.2003
 3750SOL    HW122712   1.407   1.590  16.779 -1.4013 -0.1444 -0.5463
 3750SOL    HW222713   1.495   1.697  16.827 -1.1227 -2.0887  1.5905
 3751SOL     OW22714   1.741   0.791  10.597 -0.1048  0.2579  0.0846
 3751SOL    HW122715   1.828   0.783  10.557  0.2084  3.7566  0.0711
 3751SOL    HW222716   1.695   0.832  10.523 -0.9767 -0.7681  0.0527
 3752SOL     OW22717   3.107   1.248   8.425 -0.2947 -0.2194  0.5379
 3752SOL    HW122718   3.100   1.209   8.512 -0.9772  0.7043  0.8936
 3752SOL    HW222719   3.111   1.161   8.385 -1.0609 -0.4290  0.9257
 3753SOL     OW22720   1.240   2.762   3.635  0.1320  0.3526  0.1064
 3753SOL    HW122721   1.226   2.754   3.541  1.2334 -0.2848 -0.0045
 3753SOL    HW222722   1.266   2.854   3.638  0.8659  0.1310  0.6261
 3754SOL     OW22723   1.847   0.595  10.077  0.4117 -0.4634  0.0510
 3754SOL    HW122724   1.836   0.588   9.982 -0.8382 -0.6126  0.2128
 3754SOL    HW222725   1.759   0.572  10.108  0.7433  0.0945  1.3907
 3755SOL     OW22726   0.163   0.784   6.201  0.2895 -0.2872 -0.0218
 3755SOL    HW122727   0.254   0.766   6.225  1.4665  0.3943 -4.0669
 3755SOL    HW222728   0.119   0.772   6.285  0.1552  0.0296 -0.0481
 3756SOL     OW22729   3.915   1.640  11.516 -0.2393  0.5544  0.4910
 3756SOL    HW122730   3.964   1.662  11.596 -1.5292  0.2147  1.3754
 3756SOL    HW222731   3.984   1.595  11.467  0.9908  0.5295  2.2177
 3757SOL     OW22732   2.061   0.003   8.591 -0.6846  0.1964 -0.1048
 3757SOL    HW122733   2.061   0.099   8.589  0.6086  0.1725 -0.8825
 3757SOL    HW222734   1.980   4.701   8.548 -0.7908  0.0140  0.2070
 3758SOL     OW22735   2.715   1.340   7.572 -0.3328  0.4755 -0.0134
 3758SOL    HW122736   2.689   1.315   7.661 -0.8134 -0.5098 -0.4350
 3758SOL    HW222737   2.636   1.373   7.529 -0.2872  0.1615 -0.3373
 3759SOL     OW22738   1.363   1.851  15.698  0.3580  0.4175 -0.1689
 3759SOL    HW122739   1.404   1.765  15.696 -0.2351  0.1340 -0.1153
 3759SOL    HW222740   1.404   1.881  15.780 -0.0304  1.0410 -0.2012
 3760SOL     OW22741   0.037   3.657   0.313 -0.6631 -0.0475 -0.1846
 3760SOL    HW122742   0.041   3.611   0.397 -2.0525  1.0374  0.4626
 3760SOL    HW222743   0.058   3.748   0.332  1.7455 -1.2033  2.6866
 3761SOL     OW22744   4.083   2.664   9.259  0.0260  0.2834 -0.2105
 3761SOL    HW122745   4.145   2.616   9.315  0.2486 -0.4832 -1.1156
 3761SOL    HW222746   4.137   2.739   9.239 -0.7870  0.9116 -0.0461
 3762SOL     OW22747   3.348   3.219   5.414  0.2445 -0.2653 -0.4356
 3762SOL    HW122748   3.425   3.175   5.449  1.6523  2.8036  0.2795
 3762SOL    HW222749   3.385   3.281   5.353 -0.1587 -2.1600 -2.6056
 3763SOL     OW22750   1.829   3.186   4.134  0.2828  0.0289  0.2679
 3763SOL    HW122751   1.788   3.137   4.062 -0.1180  1.8687 -0.7726
 3763SOL    HW222752   1.836   3.113   4.196  1.0410  1.4846  1.8743
 3764SOL     OW22753   2.085   0.945   3.307 -0.4301  0.6417  0.3403
 3764SOL    HW122754   2.025   0.894   3.252  0.1086  0.4559 -0.0774
 3764SOL    HW222755   2.047   1.032   3.321  0.1564  0.9386  0.0923
 3765SOL     OW22756   3.956   4.220   6.947  0.0065  0.4593 -0.2049
 3765SOL    HW122757   3.972   4.203   6.854  1.3396 -2.1450  0.4873
 3765SOL    HW222758   4.045   4.235   6.978  0.1763  0.0379 -0.4852
 3766SOL     OW22759   2.974   1.619   6.918  0.3586 -0.1478  0.0459
 3766SOL    HW122760   3.022   1.538   6.903 -1.1652 -1.0322 -0.0789
 3766SOL    HW222761   2.905   1.603   6.854  1.1043  0.4952 -0.9134
 3767SOL     OW22762   0.713   3.209   5.130  0.6911 -0.0382  0.2093
 3767SOL    HW122763   0.740   3.286   5.080 -0.0222  0.1271  0.0816
 3767SOL    HW222764   0.732   3.225   5.223 -2.4895  0.9501  0.7108
 3768SOL     OW22765   1.466   2.001   7.483 -0.2182 -0.5741  0.6485
 3768SOL    HW122766   1.440   1.914   7.513  1.0631 -1.4892 -0.9098
 3768SOL    HW222767   1.505   2.030   7.566  2.0981 -1.6549 -0.0834
 3769SOL     OW22768   0.920   3.099   3.811 -0.1292 -0.1762  0.0033
 3769SOL    HW122769   0.971   3.164   3.763 -0.4918  0.0849 -0.0264
 3769SOL    HW222770   0.985   3.048   3.859  1.5985  1.6411 -0.4018
 3770SOL     OW22771   2.665   0.651  17.551  0.1943 -0.4386 -0.3796
 3770SOL    HW122772   2.593   0.595  17.579  0.1757 -1.1582 -1.8861
 3770SOL    HW222773   2.688   0.703  17.628 -1.9472  1.1393 -0.8015
 3771SOL     OW22774   1.660   1.865  11.329 -0.3471  0.7071 -0.1396
 3771SOL    HW122775   1.654   1.953  11.293 -1.1022  0.3095 -0.9731
 3771SOL    HW222776   1.687   1.879  11.420  1.5152  1.8044 -0.8433
 3772SOL     OW22777   1.603   0.389   3.696 -0.1379 -0.4855 -0.0916
 3772SOL    HW122778   1.580   0.432   3.613 -3.5241 -0.2112  0.9701
 3772SOL    HW222779   1.598   0.297   3.670  2.5870 -0.8513  0.7203
 3773SOL     OW22780   2.597   2.725   5.815  0.0125 -0.0477  0.7922
 3773SOL    HW122781   2.571   2.655   5.755  1.2428  0.5252 -0.4180
 3773SOL    HW222782   2.662   2.782   5.774  0.9647  0.3902  2.9254
 3774SOL     OW22783   3.397   0.196   2.801 -0.5771  0.9697  0.1188
 3774SOL    HW122784   3.323   0.136   2.813 -1.1042  1.0464 -2.8064
 3774SOL    HW222785   3.451   0.149   2.738 -0.6853  1.7587 -0.5649
 3775SOL     OW22786   0.885   3.545   8.989 -0.0464 -0.2723 -0.0447
 3775SOL    HW122787   0.808   3.594   9.018  1.7566  2.2499  0.4405
 3775SOL    HW222788   0.952   3.574   9.051  1.1235 -0.5865 -1.1588
 3776SOL     OW22789   3.812   3.504   7.452  0.0138  0.1751  0.4489
 3776SOL    HW122790   3.768   3.419   7.456 -2.1949  1.1796 -2.6127
 3776SOL    HW222791   3.736   3.555   7.478  0.1603  0.8995 -0.5078
 3777SOL     OW22792   3.929   0.485  11.279  0.3284  0.5207  0.5989
 3777SOL    HW122793   3.948   0.413  11.219  1.1149  1.6742 -0.5408
 3777SOL    HW222794   3.908   0.550  11.211 -1.5552  0.2731  0.9569
 3778SOL     OW22795   4.352   2.202   7.588  0.3581 -0.9301  0.0770
 3778SOL    HW122796   4.282   2.187   7.524 -0.9235 -1.3303  1.5708
 3778SOL    HW222797   4.320   2.175   7.674  0.8265  1.0543  0.8655
 3779SOL     OW22798   3.215   2.753   5.279  0.0129 -0.2710  0.0579
 3779SOL    HW122799   3.304   2.772   5.249 -0.5317  2.0271 -0.0993
 3779SOL    HW222800   3.175   2.840   5.278  1.3487  0.3399 -0.3878
 3780SOL     OW22801   2.302   0.710   1.194 -0.6825 -0.2251 -0.0140
 3780SOL    HW122802   2.268   0.764   1.122  2.2259 -1.8650 -2.5951
 3780SOL    HW222803   2.334   0.629   1.155 -0.3413  0.6537 -1.5506
 3781SOL     OW22804   2.655   0.642   7.983  0.0734  0.0363  0.3170
 3781SOL    HW122805   2.714   0.677   7.917 -0.2325 -1.2706 -0.6492
 3781SOL    HW222806   2.639   0.723   8.032 -1.8001  0.3397 -0.7849
 3782SOL     OW22807   2.004   3.828   6.258 -0.0611  0.1228  0.0042
 3782SOL    HW122808   1.913   3.833   6.287 -0.0646 -0.1300  0.0340
 3782SOL    HW222809   2.041   3.752   6.302 -0.2717  0.4463  0.7431
 3783SOL     OW22810   0.112   3.209  10.104  0.1589 -0.0867 -0.6025
 3783SOL    HW122811   0.022   3.242  10.103  0.3711  0.4335 -1.8418
 3783SOL    HW222812   0.158   3.275  10.155  0.8568 -0.1076 -1.2033
 3784SOL     OW22813   1.482   1.523   5.568  0.2429  0.2851 -0.1055
 3784SOL    HW122814   1.386   1.525   5.571  0.2763 -1.9571  1.9802
 3784SOL    HW222815   1.489   1.430   5.590 -1.4568  0.5032  1.4163
 3785SOL     OW22816   2.094   2.886   1.691 -0.1429 -0.9033 -0.2970
 3785SOL    HW122817   2.109   2.863   1.599  1.0584 -3.4140  0.5435
 3785SOL    HW222818   2.138   2.815   1.737 -1.1015 -2.5652 -1.9284
 3786SOL     OW22819   3.364   2.081   7.603  0.1928  0.3864  0.6757
 3786SOL    HW122820   3.288   2.045   7.556 -0.1239  0.7104  0.9347
 3786SOL    HW222821   3.396   2.001   7.644  1.6015  1.2052  1.1496
 3787SOL     OW22822   3.320   2.288   0.409  0.1698  0.0214  0.0679
 3787SOL    HW122823   3.275   2.204   0.409 -1.3695  0.8414  0.9315
 3787SOL    HW222824   3.404   2.263   0.448  0.2290 -1.3202 -0.9287
 3788SOL     OW22825   3.352   3.761  10.796 -0.0051 -0.2987 -0.2315
 3788SOL    HW122826   3.299   3.822  10.848  0.0693 -2.6414  2.6211
 3788SOL    HW222827   3.399   3.716  10.867 -0.7175  3.3961  2.5914
 3789SOL     OW22828   4.568   0.342   9.187  0.2926  0.4743  0.2965
 3789SOL    HW122829   4.628   0.278   9.224  0.6082  2.3260  2.9471
 3789SOL    HW222830   4.608   0.421   9.223  1.4192  0.0617 -0.0845
 3790SOL     OW22831   0.586   3.184   8.798  0.0205  0.3763  0.0791
 3790SOL    HW122832   0.660   3.137   8.759 -1.0064 -2.7742  1.9046
 3790SOL    HW222833   0.526   3.113   8.821 -0.1717  0.2305 -0.8757
 3791SOL     OW22834   2.153   3.335   7.620  0.3552  0.2844 -0.2000
 3791SOL    HW122835   2.237   3.339   7.665  0.6136  0.7876 -0.7308
 3791SOL    HW222836   2.103   3.373   7.692  0.1986  1.4749 -0.9354
 3792SOL     OW22837   2.031   1.617   6.211 -0.1142  0.1412 -0.4372
 3792SOL    HW122838   1.987   1.533   6.223 -1.9361  0.7587 -2.9119
 3792SOL    HW222839   2.015   1.630   6.118  2.6921  1.0598 -0.8177
 3793SOL     OW22840   4.107   1.436   1.264  0.1579  0.2900 -0.0838
 3793SOL    HW122841   4.064   1.513   1.301  0.4642  1.3719 -1.9910
 3793SOL    HW222842   4.077   1.445   1.174 -0.0827 -0.5401 -0.0885
 3794SOL     OW22843   3.659   4.005   9.245 -0.1450 -0.2062  0.4987
 3794SOL    HW122844   3.697   3.917   9.248  0.7618  0.1558 -0.3817
 3794SOL    HW222845   3.739   4.057   9.248  0.2114 -0.8287  1.6232
 3795SOL     OW22846   3.965   1.634   1.405 -0.0989 -0.0882  0.1817
 3795SOL    HW122847   3.991   1.691   1.478 -0.6036  0.0987  0.2139
 3795SOL    HW222848   3.870   1.632   1.411 -0.1135  1.0937  0.3784
 3796SOL     OW22849   0.271   2.959   5.606  0.2708  0.6775 -0.4586
 3796SOL    HW122850   0.189   2.925   5.641 -0.1642  0.8788 -1.2848
 3796SOL    HW222851   0.267   2.931   5.514 -0.9860 -2.5273  0.5815
 3797SOL     OW22852   0.922   1.885  13.160  0.3490  0.3404 -0.0632
 3797SOL    HW122853   0.915   1.887  13.256 -0.3360 -1.6026 -0.0825
 3797SOL    HW222854   0.855   1.820  13.141 -0.2392  0.7449  0.6113
 3798SOL     OW22855   3.577   1.450   3.828 -0.0590 -0.1822  0.1748
 3798SOL    HW122856   3.650   1.442   3.890 -2.2463 -2.7485  2.4159
 3798SOL    HW222857   3.617   1.470   3.744 -0.3843 -0.4671 -0.0467
 3799SOL     OW22858   0.467   2.170  11.319 -0.2891 -0.4107  0.6534
 3799SOL    HW122859   0.499   2.165  11.229 -0.2193 -0.9124  0.7098
 3799SOL    HW222860   0.431   2.259  11.317 -0.2281 -0.4523 -1.8194
 3800SOL     OW22861   2.876   3.213  16.914  0.4041  0.1733  0.0806
 3800SOL    HW122862   2.885   3.303  16.947  1.2637  0.4702 -0.9356
 3800SOL    HW222863   2.815   3.231  16.842 -2.4071  0.1780  2.4877
 3801SOL     OW22864   1.813   2.109   8.931  0.1234  0.1438  0.5507
 3801SOL    HW122865   1.762   2.040   8.972  0.9874 -0.2454  0.9785
 3801SOL    HW222866   1.744   2.175   8.927 -0.2009 -0.1806  0.8760
 3802SOL     OW22867   1.995   2.576   4.792 -0.0858  0.1554  0.7254
 3802SOL    HW122868   1.932   2.577   4.864 -0.5272 -4.0771  0.4024
 3802SOL    HW222869   2.065   2.514   4.816 -2.1626 -3.2614 -1.9710
 3803SOL     OW22870   3.268   1.138  15.041  0.2001 -1.0522  0.1632
 3803SOL    HW122871   3.343   1.191  15.017  2.3124 -4.2635 -0.2834
 3803SOL    HW222872   3.278   1.143  15.136 -0.4329 -0.6308  0.2096
 3804SOL     OW22873   3.926   3.236   2.565 -0.2128 -0.3638  0.3020
 3804SOL    HW122874   3.907   3.305   2.501 -3.2415 -1.4723 -0.0049
 3804SOL    HW222875   3.998   3.197   2.517 -1.0004 -0.0402 -1.1418
 3805SOL     OW22876   0.741   0.652   4.831 -0.2964 -0.1162  0.1653
 3805SOL    HW122877   0.716   0.737   4.794  0.0153  0.0157  0.2561
 3805SOL    HW222878   0.763   0.668   4.923 -0.2313 -0.5189  0.2197
 3806SOL     OW22879   4.117   1.555   6.108 -0.1010  0.1556  0.3499
 3806SOL    HW122880   4.026   1.526   6.119 -0.6180  0.9390 -1.8627
 3806SOL    HW222881   4.155   1.494   6.045 -0.6072 -0.6275  0.8009
 3807SOL     OW22882   2.839   1.656   1.418 -0.6096 -0.0413 -0.5568
 3807SOL    HW122883   2.877   1.574   1.451 -1.8842 -0.9410 -1.3169
 3807SOL    HW222884   2.814   1.641   1.326  0.2405 -1.0968 -0.6206
 3808SOL     OW22885   3.178   3.815   8.109  0.0027 -0.4392  0.0891
 3808SOL    HW122886   3.180   3.812   8.013  0.7074 -1.6535  0.1388
 3808SOL    HW222887   3.115   3.887   8.104 -0.8552 -1.4657 -3.9461
 3809SOL     OW22888   0.460   1.319   4.299 -0.1461 -0.0458 -0.0139
 3809SOL    HW122889   0.370   1.331   4.269  0.4246  1.4471 -1.1280
 3809SOL    HW222890   0.511   1.392   4.263 -0.8889  0.9697  0.9950
 3810SOL     OW22891   0.145   1.202   4.952  0.1421 -0.4920  0.3040
 3810SOL    HW122892   0.204   1.274   4.930 -0.6584  0.9610  2.9084
 3810SOL    HW222893   0.201   1.159   5.016  1.4484  0.7491 -0.0123
 3811SOL     OW22894   2.050   0.935   1.690  0.2990  0.0083 -0.0883
 3811SOL    HW122895   2.056   0.881   1.768 -1.3331  0.1187  0.1211
 3811SOL    HW222896   2.117   0.899   1.632 -1.6584 -2.1999 -0.9552
 3812SOL     OW22897   4.063   4.442   4.434 -0.6792  0.3357 -0.8061
 3812SOL    HW122898   4.119   4.480   4.366 -1.4690  2.2849 -0.3591
 3812SOL    HW222899   4.114   4.364   4.454  0.1687  0.8893 -0.8402
 3813SOL     OW22900   3.257   3.416   4.791  0.2224 -0.3542 -0.0895
 3813SOL    HW122901   3.198   3.491   4.798 -1.2320 -1.3766 -1.2198
 3813SOL    HW222902   3.240   3.381   4.703  0.1016 -1.0446  0.2055
 3814SOL     OW22903   3.931   1.360   7.315  0.2294 -0.0345 -0.1449
 3814SOL    HW122904   3.939   1.399   7.402 -0.7133 -1.2309  0.4643
 3814SOL    HW222905   3.883   1.432   7.273 -0.2660  0.1434  0.7261
 3815SOL     OW22906   3.243   3.867  16.793 -0.2288 -0.1163  0.2180
 3815SOL    HW122907   3.329   3.897  16.822  1.2996 -2.7663 -1.5618
 3815SOL    HW222908   3.181   3.889  16.862 -0.1210 -1.3055  0.6863
 3816SOL     OW22909   4.291   3.032   7.894 -0.2169  0.2967  0.4959
 3816SOL    HW122910   4.251   2.945   7.889 -0.5915  0.5706 -1.2254
 3816SOL    HW222911   4.365   3.025   7.834  0.8927  0.7525  1.8164
 3817SOL     OW22912   3.290   3.148  13.738 -0.5160 -0.2762 -0.4113
 3817SOL    HW122913   3.252   3.231  13.707  1.2900  1.0815  0.9965
 3817SOL    HW222914   3.355   3.139  13.668 -0.0349 -3.5387  0.4458
 3818SOL     OW22915   2.963   1.497   2.237  0.6463  0.6134  0.4998
 3818SOL    HW122916   2.934   1.436   2.305 -1.3739 -1.6632 -2.4248
 3818SOL    HW222917   2.937   1.579   2.277 -0.4644 -0.7433  2.5546
 3819SOL     OW22918   3.863   2.763  13.269 -0.4598 -0.7360  0.2221
 3819SOL    HW122919   3.896   2.755  13.358  1.5086 -1.4357 -0.5611
 3819SOL    HW222920   3.860   2.672  13.238 -0.1374 -0.2188 -1.3031
 3820SOL     OW22921   3.125   1.612   7.816  0.1850  0.2554 -0.3038
 3820SOL    HW122922   3.189   1.628   7.746  0.1126  0.6556 -0.2809
 3820SOL    HW222923   3.063   1.674   7.776 -2.1756 -2.3746 -0.7294
 3821SOL     OW22924   1.064   2.299   7.288 -0.1303  0.5807  0.4229
 3821SOL    HW122925   1.004   2.304   7.362 -0.7969 -1.6860  0.0132
 3821SOL    HW222926   1.096   2.390   7.288  1.7581 -0.0744  1.0780
 3822SOL     OW22927   1.073   3.746  14.262  0.1992  0.4276 -0.1826
 3822SOL    HW122928   1.019   3.673  14.231  0.5854  0.4947 -1.0023
 3822SOL    HW222929   1.010   3.818  14.268 -0.4429 -0.1274 -0.1902
 3823SOL     OW22930   1.444   1.229  11.667 -0.8956 -0.1174  0.3072
 3823SOL    HW122931   1.449   1.324  11.668  2.6102 -0.3085  0.6144
 3823SOL    HW222932   1.503   1.203  11.738 -2.0393  1.0313  1.6800
 3824SOL     OW22933   1.652   3.278   4.568  0.3301  0.2529 -0.5891
 3824SOL    HW122934   1.654   3.303   4.476  0.7464 -0.2880 -0.7251
 3824SOL    HW222935   1.559   3.259   4.572  0.7122 -1.6986 -0.8641
 3825SOL     OW22936   1.224   4.705   2.613  0.2798  0.0658 -0.4598
 3825SOL    HW122937   1.207   4.616   2.646  1.2699  0.1754  0.3473
 3825SOL    HW222938   1.307   0.006   2.654  0.0130  1.0986 -0.5819
 3826SOL     OW22939   4.417   0.172  13.512 -0.3824 -0.6129 -0.3367
 3826SOL    HW122940   4.342   0.121  13.481 -1.9693  1.8120 -0.4184
 3826SOL    HW222941   4.452   0.128  13.590 -3.0769 -1.4383  0.3824
 3827SOL     OW22942   0.015   4.644  12.674  0.0094  0.0694 -0.2621
 3827SOL    HW122943   0.073   4.592  12.730  0.0477 -0.5578 -0.8932
 3827SOL    HW222944   0.081   4.701  12.634 -0.4971  0.1576 -0.9665
 3828SOL     OW22945   1.917   4.028   8.641 -0.6055  0.0577 -0.2063
 3828SOL    HW122946   1.829   4.018   8.607 -0.2573 -2.6022 -0.2823
 3828SOL    HW222947   1.958   4.035   8.555 -0.4465 -0.6527 -0.1891
 3829SOL     OW22948   1.217   3.427   5.705 -0.6322 -0.2322  0.2750
 3829SOL    HW122949   1.268   3.369   5.648  2.0866  0.6721  1.8141
 3829SOL    HW222950   1.250   3.403   5.792  1.9704  0.9504 -0.3829
 3830SOL     OW22951   0.423   1.779   2.670  0.0792 -0.5886  0.1939
 3830SOL    HW122952   0.388   1.693   2.649 -2.0486  0.3211  0.0045
 3830SOL    HW222953   0.424   1.817   2.582 -1.4205  2.9642  1.7143
 3831SOL     OW22954   0.835   2.499   1.927  0.2508  0.4088 -0.4231
 3831SOL    HW122955   0.829   2.500   2.023  0.3514 -2.4753 -0.3923
 3831SOL    HW222956   0.906   2.564   1.927  1.2753 -0.7032 -1.0646
 3832SOL     OW22957   3.422   2.397   3.326 -0.5757 -0.8790  0.2154
 3832SOL    HW122958   3.517   2.388   3.317 -0.6273 -1.1947 -0.0052
 3832SOL    HW222959   3.416   2.407   3.421  0.3598  1.6144  0.0046
 3833SOL     OW22960   3.931   1.395  14.358 -0.6387  0.5051  0.0754
 3833SOL    HW122961   3.882   1.330  14.307 -0.6598 -1.1963  2.2372
 3833SOL    HW222962   4.019   1.360  14.348 -1.0210  0.1132 -1.8755
 3834SOL     OW22963   0.095   2.676   7.569 -0.3603 -0.3461 -0.1611
 3834SOL    HW122964   0.088   2.611   7.499  0.2319  1.5894 -2.0190
 3834SOL    HW222965   0.107   2.752   7.512  1.6626 -0.1767  0.4750
 3835SOL     OW22966   3.719   4.089   8.890  0.3431 -0.0723 -0.3004
 3835SOL    HW122967   3.681   4.088   8.978 -1.3299 -0.3790 -1.0152
 3835SOL    HW222968   3.732   4.183   8.886  1.1260 -0.1876 -0.3752
 3836SOL     OW22969   4.338   3.396   9.279 -0.3019 -0.0166 -0.0183
 3836SOL    HW122970   4.321   3.472   9.224  2.9615  0.5759 -0.2358
 3836SOL    HW222971   4.425   3.423   9.310 -0.7227 -1.1342  2.1041
 3837SOL     OW22972   2.034   1.419  11.466  1.2079  0.3099 -0.0936
 3837SOL    HW122973   2.019   1.473  11.388 -2.9957 -0.3924  0.2632
 3837SOL    HW222974   2.043   1.336  11.418  0.8094 -0.7596  1.6871
 3838SOL     OW22975   3.493   0.658   5.458 -0.0487 -0.1042  0.3048
 3838SOL    HW122976   3.555   0.655   5.531  0.4217 -0.8543 -0.1259
 3838SOL    HW222977   3.545   0.705   5.392 -4.1885 -0.8130 -3.4526
 3839SOL     OW22978   0.915   3.286  17.310 -0.3155  0.2166  0.1084
 3839SOL    HW122979   0.996   3.330  17.283 -0.4042 -0.2563 -0.9113
 3839SOL    HW222980   0.944   3.196  17.324 -2.6095 -0.6024 -0.5416
 3840SOL     OW22981   1.852   3.954  12.416  0.1378 -0.1715  0.5570
 3840SOL    HW122982   1.820   4.034  12.459  0.5044 -0.2690  1.0061
 3840SOL    HW222983   1.860   3.909  12.500  1.4290 -0.8224  0.0669
 3841SOL     OW22984   0.940   2.766   4.473 -0.6312 -0.0639  0.2460
 3841SOL    HW122985   0.965   2.733   4.386 -0.2988  0.0229  0.3072
 3841SOL    HW222986   1.018   2.816   4.497 -1.0259  1.5112 -1.7619
 3842SOL     OW22987   2.570   0.796   8.749 -0.0254  0.2408 -0.4957
 3842SOL    HW122988   2.475   0.806   8.743  0.0476  0.6880 -0.9304
 3842SOL    HW222989   2.570   0.720   8.807  1.3212  1.0095  0.4790
 3843SOL     OW22990   4.057   2.467   8.343  0.4796  0.5313 -0.7394
 3843SOL    HW122991   4.045   2.372   8.342  0.0980  0.5345  2.7013
 3843SOL    HW222992   4.148   2.471   8.374 -0.2539 -2.2116  1.7535
 3844SOL     OW22993   0.006   4.110   7.751  0.1938  0.6362  0.2694
 3844SOL    HW122994   0.067   4.041   7.724  0.4001 -0.0027  2.4225
 3844SOL    HW222995   4.658   4.051   7.766  0.2266  0.6088  0.3194
 3845SOL     OW22996   3.226   0.598   5.651 -0.5872  0.3670  0.0046
 3845SOL    HW122997   3.178   0.680   5.637 -0.6061  0.0962 -1.4720
 3845SOL    HW222998   3.317   0.625   5.641  0.2816 -1.8433  1.8954
 3846SOL     OW22999   3.557   1.284   1.208  0.1080 -0.0491  0.5976
 3846SOL    HW123000   3.492   1.270   1.140  1.9534  4.7174 -2.1955
 3846SOL    HW223001   3.597   1.198   1.205  1.7866  0.7416  0.3355
 3847SOL     OW23002   4.517   3.445  14.508  0.2736  0.2137  0.0305
 3847SOL    HW123003   4.502   3.536  14.535 -0.4870 -0.5579  2.1681
 3847SOL    HW223004   4.495   3.391  14.583  0.6600 -0.7506 -0.5493
 3848SOL     OW23005   4.192   2.916   8.989 -0.1821 -0.2259  0.1780
 3848SOL    HW123006   4.125   2.852   8.965  1.4146 -1.9357  0.3565
 3848SOL    HW223007   4.204   2.903   9.083 -0.9753 -0.3398  0.2633
 3849SOL     OW23008   3.818   4.009   3.435 -0.1558 -0.6536  0.0159
 3849SOL    HW123009   3.789   4.050   3.354 -0.2332 -2.7065 -0.9932
 3849SOL    HW223010   3.735   3.984   3.475  0.2579 -2.8478 -0.5011
 3850SOL     OW23011   1.978   4.295  12.512 -0.2077 -0.2262  0.4679
 3850SOL    HW123012   1.884   4.304  12.529  0.2090  0.5206  2.3392
 3850SOL    HW223013   2.002   4.367  12.453 -1.1227 -1.5309 -1.4961
 3851SOL     OW23014   1.720   4.655   5.426  0.0992 -0.1124 -0.2290
 3851SOL    HW123015   1.659   4.628   5.495 -0.8205  1.7320 -0.3251
 3851SOL    HW223016   1.678   4.629   5.344  2.6483 -1.7128 -1.0103
 3852SOL     OW23017   3.729   3.987   6.230  0.2843  0.3447 -0.3132
 3852SOL    HW123018   3.796   4.056   6.229  1.4045 -0.7167  1.0199
 3852SOL    HW223019   3.648   4.037   6.231 -0.3564 -0.7366  1.2652
 3853SOL     OW23020   1.815   0.767   7.589 -0.1452 -0.2596  0.3314
 3853SOL    HW123021   1.853   0.679   7.587 -2.0909 -1.1104  0.8914
 3853SOL    HW223022   1.764   0.769   7.509 -0.2159 -1.6458  0.3430
 3854SOL     OW23023   3.396   3.762  17.400 -0.5302  0.9128  0.3109
 3854SOL    HW123024   3.426   3.762  17.490  1.9636  0.8567 -0.5236
 3854SOL    HW223025   3.477   3.787  17.356  0.4477 -1.1254  0.9515
 3855SOL     OW23026   1.342   0.306  12.852 -0.0756 -0.3312  0.0407
 3855SOL    HW123027   1.361   0.343  12.938  0.2000 -0.2144 -0.0686
 3855SOL    HW223028   1.247   0.312  12.849  0.1031  1.1225 -2.4386
 3856SOL     OW23029   1.901   3.347  11.403 -0.2172 -0.1762  0.0015
 3856SOL    HW123030   1.919   3.398  11.325  0.9505 -0.6347 -0.0209
 3856SOL    HW223031   1.987   3.337  11.444  0.0268  0.8031 -0.2859
 3857SOL     OW23032   1.848   0.323   5.517 -0.2266 -0.1670  0.5380
 3857SOL    HW123033   1.906   0.364   5.453 -0.7432 -1.0610 -0.5083
 3857SOL    HW223034   1.812   0.400   5.561 -0.2083  0.7132 -1.0129
 3858SOL     OW23035   0.851   3.769   8.491  0.3155  0.1184  0.4407
 3858SOL    HW123036   0.776   3.785   8.433  1.2067  0.7474 -0.5285
 3858SOL    HW223037   0.814   3.748   8.576 -1.6101  0.4714 -0.3019
 3859SOL     OW23038   0.555   0.798   5.950 -0.2529 -0.0876  0.2136
 3859SOL    HW123039   0.579   0.847   5.871 -0.0088  0.6922  0.7632
 3859SOL    HW223040   0.550   0.866   6.017  1.4294 -0.2599  0.5070
 3860SOL     OW23041   2.410   1.989   8.080  0.2205 -0.4698 -0.3777
 3860SOL    HW123042   2.443   2.011   7.993  0.7928  1.2187  0.2567
 3860SOL    HW223043   2.369   1.905   8.059  0.2375 -0.0933 -1.9030
 3861SOL     OW23044   1.729   1.690   5.171 -0.3518 -0.1760  0.2598
 3861SOL    HW123045   1.675   1.694   5.249  1.6815  0.6585  1.6158
 3861SOL    HW223046   1.741   1.784   5.160  1.5301 -0.4340  0.1046
 3862SOL     OW23047   0.463   0.376   8.267  0.3258 -0.3321  0.2984
 3862SOL    HW123048   0.372   0.380   8.236  1.0179  0.1611 -1.6882
 3862SOL    HW223049   0.466   0.451   8.326 -1.6849  0.4083 -0.5267
 3863SOL     OW23050   4.138   1.688   5.595  0.7539 -0.5340  0.5212
 3863SOL    HW123051   4.105   1.740   5.522 -0.3577 -1.0981  0.6099
 3863SOL    HW223052   4.204   1.749   5.628  0.3158  0.0074  0.3961
 3864SOL     OW23053   1.862   2.057   4.324  0.7975 -0.0952  0.0499
 3864SOL    HW123054   1.825   1.986   4.377  1.6555 -0.7367 -0.2064
 3864SOL    HW223055   1.926   2.103   4.378 -1.3558  0.6419  1.9886
 3865SOL     OW23056   4.378   1.866   9.656  0.1613 -0.2456 -0.6593
 3865SOL    HW123057   4.335   1.788   9.692 -0.3035  1.1270  1.7789
 3865SOL    HW223058   4.429   1.901   9.729  0.1890 -0.6515 -0.4861
 3866SOL     OW23059   2.043   3.881   9.712 -0.2026  0.0735  0.2360
 3866SOL    HW123060   2.108   3.862   9.780 -1.5958  2.1067  2.1482
 3866SOL    HW223061   1.970   3.829   9.748 -0.0341 -0.2541  0.1014
 3867SOL     OW23062   4.681   3.987   5.197  0.0244 -0.3009 -0.1369
 3867SOL    HW123063   4.638   3.990   5.283  1.5706 -0.9718  0.6711
 3867SOL    HW223064   4.648   3.909   5.153 -0.3761 -0.8654  1.1564
 3868SOL     OW23065   1.492   0.028   0.045 -0.1290 -0.0167 -0.1602
 3868SOL    HW123066   1.505   4.674  17.693  0.7643 -0.5842  0.9438
 3868SOL    HW223067   1.566   0.009   0.102 -0.4683 -2.1004 -0.4416
 3869SOL     OW23068   2.970   4.339   1.153 -0.2147 -0.7473 -0.3710
 3869SOL    HW123069   2.941   4.284   1.227  1.0910 -0.0734  0.6458
 3869SOL    HW223070   3.005   4.412   1.204 -0.6570 -0.3152 -0.6943
 3870SOL     OW23071   4.339   3.855  11.670 -0.4713  0.1923  0.0537
 3870SOL    HW123072   4.243   3.856  11.669 -0.4713 -1.9194 -2.7784
 3870SOL    HW223073   4.351   3.825  11.580  0.4322 -1.5323  0.7291
 3871SOL     OW23074   2.106   3.222  13.111  0.7908  0.0106 -0.1356
 3871SOL    HW123075   2.046   3.209  13.184 -0.8549  1.4925 -1.2253
 3871SOL    HW223076   2.101   3.145  13.054  1.1375  0.5553 -0.9037
 3872SOL     OW23077   4.537   1.364   4.313 -0.2756  0.0734  0.8679
 3872SOL    HW123078   4.602   1.432   4.331 -1.5719  1.5420  0.0480
 3872SOL    HW223079   4.522   1.368   4.218  1.0784 -1.8897  0.5723
 3873SOL     OW23080   4.090   2.511   5.738  0.1024  0.1593 -0.3904
 3873SOL    HW123081   4.154   2.444   5.765  0.7023  0.7247 -0.3995
 3873SOL    HW223082   4.002   2.475   5.748  0.2960 -0.5946 -1.4990
 3874SOL     OW23083   3.004   2.217   4.348 -0.4707  0.1545 -0.1108
 3874SOL    HW123084   2.986   2.304   4.313  3.7958  1.0397 -0.0916
 3874SOL    HW223085   2.916   2.178   4.342 -1.3001  1.7708  1.8487
 3875SOL     OW23086   2.353   3.264   7.765  0.7189  0.3512  0.1455
 3875SOL    HW123087   2.315   3.291   7.849 -0.6162 -0.2482 -0.2555
 3875SOL    HW223088   2.445   3.286   7.780  0.4010  3.2221 -2.1702
 3876SOL     OW23089   3.824   3.130  16.792 -0.3694 -0.3208 -0.0100
 3876SOL    HW123090   3.739   3.120  16.836 -0.6922  0.6831 -0.3944
 3876SOL    HW223091   3.814   3.217  16.753 -0.4515 -0.1313  0.4382
 3877SOL     OW23092   4.308   2.650   4.222 -0.2985 -0.2911 -0.1925
 3877SOL    HW123093   4.337   2.713   4.288 -0.3054  0.4418 -0.8836
 3877SOL    HW223094   4.305   2.572   4.276 -3.3149 -1.8227 -2.5728
 3878SOL     OW23095   1.253   1.375  12.327 -0.2693  0.0171  0.0678
 3878SOL    HW123096   1.203   1.338  12.400  2.0117 -0.1656  1.5362
 3878SOL    HW223097   1.180   1.381  12.266  1.2581  2.6147 -1.4918
 3879SOL     OW23098   2.139   0.145   8.085  0.0426  0.1602 -0.4863
 3879SOL    HW123099   2.118   0.074   8.145 -0.2696  0.2402 -0.4996
 3879SOL    HW223100   2.119   0.219   8.143  1.0180 -0.1323  0.2145
 3880SOL     OW23101   4.516   1.698   3.667  0.5298 -0.2377 -0.0840
 3880SOL    HW123102   4.470   1.739   3.594  0.8520 -2.2609 -1.4388
 3880SOL    HW223103   4.470   1.616   3.684 -1.1353  0.9351  1.0484
 3881SOL     OW23104   4.238   4.249   6.666 -0.2208  0.1010 -0.9954
 3881SOL    HW123105   4.174   4.266   6.596 -1.5613 -1.9035 -0.2604
 3881SOL    HW223106   4.223   4.155   6.670 -0.7262  0.2593  0.7653
 3882SOL     OW23107   2.851   2.353   8.549 -0.0633  0.4689  0.3611
 3882SOL    HW123108   2.914   2.300   8.598  0.0984 -1.6693 -2.1430
 3882SOL    HW223109   2.772   2.307   8.577 -2.5044  1.7839 -4.3719
 3883SOL     OW23110   0.603   3.719   7.545 -0.2154 -0.4791  0.0701
 3883SOL    HW123111   0.560   3.669   7.475  0.9417  0.7329 -1.4963
 3883SOL    HW223112   0.617   3.805   7.506  0.1897 -1.3179 -1.6284
 3884SOL     OW23113   0.725   1.734  11.131 -0.4472  0.1263  0.3574
 3884SOL    HW123114   0.633   1.757  11.133 -0.7114 -0.7564 -1.4351
 3884SOL    HW223115   0.726   1.642  11.158 -0.3070 -0.0690 -0.3077
 3885SOL     OW23116   1.332   1.546   3.818  0.2541  0.3376  0.2222
 3885SOL    HW123117   1.312   1.601   3.742 -1.0120 -2.5381 -1.5239
 3885SOL    HW223118   1.390   1.490   3.768  1.7637  2.8497 -0.8410
 3886SOL     OW23119   3.561   2.226   7.341 -0.0290  1.0198  0.0911
 3886SOL    HW123120   3.578   2.269   7.425  0.4748 -2.9152  1.9913
 3886SOL    HW223121   3.611   2.147   7.360 -0.5902  0.8008  0.6493
 3887SOL     OW23122   2.042   1.277  16.731  0.5905 -0.7194 -0.0445
 3887SOL    HW123123   2.110   1.223  16.772  1.0812 -0.7353 -0.8857
 3887SOL    HW223124   2.053   1.360  16.777  2.4500 -1.8174  1.4966
 3888SOL     OW23125   1.284   0.334   6.905  0.3306  0.2214  0.1705
 3888SOL    HW123126   1.364   0.312   6.952  0.7813  1.4179 -0.0450
 3888SOL    HW223127   1.271   0.264   6.842  0.9868  0.9414 -0.7608
 3889SOL     OW23128   0.017   3.774  10.082 -0.5710 -0.2614 -0.3976
 3889SOL    HW123129   0.095   3.733  10.120  0.1652  0.2994 -1.2901
 3889SOL    HW223130   0.046   3.865  10.070  0.0652 -0.2592  1.0912
 3890SOL     OW23131   0.125   4.620  13.344 -0.5384 -0.2816 -0.3514
 3890SOL    HW123132   0.074   4.585  13.418  0.8401  0.2400  0.8340
 3890SOL    HW223133   0.194   4.554  13.337 -0.3443 -0.1927  0.6664
 3891SOL     OW23134   2.019   2.664  10.617  0.3769 -0.3188 -0.6937
 3891SOL    HW123135   1.987   2.754  10.610 -2.6670 -1.2368  1.1452
 3891SOL    HW223136   1.942   2.612  10.592  0.8376 -2.1678  1.7979
 3892SOL     OW23137   4.432   2.222   4.023  0.1975  0.1055  0.0393
 3892SOL    HW123138   4.386   2.160   4.080  0.4645  0.3687  0.5490
 3892SOL    HW223139   4.357   2.259   3.977  0.7657  1.0233 -0.1467
 3893SOL     OW23140   3.435   3.405   9.876 -0.4266 -0.2817  0.3134
 3893SOL    HW123141   3.473   3.402   9.964  0.4342  2.7299  0.0232
 3893SOL    HW223142   3.365   3.340   9.884  0.4132 -1.4493 -1.7084
 3894SOL     OW23143   3.503   4.189   3.402  0.1290  0.0783  0.1090
 3894SOL    HW123144   3.408   4.185   3.418 -0.0107  2.9516 -0.0487
 3894SOL    HW223145   3.508   4.223   3.313  0.4929 -0.2856 -0.0112
 3895SOL     OW23146   1.499   3.245   2.433 -0.1105 -1.0833  0.0119
 3895SOL    HW123147   1.431   3.268   2.370  0.7696  2.4992  0.3852
 3895SOL    HW223148   1.476   3.153   2.447 -0.5608 -0.6404  2.2417
 3896SOL     OW23149   3.681   2.598   7.248  0.3566  0.4632  0.3332
 3896SOL    HW123150   3.602   2.652   7.245  2.0099  2.8676  0.3137
 3896SOL    HW223151   3.646   2.528   7.304 -3.7152  2.1751 -0.0627
 3897SOL     OW23152   4.276   0.180   6.792 -0.4129 -0.4737  0.7190
 3897SOL    HW123153   4.333   0.134   6.853  0.0975 -1.3067 -0.3983
 3897SOL    HW223154   4.341   0.190   6.723 -1.1428 -1.4864 -0.1245
 3898SOL     OW23155   0.298   3.534   0.543 -0.0019  0.6328 -0.2328
 3898SOL    HW123156   0.323   3.587   0.468  0.8268  2.4181  1.3160
 3898SOL    HW223157   0.203   3.547   0.543  0.1768  1.9395  0.0350
 3899SOL     OW23158   2.783   0.408   8.791 -0.3355  0.1181  0.0662
 3899SOL    HW123159   2.833   0.489   8.798  0.5569 -0.5584  1.5317
 3899SOL    HW223160   2.851   0.343   8.774 -0.0540  0.6506 -0.7995
 3900SOL     OW23161   3.209   1.847  14.569  0.2519 -0.4810  0.0636
 3900SOL    HW123162   3.224   1.941  14.559 -2.1776  0.0625  1.5841
 3900SOL    HW223163   3.193   1.823  14.478  0.3074 -0.4213  0.0382
 3901SOL     OW23164   0.532   3.938  15.904  0.1415  0.1620  0.2417
 3901SOL    HW123165   0.478   3.991  15.963  0.5489  0.1242  0.6401
 3901SOL    HW223166   0.620   3.975  15.909 -0.7591  2.3805 -0.1135
 3902SOL     OW23167   3.654   3.214  13.343  0.2315  0.1982  0.1639
 3902SOL    HW123168   3.740   3.255  13.337  0.6430 -0.7513 -0.3497
 3902SOL    HW223169   3.651   3.150  13.273  2.1095  0.0985  0.1895
 3903SOL     OW23170   3.021   3.984  15.362  0.0136  0.1396  0.0081
 3903SOL    HW123171   3.058   4.042  15.429 -0.6703  0.0464  0.4584
 3903SOL    HW223172   2.927   3.994  15.375 -0.0684 -1.4089  0.5139
 3904SOL     OW23173   2.796   1.183   4.154  0.6237  0.4379  0.2744
 3904SOL    HW123174   2.886   1.214   4.151  0.2023  1.8361  1.8242
 3904SOL    HW223175   2.752   1.232   4.224  1.2004  0.2207  0.7873
 3905SOL     OW23176   3.166   1.532   8.409 -0.0130  0.2147 -0.0724
 3905SOL    HW123177   3.119   1.465   8.459 -2.8816  0.8830 -1.8531
 3905SOL    HW223178   3.144   1.511   8.318 -1.6382 -1.2927  0.6426
 3906SOL     OW23179   1.606   0.958   6.155 -0.7469 -0.1475  0.3063
 3906SOL    HW123180   1.659   1.023   6.108  1.1162 -0.4819  1.9496
 3906SOL    HW223181   1.586   0.888   6.093 -0.6567  0.3854 -0.3326
 3907SOL     OW23182   3.643   4.616   1.717  0.5433  0.5660 -0.2087
 3907SOL    HW123183   3.630   4.598   1.623 -0.2554  1.1968 -0.2238
 3907SOL    HW223184   3.554   4.601   1.749  0.2004 -0.4994 -1.6591
 3908SOL     OW23185   2.396   2.920   2.842 -0.1718 -0.0164  0.0537
 3908SOL    HW123186   2.347   2.908   2.924  3.2509  1.2292  2.2619
 3908SOL    HW223187   2.469   2.860   2.851 -1.1181 -1.0919  0.6046
 3909SOL     OW23188   2.476   1.688   4.952 -0.2988  0.4110  0.1039
 3909SOL    HW123189   2.505   1.777   4.972  0.0570  0.5097 -0.8358
 3909SOL    HW223190   2.386   1.694   4.982 -0.0564  0.4994  0.8070
 3910SOL     OW23191   4.149   2.771   7.817 -0.3316  0.0152 -0.1554
 3910SOL    HW123192   4.108   2.710   7.879 -1.5896  1.1404  0.1010
 3910SOL    HW223193   4.082   2.803   7.757 -1.1210 -1.5211 -0.1101
 3911SOL     OW23194   2.274   3.402   6.840  0.0480 -0.1087  0.1851
 3911SOL    HW123195   2.343   3.445   6.892 -0.8733 -0.4596  1.7105
 3911SOL    HW223196   2.202   3.391   6.903  0.7577  0.6459  1.1410
 3912SOL     OW23197   2.057   2.864  15.456 -0.2759  0.2402  0.3113
 3912SOL    HW123198   2.078   2.895  15.544 -1.0664  0.9526  0.2552
 3912SOL    HW223199   2.145   2.875  15.420 -0.4078 -0.2895 -0.1738
 3913SOL     OW23200   2.856   1.841   5.989  0.5235  0.1266  0.3306
 3913SOL    HW123201   2.853   1.935   6.004  0.4988 -0.0196  1.2109
 3913SOL    HW223202   2.806   1.804   6.062  0.6383 -0.9672 -0.1406
 3914SOL     OW23203   2.734   2.790   4.496 -0.2786 -0.5881 -0.1872
 3914SOL    HW123204   2.799   2.860   4.488 -0.2265 -0.3597  2.1456
 3914SOL    HW223205   2.660   2.845   4.523 -0.0066  0.0114 -0.6673
 3915SOL     OW23206   2.316   4.153   1.784 -0.1892  1.2068  0.5813
 3915SOL    HW123207   2.407   4.172   1.806  0.0167  1.1400 -0.2141
 3915SOL    HW223208   2.328   4.156   1.689 -3.2051 -0.3602  0.1478
 3916SOL     OW23209   1.472   2.398   8.561  0.3158  0.1160  0.3680
 3916SOL    HW123210   1.504   2.308   8.567  0.3348 -0.0315 -1.8484
 3916SOL    HW223211   1.421   2.390   8.480 -1.0346  1.1134  1.1126
 3917SOL     OW23212   0.859   1.410   0.614  0.3185 -0.1475 -0.0604
 3917SOL    HW123213   0.813   1.326   0.618  0.2573 -0.0882  0.5029
 3917SOL    HW223214   0.793   1.465   0.572 -0.1516 -0.6055  0.0627
 3918SOL     OW23215   1.250   2.004  15.508 -0.4917  0.4444 -0.2505
 3918SOL    HW123216   1.233   2.089  15.550  0.5936  0.1739  0.7729
 3918SOL    HW223217   1.290   1.964  15.585  1.3753  1.1787 -0.8363
 3919SOL     OW23218   4.335   1.211  10.081 -0.9120 -0.1573  0.4739
 3919SOL    HW123219   4.403   1.247  10.138 -0.7042  0.1914  0.0065
 3919SOL    HW223220   4.360   1.119  10.077 -1.7027 -0.3840  0.8399
 3920SOL     OW23221   4.620   0.587  10.441  0.0570  0.4884  0.3017
 3920SOL    HW123222   4.713   0.603  10.458 -0.4347  1.8744  1.6636
 3920SOL    HW223223   4.597   0.542  10.521  1.6140  1.1570  1.1187
 3921SOL     OW23224   3.762   4.158   7.950  0.5130 -0.0719  0.0322
 3921SOL    HW123225   3.769   4.066   7.922  0.1213  0.0536 -0.4805
 3921SOL    HW223226   3.761   4.144   8.044 -0.1561  1.3203  0.2342
 3922SOL     OW23227   0.167   1.628   2.082  0.2840 -0.4290  0.1389
 3922SOL    HW123228   0.146   1.580   2.162 -1.5316 -1.7950 -1.1658
 3922SOL    HW223229   0.207   1.563   2.024 -2.3951  0.3749 -2.5926
 3923SOL     OW23230   3.409   4.152   7.870  0.0234  0.6992  0.0969
 3923SOL    HW123231   3.325   4.183   7.903 -1.9084 -3.0580 -1.3160
 3923SOL    HW223232   3.448   4.109   7.946 -1.8379  1.4864  1.4881
 3924SOL     OW23233   0.422   1.861   0.519 -0.0366  0.1641 -0.4702
 3924SOL    HW123234   0.505   1.819   0.496 -0.5752  0.9611 -3.8207
 3924SOL    HW223235   0.419   1.913   0.439 -1.8336  0.9863  0.1246
 3925SOL     OW23236   4.350   1.283   6.738 -0.1365 -0.0185 -0.0202
 3925SOL    HW123237   4.408   1.250   6.669  1.0611 -0.2345  1.0833
 3925SOL    HW223238   4.411   1.271   6.811  0.1737 -1.6102 -0.5262
 3926SOL     OW23239   4.222   4.092  12.622  0.2904 -0.6121 -0.2546
 3926SOL    HW123240   4.132   4.067  12.641  0.4694 -0.5941  0.6061
 3926SOL    HW223241   4.204   4.136  12.539 -0.3096 -0.1267  0.1259
 3927SOL     OW23242   4.576   2.311   6.153 -0.0026  0.0702  0.3476
 3927SOL    HW123243   4.487   2.344   6.162 -1.0736 -3.2410  1.9500
 3927SOL    HW223244   4.567   2.259   6.074 -0.4010  0.8793 -0.1395
 3928SOL     OW23245   3.570   2.465   3.579  0.4035 -0.6003  0.0819
 3928SOL    HW123246   3.658   2.497   3.562  0.4393 -0.0792  1.2404
 3928SOL    HW223247   3.531   2.542   3.621  1.5311 -0.2016  0.3778
 3929SOL     OW23248   0.434   2.770   5.698 -1.2374 -0.5923 -0.1085
 3929SOL    HW123249   0.446   2.832   5.769  0.4281 -0.4426 -0.5150
 3929SOL    HW223250   0.365   2.808   5.644 -1.4303  2.1906  2.1042
 3930SOL     OW23251   4.706   3.190   4.871  0.1195 -0.6879  0.6400
 3930SOL    HW123252   4.649   3.131   4.822 -0.9356  1.2640 -0.4845
 3930SOL    HW223253   0.020   3.240   4.799 -1.4542 -0.0460  0.2433
 3931SOL     OW23254   3.379   3.812  13.706  0.3962  0.2224 -0.2293
 3931SOL    HW123255   3.353   3.812  13.798 -0.1908  1.5670 -0.3942
 3931SOL    HW223256   3.297   3.807  13.656  0.5535 -2.7510 -0.1853
 3932SOL     OW23257   1.055   0.506  14.472 -0.1165 -0.0974 -0.6866
 3932SOL    HW123258   1.050   0.599  14.452  0.9097  0.1166  0.0826
 3932SOL    HW223259   1.105   0.478  14.396  2.9983  2.7393  0.3194
 3933SOL     OW23260   0.140   4.361   4.127  0.3452  0.3701 -0.9467
 3933SOL    HW123261   0.210   4.354   4.193 -0.3699 -0.9836 -0.3310
 3933SOL    HW223262   0.205   4.385   4.061  0.7431 -0.1690 -0.7618
 3934SOL     OW23263   2.965   1.612   3.275  0.4723 -0.7803 -0.7674
 3934SOL    HW123264   2.934   1.608   3.185  0.0226 -4.5123 -0.4369
 3934SOL    HW223265   2.957   1.524   3.313  1.2737 -0.9030 -0.8755
 3935SOL     OW23266   2.001   0.167  15.266 -0.6140  0.1032 -0.0375
 3935SOL    HW123267   1.988   0.147  15.173  0.0454 -3.4992  0.6354
 3935SOL    HW223268   2.096   0.179  15.267 -0.7364  1.0582  0.1948
 3936SOL     OW23269   2.461   3.182  15.699  0.9538 -0.4850  0.2171
 3936SOL    HW123270   2.407   3.114  15.739  0.0456  1.9114  3.0817
 3936SOL    HW223271   2.402   3.258  15.698  0.4169 -0.9074 -0.1539
 3937SOL     OW23272   4.567   4.617  10.137 -0.2130 -0.1485  0.3806
 3937SOL    HW123273   4.592   4.710  10.138 -2.8458  0.6038 -1.3654
 3937SOL    HW223274   4.596   4.597  10.226  2.2210 -0.1889 -0.4090
 3938SOL     OW23275   1.960   3.234   2.398 -0.1911 -0.1953 -0.0009
 3938SOL    HW123276   1.884   3.211   2.343  0.0654  1.9496 -1.2251
 3938SOL    HW223277   1.946   3.161   2.458 -0.1786 -0.3615 -0.1981
 3939SOL     OW23278   0.686   1.302   6.864  0.0084 -0.9113 -0.0331
 3939SOL    HW123279   0.638   1.364   6.919 -2.5784 -0.2606 -3.0395
 3939SOL    HW223280   0.619   1.247   6.824  0.1636 -0.7938 -0.4538
 3940SOL     OW23281   2.956   4.724   2.996  0.3502  0.5425  0.2512
 3940SOL    HW123282   2.865   0.029   3.001 -0.1616 -0.6715 -1.7796
 3940SOL    HW223283   2.983   4.715   3.087  3.2942 -0.0293 -0.6809
 3941SOL     OW23284   3.379   3.074  12.483 -0.1804  0.2651  0.0111
 3941SOL    HW123285   3.293   3.108  12.460  0.0116  1.2494  0.7554
 3941SOL    HW223286   3.380   2.987  12.443  0.9684 -0.2601  1.1888
 3942SOL     OW23287   0.149   3.323   2.359 -0.1068 -0.2534 -0.3131
 3942SOL    HW123288   0.089   3.251   2.345 -0.5730  0.4175 -1.7626
 3942SOL    HW223289   0.174   3.339   2.268  0.8552  0.4897  0.0662
 3943SOL     OW23290   3.015   4.173  11.237  0.0891  0.0898 -0.4358
 3943SOL    HW123291   3.090   4.120  11.212 -0.3676 -0.6790 -0.1942
 3943SOL    HW223292   3.046   4.191  11.326 -2.5665 -0.2565  0.5608
 3944SOL     OW23293   1.972   4.282   9.026 -0.0417  0.1593  0.1098
 3944SOL    HW123294   1.961   4.280   9.121  0.7995  0.5471  0.2197
 3944SOL    HW223295   1.900   4.223   9.003 -0.3412  0.1801  1.0182
 3945SOL     OW23296   1.302   1.164   0.177 -0.1952  0.5782  0.0209
 3945SOL    HW123297   1.382   1.166   0.230  0.0735  2.6873 -0.4658
 3945SOL    HW223298   1.226   1.170   0.234  1.0902  1.0021  1.6955
 3946SOL     OW23299   3.893   0.342  16.032 -0.3634 -0.3786 -0.0308
 3946SOL    HW123300   3.860   0.390  16.108  2.4324  1.5366 -0.0160
 3946SOL    HW223301   3.848   0.391  15.963  0.5361  0.4033 -0.0715
 3947SOL     OW23302   3.440   4.142   1.022  0.0594 -0.2648  0.9331
 3947SOL    HW123303   3.375   4.108   0.961  0.6306  0.1761  0.0738
 3947SOL    HW223304   3.439   4.236   1.000 -0.8135 -0.5588 -0.3283
 3948SOL     OW23305   0.764   2.882   4.217  0.9200 -0.4938  0.0889
 3948SOL    HW123306   0.751   2.936   4.139  1.3568 -0.2179  0.2100
 3948SOL    HW223307   0.829   2.822   4.180 -0.0475 -1.2384 -0.4097
 3949SOL     OW23308   2.001   3.841  14.950  0.0672  0.1634 -0.4653
 3949SOL    HW123309   2.047   3.773  14.901  3.9601  1.0683  1.8898
 3949SOL    HW223310   1.928   3.786  14.979 -1.2941  2.2145 -0.0118
 3950SOL     OW23311   4.587   0.765   9.080 -0.7965 -0.0013 -0.4239
 3950SOL    HW123312   4.542   0.808   9.008 -0.9464 -2.1519 -1.6105
 3950SOL    HW223313   4.530   0.786   9.155  1.3481 -1.1458  1.5403
 3951SOL     OW23314   1.839   3.429   8.190  0.7687  0.3573 -0.1010
 3951SOL    HW123315   1.793   3.398   8.112 -0.3522  0.8837  0.3484
 3951SOL    HW223316   1.932   3.414   8.173  0.6279 -0.6924  0.0568
 3952SOL     OW23317   0.723   3.359   0.542  0.7642  0.4406 -0.8270
 3952SOL    HW123318   0.757   3.444   0.570 -2.4360  1.6204 -0.5678
 3952SOL    HW223319   0.652   3.351   0.605  1.5525 -1.2605 -0.1481
 3953SOL     OW23320   3.018   4.229  16.179 -0.0863 -0.4819  0.0956
 3953SOL    HW123321   2.951   4.257  16.242 -0.3814  0.1903 -0.5175
 3953SOL    HW223322   3.063   4.178  16.246 -0.7705 -1.2171 -0.0155
 3954SOL     OW23323   3.268   3.425   0.953 -0.0600  0.3859  0.0074
 3954SOL    HW123324   3.254   3.348   1.008 -0.1115 -0.4716 -1.2037
 3954SOL    HW223325   3.280   3.496   1.016  0.2848  1.1933 -0.9572
 3955SOL     OW23326   4.275   4.633   9.273  0.0701  0.0710 -0.2107
 3955SOL    HW123327   4.268   4.599   9.362 -3.7569  1.3359 -0.0186
 3955SOL    HW223328   4.231   4.717   9.283  1.9267  1.1837 -1.3540
 3956SOL     OW23329   1.520   4.445  15.962  0.4468  0.3506 -0.2912
 3956SOL    HW123330   1.518   4.354  15.991 -0.0080  0.8314  1.1979
 3956SOL    HW223331   1.433   4.482  15.977 -0.4596 -2.6763  1.8134
 3957SOL     OW23332   4.334   1.832   3.875  0.4307  0.4759  0.0261
 3957SOL    HW123333   4.247   1.825   3.838  1.2988  0.9645 -2.1108
 3957SOL    HW223334   4.382   1.823   3.793  1.5997 -3.8248  1.1507
 3958SOL     OW23335   1.430   0.237   4.592  0.1206  0.3707 -0.0632
 3958SOL    HW123336   1.487   0.309   4.618  1.2470 -0.0695 -1.3056
 3958SOL    HW223337   1.375   0.229   4.670  0.4204  0.7433  0.1869
 3959SOL     OW23338   0.413   1.032   9.795 -0.0397 -0.2972 -0.2516
 3959SOL    HW123339   0.397   0.938   9.796  1.9259 -0.6174  0.4784
 3959SOL    HW223340   0.386   1.070   9.879 -0.8607  0.7013 -0.9595
 3960SOL     OW23341   3.168   3.806   4.350 -0.0789  0.1808 -0.2967
 3960SOL    HW123342   3.163   3.718   4.313  1.8104  0.0774 -0.3226
 3960SOL    HW223343   3.231   3.846   4.290 -1.6757  0.1357 -2.0042
 3961SOL     OW23344   4.548   3.492   6.567 -0.1961  0.1853  0.1211
 3961SOL    HW123345   4.464   3.454   6.541  0.7917 -3.0196  1.6299
 3961SOL    HW223346   4.531   3.530   6.654 -1.2291 -0.1526  0.0725
 3962SOL     OW23347   3.719   2.861   6.006 -0.7771 -0.1154  0.6835
 3962SOL    HW123348   3.815   2.867   6.002 -0.6086 -4.1161 -0.4756
 3962SOL    HW223349   3.696   2.781   5.959  0.2113 -0.5858  0.9903
 3963SOL     OW23350   4.246   1.894   7.965  0.2175 -0.1363  0.0178
 3963SOL    HW123351   4.211   1.836   8.032 -0.6652 -2.0869 -2.1413
 3963SOL    HW223352   4.268   1.835   7.893  1.3074  0.3843 -0.0844
 3964SOL     OW23353   0.692   0.041  17.158 -0.1581  0.1065  0.0831
 3964SOL    HW123354   0.650   4.685  17.127 -1.1452  1.7144 -2.7124
 3964SOL    HW223355   0.765   0.000  17.205  0.7945  0.4754 -1.0674
 3965SOL     OW23356   2.275   4.658  17.384  0.2990 -0.4119  0.5537
 3965SOL    HW123357   2.269   4.623  17.474  1.3369 -2.0292 -0.0036
 3965SOL    HW223358   2.258   4.575  17.340  3.3669 -0.3073 -0.7831
 3966SOL     OW23359   4.092   2.877  15.779  0.0418  0.6275 -0.5164
 3966SOL    HW123360   4.142   2.920  15.710 -0.3652  0.3234 -0.9977
 3966SOL    HW223361   4.138   2.904  15.859  0.7836 -2.7125  0.2148
 3967SOL     OW23362   3.225   3.385  12.773  0.3596 -0.2669 -0.2367
 3967SOL    HW123363   3.135   3.365  12.797 -0.0705  0.3237 -1.3456
 3967SOL    HW223364   3.268   3.300  12.780  0.7718 -0.0617 -0.3137
 3968SOL     OW23365   0.035   4.493   1.750 -0.0412 -0.5634  0.0661
 3968SOL    HW123366   4.722   4.556   1.812  1.4764  1.5829 -1.1723
 3968SOL    HW223367   0.022   4.537   1.666  0.1421  0.3737  0.5307
 3969SOL     OW23368   1.831   1.024  11.792  0.3508  0.6528  0.9359
 3969SOL    HW123369   1.872   0.938  11.787  0.3086  0.6529  0.5899
 3969SOL    HW223370   1.869   1.053  11.709  2.6909  0.1851  1.8491
 3970SOL     OW23371   2.219   1.662   1.778  0.1219  0.1120  0.1249
 3970SOL    HW123372   2.210   1.596   1.847 -2.1713 -1.7535 -1.9859
 3970SOL    HW223373   2.313   1.657   1.761  0.1515 -0.4660  0.4306
 3971SOL     OW23374   2.954   0.925   6.996  0.2406 -0.1252 -0.0682
 3971SOL    HW123375   2.936   1.010   7.036 -1.6460 -1.3409  1.6923
 3971SOL    HW223376   2.991   0.951   6.912 -2.0574  3.7431  0.1166
 3972SOL     OW23377   0.914   0.650   9.769 -0.5876  0.1309  0.2700
 3972SOL    HW123378   0.907   0.745   9.757 -1.1991  0.2187  1.3333
 3972SOL    HW223379   0.915   0.656   9.864 -0.1301 -0.2847  0.2880
 3973SOL     OW23380   1.530   2.992  15.316 -0.6278 -0.1877  0.3634
 3973SOL    HW123381   1.621   2.963  15.307 -1.3689 -2.4384  0.0728
 3973SOL    HW223382   1.481   2.941  15.251 -1.5032  0.6121  0.4001
 3974SOL     OW23383   2.529   0.025   3.453  0.1623  0.7957  0.0667
 3974SOL    HW123384   2.601   4.714   3.402 -1.8822 -0.2226 -2.0831
 3974SOL    HW223385   2.576   0.058   3.530  0.6140 -0.0053  0.1339
 3975SOL     OW23386   0.126   1.942   0.484 -0.1970 -0.3148 -0.4267
 3975SOL    HW123387   0.220   1.928   0.489  0.2230  2.1284 -1.3736
 3975SOL    HW223388   0.118   1.961   0.391 -1.5557 -0.2169 -0.2983
 3976SOL     OW23389   0.580   0.080  11.750  0.5251  0.1264  0.0912
 3976SOL    HW123390   0.537   4.724  11.778  0.3915  0.3840  0.6209
 3976SOL    HW223391   0.663   0.084  11.798  0.3480 -0.1848  0.4204
 3977SOL     OW23392   1.159   4.492   6.344 -0.2019  0.2105 -0.6933
 3977SOL    HW123393   1.145   4.463   6.434  0.2885  0.0419 -0.6701
 3977SOL    HW223394   1.238   4.546   6.349  0.0914 -0.2750 -0.0684
 3978SOL     OW23395   4.054   1.743   4.818 -0.0803 -0.1100 -0.0304
 3978SOL    HW123396   4.010   1.810   4.766 -1.2733 -1.4956 -0.8408
 3978SOL    HW223397   4.005   1.668   4.783  0.9492 -1.1826  0.7989
 3979SOL     OW23398   2.438   4.255   8.920 -0.2092  0.0419 -0.1246
 3979SOL    HW123399   2.510   4.230   8.978 -0.2798  0.1303  0.0012
 3979SOL    HW223400   2.364   4.199   8.943 -0.6075  0.2776 -0.8434
 3980SOL     OW23401   0.249   0.467   3.019 -0.2496  0.4848 -0.3683
 3980SOL    HW123402   0.292   0.423   3.093  0.6469 -0.6536 -1.5774
 3980SOL    HW223403   0.319   0.506   2.968 -0.1669  1.2748  0.3446
 3981SOL     OW23404   0.865   0.644   6.742  0.1354  0.0641  0.3472
 3981SOL    HW123405   0.811   0.711   6.785 -1.0350 -0.8495  0.2813
 3981SOL    HW223406   0.951   0.684   6.730  0.0321 -0.7113 -3.0750
 3982SOL     OW23407   4.165   4.322  11.678 -0.0248  0.0059  0.4341
 3982SOL    HW123408   4.088   4.333  11.734 -1.2748 -3.5989 -0.5800
 3982SOL    HW223409   4.184   4.416  11.679 -0.5189  0.1230 -1.1485
 3983SOL     OW23410   0.323   2.720   1.344  0.4477 -0.1290  0.1118
 3983SOL    HW123411   0.386   2.688   1.409  1.1130 -2.7904 -1.8482
 3983SOL    HW223412   0.352   2.807   1.316  0.7263  0.4707  2.2279
 3984SOL     OW23413   0.085   1.163   2.569  0.5484 -1.1386 -0.1815
 3984SOL    HW123414   4.718   1.167   2.542  0.6072 -1.8661 -0.5047
 3984SOL    HW223415   0.082   1.204   2.655  0.8924 -1.5376  0.0238
 3985SOL     OW23416   0.885   0.954   3.549 -0.6308 -0.3903  0.3443
 3985SOL    HW123417   0.902   0.906   3.468 -1.6746  1.0735 -0.7343
 3985SOL    HW223418   0.954   0.929   3.611  1.0921  2.7336 -0.3173
 3986SOL     OW23419   4.620   4.054   3.905  0.1086 -0.7500 -0.4103
 3986SOL    HW123420   4.548   3.994   3.926  0.2622 -1.1059 -0.8941
 3986SOL    HW223421   4.673   4.005   3.841  0.5193  1.8354 -2.0333
 3987SOL     OW23422   3.888   2.384   5.339  0.0808 -0.0772  0.1054
 3987SOL    HW123423   3.917   2.380   5.430  1.1734  0.5638 -0.2079
 3987SOL    HW223424   3.883   2.290   5.326  0.7880 -0.3019  1.4386
 3988SOL     OW23425   1.393   3.609   8.551  0.4616 -0.3493  0.0146
 3988SOL    HW123426   1.344   3.529   8.530  0.7179 -1.0806  2.2355
 3988SOL    HW223427   1.475   3.564   8.571 -1.4588 -3.2433  1.4114
 3989SOL     OW23428   0.258   0.546   8.195  0.5479 -0.2391 -0.1126
 3989SOL    HW123429   0.243   0.628   8.148 -0.3977 -0.7481 -0.7079
 3989SOL    HW223430   0.185   0.557   8.254  0.0370  1.4410 -1.0542
 3990SOL     OW23431   1.766   4.708  15.904  0.1418 -0.5351  0.1740
 3990SOL    HW123432   1.723   4.674  15.825 -1.4676 -1.6825  1.5508
 3990SOL    HW223433   1.820   0.046  15.855 -1.3381  0.4082 -0.2436
 3991SOL     OW23434   2.287   1.785   2.652 -0.3193  0.3934 -0.0373
 3991SOL    HW123435   2.254   1.698   2.673  1.2284  0.9079  4.4629
 3991SOL    HW223436   2.202   1.826   2.669 -0.8779 -0.4671 -0.7478
 3992SOL     OW23437   1.844   2.950   3.377  0.1365  0.3587 -0.4139
 3992SOL    HW123438   1.885   3.004   3.445  0.9981 -1.1400  0.2693
 3992SOL    HW223439   1.917   2.919   3.323  0.9623 -0.9972  1.4896
 3993SOL     OW23440   1.397   4.208  13.695 -0.0717  0.1908  0.1882
 3993SOL    HW123441   1.367   4.126  13.656 -0.1169  0.9106 -1.2922
 3993SOL    HW223442   1.481   4.173  13.725 -0.1293  0.2836  0.4551
 3994SOL     OW23443   4.054   0.590   6.280 -0.5498  0.2803  0.3930
 3994SOL    HW123444   4.032   0.515   6.336  0.9794 -1.7818 -1.7654
 3994SOL    HW223445   4.114   0.642   6.333 -0.4494 -1.4800  1.9962
 3995SOL     OW23446   1.700   4.688  12.193 -0.0601  0.0360 -0.5159
 3995SOL    HW123447   1.709   0.017  12.115 -1.9220  0.1544 -0.6480
 3995SOL    HW223448   1.651   0.020  12.253  1.0154  0.6351 -0.2069
 3996SOL     OW23449   1.887   3.231  11.689 -0.8997 -0.3796 -0.5665
 3996SOL    HW123450   1.925   3.319  11.682  0.5447 -0.9171  0.4955
 3996SOL    HW223451   1.798   3.258  11.712 -0.3963  0.7756  0.0400
 3997SOL     OW23452   1.765   1.249   3.541  0.7856  0.3099  0.3526
 3997SOL    HW123453   1.779   1.294   3.624 -1.4519  0.2016  0.7917
 3997SOL    HW223454   1.814   1.167   3.546 -0.2432 -0.3756 -0.7313
 3998SOL     OW23455   2.204   1.167   7.111 -0.4742  0.0634  0.0015
 3998SOL    HW123456   2.259   1.152   7.188  1.2258  3.4610 -0.5532
 3998SOL    HW223457   2.260   1.215   7.050  0.1029  0.5623  0.9165
 3999SOL     OW23458   1.591   3.050   2.723  0.0730 -0.2506 -0.2403
 3999SOL    HW123459   1.620   3.013   2.806 -1.7044 -1.4806 -0.1546
 3999SOL    HW223460   1.496   3.047   2.738  0.5997 -0.7861  2.8890
 4000SOL     OW23461   4.249   0.077  15.170 -0.0021  0.4869 -0.4008
 4000SOL    HW123462   4.303   0.128  15.230 -1.3056 -0.7172  1.8017
 4000SOL    HW223463   4.303   0.078  15.091 -1.3561  0.3310 -1.3272
 4001SOL     OW23464   3.082   4.040  15.972  0.3121  0.3016  0.4138
 4001SOL    HW123465   3.085   4.103  16.044  3.0923 -1.7087  2.0273
 4001SOL    HW223466   2.993   4.005  15.979  0.2355  0.6658  1.2223
 4002SOL     OW23467   4.027   0.115   3.956 -0.7127  0.5995  0.1322
 4002SOL    HW123468   4.119   0.093   3.940 -1.4186 -1.2254 -1.4176
 4002SOL    HW223469   3.981   0.047   3.906  1.5862  1.7711 -3.5982
 4003SOL     OW23470   1.910   2.735   0.212 -0.0094 -0.2569  0.7255
 4003SOL    HW123471   1.833   2.682   0.232  0.6906 -1.1482  1.0467
 4003SOL    HW223472   1.933   2.783   0.292 -0.2797  0.5958  0.2864
 4004SOL     OW23473   0.306   1.884   8.377  0.4358  0.1442  0.2492
 4004SOL    HW123474   0.352   1.939   8.313 -0.1938 -0.4091 -0.6734
 4004SOL    HW223475   0.323   1.932   8.458  0.6482 -0.6372  0.6636
 4005SOL     OW23476   3.595   4.479  13.086  0.2552 -0.1243 -0.0219
 4005SOL    HW123477   3.641   4.396  13.078  0.2161 -0.1600  0.1253
 4005SOL    HW223478   3.665   4.540  13.109 -0.1397  0.1850  0.3637
 4006SOL     OW23479   3.291   2.283   6.173 -0.0532 -0.1623 -0.2692
 4006SOL    HW123480   3.332   2.357   6.128 -0.0254 -1.0415 -1.6939
 4006SOL    HW223481   3.322   2.221   6.107  1.4680  3.2004 -2.6961
 4007SOL     OW23482   3.436   2.969  15.133 -0.1624  0.3530  0.0791
 4007SOL    HW123483   3.422   2.892  15.189 -0.3225  0.6996  0.5183
 4007SOL    HW223484   3.355   2.959  15.083 -1.1017 -1.2991  1.8952
 4008SOL     OW23485   0.254   2.764   2.511 -0.2895 -0.5072  0.2042
 4008SOL    HW123486   0.332   2.719   2.480  1.7576  2.7100  0.6014
 4008SOL    HW223487   0.275   2.772   2.604 -1.1847 -0.4421  0.3960
 4009SOL     OW23488   1.919   1.216   8.293  0.1546  0.5544  0.2585
 4009SOL    HW123489   1.847   1.182   8.240  1.3062  5.0928 -4.2418
 4009SOL    HW223490   1.933   1.146   8.357 -1.6029  1.2244  1.3833
 4010SOL     OW23491   0.406   0.256   9.513  1.0367  0.3412 -0.9546
 4010SOL    HW123492   0.361   0.253   9.428  1.8136 -2.7455 -1.2497
 4010SOL    HW223493   0.496   0.264   9.481  1.1981 -1.1182 -0.8479
 4011SOL     OW23494   1.796   2.881   4.805 -0.3525  0.4389  0.0986
 4011SOL    HW123495   1.735   2.950   4.831 -1.6513  0.5693 -3.2528
 4011SOL    HW223496   1.855   2.875   4.880  0.1623  1.2246 -0.2466
 4012SOL     OW23497   0.599   1.933  10.379 -0.1185 -0.2678 -0.6055
 4012SOL    HW123498   0.504   1.924  10.380  0.1956 -3.9622 -4.4342
 4012SOL    HW223499   0.601   1.987  10.458 -1.5077 -2.9002  1.2312
 4013SOL     OW23500   1.149   1.139   7.684 -0.1589  0.0577  0.5039
 4013SOL    HW123501   1.130   1.060   7.633  0.1043 -0.5537  1.3582
 4013SOL    HW223502   1.170   1.204   7.617 -0.9194 -0.6784 -0.4547
 4014SOL     OW23503   3.029   0.968  16.744  0.0364  0.6132  0.0810
 4014SOL    HW123504   3.020   0.948  16.651  0.2939  1.2531 -0.0836
 4014SOL    HW223505   3.111   0.933  16.778 -1.2630 -0.3108  2.2241
 4015SOL     OW23506   3.926   4.661  14.465 -0.3941  0.0767 -0.1442
 4015SOL    HW123507   3.835   4.647  14.491 -0.4747  0.5030 -0.2041
 4015SOL    HW223508   3.963   4.616  14.541 -0.7310  0.4337  0.2259
 4016SOL     OW23509   0.459   1.148   4.737 -0.0910 -0.5503 -0.0965
 4016SOL    HW123510   0.532   1.173   4.680 -0.0594  1.5359  0.8509
 4016SOL    HW223511   0.441   1.229   4.785  1.4336 -0.3662  0.1720
 4017SOL     OW23512   0.475   2.750   2.041 -0.0515 -0.0676 -0.0154
 4017SOL    HW123513   0.515   2.701   1.969 -0.2316 -0.6051  0.2481
 4017SOL    HW223514   0.553   2.802   2.060  0.0053  0.7651 -2.5068
 4018SOL     OW23515   4.696   0.684   4.051 -0.5091 -0.2302 -0.8456
 4018SOL    HW123516   0.002   0.696   4.141 -0.8648  1.7100 -0.9667
 4018SOL    HW223517   4.698   0.772   4.011  0.5845  1.4836  2.9713
 4019SOL     OW23518   2.307   1.432   5.073 -0.1729 -0.2043 -0.1350
 4019SOL    HW123519   2.276   1.522   5.073 -2.3355 -0.9556  1.1893
 4019SOL    HW223520   2.379   1.428   5.136 -2.1726  0.0884  2.1601
 4020SOL     OW23521   2.527   2.723   9.086 -0.4173  0.0937 -0.2174
 4020SOL    HW123522   2.601   2.768   9.128 -0.0633 -1.1096  0.4458
 4020SOL    HW223523   2.555   2.701   8.997 -0.0347  1.0403 -0.3326
 4021SOL     OW23524   3.766   2.454   7.537  0.3545  0.3902 -0.3600
 4021SOL    HW123525   3.772   2.421   7.626 -1.0418  0.7298 -0.1426
 4021SOL    HW223526   3.856   2.477   7.512  0.1575  0.3883 -1.0799
 4022SOL     OW23527   0.023   1.877   2.910 -0.1879 -0.3756 -0.3792
 4022SOL    HW123528   0.019   1.796   2.960 -0.0762  0.2942  0.7052
 4022SOL    HW223529   4.673   1.923   2.948 -0.0612 -0.3219 -0.1973
 4023SOL     OW23530   3.113   3.299  16.169 -0.2980 -0.6381 -0.1943
 4023SOL    HW123531   3.167   3.258  16.237 -1.8238  0.3156  1.5909
 4023SOL    HW223532   3.176   3.305  16.097  0.4405 -0.7977  0.4474
 4024SOL     OW23533   3.178   3.918   1.074 -0.7499 -0.0973 -0.1851
 4024SOL    HW123534   3.186   3.993   1.133 -0.0113 -2.1361  2.3092
 4024SOL    HW223535   3.091   3.919   1.033 -2.6350  2.7093  3.8349
 4025SOL     OW23536   2.747   1.917   2.649 -0.5613 -0.1555  0.1314
 4025SOL    HW123537   2.651   1.913   2.648 -0.4778 -2.0006 -1.0821
 4025SOL    HW223538   2.760   1.999   2.601  2.0859  1.3188  3.3953
 4026SOL     OW23539   1.625   3.136   1.631  0.4642 -0.0029  0.1060
 4026SOL    HW123540   1.603   3.180   1.548 -0.7627 -1.1873 -0.2035
 4026SOL    HW223541   1.692   3.201   1.653 -0.8696  1.1628  0.7156
 4027SOL     OW23542   2.626   0.388   6.472  0.4320 -0.5684 -0.7800
 4027SOL    HW123543   2.572   0.460   6.505 -0.1228 -1.5986  0.5412
 4027SOL    HW223544   2.567   0.316   6.447 -1.6076  0.4889  1.0260
 4028SOL     OW23545   2.498   4.502  11.480  0.1721 -0.1068 -0.7053
 4028SOL    HW123546   2.417   4.520  11.432 -0.4813  0.4501  0.6190
 4028SOL    HW223547   2.547   4.581  11.458  1.7720 -1.4475 -1.9856
 4029SOL     OW23548   3.228   0.893   7.243  0.2843  0.2526  0.4647
 4029SOL    HW123549   3.251   0.936   7.325 -1.5858  1.0813  0.5630
 4029SOL    HW223550   3.226   0.965   7.180  1.0163 -0.0361  0.1117
 4030SOL     OW23551   4.050   3.796   3.640 -0.5084  0.3460  0.1346
 4030SOL    HW123552   4.065   3.889   3.622 -2.8032  1.0223  1.6380
 4030SOL    HW223553   4.006   3.755   3.565 -1.4861  0.1958  0.7912
 4031SOL     OW23554   4.173   3.178  12.952  0.3333 -0.2887  0.3442
 4031SOL    HW123555   4.170   3.135  13.038  0.1287 -0.8256  0.0655
 4031SOL    HW223556   4.081   3.197  12.934  0.8003  0.7247 -0.9526
 4032SOL     OW23557   3.373   1.021   8.599  0.0821  0.7084  0.1139
 4032SOL    HW123558   3.461   1.056   8.581 -0.1975  0.6246 -1.4251
 4032SOL    HW223559   3.402   0.934   8.625 -1.2591  0.1059 -0.3988
 4033SOL     OW23560   1.410   3.702  11.384  1.0219 -0.1416  0.0890
 4033SOL    HW123561   1.328   3.659  11.357  0.3719  0.5663  0.9139
 4033SOL    HW223562   1.409   3.670  11.475 -0.9966  0.8446  0.4241
 4034SOL     OW23563   3.965   1.247  10.023 -0.2019  0.2686 -0.2950
 4034SOL    HW123564   3.893   1.309  10.008 -1.5214 -1.0641  0.5447
 4034SOL    HW223565   3.937   1.173   9.969 -3.5422  1.0798  0.3498
 4035SOL     OW23566   4.546   1.377  14.392  0.1050 -0.1521  0.1225
 4035SOL    HW123567   4.599   1.412  14.321  1.2899 -0.1555  0.9989
 4035SOL    HW223568   4.573   1.285  14.392 -0.8899 -0.4457  0.6873
 4036SOL     OW23569   2.794   0.901   8.391  0.0961 -0.7306 -0.5404
 4036SOL    HW123570   2.791   0.971   8.455 -1.4812 -0.4657 -0.8847
 4036SOL    HW223571   2.887   0.881   8.395  0.2429 -0.1868 -1.3284
 4037SOL     OW23572   4.216   3.670   5.651 -0.2444 -0.4218 -0.8266
 4037SOL    HW123573   4.236   3.763   5.650 -3.3748  0.2698 -0.4421
 4037SOL    HW223574   4.185   3.641   5.565  0.2905 -0.7525 -0.9071
 4038SOL     OW23575   2.825   2.287   7.537  0.1563 -0.4760 -0.2285
 4038SOL    HW123576   2.842   2.340   7.460 -0.8608  1.3025  0.7718
 4038SOL    HW223577   2.909   2.299   7.581  0.0221  1.4627 -0.5180
 4039SOL     OW23578   1.491   2.239   2.214  0.4137 -0.1828  0.3311
 4039SOL    HW123579   1.468   2.312   2.158 -0.1634 -1.7816 -1.5308
 4039SOL    HW223580   1.586   2.248   2.224  0.3733  0.1909  0.3830
 4040SOL     OW23581   1.306   2.048   6.965  0.3487 -0.0257 -0.0968
 4040SOL    HW123582   1.285   2.129   7.012 -0.7084 -0.0419 -0.5377
 4040SOL    HW223583   1.284   1.980   7.029  0.1739  2.1951  2.2143
 4041SOL     OW23584   1.137   4.353  11.285 -1.0364 -0.0170 -0.0041
 4041SOL    HW123585   1.083   4.274  11.292  2.9244 -2.7244  0.1010
 4041SOL    HW223586   1.164   4.357  11.193  0.2269 -0.9074  0.3108
 4042SOL     OW23587   2.854   2.480  15.814 -0.2162  0.1055 -0.3974
 4042SOL    HW123588   2.890   2.560  15.775 -1.4917  0.7740 -0.2004
 4042SOL    HW223589   2.915   2.468  15.886 -2.0792 -0.4883  1.0920
 4043SOL     OW23590   1.435   4.649   1.156 -0.1025  0.3982  0.3874
 4043SOL    HW123591   1.369   4.610   1.099  0.4861 -0.7693  0.5140
 4043SOL    HW223592   1.386   0.000   1.189 -0.0008  0.6639 -0.0804
 4044SOL     OW23593   0.782   0.484   4.487 -0.0908 -0.1440 -0.1438
 4044SOL    HW123594   0.819   0.479   4.575 -1.6928  3.2159  0.7263
 4044SOL    HW223595   0.845   0.551   4.463  0.4690  0.2011  2.3163
 4045SOL     OW23596   3.751   4.541  15.353 -0.6467  0.2703  0.6226
 4045SOL    HW123597   3.671   4.528  15.405 -0.8885 -1.1462 -0.0865
 4045SOL    HW223598   3.739   4.610  15.288 -0.7565 -0.9735 -0.6909
 4046SOL     OW23599   3.876   3.294   0.655  0.2941 -0.3250 -0.2651
 4046SOL    HW123600   3.861   3.365   0.718  2.6660  0.3837 -0.4994
 4046SOL    HW223601   3.900   3.351   0.582  0.6202 -1.5959 -1.1458
 4047SOL     OW23602   0.465   2.959  15.191  0.0510 -0.3357 -0.0017
 4047SOL    HW123603   0.483   3.053  15.199 -3.3118  0.1728  1.4935
 4047SOL    HW223604   0.375   2.967  15.161 -0.3843 -1.0681  1.1191
 4048SOL     OW23605   1.028   4.026   6.897 -0.1400  0.6472  0.0238
 4048SOL    HW123606   1.056   4.078   6.972  0.0995  0.1853  0.2515
 4048SOL    HW223607   1.077   4.069   6.827 -0.7870 -1.4003 -1.6982
 4049SOL     OW23608   3.336   0.452   7.123  0.4740 -0.0115 -0.1424
 4049SOL    HW123609   3.423   0.415   7.136  0.5585  0.0363 -0.5817
 4049SOL    HW223610   3.290   0.404   7.192  1.5393 -0.6271  0.1278
 4050SOL     OW23611   1.146   0.462   4.994  0.0542  0.1818  0.0123
 4050SOL    HW123612   1.163   0.549   4.959  1.7007 -1.2248 -2.6447
 4050SOL    HW223613   1.060   0.485   5.028 -0.5929 -0.9552 -0.8605
 4051SOL     OW23614   1.811   3.928  13.549  0.7855  0.2358  0.6937
 4051SOL    HW123615   1.820   3.953  13.641 -1.7700  1.8383  0.4889
 4051SOL    HW223616   1.867   3.992  13.506  0.1140  0.3043 -0.0790
 4052SOL     OW23617   1.504   3.806   3.242  0.3586 -0.0099  0.0348
 4052SOL    HW123618   1.433   3.781   3.183  1.9587 -3.7219 -0.3334
 4052SOL    HW223619   1.579   3.810   3.183  1.0204  2.9078  1.0767
 4053SOL     OW23620   4.167   4.135  17.141  0.4841  0.6040  0.7246
 4053SOL    HW123621   4.262   4.133  17.151  0.4645 -3.1136 -0.1036
 4053SOL    HW223622   4.143   4.043  17.145  1.0498  0.4652  0.9330
 4054SOL     OW23623   2.500   1.200  15.997 -0.1982 -0.3078 -0.5977
 4054SOL    HW123624   2.416   1.164  16.027  0.4951 -1.9695 -0.6819
 4054SOL    HW223625   2.473   1.290  15.979  1.9734  0.3306 -0.5724
 4055SOL     OW23626   3.934   3.784   7.592 -0.2192 -0.0998  0.0459
 4055SOL    HW123627   3.905   3.694   7.576 -1.7276  0.8409 -2.5203
 4055SOL    HW223628   3.890   3.828   7.519  1.5852 -0.6642 -1.3581
 4056SOL     OW23629   3.887   4.374   3.134  0.1236  0.3467 -0.1318
 4056SOL    HW123630   3.977   4.343   3.143 -0.3541 -0.7711  0.8437
 4056SOL    HW223631   3.896   4.445   3.070  0.0086  0.0406 -0.4835
 4057SOL     OW23632   0.257   2.432  16.275  0.1434 -0.4944  0.0969
 4057SOL    HW123633   0.229   2.473  16.358 -3.1628  1.0070 -1.7673
 4057SOL    HW223634   0.170   2.443  16.235  0.4555  1.3019 -0.0809
 4058SOL     OW23635   1.420   3.323  16.827  0.0713  0.0315 -0.3119
 4058SOL    HW123636   1.462   3.368  16.753  2.1951  3.0466  2.7584
 4058SOL    HW223637   1.459   3.236  16.814 -0.6405 -0.2466 -0.5704
 4059SOL     OW23638   4.502   1.187   6.526 -0.4183 -0.5100 -0.1214
 4059SOL    HW123639   4.414   1.163   6.497 -0.1963 -0.6831 -0.6549
 4059SOL    HW223640   4.555   1.154   6.453  0.1418 -0.9381  0.4780
 4060SOL     OW23641   1.539   3.893  16.948 -0.1270  0.8138  0.0199
 4060SOL    HW123642   1.577   3.873  17.035 -1.7200 -1.3908  0.2178
 4060SOL    HW223643   1.613   3.897  16.887 -0.2691 -1.7308 -0.3521
 4061SOL     OW23644   0.207   3.753  13.488  0.1316  0.6867 -0.5202
 4061SOL    HW123645   0.302   3.766  13.489  0.1516  0.5569 -1.0562
 4061SOL    HW223646   0.171   3.831  13.446 -0.0591  0.5189 -0.6692
 4062SOL     OW23647   1.244   2.087   2.131  0.4328  0.5636  0.0464
 4062SOL    HW123648   1.334   2.055   2.129  0.3258  0.2815 -0.1943
 4062SOL    HW223649   1.244   2.100   2.226  0.2340  1.1951 -0.0404
 4063SOL     OW23650   4.572   2.124   4.390  0.1101  0.1007 -0.3356
 4063SOL    HW123651   4.639   2.166   4.337  1.0255  1.2565  1.7538
 4063SOL    HW223652   4.552   2.201   4.444 -2.1128  0.5435 -1.7711
 4064SOL     OW23653   1.201   4.134   0.090  0.5524  0.3045  0.1890
 4064SOL    HW123654   1.184   4.191   0.015 -1.6183  0.9793  1.1866
 4064SOL    HW223655   1.296   4.134   0.098  0.8255 -0.4388 -2.8780
 4065SOL     OW23656   4.552   1.569   4.767  0.7396 -0.1379 -0.2840
 4065SOL    HW123657   4.593   1.597   4.849  0.5024  1.4630 -0.7125
 4065SOL    HW223658   4.625   1.540   4.713  1.9426  0.1177  1.2071
 4066SOL     OW23659   1.913   0.544   7.220 -0.1643  0.0261 -0.2434
 4066SOL    HW123660   1.866   0.547   7.137 -5.1068  1.1975  2.5704
 4066SOL    HW223661   1.965   0.466   7.205 -0.9349 -0.7806  1.3265
 4067SOL     OW23662   3.915   0.835   3.180  0.3550  0.2413 -0.2603
 4067SOL    HW123663   3.978   0.765   3.197  1.3590  1.3520  0.5125
 4067SOL    HW223664   3.966   0.916   3.176 -0.2495  0.5966 -0.9410
 4068SOL     OW23665   2.353   4.291   3.316  0.0724 -0.7133 -0.2973
 4068SOL    HW123666   2.310   4.305   3.400  1.4628 -0.8175  0.4338
 4068SOL    HW223667   2.382   4.200   3.319  1.7104 -0.1483  0.9353
 4069SOL     OW23668   1.536   3.732   9.789  0.8212 -0.4001  0.1771
 4069SOL    HW123669   1.518   3.656   9.843  0.6211  0.1809  0.9365
 4069SOL    HW223670   1.448   3.768   9.779  1.1759  0.0163 -1.4245
 4070SOL     OW23671   0.778   1.745   1.318  0.3847  0.7952  0.3812
 4070SOL    HW123672   0.773   1.735   1.413 -1.0924 -2.0164 -0.0173
 4070SOL    HW223673   0.818   1.662   1.293  0.8293  0.9474  0.5683
 4071SOL     OW23674   3.623   3.988   4.038 -0.1497  0.3335  0.1338
 4071SOL    HW123675   3.609   4.082   4.048 -1.5902  0.0086  1.2267
 4071SOL    HW223676   3.696   3.987   3.976  1.0105  1.8038  1.4925
 4072SOL     OW23677   1.528   3.637   7.636 -0.3660  0.2814  0.0886
 4072SOL    HW123678   1.443   3.638   7.680 -0.2896 -1.3451  0.2758
 4072SOL    HW223679   1.577   3.565   7.676  1.0251  1.0234 -0.2791
 4073SOL     OW23680   4.681   1.528   6.747  0.3607  0.1472 -0.0132
 4073SOL    HW123681   0.021   1.470   6.787  0.4460  0.6088  0.5262
 4073SOL    HW223682   4.630   1.541   6.827  1.0713 -2.9104  0.9227
 4074SOL     OW23683   4.265   2.314   5.805  0.2674  0.7093 -0.0877
 4074SOL    HW123684   4.339   2.273   5.849 -0.8269  1.6009  2.5915
 4074SOL    HW223685   4.201   2.242   5.808 -1.1425  1.8167 -3.7301
 4075SOL     OW23686   3.905   2.274   8.794 -0.1062 -0.2000 -0.0508
 4075SOL    HW123687   3.856   2.216   8.736  0.4840 -1.5530  0.7910
 4075SOL    HW223688   3.990   2.280   8.749  0.4594 -1.4425  0.8391
 4076SOL     OW23689   0.276   3.312   4.308  0.2538 -0.1914 -0.5640
 4076SOL    HW123690   0.182   3.310   4.323  0.3850  0.6776  0.3676
 4076SOL    HW223691   0.295   3.405   4.296 -0.6090 -0.0147 -0.5115
 4077SOL     OW23692   1.422   0.361   8.966 -0.4443 -0.3578  0.3954
 4077SOL    HW123693   1.387   0.399   9.047  0.6977  2.6037 -0.5331
 4077SOL    HW223694   1.345   0.385   8.914 -1.2163 -1.7089  0.8840
 4078SOL     OW23695   0.327   2.399   3.055  0.2063  0.0650  0.2498
 4078SOL    HW123696   0.337   2.306   3.075  0.2367  0.2395  1.0470
 4078SOL    HW223697   0.254   2.382   2.995  0.2536 -0.9264  0.4599
 4079SOL     OW23698   2.970   2.559   3.076  0.4736  0.3436  0.3577
 4079SOL    HW123699   2.934   2.617   3.142  1.9959  2.0897 -0.3502
 4079SOL    HW223700   3.057   2.537   3.109  1.0051  0.3004 -1.0593
 4080SOL     OW23701   3.689   0.167  12.239  0.2169 -0.7519 -0.3040
 4080SOL    HW123702   3.711   0.221  12.163  2.2444 -0.0230  0.7770
 4080SOL    HW223703   3.763   0.191  12.296  0.6766  1.6493 -1.9044
 4081SOL     OW23704   2.891   0.535   3.554 -0.1600  0.1131  0.0522
 4081SOL    HW123705   2.884   0.448   3.513 -4.4933  1.5264 -2.1907
 4081SOL    HW223706   2.843   0.520   3.635  1.2374 -1.0312  0.6741
 4082SOL     OW23707   3.170   2.736   2.770  1.1443 -0.0559  0.3960
 4082SOL    HW123708   3.223   2.772   2.699  0.0081  0.3837 -0.2288
 4082SOL    HW223709   3.170   2.803   2.838 -1.4185  0.4311 -0.1106
 4083SOL     OW23710   0.289   2.350   8.794 -0.2248  0.3443  0.1645
 4083SOL    HW123711   0.294   2.382   8.884  2.8042  1.8148 -0.5397
 4083SOL    HW223712   0.374   2.307   8.783 -0.9137 -0.3656 -2.4573
 4084SOL     OW23713   0.494   3.849   7.988  0.0280 -0.2879  0.4207
 4084SOL    HW123714   0.543   3.931   8.001  0.2047 -0.3820  0.3480
 4084SOL    HW223715   0.499   3.849   7.892 -0.5205 -0.1397  0.3883
 4085SOL     OW23716   1.086   4.139   0.580 -0.0333  0.1860 -0.8047
 4085SOL    HW123717   1.079   4.100   0.493  0.8256  1.6375 -1.5290
 4085SOL    HW223718   1.174   4.111   0.604 -1.6913 -1.7391  3.0261
 4086SOL     OW23719   1.424   1.480   6.291 -0.5898  0.1281  0.1684
 4086SOL    HW123720   1.441   1.396   6.249  1.5123  0.0141  1.2519
 4086SOL    HW223721   1.386   1.531   6.219  2.4216  1.3478 -0.5312
 4087SOL     OW23722   1.141   2.802   8.191 -0.2190  0.3522  0.2741
 4087SOL    HW123723   1.211   2.823   8.253  0.3459 -2.4009  0.5717
 4087SOL    HW223724   1.066   2.811   8.250  0.8783  1.8078  1.4707
 4088SOL     OW23725   4.027   0.599   2.333 -0.2341 -0.3278 -0.0192
 4088SOL    HW123726   4.067   0.588   2.419 -0.9584 -1.7491  0.1377
 4088SOL    HW223727   4.059   0.519   2.292 -3.1198 -1.7129  0.4248
 4089SOL     OW23728   2.803   1.932   4.974  0.3151  0.2764  0.1785
 4089SOL    HW123729   2.811   2.014   4.925  1.3987 -0.9626 -1.7386
 4089SOL    HW223730   2.742   1.949   5.045  0.6036  2.5469 -0.1090
 4090SOL     OW23731   3.208   1.579  15.180  0.0302  0.2657 -0.6026
 4090SOL    HW123732   3.121   1.614  15.162 -0.1146 -0.8456 -2.0360
 4090SOL    HW223733   3.263   1.646  15.140 -0.1065  0.0867 -1.0834
 4091SOL     OW23734   0.301   2.538   8.139  0.6261  0.5413 -0.2361
 4091SOL    HW123735   0.279   2.594   8.064 -3.6245  0.7264  1.1415
 4091SOL    HW223736   0.224   2.548   8.195 -0.4154  0.4828 -1.6527
 4092SOL     OW23737   2.074   1.134   4.105  0.8612  0.6035 -0.1879
 4092SOL    HW123738   2.035   1.068   4.049 -2.5878  1.2905  1.4078
 4092SOL    HW223739   2.002   1.140   4.167  1.8819 -0.5093  1.1162
 4093SOL     OW23740   1.261   3.464  16.287  0.4172 -0.5673 -0.1501
 4093SOL    HW123741   1.331   3.453  16.222  1.6305 -2.7671  1.5177
 4093SOL    HW223742   1.182   3.441  16.237 -0.6370  1.3670  0.6082
 4094SOL     OW23743   1.051   4.249  16.238 -0.2353 -0.1342 -0.2400
 4094SOL    HW123744   1.125   4.199  16.204  0.4913  0.1851  0.8812
 4094SOL    HW223745   0.978   4.195  16.206  0.2374 -0.3354 -0.9626
 4095SOL     OW23746   2.745   3.765  16.171 -0.5532 -0.0145 -0.0986
 4095SOL    HW123747   2.723   3.721  16.254 -0.0038 -1.4879 -0.7452
 4095SOL    HW223748   2.807   3.707  16.128 -0.0637 -0.2085  0.8549
 4096SOL     OW23749   1.966   3.500   2.537 -0.2999  0.7114  0.7463
 4096SOL    HW123750   1.930   3.533   2.455  0.8910 -2.3291 -1.0037
 4096SOL    HW223751   1.963   3.405   2.527  1.0160  0.5899  1.4632
 4097SOL     OW23752   1.729   3.499  17.567 -0.3157  0.1432 -0.5159
 4097SOL    HW123753   1.711   3.560  17.496 -0.8985  0.3515 -0.1906
 4097SOL    HW223754   1.648   3.448  17.566 -0.5514  0.4948  0.4081
 4098SOL     OW23755   2.755   0.476   4.702  0.1900 -0.3215 -0.4761
 4098SOL    HW123756   2.748   0.568   4.678  1.7173 -0.5112 -1.6791
 4098SOL    HW223757   2.706   0.471   4.784  0.6989 -0.3374 -0.1695
 4099SOL     OW23758   3.762   3.352   1.743 -0.2429  0.2178 -0.0063
 4099SOL    HW123759   3.777   3.390   1.657 -0.7783  1.6313  0.5319
 4099SOL    HW223760   3.764   3.259   1.719 -2.8897 -0.0855  1.0701
 4100SOL     OW23761   3.011   1.558   1.687  0.0595  0.0221  0.0177
 4100SOL    HW123762   2.952   1.488   1.658 -0.5288  1.3397 -1.9541
 4100SOL    HW223763   2.981   1.564   1.778 -0.3782  2.1240 -0.2658
 4101SOL     OW23764   0.477   2.580   6.037  0.1914 -0.0484  0.4585
 4101SOL    HW123765   0.402   2.564   6.095 -0.6619  0.2990 -0.5487
 4101SOL    HW223766   0.512   2.658   6.080  0.8217  0.7707 -1.5249
 4102SOL     OW23767   3.009   3.412   2.920 -0.3586 -0.3242 -0.5566
 4102SOL    HW123768   3.061   3.404   2.840 -0.2892 -0.7970 -0.4651
 4102SOL    HW223769   2.946   3.347   2.888  0.6024 -1.1363 -0.8066
 4103SOL     OW23770   3.734   4.264  16.885 -0.1404 -0.0864  0.0115
 4103SOL    HW123771   3.646   4.274  16.850  0.3406 -0.5210 -1.3089
 4103SOL    HW223772   3.780   4.345  16.862 -3.1888  1.7654  0.5124
 4104SOL     OW23773   0.097   2.549   8.336  0.1333 -0.0220 -0.1066
 4104SOL    HW123774   0.117   2.472   8.388  1.3390  2.1967  2.6902
 4104SOL    HW223775   0.014   2.519   8.298 -0.6247  1.0875  0.6571
 4105SOL     OW23776   2.549   0.531   1.892 -1.1101  0.2378  0.3196
 4105SOL    HW123777   2.474   0.493   1.846 -1.0714 -2.1562  2.2751
 4105SOL    HW223778   2.615   0.469   1.862 -0.1935  0.7332  1.3202
 4106SOL     OW23779   1.633   1.711   7.960  0.0782  0.3579 -0.0673
 4106SOL    HW123780   1.626   1.622   7.997 -0.6017  0.3391 -0.2387
 4106SOL    HW223781   1.681   1.694   7.879 -1.2171 -0.3970 -0.6815
 4107SOL     OW23782   3.937   3.934   9.105 -0.9898 -0.8124  0.0923
 4107SOL    HW123783   3.937   4.013   9.158  2.1475 -0.5194 -0.3799
 4107SOL    HW223784   3.943   3.865   9.171 -1.6561  0.9551  1.9941
 4108SOL     OW23785   3.892   0.208  16.401  0.4175  0.1356  0.1026
 4108SOL    HW123786   3.817   0.263  16.423  1.5808  0.3022  3.5671
 4108SOL    HW223787   3.885   0.142  16.469 -1.2886  0.8274  0.6050
 4109SOL     OW23788   1.097   0.668   9.385  0.1442  0.2340  0.4923
 4109SOL    HW123789   1.066   0.666   9.294  0.4608  0.7444  0.3720
 4109SOL    HW223790   1.102   0.762   9.400 -0.0057  0.3068  0.0953
 4110SOL     OW23791   3.855   4.471   6.097  0.0686 -0.2448  0.4190
 4110SOL    HW123792   3.851   4.488   6.003  0.2059  1.3384  0.6898
 4110SOL    HW223793   3.760   4.460   6.103  0.3202 -1.5867  1.8765
 4111SOL     OW23794   4.323   4.576  12.383 -0.3063  0.2841  0.2551
 4111SOL    HW123795   4.376   4.577  12.303 -0.5560 -1.3469  0.0582
 4111SOL    HW223796   4.267   4.500  12.367 -0.3996  0.0413  1.7760
 4112SOL     OW23797   1.732   1.646  15.751 -0.3870  0.1456  0.0508
 4112SOL    HW123798   1.640   1.626  15.732 -0.4366 -0.5502  1.0203
 4112SOL    HW223799   1.764   1.630  15.662 -0.1515  1.4686 -0.1005
 4113SOL     OW23800   2.711   0.165   8.475 -0.0938  0.3159 -0.7699
 4113SOL    HW123801   2.710   0.252   8.515  1.7162 -0.0147  0.0250
 4113SOL    HW223802   2.640   0.175   8.412 -1.9691 -2.1431  0.9709
 4114SOL     OW23803   2.597   1.103  14.962 -0.0153 -0.2721  0.1281
 4114SOL    HW123804   2.522   1.076  15.015  0.4053 -0.9713  0.3573
 4114SOL    HW223805   2.566   1.180  14.915  2.6946  1.2734  0.8658
 4115SOL     OW23806   1.705   1.929   4.571 -0.2268 -0.4923  0.2790
 4115SOL    HW123807   1.627   1.892   4.614 -1.3112  1.6184  0.1356
 4115SOL    HW223808   1.676   1.930   4.479  1.6422 -2.9000 -0.3336
 4116SOL     OW23809   1.527   1.714  11.716  0.0508 -0.8991 -0.4708
 4116SOL    HW123810   1.485   1.786  11.763  0.3327 -1.3036  0.4090
 4116SOL    HW223811   1.516   1.649  11.786  0.8774 -0.3055  0.2092
 4117SOL     OW23812   1.770   3.863   7.381 -0.3836  0.2121  0.0967
 4117SOL    HW123813   1.729   3.911   7.453 -0.8945 -1.4578  0.9125
 4117SOL    HW223814   1.699   3.865   7.316 -0.3391 -4.2270 -0.0603
 4118SOL     OW23815   0.551   2.003   5.867  0.4754 -0.2917 -0.2716
 4118SOL    HW123816   0.544   2.088   5.826 -0.9904 -0.1320  0.3053
 4118SOL    HW223817   0.477   2.007   5.928  0.7099  1.3157 -0.0977
 4119SOL     OW23818   2.020   2.370  14.500 -0.1570 -0.0138 -0.2425
 4119SOL    HW123819   2.053   2.448  14.544  0.0751 -2.4101  3.8468
 4119SOL    HW223820   1.964   2.405  14.430 -2.7307 -0.0187  1.7892
 4120SOL     OW23821   2.567   3.791   8.543  0.2074 -0.2378 -0.2889
 4120SOL    HW123822   2.610   3.777   8.459  1.5017  2.8733 -0.1605
 4120SOL    HW223823   2.558   3.700   8.570  1.7430 -0.7662 -1.6008
 4121SOL     OW23824   1.984   4.300   4.945  0.0445 -0.5295 -0.1873
 4121SOL    HW123825   2.041   4.259   4.880  1.3875  0.0967  0.6035
 4121SOL    HW223826   2.013   4.390   4.937 -1.5956 -0.1551 -2.1198
 4122SOL     OW23827   4.583   1.993   9.823  0.3073 -0.0186  0.0336
 4122SOL    HW123828   4.573   2.004   9.918  1.1930  1.3704 -0.0343
 4122SOL    HW223829   4.645   1.919   9.824  1.8088  1.2616  3.4173
 4123SOL     OW23830   1.930   1.289   0.079  0.0045 -0.2303 -0.5452
 4123SOL    HW123831   1.865   1.355   0.103 -0.9643 -2.2034  2.1272
 4123SOL    HW223832   1.954   1.342   0.002  0.5196 -1.3545 -1.1527
 4124SOL     OW23833   1.494   0.798   4.287 -0.1087 -0.7018  0.0241
 4124SOL    HW123834   1.427   0.810   4.221  0.8098  0.1751 -0.7399
 4124SOL    HW223835   1.567   0.764   4.235  1.4738  1.7330  0.5991
 4125SOL     OW23836   3.113   3.595   4.535 -0.0107 -0.7584 -0.3808
 4125SOL    HW123837   3.043   3.654   4.508  0.7374  0.7617  1.0168
 4125SOL    HW223838   3.183   3.644   4.580  0.3161 -2.3123  0.7988
 4126SOL     OW23839   4.078   3.474   1.640  0.1629 -0.0454 -0.2511
 4126SOL    HW123840   4.065   3.505   1.550  1.1593 -0.3420 -0.4995
 4126SOL    HW223841   4.151   3.527   1.672 -0.6575 -0.6893  2.6593
 4127SOL     OW23842   0.565   4.462   8.637  0.1039  0.1530 -0.0970
 4127SOL    HW123843   0.606   4.444   8.552 -1.1074  0.3079 -0.7134
 4127SOL    HW223844   0.589   4.553   8.652  0.7196 -0.3558  1.9430
 4128SOL     OW23845   3.612   4.265   4.031 -0.2730 -0.6248  0.1472
 4128SOL    HW123846   3.573   4.347   4.062 -2.3791 -1.5676 -0.0564
 4128SOL    HW223847   3.687   4.305   3.987  0.3668 -3.1206 -1.0056
 4129SOL     OW23848   1.831   2.122  10.987 -0.5662  0.0265  0.2114
 4129SOL    HW123849   1.752   2.112  10.934 -0.4427  0.9674 -0.1548
 4129SOL    HW223850   1.857   2.030  10.983 -1.3344 -0.1520 -0.8044
 4130SOL     OW23851   4.286   3.702   3.477  0.1539  0.4108 -0.4937
 4130SOL    HW123852   4.201   3.736   3.448  0.5635 -0.3743 -2.6513
 4130SOL    HW223853   4.321   3.777   3.525 -0.6753 -0.2054  1.0633
 4131SOL     OW23854   1.455   1.583  15.678 -0.2454 -0.0738 -0.0698
 4131SOL    HW123855   1.421   1.607  15.592  1.0897  0.8850 -0.3310
 4131SOL    HW223856   1.439   1.489  15.682  0.9907 -0.4223 -3.6798
 4132SOL     OW23857   1.000   3.093  11.049 -0.2042 -0.3281  0.5599
 4132SOL    HW123858   1.015   3.048  11.133 -1.9039  0.5313  1.3184
 4132SOL    HW223859   0.973   3.013  11.004 -0.8754 -0.4704  1.2233
 4133SOL     OW23860   0.639   2.823   2.862 -0.4630  0.6536 -0.2930
 4133SOL    HW123861   0.653   2.898   2.921 -2.4391  2.0947 -1.6660
 4133SOL    HW223862   0.669   2.748   2.913 -1.0817  0.8960  0.4309
 4134SOL     OW23863   0.222   3.568   5.947  0.1110 -0.0127  0.2347
 4134SOL    HW123864   0.296   3.627   5.929  0.3769  0.3022  2.3186
 4134SOL    HW223865   0.182   3.568   5.861  1.1493  2.9906 -0.2254
 4135SOL     OW23866   1.517   4.254   9.673  0.2650 -0.2136 -0.7089
 4135SOL    HW123867   1.570   4.177   9.694  0.2606  0.3358  1.3259
 4135SOL    HW223868   1.527   4.291   9.761  2.5843 -0.2118 -0.9668
 4136SOL     OW23869   1.550   2.936   6.879 -0.1126 -0.3163  0.4031
 4136SOL    HW123870   1.633   2.981   6.861 -1.2115  1.1631 -0.9301
 4136SOL    HW223871   1.498   3.016   6.876  1.9067  0.9338 -1.5757
 4137SOL     OW23872   1.792   4.352  15.502 -0.4018 -0.1469 -0.7536
 4137SOL    HW123873   1.803   4.441  15.534 -1.2971 -0.1351 -0.4854
 4137SOL    HW223874   1.756   4.370  15.415  1.3164  0.5465 -1.3296
 4138SOL     OW23875   2.677   0.988   4.008 -0.1180 -1.0608 -0.2713
 4138SOL    HW123876   2.704   1.068   4.055 -0.7609 -0.5676 -0.7482
 4138SOL    HW223877   2.765   0.965   3.980 -0.2477 -0.3508 -1.2495
 4139SOL     OW23878   2.922   1.960   3.706 -0.2947  0.6466 -0.3977
 4139SOL    HW123879   2.966   1.930   3.785  0.7709  1.2065 -0.7813
 4139SOL    HW223880   2.996   1.952   3.645  0.1515  1.3070  0.0575
 4140SOL     OW23881   0.740   3.897   1.820 -0.1994  0.0567 -0.3532
 4140SOL    HW123882   0.766   3.883   1.729 -1.6203 -1.0210 -0.6091
 4140SOL    HW223883   0.656   3.850   1.823 -1.3511  2.2207  0.5767
 4141SOL     OW23884   4.659   0.163   7.310 -0.0489 -0.1861 -0.0938
 4141SOL    HW123885   4.716   0.183   7.385  0.8612  0.9657 -1.0835
 4141SOL    HW223886   4.702   0.215   7.241 -0.3503  0.3888  0.1498
 4142SOL     OW23887   0.058   2.019   4.520  0.1552  0.1016  0.1981
 4142SOL    HW123888   4.694   2.033   4.485  0.8445  1.7211 -0.9436
 4142SOL    HW223889   0.082   2.109   4.541 -0.2666  0.1665  0.3946
 4143SOL     OW23890   4.211   1.904  14.442  0.1308 -0.1688  0.4332
 4143SOL    HW123891   4.294   1.922  14.486 -0.3445  0.0095  1.2748
 4143SOL    HW223892   4.209   1.975  14.379 -1.2725 -0.0043  0.6528
 4144SOL     OW23893   3.626   1.670   2.857  0.0546  0.1736 -0.7905
 4144SOL    HW123894   3.684   1.730   2.810  2.4828 -1.2174  0.4283
 4144SOL    HW223895   3.561   1.739   2.868  2.9389  2.8079 -0.4781
 4145SOL     OW23896   3.708   2.472  10.356 -0.5055  0.0045 -0.2601
 4145SOL    HW123897   3.802   2.474  10.338 -0.7225  1.0125 -1.2881
 4145SOL    HW223898   3.678   2.401  10.300  1.0429 -1.1700  0.3888
 4146SOL     OW23899   1.006   2.877   3.007 -0.3986  0.0037  0.0361
 4146SOL    HW123900   1.031   2.808   3.068  0.2411 -0.0578 -0.2908
 4146SOL    HW223901   1.007   2.829   2.924 -0.6617  0.4644 -0.2310
 4147SOL     OW23902   3.841   2.936   6.835  0.1494 -0.1260 -0.3918
 4147SOL    HW123903   3.808   2.917   6.747 -1.4002  1.5025 -0.1648
 4147SOL    HW223904   3.931   2.903   6.828  0.6290  1.2250 -0.6495
 4148SOL     OW23905   2.091   0.850   5.109  0.0389 -0.3147  0.6521
 4148SOL    HW123906   2.070   0.779   5.049 -0.0475  0.2995 -0.0410
 4148SOL    HW223907   2.183   0.873   5.099 -0.4888  0.7292 -1.7417
 4149SOL     OW23908   0.023   2.225   2.238  0.3469 -0.2915  0.5048
 4149SOL    HW123909   0.062   2.142   2.264  1.1001 -0.1091 -0.0565
 4149SOL    HW223910   4.713   2.252   2.323  0.0499 -0.4078  0.4242
 4150SOL     OW23911   0.216   0.621   1.110 -0.2388  0.5697  0.7821
 4150SOL    HW123912   0.192   0.627   1.203  1.3740  0.3627  1.2110
 4150SOL    HW223913   0.310   0.606   1.117 -0.1417  0.6335 -0.3392
 4151SOL     OW23914   2.635   1.094   8.968 -0.2249  0.5666 -0.5454
 4151SOL    HW123915   2.553   1.073   9.014 -0.1783 -0.8527 -1.1267
 4151SOL    HW223916   2.657   1.175   9.014 -0.1076  0.3542 -0.2267
 4152SOL     OW23917   2.228   4.126   9.025  0.0467  0.1428 -0.1467
 4152SOL    HW123918   2.238   4.100   9.117  3.4671  0.7381 -0.3641
 4152SOL    HW223919   2.141   4.165   9.030 -1.1962 -2.4488 -1.7014
 4153SOL     OW23920   2.046   3.236   7.399  0.5468  0.4113  0.3409
 4153SOL    HW123921   2.081   3.262   7.483 -0.4701 -0.9542  1.1949
 4153SOL    HW223922   2.007   3.319   7.370  0.2406  0.5665  1.2127
 4154SOL     OW23923   0.797   1.228  15.954 -0.3280 -0.4323  0.3694
 4154SOL    HW123924   0.756   1.171  16.019 -1.8293  0.4299  0.1587
 4154SOL    HW223925   0.838   1.160  15.900  0.7578  1.4236 -1.1503
 4155SOL     OW23926   2.936   2.460   8.903  0.1850 -0.7219  0.4419
 4155SOL    HW123927   2.908   2.520   8.972 -0.2210 -1.6852  1.1146
 4155SOL    HW223928   2.914   2.375   8.941 -0.4290  0.2698  2.3274
 4156SOL     OW23929   1.388   3.501   4.733  0.2131 -0.2093  0.1302
 4156SOL    HW123930   1.402   3.590   4.766  0.1693  0.8859 -2.7566
 4156SOL    HW223931   1.435   3.511   4.650  1.2488 -0.0176  0.7469
 4157SOL     OW23932   1.580   4.716   4.531 -0.0723 -0.0781  0.0233
 4157SOL    HW123933   1.613   4.706   4.621  0.0487  0.7966  0.0714
 4157SOL    HW223934   1.509   0.055   4.542 -0.9369 -0.8691 -0.9467
 4158SOL     OW23935   0.207   2.997  14.919  0.3783 -0.5736  0.0070
 4158SOL    HW123936   0.145   2.963  14.854 -0.6809  1.7404 -0.2051
 4158SOL    HW223937   0.249   2.920  14.955 -0.3271 -1.6118 -1.3962
 4159SOL     OW23938   1.193   4.273  13.860  0.7149 -0.0387 -0.4436
 4159SOL    HW123939   1.188   4.196  13.916 -0.5572 -0.8206 -1.6363
 4159SOL    HW223940   1.265   4.259  13.798 -0.2973 -3.3602 -0.8748
 4160SOL     OW23941   3.225   4.329  11.733 -0.4076  0.4743 -0.0645
 4160SOL    HW123942   3.270   4.244  11.735 -0.8870  0.1734 -2.7317
 4160SOL    HW223943   3.163   4.316  11.805 -0.8383  0.2309 -0.4774
 4161SOL     OW23944   0.912   3.640   5.899  0.1347  0.0179  0.8232
 4161SOL    HW123945   0.986   3.661   5.843  0.1036  0.2387  0.8639
 4161SOL    HW223946   0.918   3.714   5.959 -0.8753  0.9303 -0.1826
 4162SOL     OW23947   3.895   1.531   4.689 -0.0923  0.8567  0.7852
 4162SOL    HW123948   3.927   1.451   4.732  0.3667 -0.2782 -1.6554
 4162SOL    HW223949   3.800   1.520   4.684  0.3766 -2.5609 -0.8119
 4163SOL     OW23950   0.356   0.433   3.811  0.1194 -0.5013  0.0640
 4163SOL    HW123951   0.408   0.451   3.890 -0.9866  0.5851  0.5522
 4163SOL    HW223952   0.281   0.490   3.827  0.2169 -0.0839 -1.0318
 4164SOL     OW23953   3.938   4.691   1.425 -0.0324  0.4834  0.5233
 4164SOL    HW123954   3.852   4.716   1.459 -1.2380  0.7813 -2.6637
 4164SOL    HW223955   3.905   4.637   1.353 -0.0389  0.5049  0.5101
 4165SOL     OW23956   2.295   4.654   0.596 -0.1794 -0.0075 -0.1167
 4165SOL    HW123957   2.331   4.600   0.526 -0.6662  1.9674 -1.9037
 4165SOL    HW223958   2.321   0.016   0.565  1.4994  0.1175  1.5875
 4166SOL     OW23959   1.403   3.502  13.059  0.4800 -0.0500 -0.7717
 4166SOL    HW123960   1.481   3.449  13.073 -1.3225 -2.3093  0.7020
 4166SOL    HW223961   1.433   3.582  13.103 -0.4070  0.9156 -1.9166
 4167SOL     OW23962   3.183   3.591   8.429 -0.2779  0.2545  0.5787
 4167SOL    HW123963   3.260   3.594   8.372 -2.3526  1.8500 -2.1123
 4167SOL    HW223964   3.229   3.620   8.508  1.5514 -1.4369  0.1567
 4168SOL     OW23965   0.384   4.099   2.174 -0.2159  0.1182  0.6133
 4168SOL    HW123966   0.376   4.012   2.213  1.6633 -1.0140 -1.5028
 4168SOL    HW223967   0.452   4.084   2.108  1.0468 -0.4766  2.0543
 4169SOL     OW23968   1.383   4.125  17.006  0.4109 -0.3576  0.2381
 4169SOL    HW123969   1.433   4.056  16.963 -0.4230 -1.5440  1.1595
 4169SOL    HW223970   1.399   4.126  17.101 -0.0388  1.1963  0.2965
 4170SOL     OW23971   2.902   2.346   9.437  0.0914 -0.3080  0.6629
 4170SOL    HW123972   2.970   2.286   9.466  0.8722 -0.8762 -2.3349
 4170SOL    HW223973   2.869   2.389   9.516  0.6130 -3.3584  2.5042
 4171SOL     OW23974   2.584   0.166   1.279  0.0917 -0.4595  0.8183
 4171SOL    HW123975   2.608   0.229   1.210  2.9700 -0.6176  1.6742
 4171SOL    HW223976   2.640   0.197   1.350  0.5124 -0.8928  0.6796
 4172SOL     OW23977   1.492   1.151  11.392 -0.3634  0.1305  0.2408
 4172SOL    HW123978   1.511   1.212  11.463  0.9296  1.1647 -0.9857
 4172SOL    HW223979   1.535   1.072  11.423  0.1778 -0.8762 -3.0611
 4173SOL     OW23980   0.815   4.458   2.050  0.0400 -0.0997  0.1420
 4173SOL    HW123981   0.736   4.491   2.006 -0.1255  0.7648  1.0666
 4173SOL    HW223982   0.819   4.515   2.127 -1.1215  0.9787 -0.5988
 4174SOL     OW23983   2.349   0.132   3.281 -0.1674 -0.6114  0.0591
 4174SOL    HW123984   2.365   0.086   3.198  1.8307  1.3156 -0.6143
 4174SOL    HW223985   2.397   0.078   3.343 -1.0462 -1.0682  0.3470
 4175SOL     OW23986   3.556   3.070  14.409  0.2721  0.0105 -0.1035
 4175SOL    HW123987   3.587   3.133  14.344  2.6962  0.4451  1.4598
 4175SOL    HW223988   3.626   3.076  14.474  0.2497 -1.9358  0.0999
 4176SOL     OW23989   0.713   1.793   2.698  0.0815  0.4208 -0.0815
 4176SOL    HW123990   0.720   1.765   2.607 -0.4506  1.9884 -0.5951
 4176SOL    HW223991   0.627   1.755   2.717 -0.6433  1.1224 -1.9770
 4177SOL     OW23992   1.833   2.695   4.103 -0.9088 -0.3053  0.3219
 4177SOL    HW123993   1.845   2.789   4.090  0.2243 -0.6969 -1.4640
 4177SOL    HW223994   1.738   2.703   4.115 -1.2654 -0.4293 -2.3474
 4178SOL     OW23995   2.570   1.501   8.837 -0.1330 -0.0814 -0.4527
 4178SOL    HW123996   2.558   1.502   8.742 -1.1348  0.2170 -0.3244
 4178SOL    HW223997   2.494   1.552   8.865  0.2018 -0.0129  0.3395
 4179SOL     OW23998   2.258   1.209   0.690 -0.0576 -0.0914  0.9053
 4179SOL    HW123999   2.204   1.138   0.724  0.6366  0.3040  2.8297
 4179SOL    HW224000   2.339   1.158   0.680  0.1531  0.0842  1.7595
 4180SOL     OW24001   0.957   3.656   1.504  0.0604 -0.0560 -0.0467
 4180SOL    HW124002   1.040   3.647   1.458  0.4800  1.9879  0.3127
 4180SOL    HW224003   0.980   3.611   1.585 -1.2954 -0.3275  0.1842
 4181SOL     OW24004   2.922   2.955   4.445  0.9166  0.2622  0.5307
 4181SOL    HW124005   2.900   3.048   4.451  2.1423  0.5419  0.6212
 4181SOL    HW224006   3.004   2.946   4.492  0.6675 -0.8675  0.7299
 4182SOL     OW24007   2.459   4.716   9.044 -0.0090 -0.6055 -0.3630
 4182SOL    HW124008   2.550   4.688   9.061  0.1924  1.0522  1.2116
 4182SOL    HW224009   2.474   0.004   8.950  0.3132  1.6725  0.0018
 4183SOL     OW24010   1.941   2.321   0.960  0.1598 -0.3070  0.3960
 4183SOL    HW124011   1.910   2.342   1.048  0.1336  2.1167 -0.1754
 4183SOL    HW224012   1.996   2.399   0.946  1.2724 -0.9417  1.2420
 4184SOL     OW24013   4.682   2.851  11.708 -0.3980  0.8723  0.0417
 4184SOL    HW124014   4.654   2.929  11.756  1.1751  0.9034  0.8951
 4184SOL    HW224015   4.661   2.882  11.620 -2.8543  0.6519  0.5253
 4185SOL     OW24016   2.928   0.893  13.719  0.2111  0.4798  0.2632
 4185SOL    HW124017   2.853   0.952  13.723  0.0127  0.4449 -2.8175
 4185SOL    HW224018   2.995   0.931  13.777  1.1208  2.7788 -2.2729
 4186SOL     OW24019   3.182   2.417   3.524  0.1004  0.6311  0.0677
 4186SOL    HW124020   3.199   2.391   3.614 -2.9305 -0.2004  0.4009
 4186SOL    HW224021   3.180   2.343   3.463  1.7814  1.0993 -0.5580
 4187SOL     OW24022   4.511   2.541   3.530 -0.0034  0.0718  0.0526
 4187SOL    HW124023   4.564   2.503   3.461 -1.7388 -1.9089 -0.1866
 4187SOL    HW224024   4.565   2.619   3.542 -0.0370 -0.0782  1.2265
 4188SOL     OW24025   2.607   3.399   4.068 -0.2460  0.2135  0.2297
 4188SOL    HW124026   2.634   3.428   3.980  2.0080 -0.0522  0.8330
 4188SOL    HW224027   2.566   3.482   4.095 -3.5973 -1.3292 -0.1819
 4189SOL     OW24028   1.174   0.763   3.856 -0.0060  0.1774  0.5603
 4189SOL    HW124029   1.120   0.731   3.784  0.0643  0.3691  0.4211
 4189SOL    HW224030   1.263   0.740   3.830 -1.4208 -0.3651 -3.7545
 4190SOL     OW24031   3.091   4.392   3.970  0.2645  0.2851  0.1387
 4190SOL    HW124032   3.127   4.314   4.012 -1.5163 -0.8410 -0.4240
 4190SOL    HW224033   3.100   4.449   4.046  0.7098 -1.4806  1.3996
 4191SOL     OW24034   0.762   1.111   9.908  0.1254  0.2431  0.3644
 4191SOL    HW124035   0.698   1.167   9.865  1.0975  0.8813 -0.2538
 4191SOL    HW224036   0.824   1.169   9.951  1.8338 -1.5877  0.3878
 4192SOL     OW24037   0.225   0.020   6.364  0.0467 -0.1217 -0.3530
 4192SOL    HW124038   0.281   4.667   6.365 -2.0380 -1.5903  1.4795
 4192SOL    HW224039   0.281   0.089   6.327  0.7705  0.5694  2.0283
 4193SOL     OW24040   0.418   4.309   1.091 -0.2101  0.7420  0.3493
 4193SOL    HW124041   0.437   4.402   1.104 -1.3994  1.0568 -0.1415
 4193SOL    HW224042   0.325   4.317   1.071  0.1379 -0.9788 -1.9909
 4194SOL     OW24043   1.276   4.307   5.467  0.1479  0.6023  0.6506
 4194SOL    HW124044   1.198   4.261   5.499  0.0944 -2.5530 -4.1323
 4194SOL    HW224045   1.329   4.284   5.543  3.1204  1.3526 -1.2163
 4195SOL     OW24046   1.060   3.199   8.107  0.4655 -0.1155 -0.1186
 4195SOL    HW124047   0.974   3.195   8.148  0.2305 -2.4891 -0.8406
 4195SOL    HW224048   1.032   3.221   8.018 -0.1806  0.0555  0.1274
 4196SOL     OW24049   2.882   2.751   7.833 -0.4095 -0.0763  0.4124
 4196SOL    HW124050   2.807   2.709   7.875 -1.1360 -0.5957 -1.3956
 4196SOL    HW224051   2.851   2.841   7.816  0.0777 -0.2442 -1.3661
 4197SOL     OW24052   2.911   3.255  13.484  0.0840  0.3414 -0.1250
 4197SOL    HW124053   2.910   3.332  13.427  0.6281 -0.9180 -1.8331
 4197SOL    HW224054   2.820   3.242  13.508 -0.2033 -0.9315 -1.9461
 4198SOL     OW24055   0.357   3.709   4.071  0.1166  0.0685 -0.1285
 4198SOL    HW124056   0.450   3.698   4.054  0.0117  1.0066 -1.3802
 4198SOL    HW224057   0.354   3.687   4.164  2.1197 -1.1806 -0.3550
 4199SOL     OW24058   2.456   2.269  12.935 -0.3876 -0.1141 -0.1521
 4199SOL    HW124059   2.490   2.180  12.926  0.7175  0.0371  2.4292
 4199SOL    HW224060   2.427   2.259  13.026  0.9491  1.7349  0.4760
 4200SOL     OW24061   4.479   1.563   6.253  0.3056 -0.1756 -0.4898
 4200SOL    HW124062   4.530   1.642   6.235  0.7446  0.0438  1.6722
 4200SOL    HW224063   4.496   1.540   6.345  1.2343 -0.5463 -0.7532
 4201SOL     OW24064   1.273   0.451  10.767  0.7028 -0.0575  0.6677
 4201SOL    HW124065   1.208   0.484  10.828  0.8428  2.2673 -0.4386
 4201SOL    HW224066   1.340   0.519  10.753 -0.4511  1.0738  0.6444
 4202SOL     OW24067   0.952   4.256   8.595  0.0246  0.0526  0.1346
 4202SOL    HW124068   1.018   4.316   8.631  1.3019 -2.5839  2.2290
 4202SOL    HW224069   0.936   4.198   8.669 -0.0121 -1.6018 -1.1793
 4203SOL     OW24070   4.238   0.061   5.953 -0.2340 -0.6684  1.0005
 4203SOL    HW124071   4.203   0.009   6.026 -0.1440 -0.4918  1.1711
 4203SOL    HW224072   4.298   0.128   5.987  1.6991 -1.9836  0.1915
 4204SOL     OW24073   1.847   0.973   4.494 -0.1650  0.4020  0.1373
 4204SOL    HW124074   1.907   0.899   4.484  0.9341  1.2506  0.6227
 4204SOL    HW224075   1.762   0.930   4.507 -0.7419  0.2608 -3.8439
 4205SOL     OW24076   1.795   1.781   2.284 -0.8318  0.2707 -0.3621
 4205SOL    HW124077   1.717   1.727   2.294 -0.0105 -1.2330 -2.0502
 4205SOL    HW224078   1.775   1.842   2.212 -1.2128 -0.8502 -1.1997
 4206SOL     OW24079   1.076   4.605  16.586 -0.5640  0.6511 -0.4478
 4206SOL    HW124080   1.040   4.579  16.501  1.1608  0.4681 -1.1237
 4206SOL    HW224081   1.008   4.660  16.625  1.5718  1.9364  1.4922
 4207SOL     OW24082   0.205   3.854   7.795 -0.4264  0.5677 -0.2533
 4207SOL    HW124083   0.292   3.880   7.766  0.1919 -2.0392 -0.6746
 4207SOL    HW224084   0.218   3.784   7.858  1.6022 -1.6734 -3.1349
 4208SOL     OW24085   0.449   0.121   0.884 -0.4103 -0.2242 -0.1042
 4208SOL    HW124086   0.400   0.202   0.871 -0.0698  0.0888  0.5856
 4208SOL    HW224087   0.438   0.114   0.979 -0.9656 -0.4930 -0.1837
 4209SOL     OW24088   1.091   2.265   3.606  0.0521  0.1967  0.0807
 4209SOL    HW124089   1.172   2.272   3.555 -1.0697 -1.9767 -2.0195
 4209SOL    HW224090   1.044   2.344   3.578 -1.7724 -0.6568  0.8010
 4210SOL     OW24091   1.094   0.737   5.984 -0.5884  0.1665 -0.3590
 4210SOL    HW124092   1.010   0.782   5.989 -1.3721 -1.4728  1.0803
 4210SOL    HW224093   1.156   0.784   6.040 -1.2883  3.0746 -2.0558
 4211SOL     OW24094   3.705   3.816   2.511  0.4099 -0.1292 -0.2629
 4211SOL    HW124095   3.740   3.741   2.560  0.1155  0.0643  0.2459
 4211SOL    HW224096   3.742   3.891   2.557  1.1058 -0.1692 -0.7614
 4212SOL     OW24097   1.374   4.012   6.108  0.7841  0.0228 -0.1796
 4212SOL    HW124098   1.313   3.952   6.151  3.1627 -2.2181  0.0846
 4212SOL    HW224099   1.312   4.059   6.052 -0.2313 -1.9168 -0.6822
 4213SOL     OW24100   3.151   1.156   6.524  0.5447  0.0133 -0.4680
 4213SOL    HW124101   3.204   1.223   6.567  0.3489  1.1215 -1.9314
 4213SOL    HW224102   3.111   1.213   6.459 -0.4598 -1.0534 -0.7922
 4214SOL     OW24103   4.636   1.191   3.557  0.2170  0.0239 -0.3830
 4214SOL    HW124104   4.702   1.177   3.624  0.1163 -0.1121 -0.3131
 4214SOL    HW224105   4.652   1.279   3.522  2.8592 -0.2289  0.1573
 4215SOL     OW24106   2.588   0.855   8.125 -0.0862  0.0777 -0.0748
 4215SOL    HW124107   2.511   0.900   8.160  0.3590 -0.0552  1.0770
 4215SOL    HW224108   2.652   0.925   8.125  0.4081 -0.3743 -1.6848
 4216SOL     OW24109   0.902   0.897   6.257  0.2486  0.9009 -0.1785
 4216SOL    HW124110   0.857   0.981   6.264 -0.0378  0.8754 -1.7054
 4216SOL    HW224111   0.859   0.847   6.325  0.4965  0.5591 -0.2709
 4217SOL     OW24112   0.136   3.945   4.156  0.3504  0.4216  0.0852
 4217SOL    HW124113   0.153   3.874   4.094 -0.7450 -1.5838  2.0600
 4217SOL    HW224114   0.046   3.972   4.140  0.4046  0.2263 -0.5451
 4218SOL     OW24115   2.608   4.330  12.493  0.1057  0.3344 -0.3399
 4218SOL    HW124116   2.700   4.307  12.482 -0.4765 -0.6968 -3.0431
 4218SOL    HW224117   2.613   4.413  12.540 -0.4875  0.2193 -0.0781
 4219SOL     OW24118   3.186   2.742   0.936 -0.7038 -0.9693  0.3646
 4219SOL    HW124119   3.234   2.675   0.985 -0.3143 -1.1341 -0.2517
 4219SOL    HW224120   3.138   2.690   0.872 -0.3001  0.8735 -1.4117
 4220SOL     OW24121   4.093   3.582   3.112 -0.0359  0.5144 -0.1505
 4220SOL    HW124122   4.175   3.551   3.150 -0.2103 -1.5871 -1.4835
 4220SOL    HW224123   4.082   3.652   3.177 -1.1256 -0.3516  0.6049
 4221SOL     OW24124   2.784   0.937   5.194 -0.1835 -0.2154  0.0874
 4221SOL    HW124125   2.752   0.941   5.284  0.5958  0.5182  0.3337
 4221SOL    HW224126   2.757   1.024   5.165 -0.4717 -0.3974 -0.1919
 4222SOL     OW24127   0.769   2.498   5.379  0.0638  0.2108  0.5541
 4222SOL    HW124128   0.846   2.538   5.337  0.3634  2.2345  3.0234
 4222SOL    HW224129   0.757   2.555   5.455  0.3118 -0.3469  1.0176
 4223SOL     OW24130   2.310   3.019   6.432 -0.6436  0.7386 -0.0619
 4223SOL    HW124131   2.399   3.026   6.399 -0.1750 -0.7622  0.8642
 4223SOL    HW224132   2.252   3.076   6.382 -1.0229 -0.7504 -1.3278
 4224SOL     OW24133   1.102   1.473   6.991  0.2880 -0.3582 -0.2031
 4224SOL    HW124134   1.052   1.552   7.008  0.6703 -0.0490 -0.5029
 4224SOL    HW224135   1.131   1.439   7.075 -1.8876  2.9388  1.8459
 4225SOL     OW24136   3.525   2.949   5.802 -0.1142  0.1269  0.0093
 4225SOL    HW124137   3.561   2.861   5.794  1.5710  0.7723  0.6471
 4225SOL    HW224138   3.586   2.971   5.872 -0.1998 -0.2001  0.1898
 4226SOL     OW24139   3.301   2.810   3.456  0.0742  0.6148  0.8013
 4226SOL    HW124140   3.208   2.796   3.469  0.3443  1.4960  3.6399
 4226SOL    HW224141   3.302   2.904   3.439  0.7943  0.5088  0.2563
 4227SOL     OW24142   0.801   2.857   9.436 -0.4541  0.5133  0.1735
 4227SOL    HW124143   0.776   2.776   9.480  1.0231  0.0036  0.0892
 4227SOL    HW224144   0.864   2.886   9.502  0.2773 -0.5255 -0.0615
 4228SOL     OW24145   3.030   2.242   8.726  0.4009  0.5507  0.1106
 4228SOL    HW124146   2.962   2.189   8.768 -0.3319  0.5336 -1.1001
 4228SOL    HW224147   3.057   2.305   8.792 -0.0645 -0.2294  1.0440
 4229SOL     OW24148   1.517   0.963   0.534  0.3410  0.3680  0.3351
 4229SOL    HW124149   1.535   0.960   0.628  1.3246 -3.5705  0.0293
 4229SOL    HW224150   1.562   0.881   0.512 -3.9798 -1.4736 -1.6229
 4230SOL     OW24151   4.599   0.679  12.347  0.0593 -0.2105 -0.5226
 4230SOL    HW124152   4.630   0.721  12.267 -0.8077 -0.3816 -0.9491
 4230SOL    HW224153   4.504   0.693  12.355 -0.2643 -1.3788 -2.3306
 4231SOL     OW24154   2.339   4.296   7.412  0.4030  0.4028  0.4642
 4231SOL    HW124155   2.433   4.290   7.395 -0.3211  0.6381 -3.5050
 4231SOL    HW224156   2.316   4.389   7.414 -0.1458  0.2682  0.1569
 4232SOL     OW24157   0.225   0.178   2.402  0.2544  0.2687 -0.0796
 4232SOL    HW124158   0.160   0.246   2.417 -1.2299 -0.9927 -0.7894
 4232SOL    HW224159   0.252   0.141   2.487 -1.3304 -0.7047 -0.0030
 4233SOL     OW24160   3.776   0.971  14.664  0.6875 -0.6652 -0.2497
 4233SOL    HW124161   3.820   0.955  14.581  3.0709  2.7905  0.3453
 4233SOL    HW224162   3.748   1.062  14.655 -1.4648 -1.3108 -0.1558
 4234SOL     OW24163   3.253   3.822  15.480  0.0936  0.3774 -0.5818
 4234SOL    HW124164   3.270   3.883  15.552 -0.9909 -1.1336  0.9532
 4234SOL    HW224165   3.241   3.744  15.534 -1.8244 -0.6531 -2.4993
 4235SOL     OW24166   3.047   3.352   7.251 -0.5020 -0.1924 -1.1668
 4235SOL    HW124167   3.053   3.427   7.192 -2.5148  1.9470  1.3749
 4235SOL    HW224168   3.039   3.283   7.185 -0.1088 -0.1594 -1.2477
 4236SOL     OW24169   1.796   1.139   2.684  0.0893  0.7557 -0.4069
 4236SOL    HW124170   1.741   1.097   2.618 -1.4423  2.7526 -0.4231
 4236SOL    HW224171   1.759   1.108   2.767  2.1575 -1.3406 -0.2870
 4237SOL     OW24172   1.367   3.358   8.421 -0.1452 -0.3919  0.1699
 4237SOL    HW124173   1.454   3.396   8.409 -1.3060  2.5490  1.2783
 4237SOL    HW224174   1.319   3.357   8.338  0.4395 -0.5456 -0.1713
 4238SOL     OW24175   3.008   0.064   3.816 -0.0439  0.0488 -0.1946
 4238SOL    HW124176   3.079   0.000   3.830  0.3230  0.3682 -0.6089
 4238SOL    HW224177   2.970   0.034   3.734 -2.1250  1.5100  0.2393
 4239SOL     OW24178   0.571   0.832  12.674  1.1884  0.2111  0.1970
 4239SOL    HW124179   0.656   0.793  12.692  1.2548 -0.2228 -1.0721
 4239SOL    HW224180   0.565   0.920  12.711  1.5307  0.5607 -0.5859
 4240SOL     OW24181   2.527   0.800   1.793 -0.3512  0.3993 -0.5093
 4240SOL    HW124182   2.612   0.842   1.800  1.0610 -2.2959 -1.3258
 4240SOL    HW224183   2.556   0.710   1.812 -3.7978 -0.8003 -0.8588
 4241SOL     OW24184   3.729   0.652   3.069  0.0723  0.7091  0.2088
 4241SOL    HW124185   3.730   0.671   3.163 -6.0918 -1.4899  0.7075
 4241SOL    HW224186   3.817   0.680   3.044  0.7194 -0.9134  0.6732
 4242SOL     OW24187   1.289   4.271  14.196  0.4698  0.3776  0.0625
 4242SOL    HW124188   1.214   4.238  14.146 -0.6372  1.4157  1.0275
 4242SOL    HW224189   1.346   4.228  14.132  0.3398  0.1259  0.1155
 4243SOL     OW24190   0.124   0.847   3.314  0.0441 -0.3630  0.0418
 4243SOL    HW124191   0.058   0.915   3.330  0.8783  0.3364  0.4882
 4243SOL    HW224192   0.071   0.770   3.333  0.9049 -0.8867  0.2994
 4244SOL     OW24193   2.187   1.912  11.878  0.3059  0.0103  0.4659
 4244SOL    HW124194   2.137   1.955  11.808  0.7613 -0.8994 -0.4283
 4244SOL    HW224195   2.121   1.908  11.947  2.1901  1.2794  2.3192
 4245SOL     OW24196   1.240   1.076   3.045  0.5579  0.4075  0.4315
 4245SOL    HW124197   1.179   1.067   2.973  1.1963  2.4013 -0.3825
 4245SOL    HW224198   1.323   1.095   3.000 -0.1061  1.6740 -0.2794
 4246SOL     OW24199   0.757   0.359   5.848  0.0572  0.1420 -0.2469
 4246SOL    HW124200   0.691   0.347   5.779 -1.1837  2.4920  0.5012
 4246SOL    HW224201   0.771   0.453   5.833 -2.8414  1.2836  4.0663
 4247SOL     OW24202   3.545   3.567   7.453  0.1826  0.4045  0.1831
 4247SOL    HW124203   3.495   3.593   7.530  0.6524 -0.6268  0.8341
 4247SOL    HW224204   3.485   3.608   7.391 -2.6876 -2.2162  1.2200
 4248SOL     OW24205   1.104   2.796  12.914  0.1094  0.3215 -0.1937
 4248SOL    HW124206   1.107   2.754  12.828  2.3175 -1.1349  0.5958
 4248SOL    HW224207   1.196   2.803  12.942  0.4093 -0.8262 -0.8860
 4249SOL     OW24208   0.025   1.726   1.241 -0.1788  0.5267  0.2811
 4249SOL    HW124209   4.672   1.738   1.187 -0.3933  1.1762  0.7319
 4249SOL    HW224210   0.059   1.815   1.249  0.6540  0.3709 -1.6291
 4250SOL     OW24211   2.144   1.447   3.196  0.0875 -0.3413 -0.0903
 4250SOL    HW124212   2.234   1.430   3.169  0.4318 -0.1435  0.9703
 4250SOL    HW224213   2.122   1.509   3.126 -3.0252  0.1761  1.3692
 4251SOL     OW24214   4.066   1.017   6.683 -0.0358 -0.3254  0.5936
 4251SOL    HW124215   4.026   1.103   6.679  1.5316  0.4043  0.3851
 4251SOL    HW224216   4.005   0.957   6.640  0.0868 -0.4365  0.5724
 4252SOL     OW24217   1.454   1.680  13.967  0.6224 -0.4562  0.2572
 4252SOL    HW124218   1.508   1.603  13.980 -1.5542 -2.1157 -0.4511
 4252SOL    HW224219   1.403   1.677  14.048 -1.5755  0.7027 -1.0514
 4253SOL     OW24220   0.250   1.748   8.146 -0.3638  0.2499  0.0728
 4253SOL    HW124221   0.263   1.794   8.229 -1.1690  1.7772 -0.6620
 4253SOL    HW224222   0.288   1.664   8.174 -1.1805 -0.5763 -1.3106
 4254SOL     OW24223   3.389   3.528   8.796 -0.1835  0.8848  0.0694
 4254SOL    HW124224   3.451   3.462   8.765 -1.5006 -0.3242  0.0152
 4254SOL    HW224225   3.323   3.474   8.840  0.2960 -0.7776 -1.2807
 4255SOL     OW24226   1.643   3.371   5.200  0.5515 -0.1943 -0.3948
 4255SOL    HW124227   1.725   3.323   5.203 -0.0299 -1.0932  0.8365
 4255SOL    HW224228   1.589   3.310   5.150  0.8862  0.1224 -1.1503
 4256SOL     OW24229   4.712   3.108   3.208  0.8200  0.3779 -0.6958
 4256SOL    HW124230   4.662   3.189   3.221 -0.7231 -0.4340 -1.4714
 4256SOL    HW224231   0.078   3.138   3.218  1.0223 -0.2929 -0.5430
 4257SOL     OW24232   1.459   3.451   8.012 -0.4999  0.5240 -0.3584
 4257SOL    HW124233   1.477   3.371   7.962  0.0575  1.2035 -1.2597
 4257SOL    HW224234   1.411   3.414   8.085  1.0996 -0.3444  0.2340
 4258SOL     OW24235   4.340   0.789   5.536  0.0269 -0.0914  0.1004
 4258SOL    HW124236   4.375   0.869   5.575 -0.4121 -0.1824  0.6807
 4258SOL    HW224237   4.403   0.722   5.562  0.4321  0.7014  1.1582
 4259SOL     OW24238   4.477   3.592   4.042 -0.2993 -0.5815 -0.3226
 4259SOL    HW124239   4.419   3.525   4.079 -0.0299  0.4134  1.8374
 4259SOL    HW224240   4.554   3.596   4.099 -0.1403  0.1890 -0.5975
 4260SOL     OW24241   0.120   1.484   6.084  0.1609  0.6035 -0.2489
 4260SOL    HW124242   0.113   1.516   5.993 -1.5282  1.5981  0.2429
 4260SOL    HW224243   0.186   1.544   6.119 -1.3624  2.1357  0.0083
 4261SOL     OW24244   0.814   0.381   8.069  0.1225 -0.0644 -0.4832
 4261SOL    HW124245   0.874   0.335   8.127 -0.9013 -2.0226 -0.9715
 4261SOL    HW224246   0.754   0.431   8.124 -1.9799 -0.8789 -2.0583
 4262SOL     OW24247   3.772   2.367  14.267 -0.1735  0.2528 -0.2152
 4262SOL    HW124248   3.836   2.432  14.295  0.0361  0.3758 -0.9784
 4262SOL    HW224249   3.704   2.413  14.218  2.5151  1.3472 -2.8597
 4263SOL     OW24250   4.148   2.061  10.885  0.4839  0.1729 -0.1580
 4263SOL    HW124251   4.209   2.047  10.813  0.2053  0.2824 -0.4165
 4263SOL    HW224252   4.180   2.150  10.897  0.8594  0.1308 -0.8028
 4264SOL     OW24253   3.124   1.904   5.022  0.5468  0.2699  0.5571
 4264SOL    HW124254   3.133   1.929   4.930 -1.2719  1.0774  0.6047
 4264SOL    HW224255   3.211   1.863   5.026  0.7348  0.5464 -0.5555
 4265SOL     OW24256   2.914   3.130   3.880  0.1077 -0.0118  0.5994
 4265SOL    HW124257   2.876   3.217   3.884  0.3674  0.0791  1.0725
 4265SOL    HW224258   2.909   3.094   3.969 -1.2395 -1.1231  0.0706
 4266SOL     OW24259   0.294   4.532   9.514 -0.0862  0.2418  0.6185
 4266SOL    HW124260   0.229   4.528   9.443  1.5067 -0.1390 -0.8275
 4266SOL    HW224261   0.364   4.483   9.470 -1.8005  1.2862 -3.3338
 4267SOL     OW24262   1.420   1.927  11.854 -0.3878  0.1289  0.0974
 4267SOL    HW124263   1.330   1.911  11.883 -0.1650  1.8497  1.7086
 4267SOL    HW224264   1.448   2.000  11.910 -0.2123  0.9470 -1.0491
 4268SOL     OW24265   1.859   3.940   3.094  0.5637  0.0304  0.1187
 4268SOL    HW124266   1.868   3.846   3.081  0.5230  0.0968 -0.3876
 4268SOL    HW224267   1.768   3.948   3.065  0.5018 -1.9296 -0.1935
 4269SOL     OW24268   0.349   4.160   5.493 -0.0941 -0.1133  0.1331
 4269SOL    HW124269   0.329   4.097   5.562  0.8788 -2.0461 -1.3617
 4269SOL    HW224270   0.422   4.210   5.530 -0.9953  1.4087 -0.1230
 4270SOL     OW24271   1.456   0.433  10.990 -0.0567 -0.0307  0.3852
 4270SOL    HW124272   1.484   0.511  11.038  2.9055 -0.1842 -1.0771
 4270SOL    HW224273   1.508   0.457  10.914  4.3404  0.3968  3.4742
 4271SOL     OW24274   2.313   1.686   7.170  0.0850  0.7198  0.0559
 4271SOL    HW124275   2.379   1.621   7.146 -1.5722 -1.1026  0.4078
 4271SOL    HW224276   2.281   1.649   7.253 -0.0966 -2.4729 -1.4098
 4272SOL     OW24277   0.614   0.741   1.781 -0.9042  0.1307 -0.4719
 4272SOL    HW124278   0.683   0.679   1.757 -1.7853 -1.8634  2.1283
 4272SOL    HW224279   0.544   0.689   1.822  0.4505 -0.1598  1.4767
 4273SOL     OW24280   4.356   1.629   6.754 -0.5897  0.0399  0.5301
 4273SOL    HW124281   4.348   1.700   6.689 -0.9133  2.8943  3.6721
 4273SOL    HW224282   4.308   1.563   6.706 -2.4176  2.5040 -1.0516
 4274SOL     OW24283   3.747   3.046  15.411  0.4623 -0.0658 -0.3861
 4274SOL    HW124284   3.807   2.972  15.419  0.9090  0.2437 -0.8636
 4274SOL    HW224285   3.765   3.064  15.319 -0.0716 -1.7845 -0.8168
 4275SOL     OW24286   0.452   3.385   8.659 -0.0450 -0.1931  0.2952
 4275SOL    HW124287   0.513   3.318   8.688 -1.8454 -2.0747 -0.2441
 4275SOL    HW224288   0.385   3.337   8.610 -1.6878  3.3066 -0.9044
 4276SOL     OW24289   1.795   0.105   5.655 -0.0052 -0.2565 -0.1094
 4276SOL    HW124290   1.738   0.050   5.601 -0.2950  0.4905 -0.5696
 4276SOL    HW224291   1.814   0.174   5.591  1.3268 -0.1828  0.3479
 4277SOL     OW24292   1.196   0.067   8.101 -0.1621  0.0963 -0.5890
 4277SOL    HW124293   1.259   0.002   8.068  2.7045  1.3772  2.3495
 4277SOL    HW224294   1.131   0.002   8.129 -0.1373  0.1575 -0.3933
 4278SOL     OW24295   1.210   4.521   2.192 -0.9262 -0.1488 -0.2307
 4278SOL    HW124296   1.215   4.613   2.218  0.3602 -0.2071 -0.2922
 4278SOL    HW224297   1.127   4.491   2.231  0.3414  0.3594  2.8609
 4279SOL     OW24298   3.348   3.152  12.746  0.3509  0.3949  0.3049
 4279SOL    HW124299   3.332   3.060  12.768 -2.5046  0.8855  0.1780
 4279SOL    HW224300   3.386   3.133  12.660  1.9853 -0.7091  1.2565
 4280SOL     OW24301   4.189   4.608   4.246  0.5100  0.1610  0.2236
 4280SOL    HW124302   4.111   4.660   4.262  0.6513  0.9072 -1.5407
 4280SOL    HW224303   4.252   4.676   4.220  0.7323 -0.1242  0.0183
 4281SOL     OW24304   0.195   4.662   6.746  0.2968  0.0775  0.3277
 4281SOL    HW124305   0.174   4.568   6.745  3.8452 -0.7206 -1.4945
 4281SOL    HW224306   0.261   4.665   6.815  0.8797  0.5433 -0.2509
 4282SOL     OW24307   0.546   0.023   3.003 -0.0533  0.5362  0.0848
 4282SOL    HW124308   0.574   0.106   2.964 -0.9595  0.3165 -1.0449
 4282SOL    HW224309   0.519   0.048   3.091  1.0763  0.3023  0.4902
 4283SOL     OW24310   4.676   3.254   3.797 -0.1133 -0.2065 -0.0115
 4283SOL    HW124311   4.596   3.249   3.850 -0.3773 -1.1894 -0.4922
 4283SOL    HW224312   4.712   3.342   3.807 -0.0384 -0.1339 -1.0036
 4284SOL     OW24313   3.026   4.553   8.809  0.3516 -0.2519 -0.1913
 4284SOL    HW124314   3.097   4.539   8.746  0.3300  0.1314 -0.3031
 4284SOL    HW224315   3.021   4.648   8.821 -2.1426 -0.2058 -1.6809
 4285SOL     OW24316   1.462   0.696  14.017 -0.1121  0.3240  0.3671
 4285SOL    HW124317   1.430   0.701  14.108 -0.9026  0.2664  0.0941
 4285SOL    HW224318   1.530   0.630  14.029 -0.6354 -0.7347 -2.5191
 4286SOL     OW24319   1.556   2.287  16.196  0.1591  0.2933  0.0696
 4286SOL    HW124320   1.543   2.342  16.119  2.2204  0.4680 -0.1588
 4286SOL    HW224321   1.625   2.229  16.163 -1.6937  0.3415 -3.7573
 4287SOL     OW24322   4.044   1.031   4.759 -0.1901 -0.4794 -0.5764
 4287SOL    HW124323   4.077   0.957   4.809  2.8980  1.8411  0.7687
 4287SOL    HW224324   4.117   1.091   4.775 -0.5771  0.5699 -2.7585
 4288SOL     OW24325   2.648   0.792  11.199  0.2016 -0.0742 -0.0283
 4288SOL    HW124326   2.612   0.819  11.284  1.9532 -1.7367  1.2222
 4288SOL    HW224327   2.695   0.717  11.235 -4.2001 -2.0440  1.4893
 4289SOL     OW24328   1.233   1.393   4.561 -0.3839 -0.2849 -0.3895
 4289SOL    HW124329   1.278   1.463   4.607 -1.1475  1.2537 -1.9680
 4289SOL    HW224330   1.237   1.414   4.467  1.6918 -0.1815 -0.2606
 4290SOL     OW24331   3.058   2.149   1.352 -0.0900  0.1673  0.6301
 4290SOL    HW124332   3.117   2.074   1.343 -0.8506 -0.5186  1.3894
 4290SOL    HW224333   3.066   2.199   1.433  0.1057 -0.7971  1.2147
 4291SOL     OW24334   4.242   3.322  15.938 -0.0501  0.0304 -0.5118
 4291SOL    HW124335   4.161   3.332  15.888 -0.2967  1.1502  0.1316
 4291SOL    HW224336   4.300   3.347  15.866 -1.2343 -0.9592 -1.8157
 4292SOL     OW24337   0.157   4.638  14.413 -0.1471  0.3336  0.1363
 4292SOL    HW124338   0.149   4.687  14.495 -0.1609 -0.5663  0.6664
 4292SOL    HW224339   0.134   4.706  14.349 -1.9457 -0.5936 -0.2316
 4293SOL     OW24340   0.134   0.802   6.760 -0.0442  0.5553  0.5565
 4293SOL    HW124341   0.162   0.796   6.851 -0.7355  0.5929  0.7695
 4293SOL    HW224342   0.046   0.764   6.765  0.4013 -0.6972 -0.9067
 4294SOL     OW24343   0.793   1.967   3.157  0.2023 -0.7504 -0.3686
 4294SOL    HW124344   0.807   1.995   3.247  4.5762 -0.0026 -1.2981
 4294SOL    HW224345   0.723   1.902   3.168  0.2303 -0.7716 -0.3171
 4295SOL     OW24346   4.310   2.443   3.662  0.6243 -0.2346 -0.7500
 4295SOL    HW124347   4.375   2.503   3.626  1.3585 -0.8360 -0.4146
 4295SOL    HW224348   4.373   2.378   3.693 -2.0267 -1.8830  1.2038
 4296SOL     OW24349   1.965   4.301  16.112  0.1691 -0.2303 -0.1490
 4296SOL    HW124350   1.944   4.212  16.139  1.2200 -0.4743 -0.1482
 4296SOL    HW224351   1.890   4.325  16.058 -1.1172 -0.6764  1.4210
 4297SOL     OW24352   1.406   1.006  17.208 -0.0231 -0.1709 -0.2581
 4297SOL    HW124353   1.400   1.061  17.286  1.4385  1.2609 -1.1353
 4297SOL    HW224354   1.482   0.951  17.229 -0.5165  1.0873  4.8042
 4298SOL     OW24355   0.922   2.961   5.527  0.2380 -0.1305  0.0523
 4298SOL    HW124356   0.983   2.891   5.551  0.5853 -0.8174 -2.7999
 4298SOL    HW224357   0.975   3.040   5.533  0.4925 -0.1971 -1.2221
 4299SOL     OW24358   2.625   3.926  13.159 -0.6094 -0.3798  0.1425
 4299SOL    HW124359   2.687   3.940  13.088 -0.2535 -1.6871  0.1974
 4299SOL    HW224360   2.578   3.844  13.143 -0.1708 -0.2884 -1.6339
 4300SOL     OW24361   2.957   4.546   6.895 -0.4665 -0.0766  0.7123
 4300SOL    HW124362   2.984   4.549   6.987 -0.2217 -0.1987  0.6442
 4300SOL    HW224363   2.959   4.639   6.872 -0.1836 -0.2237  0.1448
 4301SOL     OW24364   1.398   0.424   0.975 -0.2339 -0.5791 -0.4759
 4301SOL    HW124365   1.478   0.413   0.924  0.1804 -0.8907  0.2450
 4301SOL    HW224366   1.425   0.441   1.065 -0.6553 -1.4800 -0.1863
 4302SOL     OW24367   3.963   3.389   9.507 -0.1163  0.1899 -0.1382
 4302SOL    HW124368   4.048   3.365   9.543 -0.4030 -0.4780  0.0995
 4302SOL    HW224369   3.985   3.445   9.433 -1.6163  0.4158 -0.4167
 4303SOL     OW24370   4.517   4.329   6.703 -0.0378  0.5340 -0.2665
 4303SOL    HW124371   4.424   4.331   6.727  0.0358 -0.6360  0.0929
 4303SOL    HW224372   4.511   4.241   6.668 -2.3537 -0.7903  3.4030
 4304SOL     OW24373   1.167   2.594  17.327 -0.8895  0.0221  0.2490
 4304SOL    HW124374   1.227   2.551  17.266  1.4309  2.1144  1.0488
 4304SOL    HW224375   1.180   2.543  17.407  0.7636 -0.1989 -0.1728
 4305SOL     OW24376   0.554   2.652   8.352 -0.0523 -0.4437 -0.2691
 4305SOL    HW124377   0.464   2.667   8.324 -0.6212  0.4735  2.0153
 4305SOL    HW224378   0.598   2.635   8.270  1.9280 -2.9448  1.3224
 4306SOL     OW24379   4.521   0.578   5.627  0.1438 -0.0463 -0.5895
 4306SOL    HW124380   4.499   0.521   5.701 -1.3526  0.8635 -0.3348
 4306SOL    HW224381   4.610   0.598   5.655  0.2437  0.3658 -1.2088
 4307SOL     OW24382   4.721   1.675   0.856 -0.4272  0.3889  0.1791
 4307SOL    HW124383   4.640   1.703   0.899 -0.7888  1.4724 -1.2182
 4307SOL    HW224384   4.696   1.669   0.764  0.5104  2.5760 -0.2229
 4308SOL     OW24385   2.915   2.714   0.506  0.0519 -0.1677  0.1174
 4308SOL    HW124386   2.998   2.755   0.481  0.0238  1.1666  2.1547
 4308SOL    HW224387   2.912   2.636   0.451 -1.2185 -1.1502  1.5635
 4309SOL     OW24388   1.191   0.410   5.241 -0.1333  0.0960  0.4057
 4309SOL    HW124389   1.240   0.489   5.263  0.8325 -0.8115  1.5080
 4309SOL    HW224390   1.161   0.420   5.150  1.8005 -3.7551 -0.6391
 4310SOL     OW24391   4.612   2.692   4.576  0.3940  0.2803  0.2073
 4310SOL    HW124392   4.696   2.692   4.622  0.6394 -1.5689 -0.2628
 4310SOL    HW224393   4.635   2.644   4.497  2.9327  4.0156 -1.2930
 4311SOL     OW24394   0.378   3.269   8.292 -0.1894  0.2118  0.1048
 4311SOL    HW124395   0.430   3.205   8.340 -0.1089 -0.0098 -0.2780
 4311SOL    HW224396   0.311   3.277   8.360  0.5006  0.7579  0.7109
 4312SOL     OW24397   1.487   0.788   5.716  0.0057  0.2303 -0.4173
 4312SOL    HW124398   1.503   0.793   5.810 -0.8982 -0.2812 -0.2388
 4312SOL    HW224399   1.423   0.717   5.709 -0.6777  0.7240  0.9916
 4313SOL     OW24400   1.168   1.486   5.286  0.7731  0.5510  0.4930
 4313SOL    HW124401   1.088   1.533   5.264  1.0057  0.2708 -0.9644
 4313SOL    HW224402   1.177   1.506   5.380 -1.8768 -2.2935  1.3529
 4314SOL     OW24403   0.266   4.369   0.587  0.0507 -0.1103 -0.1895
 4314SOL    HW124404   0.311   4.377   0.670  0.8034  3.7602 -0.9828
 4314SOL    HW224405   0.309   4.293   0.547 -1.7794 -0.5963 -1.2450
 4315SOL     OW24406   2.229   2.517  10.560  0.7811 -0.1955  0.1272
 4315SOL    HW124407   2.289   2.589  10.578  2.9583 -1.6983 -1.0691
 4315SOL    HW224408   2.148   2.567  10.565 -0.5494 -2.6097  2.4197
 4316SOL     OW24409   2.672   1.448   1.589  0.0475 -0.1972  0.2230
 4316SOL    HW124410   2.626   1.532   1.580  1.1744  0.4545  0.5546
 4316SOL    HW224411   2.641   1.402   1.512  2.0053 -0.4428 -0.4131
 4317SOL     OW24412   3.159   2.777   1.973  0.1997 -0.0283  0.0033
 4317SOL    HW124413   3.084   2.749   1.920 -0.8434  0.5146  1.1951
 4317SOL    HW224414   3.131   2.863   2.005 -1.1844 -1.1773  1.8890
 4318SOL     OW24415   3.058   4.458  13.101  0.0233 -0.4486 -0.7966
 4318SOL    HW124416   3.129   4.420  13.154  0.1153 -0.5150 -0.9676
 4318SOL    HW224417   3.083   4.423  13.016  1.6825 -2.0309  0.3216
 4319SOL     OW24418   2.044   1.554   2.141  0.3451 -0.0233  0.6591
 4319SOL    HW124419   2.050   1.596   2.227 -2.7282 -0.5800  1.1211
 4319SOL    HW224420   2.016   1.621   2.078  2.0365  0.2326  0.1764
 4320SOL     OW24421   4.222   1.609  14.926  0.4664  0.5093 -0.0975
 4320SOL    HW124422   4.130   1.597  14.950  0.5194  3.0457  1.4401
 4320SOL    HW224423   4.220   1.581  14.835 -0.6250  0.0439  0.0738
 4321SOL     OW24424   2.723   3.155   3.077  0.5055 -0.1823  0.6121
 4321SOL    HW124425   2.796   3.138   3.137  2.4357  0.4331 -1.5504
 4321SOL    HW224426   2.662   3.084   3.096  0.4919 -0.8431 -1.8921
 4322SOL     OW24427   0.763   2.924   4.669  0.7719 -0.4003  0.4744
 4322SOL    HW124428   0.817   2.862   4.619  2.2587  1.8042 -0.6537
 4322SOL    HW224429   0.677   2.901   4.634  1.4542 -0.5813 -1.1134
 4323SOL     OW24430   2.866   0.599   1.690  0.3915 -0.1281 -0.0109
 4323SOL    HW124431   2.821   0.548   1.757  1.2059 -1.2459 -0.3184
 4323SOL    HW224432   2.958   0.599   1.715  0.3316  2.7328  0.1782
 4324SOL     OW24433   2.363   0.255   8.666 -0.2555 -0.8677  0.0105
 4324SOL    HW124434   2.380   0.311   8.590  1.8457 -3.5309 -1.4728
 4324SOL    HW224435   2.288   0.301   8.703 -1.0756 -1.0412 -1.4627
 4325SOL     OW24436   2.590   1.852   1.049 -0.2970  0.0859 -0.4488
 4325SOL    HW124437   2.552   1.831   0.963 -0.0789  0.6836 -0.6935
 4325SOL    HW224438   2.627   1.939   1.035  2.7473 -1.0213  0.7527
 4326SOL     OW24439   1.510   0.195  11.622 -0.1193 -0.5048 -0.3090
 4326SOL    HW124440   1.462   0.277  11.631  0.0335 -0.5620  1.0978
 4326SOL    HW224441   1.486   0.173  11.532 -0.5183  0.7275 -0.5035
 4327SOL     OW24442   0.007   3.003  11.458  0.0310  0.2479 -0.2763
 4327SOL    HW124443   4.652   2.953  11.438 -0.5374  0.3356  1.7824
 4327SOL    HW224444   0.027   3.029  11.368  1.5779  0.2613  0.0759
 4328SOL     OW24445   1.831   2.957  16.131  0.3603 -0.4107  0.1085
 4328SOL    HW124446   1.839   2.888  16.196 -1.8883 -2.5224 -1.8650
 4328SOL    HW224447   1.893   3.022  16.166  1.8107 -0.9750 -1.4421
 4329SOL     OW24448   1.580   4.021   6.499  0.0479  0.5195 -0.3114
 4329SOL    HW124449   1.566   4.109   6.534 -0.0123  0.2370  0.3595
 4329SOL    HW224450   1.497   3.979   6.520  0.8951 -1.3168 -0.6203
 4330SOL     OW24451   0.454   0.686   2.419  0.3915 -0.0639  0.3093
 4330SOL    HW124452   0.383   0.718   2.474  0.7153 -0.9388  1.2425
 4330SOL    HW224453   0.466   0.752   2.351 -0.0680 -1.3778 -1.0648
 4331SOL     OW24454   1.347   0.580  17.078 -0.6357 -0.2875  0.3950
 4331SOL    HW124455   1.283   0.509  17.066 -0.0888 -0.9246  1.2444
 4331SOL    HW224456   1.295   0.660  17.082 -0.7193 -0.2979 -0.4897
 4332SOL     OW24457   0.211   2.240   3.916 -0.6049 -0.4565 -0.4718
 4332SOL    HW124458   0.245   2.311   3.971  0.3022 -0.6782 -0.7467
 4332SOL    HW224459   0.120   2.242   3.944 -0.9895  1.8512 -1.9368
 4333SOL     OW24460   2.370   2.807   5.929 -0.2372  0.0750  0.2350
 4333SOL    HW124461   2.456   2.796   5.889  0.3625  1.8434  1.0233
 4333SOL    HW224462   2.349   2.718   5.957  1.3459 -0.4342 -0.2020
 4334SOL     OW24463   4.244   4.692  11.992 -0.2985  0.1619 -0.0978
 4334SOL    HW124464   4.241   4.614  12.047 -3.6199  1.2545  1.2774
 4334SOL    HW224465   4.316   4.664  11.935 -0.7489  0.0886 -0.6291
 4335SOL     OW24466   2.660   1.448  14.185 -0.3008  0.8313 -0.0883
 4335SOL    HW124467   2.628   1.446  14.094 -0.1611  1.3264 -0.1485
 4335SOL    HW224468   2.580   1.460  14.236  0.2361 -0.3868  1.0134
 4336SOL     OW24469   3.734   4.222   7.309 -0.2237 -0.0280 -0.4196
 4336SOL    HW124470   3.643   4.217   7.279 -0.4793  1.6563  0.0986
 4336SOL    HW224471   3.789   4.189   7.238 -0.4783 -1.4024  0.0098
 4337SOL     OW24472   1.513   1.152   0.350 -0.0301 -0.0345  0.2883
 4337SOL    HW124473   1.580   1.102   0.304 -0.0497  0.5861 -0.4091
 4337SOL    HW224474   1.494   1.081   0.411 -0.3867  0.3215  0.5907
 4338SOL     OW24475   0.245   2.213  14.695 -0.1405 -0.5732  0.2494
 4338SOL    HW124476   0.215   2.274  14.628 -0.4938 -2.2461 -1.1121
 4338SOL    HW224477   0.210   2.262  14.770 -0.9965 -0.0604 -0.4861
 4339SOL     OW24478   0.334   3.217  15.454  0.2591  0.2587 -0.4119
 4339SOL    HW124479   0.337   3.227  15.550 -1.4170  1.9586 -0.5403
 4339SOL    HW224480   0.252   3.168  15.454  0.3273  0.1473 -1.4733
 4340SOL     OW24481   3.860   1.054   8.884  0.5726 -0.4283  0.2968
 4340SOL    HW124482   3.809   1.123   8.926 -0.6880 -0.7445 -0.7300
 4340SOL    HW224483   3.923   1.105   8.833 -2.0276 -1.0103 -3.4519
 4341SOL     OW24484   3.077   1.353   0.838 -0.2553 -0.0340 -0.1434
 4341SOL    HW124485   3.139   1.408   0.886 -1.0427 -0.5027  1.4295
 4341SOL    HW224486   3.127   1.320   0.764  1.0915  0.1039  0.7199
 4342SOL     OW24487   1.763   0.802  10.873 -0.1946 -0.8409 -0.7708
 4342SOL    HW124488   1.823   0.731  10.897 -2.4104 -2.2751  0.5446
 4342SOL    HW224489   1.765   0.798  10.778  0.1961 -1.8704 -0.7146
 4343SOL     OW24490   3.797   3.106   2.961 -0.1296 -0.7507  0.0268
 4343SOL    HW124491   3.784   3.104   2.867 -1.4535 -2.1485  0.2470
 4343SOL    HW224492   3.838   3.021   2.975  1.2156 -0.2391 -0.7467
 4344SOL     OW24493   3.686   2.346   2.878 -0.1764 -0.4598 -0.6196
 4344SOL    HW124494   3.700   2.256   2.907  1.7292 -0.2508 -0.8472
 4344SOL    HW224495   3.618   2.375   2.940  0.6242 -0.8925  0.4663
 4345SOL     OW24496   3.013   4.062   6.760 -0.1211 -0.2406  0.1211
 4345SOL    HW124497   2.984   4.153   6.763  1.4759  0.2791 -0.3045
 4345SOL    HW224498   2.953   4.032   6.691 -0.3098  0.4357 -0.0111
 4346SOL     OW24499   4.524   4.473   2.094 -0.2875 -0.3169  0.2349
 4346SOL    HW124500   4.495   4.508   2.010  1.1377  0.3096 -0.0020
 4346SOL    HW224501   4.442   4.483   2.142 -0.4012  1.2522 -0.2704
 4347SOL     OW24502   4.001   3.254  12.164 -0.1288  0.2443  0.7478
 4347SOL    HW124503   4.063   3.248  12.237  1.9901 -0.1942 -1.0966
 4347SOL    HW224504   3.934   3.191  12.190  0.3205 -0.2112  0.8136
 4348SOL     OW24505   3.472   2.616  13.500  0.4933  0.3740 -0.1102
 4348SOL    HW124506   3.471   2.711  13.516  0.6663  0.4046 -0.2868
 4348SOL    HW224507   3.386   2.592  13.534  0.2265  3.3478  1.2948
 4349SOL     OW24508   0.518   3.989   0.246 -0.0014  0.1967  0.2505
 4349SOL    HW124509   0.587   3.951   0.301  0.8927 -1.1809 -1.7893
 4349SOL    HW224510   0.447   3.934   0.278  0.0251  1.2935  2.1380
 4350SOL     OW24511   0.644   0.111   4.392 -0.2159 -0.4956  0.6297
 4350SOL    HW124512   0.659   0.055   4.316  0.3114 -0.9446  1.0623
 4350SOL    HW224513   0.679   0.192   4.354  2.1412 -1.3830  0.8551
 4351SOL     OW24514   4.287   1.481   4.768  0.2992  0.1105 -0.6219
 4351SOL    HW124515   4.255   1.476   4.678  1.5653  0.5045 -1.0820
 4351SOL    HW224516   4.374   1.519   4.758 -0.1076  0.4314 -2.8204
 4352SOL     OW24517   3.069   0.375  15.424  0.5294  0.3916 -0.1076
 4352SOL    HW124518   3.050   0.468  15.412  0.2554  0.3914  0.3427
 4352SOL    HW224519   3.111   0.347  15.342  0.8764  0.0648  0.1839
 4353SOL     OW24520   0.686   2.568   8.112 -0.0450  0.3625 -0.1387
 4353SOL    HW124521   0.646   2.632   8.054 -2.7397 -1.1732  0.0161
 4353SOL    HW224522   0.776   2.602   8.110 -0.2406  0.8137 -1.1373
 4354SOL     OW24523   4.481   2.864   0.610 -0.1504  0.6729 -0.1588
 4354SOL    HW124524   4.406   2.907   0.568  0.0476 -0.5992 -1.8028
 4354SOL    HW224525   4.434   2.795   0.657  1.0523 -1.4183 -2.0691
 4355SOL     OW24526   1.253   3.729  10.820 -0.0988  0.4368 -0.4348
 4355SOL    HW124527   1.198   3.651  10.817 -0.9138  0.9516  1.3939
 4355SOL    HW224528   1.324   3.704  10.760 -0.3343 -0.8785 -0.1664
 4356SOL     OW24529   2.106   2.633   2.689 -1.0201  0.1132  0.3366
 4356SOL    HW124530   2.026   2.602   2.646 -0.3542  0.8451 -1.4373
 4356SOL    HW224531   2.157   2.564   2.647 -1.4144 -0.4688  0.8166
 4357SOL     OW24532   4.501   4.450  14.609 -0.4713  0.1994  0.4175
 4357SOL    HW124533   4.543   4.368  14.582 -1.4398 -0.0486 -0.3043
 4357SOL    HW224534   4.518   4.508  14.535  0.4375  1.5961  1.7450
 4358SOL     OW24535   4.675   1.431   3.389  0.4496  0.0245  0.2925
 4358SOL    HW124536   4.673   1.391   3.303 -2.4959  2.6213 -0.8468
 4358SOL    HW224537   4.617   1.507   3.376 -0.3857 -0.7994 -0.7378
 4359SOL     OW24538   2.430   3.270   4.481  0.2342 -0.1133  0.1184
 4359SOL    HW124539   2.412   3.318   4.562 -1.5056 -1.4545  0.5117
 4359SOL    HW224540   2.406   3.333   4.412  1.0779 -2.2277 -2.0828
 4360SOL     OW24541   3.081   4.385   6.407  0.5788  0.0976  0.9733
 4360SOL    HW124542   3.064   4.408   6.498 -0.8493 -1.0095  0.9732
 4360SOL    HW224543   3.051   4.461   6.357  1.3773  0.6113  1.2754
 4361SOL     OW24544   3.988   3.787   1.734  0.1938  0.2875 -0.0758
 4361SOL    HW124545   3.968   3.879   1.716 -0.7201  0.1582  0.2624
 4361SOL    HW224546   3.923   3.737   1.684  0.7046 -0.9332  0.4767
 4362SOL     OW24547   3.322   0.950   8.961 -0.5590  0.8159  0.1992
 4362SOL    HW124548   3.274   1.023   9.000  1.3853  2.2525 -0.1063
 4362SOL    HW224549   3.354   0.973   8.874 -1.1580  0.6026 -0.0732
 4363SOL     OW24550   1.065   1.634   9.762  0.1126 -0.3227  0.1362
 4363SOL    HW124551   1.122   1.674   9.829 -0.3622  0.8825 -0.1750
 4363SOL    HW224552   1.123   1.626   9.687  0.5520 -0.7132  0.5182
 4364SOL     OW24553   3.780   4.683   4.765  0.2427 -0.5921 -0.6934
 4364SOL    HW124554   3.834   4.720   4.835 -1.2744  1.0407 -0.4097
 4364SOL    HW224555   3.824   4.599   4.750 -0.3625 -1.2410  1.1739
 4365SOL     OW24556   2.210   0.917   7.872 -0.5455  0.4951  0.3725
 4365SOL    HW124557   2.237   0.827   7.889  1.7296  0.6969 -2.0901
 4365SOL    HW224558   2.128   0.895   7.829  0.6573 -1.3823 -0.9656
 4366SOL     OW24559   4.437   4.545   2.765  0.2457  0.3951  0.1661
 4366SOL    HW124560   4.521   4.537   2.810  0.0846 -0.1768  0.3713
 4366SOL    HW224561   4.457   4.508   2.679  1.8917  1.5958  0.0535
 4367SOL     OW24562   3.272   4.697   6.436 -0.1173 -0.5689  0.0735
 4367SOL    HW124563   3.209   0.044   6.444 -1.1224 -1.4270 -0.2173
 4367SOL    HW224564   3.352   0.015   6.467  0.2923  0.3636 -2.2954
 4368SOL     OW24565   4.676   0.411   5.272 -0.0632 -0.1741  0.3090
 4368SOL    HW124566   4.642   0.322   5.261 -0.5382  0.0544 -0.0970
 4368SOL    HW224567   4.646   0.452   5.190  0.4751  1.3200  0.8634
 4369SOL     OW24568   0.294   3.307   4.959  0.2029  0.4849  0.1534
 4369SOL    HW124569   0.360   3.289   4.892  1.1242 -0.2075  1.2466
 4369SOL    HW224570   0.229   3.341   4.898 -0.7085 -0.1739  0.7739
 4370SOL     OW24571   2.766   0.587   3.225 -0.0268 -0.8795  0.2722
 4370SOL    HW124572   2.721   0.632   3.297 -1.8486 -1.5769 -0.4205
 4370SOL    HW224573   2.777   0.659   3.164 -0.0895 -1.6486 -0.6506
 4371SOL     OW24574   2.197   4.307   8.560  0.4515  0.0157 -0.7441
 4371SOL    HW124575   2.242   4.233   8.519 -2.3638 -2.0795 -0.0688
 4371SOL    HW224576   2.232   4.300   8.648 -0.0321  3.4761 -0.2991
 4372SOL     OW24577   3.300   0.203   9.989 -0.2136  0.0567  0.0909
 4372SOL    HW124578   3.280   0.168   9.903 -0.2447 -0.2375  0.2190
 4372SOL    HW224579   3.238   0.150  10.039  0.8199 -0.2101  1.0949
 4373SOL     OW24580   4.062   0.328  11.518  0.7208  0.1908  0.1892
 4373SOL    HW124581   4.148   0.294  11.494  1.3696  1.7511  0.3154
 4373SOL    HW224582   4.051   0.402  11.458 -1.5312 -0.4603 -0.2172
 4374SOL     OW24583   4.005   1.856   1.584 -0.0273 -0.2715 -0.2085
 4374SOL    HW124584   3.977   1.924   1.523 -0.1793 -0.7970 -0.7244
 4374SOL    HW224585   4.017   1.913   1.661 -0.5271 -1.2013  0.5618
 4375SOL     OW24586   2.570   0.747   1.425  0.0879 -0.0870 -0.0896
 4375SOL    HW124587   2.640   0.699   1.382 -1.5859 -2.5093 -0.1151
 4375SOL    HW224588   2.616   0.791   1.496  1.6267 -0.7380 -0.6998
 4376SOL     OW24589   3.758   4.131   3.179  0.2015 -0.8579  0.5527
 4376SOL    HW124590   3.686   4.191   3.198  0.3600 -0.4734 -0.0633
 4376SOL    HW224591   3.813   4.193   3.130  0.1272 -0.4373  0.9911
 4377SOL     OW24592   0.308   0.246  14.601  0.0428  0.1345 -0.2047
 4377SOL    HW124593   0.280   0.157  14.580 -3.1006  1.0548 -0.0199
 4377SOL    HW224594   0.338   0.248  14.692 -0.2694 -1.4739 -0.0801
 4378SOL     OW24595   4.639   1.788   4.264 -0.4413  0.1940 -0.3538
 4378SOL    HW124596   4.688   1.859   4.225 -3.2885  1.8705 -0.8996
 4378SOL    HW224597   4.594   1.748   4.189  0.6389  1.0538 -1.4470
 4379SOL     OW24598   2.604   4.471   6.110 -0.4158 -1.3008 -0.2778
 4379SOL    HW124599   2.631   4.478   6.019  0.7530  1.0181  0.2392
 4379SOL    HW224600   2.510   4.469   6.094 -0.5401  1.0844  0.0457
 4380SOL     OW24601   2.922   2.559   4.703 -0.1805  0.5093  0.2518
 4380SOL    HW124602   2.833   2.594   4.698  0.4940  2.1766 -0.2146
 4380SOL    HW224603   2.971   2.587   4.625 -0.1755  2.8885  1.1164
 4381SOL     OW24604   3.934   2.141   1.597  0.7778 -0.1553  0.3268
 4381SOL    HW124605   3.944   2.222   1.548  0.4932 -1.4636 -1.8952
 4381SOL    HW224606   3.840   2.127   1.587  0.6709  1.3149 -0.6199
 4382SOL     OW24607   1.494   4.607  11.480  0.3339 -0.3739  0.1446
 4382SOL    HW124608   1.461   4.658  11.555  0.9056 -0.0430  0.1712
 4382SOL    HW224609   1.470   4.664  11.407 -0.7412 -0.1206  0.6961
 4383SOL     OW24610   0.014   0.419  13.018  0.1251  0.1738 -0.2893
 4383SOL    HW124611   0.014   0.488  12.951 -0.4924 -1.0041 -1.5061
 4383SOL    HW224612   0.109   0.406  13.023 -0.3512 -2.7021  1.0202
 4384SOL     OW24613   0.294   0.134   3.999  0.0575  0.0524 -0.2987
 4384SOL    HW124614   0.362   0.193   4.033 -0.0783  0.5397 -0.8666
 4384SOL    HW224615   0.332   0.053   4.033  0.3501  0.0254 -0.6967
 4385SOL     OW24616   0.501   1.947   4.355 -0.2874  0.5566  0.2507
 4385SOL    HW124617   0.489   2.011   4.426 -1.0014  0.7723 -0.0649
 4385SOL    HW224618   0.426   1.961   4.298  0.7654 -3.4505 -2.0896
 4386SOL     OW24619   0.539   2.177  12.121  0.2413  0.1610  0.8530
 4386SOL    HW124620   0.583   2.092  12.128  0.9965  0.5275  0.5201
 4386SOL    HW224621   0.602   2.221  12.064  1.0047 -0.0186  1.5602
 4387SOL     OW24622   0.536   0.254   5.626 -0.7571  0.3724  0.2516
 4387SOL    HW124623   0.510   0.322   5.564  1.3640  0.5541 -0.4490
 4387SOL    HW224624   0.477   0.275   5.698  1.0744 -1.0819  2.1938
 4388SOL     OW24625   0.355   4.421   3.971 -0.4437  0.2588 -0.4564
 4388SOL    HW124626   0.433   4.396   3.921 -0.8092  2.1561 -2.0044
 4388SOL    HW224627   0.391   4.500   4.010 -0.6742 -1.0436  2.3714
 4389SOL     OW24628   4.547   0.877   4.866 -0.0513  0.2029  0.1830
 4389SOL    HW124629   4.635   0.907   4.842 -0.2147  0.6632  0.1672
 4389SOL    HW224630   4.543   0.861   4.960 -0.2736 -1.7482 -0.1578
 4390SOL     OW24631   4.706   2.949   5.861  0.5320 -0.0249  0.0077
 4390SOL    HW124632   0.060   2.931   5.912  2.2811 -2.5427 -3.5388
 4390SOL    HW224633   4.708   2.878   5.797  1.5261  0.7434 -0.8148
 4391SOL     OW24634   3.670   1.376   1.582  0.0193 -0.4401 -0.7309
 4391SOL    HW124635   3.627   1.356   1.666 -0.8050  0.6589 -0.8916
 4391SOL    HW224636   3.752   1.328   1.593  0.9997  1.5055  0.4695
 4392SOL     OW24637   3.389   0.420   8.025 -0.4447  0.0825 -0.0668
 4392SOL    HW124638   3.360   0.499   7.979 -1.7612 -0.4413 -0.1323
 4392SOL    HW224639   3.403   0.356   7.955  0.4181 -0.1950  0.3616
 4393SOL     OW24640   0.249   1.460   3.059  0.2997  0.0786  0.4769
 4393SOL    HW124641   0.162   1.437   3.092 -0.4997  0.1470 -1.5999
 4393SOL    HW224642   0.238   1.466   2.964 -0.9148 -1.8066  0.4990
 4394SOL     OW24643   1.516   3.041  11.044 -0.0451  0.0330 -0.1711
 4394SOL    HW124644   1.571   3.086  10.980  0.8245  0.7719  1.0957
 4394SOL    HW224645   1.549   2.951  11.043  2.7917  1.0606  0.1275
 4395SOL     OW24646   3.661   1.981  11.549  0.1670  0.5997  0.1515
 4395SOL    HW124647   3.596   2.051  11.548  0.3380  0.8047  4.1915
 4395SOL    HW224648   3.728   2.008  11.486  1.4352 -2.3608  0.2273
 4396SOL     OW24649   3.615   1.134   8.553  0.0241  0.1774 -0.1980
 4396SOL    HW124650   3.570   1.215   8.528 -1.5508 -0.3017  1.0490
 4396SOL    HW224651   3.703   1.169   8.563  0.4052 -0.6903 -0.5073
 4397SOL     OW24652   0.999   0.988   1.785  0.5092 -0.4574  0.4915
 4397SOL    HW124653   0.933   0.985   1.715  0.2620  2.4962  0.5790
 4397SOL    HW224654   1.014   0.894   1.794 -1.2955 -0.6582  1.4981
 4398SOL     OW24655   3.289   3.778  13.949  0.6145 -1.0173  0.3279
 4398SOL    HW124656   3.335   3.854  13.984  0.9936 -0.3120 -1.7242
 4398SOL    HW224657   3.266   3.726  14.026 -0.8146  2.5110  2.2664
 4399SOL     OW24658   2.386   4.152   2.822  0.1740  0.2437 -0.7305
 4399SOL    HW124659   2.459   4.124   2.876  0.6674  0.7335 -1.1457
 4399SOL    HW224660   2.331   4.075   2.838 -2.2981  2.2752  0.5209
 4400SOL     OW24661   1.214   0.202   5.596 -0.5700  0.0394  0.3592
 4400SOL    HW124662   1.254   0.238   5.516  1.5521  2.2384  2.4251
 4400SOL    HW224663   1.175   0.118   5.570 -0.9250 -0.5822  2.9358
 4401SOL     OW24664   0.389   3.460   7.637  0.0496 -0.2201  0.0445
 4401SOL    HW124665   0.456   3.393   7.622 -1.7447 -0.9438 -4.5194
 4401SOL    HW224666   0.410   3.535   7.581 -0.8351 -1.3382 -1.7742
 4402SOL     OW24667   3.249   0.240   8.980 -0.1083 -0.7204  0.1525
 4402SOL    HW124668   3.308   0.164   8.979 -1.2014 -1.5515 -0.4917
 4402SOL    HW224669   3.302   0.288   8.916 -1.1978  1.4785  0.9225
 4403SOL     OW24670   1.731   0.377  11.783  0.3648 -0.1819  0.3717
 4403SOL    HW124671   1.763   0.439  11.717  0.0914  0.8305  1.1957
 4403SOL    HW224672   1.724   0.437  11.856  1.4732  0.6069 -0.1613
 4404SOL     OW24673   2.848   3.769   2.401 -0.3873  0.5100  0.5814
 4404SOL    HW124674   2.864   3.705   2.332 -0.8942  1.1514 -0.1326
 4404SOL    HW224675   2.929   3.820   2.393  0.7229 -1.5618 -1.2990
 4405SOL     OW24676   1.458   3.686   2.379 -0.0056  0.2359  0.1462
 4405SOL    HW124677   1.494   3.699   2.467 -0.9325  1.0882  0.3895
 4405SOL    HW224678   1.515   3.617   2.344  0.1436  0.7540 -0.6159
 4406SOL     OW24679   2.396   2.778   4.399  0.8600  0.5241  0.1159
 4406SOL    HW124680   2.374   2.851   4.341 -0.5994  0.9568  1.2121
 4406SOL    HW224681   2.424   2.714   4.334  1.0172  1.4658 -0.7442
 4407SOL     OW24682   2.184   2.555   1.677  0.3921 -0.0541  0.0683
 4407SOL    HW124683   2.206   2.609   1.601  0.7329  0.5845  0.6152
 4407SOL    HW224684   2.269   2.525   1.709 -0.0653  0.2895  1.5891
 4408SOL     OW24685   2.139   1.997   1.449  0.3495  0.2839  0.0034
 4408SOL    HW124686   2.205   1.950   1.399 -0.5462  0.0667 -0.9659
 4408SOL    HW224687   2.055   1.957   1.425 -0.3204  1.1279  0.9221
 4409SOL     OW24688   2.094   1.916  14.034  0.6670  0.1314 -0.2882
 4409SOL    HW124689   2.015   1.871  14.004 -0.3055  1.2803  0.5228
 4409SOL    HW224690   2.064   2.005  14.016  1.6400  1.1164  2.8633
 4410SOL     OW24691   1.121   0.553   6.938  0.4710 -0.1300  0.1418
 4410SOL    HW124692   1.176   0.475   6.922  0.0431 -0.2808 -0.6205
 4410SOL    HW224693   1.181   0.625   6.956  0.6275 -0.5710  1.4213
 4411SOL     OW24694   1.992   1.092   5.660 -0.3390 -0.4931 -0.0830
 4411SOL    HW124695   1.935   1.028   5.618 -0.0075 -0.7023 -0.2169
 4411SOL    HW224696   1.980   1.160   5.595 -0.5606 -0.4225  0.0322
 4412SOL     OW24697   0.514   2.213   8.757  0.8351  0.9591  0.4304
 4412SOL    HW124698   0.576   2.284   8.741  2.0218 -0.1499  0.1142
 4412SOL    HW224699   0.552   2.165   8.831  0.2212  2.0504  1.4483
 4413SOL     OW24700   4.242   1.090   6.992 -0.0271  0.1651  0.3303
 4413SOL    HW124701   4.160   1.117   6.951 -1.0015 -2.1578  0.7592
 4413SOL    HW224702   4.221   1.126   7.078 -0.5023  3.8535 -1.3081
 4414SOL     OW24703   4.272   1.748   6.210 -0.1785  0.0771  0.5366
 4414SOL    HW124704   4.230   1.710   6.133 -2.6303  1.6463  1.1036
 4414SOL    HW224705   4.353   1.700   6.228 -2.1228 -3.4247  0.1209
 4415SOL     OW24706   1.298   4.097  17.272  0.6143  0.1498  0.2689
 4415SOL    HW124707   1.203   4.103  17.265  0.4324 -1.3360  1.6072
 4415SOL    HW224708   1.322   4.188  17.289  1.6166 -0.0762  0.0672
 4416SOL     OW24709   1.028   3.936   9.873  0.4371 -0.0124 -0.3546
 4416SOL    HW124710   0.954   3.994   9.887  1.2590  0.7724  0.8194
 4416SOL    HW224711   1.069   3.953   9.959  2.0293 -2.3625 -0.6316
 4417SOL     OW24712   1.639   3.719   2.604  0.2972 -0.0109  0.0198
 4417SOL    HW124713   1.673   3.758   2.685  0.7875 -0.6889  0.1409
 4417SOL    HW224714   1.716   3.736   2.550 -0.1393 -0.7962 -0.8396
 4418SOL     OW24715   0.545   0.464   6.742  0.9561 -0.3043 -0.1257
 4418SOL    HW124716   0.479   0.531   6.759  0.9070 -0.9486  2.3022
 4418SOL    HW224717   0.493   0.383   6.735  0.0437  0.2587  0.2040
 4419SOL     OW24718   1.616   0.554   7.057 -0.1328  0.5661  0.1696
 4419SOL    HW124719   1.667   0.477   7.081 -1.3565  0.2230  1.6152
 4419SOL    HW224720   1.671   0.591   6.987  1.5454 -0.1859  1.1050
 4420SOL     OW24721   1.930   2.111   7.376  0.6102  0.3361  1.1341
 4420SOL    HW124722   1.937   2.019   7.353 -1.0730  0.6368 -0.6330
 4420SOL    HW224723   1.921   2.152   7.289  3.4119 -0.4386  0.4614
 4421SOL     OW24724   1.392   2.796   5.455 -0.9009 -0.8577  0.6552
 4421SOL    HW124725   1.451   2.726   5.427  2.6039  2.3546 -0.0201
 4421SOL    HW224726   1.308   2.750   5.450 -0.6827 -1.0832 -0.7816
 4422SOL     OW24727   3.076   1.320   4.127  0.2799 -0.7616 -0.1989
 4422SOL    HW124728   3.097   1.226   4.131 -0.2051 -0.9455 -2.1645
 4422SOL    HW224729   3.151   1.351   4.076 -0.9979  1.6227 -0.6139
 4423SOL     OW24730   4.478   3.669  13.727  0.3796 -0.6799 -0.4700
 4423SOL    HW124731   4.383   3.679  13.727  0.4660  0.0758 -2.3401
 4423SOL    HW224732   4.506   3.739  13.669 -1.4915  0.4658 -0.0090
 4424SOL     OW24733   1.100   3.929   3.211  0.1238  0.3802 -0.4063
 4424SOL    HW124734   1.130   3.972   3.131 -3.4643  1.4224 -1.1896
 4424SOL    HW224735   1.007   3.932   3.188  0.0918  0.4667 -0.2688
 4425SOL     OW24736   4.710   2.219   8.076  0.5554 -0.4669  0.2197
 4425SOL    HW124737   0.038   2.144   8.106  1.6251  1.0684  2.1954
 4425SOL    HW224738   4.701   2.268   8.158  1.6047  0.5785 -0.2857
 4426SOL     OW24739   1.967   2.396   2.058  0.2775  0.0177  0.7514
 4426SOL    HW124740   2.047   2.345   2.065  0.1022 -0.6269 -1.8061
 4426SOL    HW224741   1.986   2.462   2.124  0.5032  0.0146  0.6895
 4427SOL     OW24742   0.526   2.685   6.579  0.2262 -0.2937  0.4949
 4427SOL    HW124743   0.575   2.763   6.605  0.4531  0.6185 -2.6561
 4427SOL    HW224744   0.602   2.637   6.547 -0.4177 -2.1392  1.6979
 4428SOL     OW24745   2.333   3.771  15.505  0.2055 -0.6503 -0.2285
 4428SOL    HW124746   2.394   3.834  15.544 -2.4952  1.2264  0.9499
 4428SOL    HW224747   2.296   3.818  15.429 -1.1190  0.9598  1.4185
 4429SOL     OW24748   0.175   3.559   1.991 -0.5696  0.1297 -0.7857
 4429SOL    HW124749   0.207   3.593   1.908 -0.0963  0.9547 -0.2620
 4429SOL    HW224750   0.148   3.636   2.042  1.5647  1.2054 -1.2879
 4430SOL     OW24751   2.418   1.517   4.735 -0.6410 -0.0758 -0.1273
 4430SOL    HW124752   2.396   1.596   4.686 -0.4657 -0.7412 -1.2940
 4430SOL    HW224753   2.429   1.560   4.820  0.4972  4.9411 -2.8026
 4431SOL     OW24754   0.540   0.146   7.543  0.8979  0.5235  0.3100
 4431SOL    HW124755   0.553   0.143   7.637  1.0302  0.7543  0.2998
 4431SOL    HW224756   0.478   0.217   7.525 -0.2138 -0.6186 -0.3474
 4432SOL     OW24757   4.245   4.499   9.534  0.7362 -0.2522  0.8222
 4432SOL    HW124758   4.291   4.491   9.617  0.0162 -1.2270  1.1349
 4432SOL    HW224759   4.155   4.526   9.554 -0.0204 -0.8010 -1.7522
 4433SOL     OW24760   4.026   2.921   2.577  0.1831 -0.2928 -0.4598
 4433SOL    HW124761   3.994   2.853   2.517  0.2305 -1.8789  1.3461
 4433SOL    HW224762   4.074   2.864   2.636 -1.7226 -1.1460  0.2699
 4434SOL     OW24763   2.420   1.098  12.323 -0.2658  0.3704 -0.4401
 4434SOL    HW124764   2.493   1.158  12.307 -0.5300  0.3932 -1.5832
 4434SOL    HW224765   2.388   1.135  12.404 -2.4063  0.5066 -1.3353
 4435SOL     OW24766   2.338   1.485  11.940  0.1144 -0.6026 -0.4125
 4435SOL    HW124767   2.351   1.579  11.956 -2.2122 -0.2710 -0.4977
 4435SOL    HW224768   2.288   1.494  11.859 -3.1720 -0.6160  1.6140
 4436SOL     OW24769   3.470   3.990  12.468  0.2822  0.3549  0.1945
 4436SOL    HW124770   3.476   3.981  12.373 -0.3266 -0.4891  0.2307
 4436SOL    HW224771   3.564   3.994  12.489  0.3584  0.4225 -0.1651
 4437SOL     OW24772   0.781   3.167   9.176 -0.8539 -0.4505 -0.4154
 4437SOL    HW124773   0.785   3.214   9.093 -1.4286 -0.6869 -0.5771
 4437SOL    HW224774   0.708   3.218   9.212  0.8906  0.1833  2.2134
 4438SOL     OW24775   3.328   0.277  11.375  0.9564  0.3536 -0.8767
 4438SOL    HW124776   3.393   0.271  11.445  0.4471  0.1938 -0.4133
 4438SOL    HW224777   3.390   0.269  11.302  0.0228  1.7176 -1.8250
 4439SOL     OW24778   0.339   0.947   1.073  0.2293  0.2365 -0.0869
 4439SOL    HW124779   0.395   0.912   1.142  0.6047  1.3446  0.1601
 4439SOL    HW224780   0.305   0.866   1.034  0.3341  0.2617 -0.2302
 4440SOL     OW24781   2.432   3.154   4.081 -0.6570 -0.2342  0.1277
 4440SOL    HW124782   2.489   3.145   4.004 -0.6488  1.3910 -0.0646
 4440SOL    HW224783   2.483   3.221   4.126  0.5854 -0.1808 -1.3316
 4441SOL     OW24784   1.241   1.385   5.879 -0.0996 -0.1110 -0.4936
 4441SOL    HW124785   1.190   1.440   5.939  0.2752  0.5637 -0.8004
 4441SOL    HW224786   1.320   1.437   5.866 -0.2443 -0.8191 -4.0537
 4442SOL     OW24787   1.457   1.837   6.314 -0.6327 -0.7571  0.2707
 4442SOL    HW124788   1.469   1.761   6.257 -0.6541 -0.9600  0.5323
 4442SOL    HW224789   1.539   1.827   6.363 -0.3997 -0.8276 -0.1392
 4443SOL     OW24790   2.980   2.281   7.801 -0.2217 -0.1599 -0.0830
 4443SOL    HW124791   3.005   2.285   7.894 -0.8493  2.3913 -0.0534
 4443SOL    HW224792   3.064   2.313   7.769  1.0322 -2.5392  0.7496
 4444SOL     OW24793   3.915   0.681  10.816 -0.8276  0.4329  0.6874
 4444SOL    HW124794   3.887   0.665  10.906  3.4245 -0.7132  1.8242
 4444SOL    HW224795   3.890   0.604  10.765  1.0483  1.0940 -1.2901
 4445SOL     OW24796   0.952   3.920   4.817 -0.6451  0.5828 -0.0101
 4445SOL    HW124797   1.021   3.943   4.878 -0.1245  0.5458 -0.5807
 4445SOL    HW224798   1.009   3.877   4.753 -0.4721  1.3763 -0.3889
 4446SOL     OW24799   1.000   2.346  11.787 -0.0512  0.0086  0.2087
 4446SOL    HW124800   1.095   2.361  11.793  0.2010 -2.4184  2.1150
 4446SOL    HW224801   0.980   2.395  11.707  0.6404 -1.6905 -1.0192
 4447SOL     OW24802   4.258   3.209   3.030 -0.6328 -0.1538 -0.0245
 4447SOL    HW124803   4.311   3.288   3.039  0.1863 -0.8663  1.4424
 4447SOL    HW224804   4.321   3.147   2.994 -1.9452 -2.5531  1.7730
 4448SOL     OW24805   2.816   2.879  10.631  0.1433  0.2505 -0.1400
 4448SOL    HW124806   2.826   2.827  10.551  0.3769 -1.8029  1.2298
 4448SOL    HW224807   2.841   2.819  10.701  2.1617  0.4863 -0.6358
 4449SOL     OW24808   2.178   0.840  15.900  0.1606 -0.0267 -0.0692
 4449SOL    HW124809   2.110   0.795  15.849  0.7623 -1.5605  0.4850
 4449SOL    HW224810   2.229   0.884  15.832 -0.5804  0.3429 -0.3894
 4450SOL     OW24811   0.299   4.524   1.518 -0.8456  0.1600 -0.1640
 4450SOL    HW124812   0.301   4.514   1.613 -0.5519  1.7795  0.0081
 4450SOL    HW224813   0.226   4.586   1.521 -0.0804  1.0700 -0.2279
 4451SOL     OW24814   2.806   1.611  11.675  0.5981  0.0861  0.1659
 4451SOL    HW124815   2.756   1.607  11.593  3.3861 -0.3877 -1.5516
 4451SOL    HW224816   2.840   1.700  11.665  0.1921  0.4328  1.8776
 4452SOL     OW24817   1.753   4.305   1.029 -0.0960  0.0452  0.3177
 4452SOL    HW124818   1.719   4.394   1.038 -0.4566 -0.1140  0.5201
 4452SOL    HW224819   1.707   4.261   1.101 -1.1850  1.1599  0.3145
 4453SOL     OW24820   1.035   2.641  17.038  0.3349  0.2935  0.2397
 4453SOL    HW124821   1.068   2.562  16.995 -0.1366 -0.0658  0.5377
 4453SOL    HW224822   0.962   2.610  17.091  0.0958 -0.4150 -0.5126
 4454SOL     OW24823   0.574   2.475   5.213 -0.2381  1.0053 -0.4325
 4454SOL    HW124824   0.630   2.510   5.283  0.9615 -1.2162 -0.2709
 4454SOL    HW224825   0.635   2.406   5.186 -1.9416 -1.2833  1.5884
 4455SOL     OW24826   3.667   4.168   5.530  0.1571 -0.2430 -0.1011
 4455SOL    HW124827   3.703   4.157   5.618 -2.4493 -2.5696  0.6689
 4455SOL    HW224828   3.693   4.258   5.510 -0.2546 -0.5046 -1.7645
 4456SOL     OW24829   0.596   1.356   2.490 -0.4256  0.4929 -0.1662
 4456SOL    HW124830   0.526   1.362   2.425 -0.4760 -1.6849 -0.3160
 4456SOL    HW224831   0.672   1.395   2.445 -0.8488  0.3380 -1.0198
 4457SOL     OW24832   1.500   4.012   4.500  0.0663 -0.3507  0.1754
 4457SOL    HW124833   1.507   3.945   4.432  1.7640 -1.9784  1.9539
 4457SOL    HW224834   1.576   3.985   4.552  0.9312 -0.0627 -0.9516
 4458SOL     OW24835   3.766   1.702   5.546  0.1208 -0.2285 -0.3033
 4458SOL    HW124836   3.685   1.664   5.581  0.1791  0.6290  0.7700
 4458SOL    HW224837   3.822   1.678   5.620 -2.9435 -0.7090  1.8910
 4459SOL     OW24838   3.765   4.294  13.675  0.0631  0.2077  0.4927
 4459SOL    HW124839   3.766   4.303  13.770 -2.2735 -0.8081  0.6061
 4459SOL    HW224840   3.676   4.323  13.654 -1.1441 -2.0926  2.5544
 4460SOL     OW24841   3.897   0.637   4.971 -0.1618  0.4608  0.3936
 4460SOL    HW124842   3.884   0.637   5.066 -1.8138  1.5332  0.1666
 4460SOL    HW224843   3.818   0.589   4.944  0.8841 -1.4596  0.7724
 4461SOL     OW24844   1.545   1.582   2.290  0.0800 -0.5403  0.5234
 4461SOL    HW124845   1.494   1.623   2.220  1.2224 -0.4419 -0.2394
 4461SOL    HW224846   1.551   1.492   2.257 -2.0826  0.2910 -2.0625
 4462SOL     OW24847   3.184   0.043   6.942 -0.3429 -0.2704 -0.1459
 4462SOL    HW124848   3.115   0.098   6.979 -1.1457  0.3058 -2.4929
 4462SOL    HW224849   3.209   0.095   6.866 -0.0729  0.3545  0.3679
 4463SOL     OW24850   0.135   2.259   5.173  0.5755  0.4295  0.0662
 4463SOL    HW124851   0.162   2.266   5.081 -0.3217 -1.3142 -0.3405
 4463SOL    HW224852   0.215   2.269   5.224 -0.4823  1.9782  1.4181
 4464SOL     OW24853   3.975   1.992   6.015  0.1800 -0.4214  0.1185
 4464SOL    HW124854   3.914   1.928   5.980  1.1778 -0.2961 -1.8523
 4464SOL    HW224855   3.997   2.040   5.935  0.9560  0.5472  0.9034
 4465SOL     OW24856   1.278   1.273   8.563 -0.0719  0.1431 -0.5139
 4465SOL    HW124857   1.343   1.342   8.557 -0.4818  0.5145 -0.6403
 4465SOL    HW224858   1.324   1.194   8.533 -2.1375 -1.3443  0.2050
 4466SOL     OW24859   4.126   4.369   8.329 -0.2332  0.1377  0.5636
 4466SOL    HW124860   4.104   4.380   8.237  0.8820  0.5414  0.3411
 4466SOL    HW224861   4.105   4.457   8.361 -2.3644  0.2780 -1.2862
 4467SOL     OW24862   3.657   2.579   0.882 -0.3258 -0.5406 -0.2834
 4467SOL    HW124863   3.609   2.657   0.855 -0.0782  0.6716  2.7728
 4467SOL    HW224864   3.631   2.517   0.814  0.5066 -0.0073 -1.1033
 4468SOL     OW24865   2.772   1.098   6.554  0.6365  0.0732 -0.0337
 4468SOL    HW124866   2.697   1.088   6.613  1.2456 -2.6916  0.3062
 4468SOL    HW224867   2.747   1.052   6.474  0.2485  0.6298 -0.2254
 4469SOL     OW24868   3.751   1.935  15.269 -0.1369 -0.1326 -0.6555
 4469SOL    HW124869   3.810   1.910  15.340 -1.3589 -0.1554  0.3648
 4469SOL    HW224870   3.717   2.018  15.302 -2.3309 -2.4164  2.9986
 4470SOL     OW24871   2.229   4.509   9.217  0.4465  0.5808  0.0470
 4470SOL    HW124872   2.251   4.602   9.218  0.7174  0.5298 -0.8249
 4470SOL    HW224873   2.311   4.468   9.243 -0.0751  0.6027  1.7474
 4471SOL     OW24874   1.292   2.210  10.979  0.1018  0.2018  0.4046
 4471SOL    HW124875   1.355   2.198  11.050 -3.1409 -0.2228  3.1999
 4471SOL    HW224876   1.240   2.131  10.995  1.1350  0.0555  3.0000
 4472SOL     OW24877   2.648   4.504  15.965  0.2394  0.0898 -0.5307
 4472SOL    HW124878   2.677   4.418  15.932 -0.1853 -0.4045  0.4020
 4472SOL    HW224879   2.575   4.530  15.909 -0.2278  2.3565  1.1601
 4473SOL     OW24880   0.390   2.048   7.396 -0.1438  0.2839 -0.2502
 4473SOL    HW124881   0.358   1.981   7.335  2.3127 -0.0214 -1.1788
 4473SOL    HW224882   0.306   2.069   7.436 -0.1988 -2.0039  0.8124
 4474SOL     OW24883   0.953   3.745  13.555 -0.4440  0.0245 -0.7477
 4474SOL    HW124884   0.871   3.724  13.511 -1.8897  2.4373  0.8283
 4474SOL    HW224885   0.997   3.788  13.482  1.5731 -0.0917  0.4010
 4475SOL     OW24886   1.308   4.145   3.709  0.0785 -0.6288  0.1605
 4475SOL    HW124887   1.271   4.117   3.625  2.1056 -2.5115 -0.1155
 4475SOL    HW224888   1.281   4.088   3.781  1.4676  1.8774  2.6941
 4476SOL     OW24889   3.983   2.468  15.903  0.3967 -0.5324  0.3295
 4476SOL    HW124890   4.052   2.478  15.837  2.1478 -0.6848  2.1610
 4476SOL    HW224891   4.033   2.431  15.975  1.2346 -3.0071 -1.5107
 4477SOL     OW24892   3.865   1.269   8.609  0.2972  0.5200 -0.1426
 4477SOL    HW124893   3.827   1.356   8.605  0.4250  0.5535 -0.6326
 4477SOL    HW224894   3.922   1.285   8.684  1.0412  1.6098 -0.9475
 4478SOL     OW24895   3.206   3.888   8.355 -0.1566 -0.0341  0.1798
 4478SOL    HW124896   3.196   3.860   8.264 -0.7746 -0.1358  0.2746
 4478SOL    HW224897   3.213   3.799   8.390 -0.3475  0.3538  1.2048
 4479SOL     OW24898   4.384   1.158   3.683 -0.1308 -0.1639 -0.0828
 4479SOL    HW124899   4.323   1.110   3.628 -0.1964  0.9795 -1.0129
 4479SOL    HW224900   4.469   1.150   3.638  0.4742  1.9066  0.6740
 4480SOL     OW24901   2.482   0.228   4.022 -0.3213 -0.0004  0.1103
 4480SOL    HW124902   2.425   0.174   3.967  1.8313 -3.2968  1.1135
 4480SOL    HW224903   2.556   0.168   4.025  0.8715  1.5836  1.4668
 4481SOL     OW24904   1.544   2.182   6.903 -0.4188 -0.5885  0.0823
 4481SOL    HW124905   1.475   2.115   6.896 -0.3564 -0.5140 -1.1012
 4481SOL    HW224906   1.508   2.236   6.973 -1.7769  1.3447 -2.1140
 4482SOL     OW24907   1.381   1.637  17.250  0.2709  0.3756 -0.6355
 4482SOL    HW124908   1.414   1.548  17.266  0.0133  0.8223  2.3357
 4482SOL    HW224909   1.318   1.650  17.321  0.6146 -0.8201 -0.0952
 4483SOL     OW24910   0.807   1.701   3.889 -0.0702 -0.2732  0.2462
 4483SOL    HW124911   0.807   1.605   3.887 -0.0532 -0.2816  0.8294
 4483SOL    HW224912   0.733   1.729   3.835 -0.0038 -0.5712 -0.0031
 4484SOL     OW24913   2.170   0.047  12.331 -0.8378 -0.3141  0.5363
 4484SOL    HW124914   2.190   0.131  12.289  0.3791 -1.6190 -1.4435
 4484SOL    HW224915   2.236   0.002  12.279 -0.3016  0.5928  0.4244
 4485SOL     OW24916   1.760   1.325  16.785 -0.1806 -0.0559 -0.3084
 4485SOL    HW124917   1.810   1.313  16.705  0.8324 -1.0420  0.4732
 4485SOL    HW224918   1.754   1.242  16.833 -0.9294 -0.2434 -0.7219
 4486SOL     OW24919   4.243   4.433   7.537  0.2634 -0.8824 -0.0577
 4486SOL    HW124920   4.313   4.410   7.598 -1.0718 -1.1609  1.3828
 4486SOL    HW224921   4.167   4.401   7.585  0.1976 -0.4459  0.1265
 4487SOL     OW24922   0.103   4.010   1.589 -0.4211 -0.3761 -0.3632
 4487SOL    HW124923   0.069   4.065   1.660 -0.3339 -0.7783 -0.0118
 4487SOL    HW224924   0.197   4.020   1.602 -0.2250 -0.1692 -1.8745
 4488SOL     OW24925   0.712   0.361   9.681  0.4889 -0.2581 -0.1049
 4488SOL    HW124926   0.782   0.418   9.649  1.7262 -0.4093  2.3407
 4488SOL    HW224927   0.691   0.318   9.598  2.0423 -2.4579  0.6506
 4489SOL     OW24928   1.776   1.334   2.153 -0.2172 -0.5000 -0.1866
 4489SOL    HW124929   1.807   1.407   2.099  2.1797  0.4223  2.4224
 4489SOL    HW224930   1.682   1.355   2.149 -0.1908 -0.1699  0.8629
 4490SOL     OW24931   0.174   4.423   7.082  0.2147 -0.1328 -0.0375
 4490SOL    HW124932   0.269   4.430   7.087  0.2979 -1.3651  0.1277
 4490SOL    HW224933   0.160   4.333   7.050 -2.3695  0.1811  0.1730
 4491SOL     OW24934   3.044   3.573  13.489  0.1097 -0.1433 -0.5692
 4491SOL    HW124935   3.027   3.664  13.513  0.1976 -0.6199  1.2731
 4491SOL    HW224936   2.992   3.533  13.559 -1.3822 -1.1802 -2.2642
 4492SOL     OW24937   3.124   2.813   4.281 -0.4394 -0.1375  0.0008
 4492SOL    HW124938   3.153   2.860   4.359 -0.9349  1.2979 -0.6840
 4492SOL    HW224939   3.182   2.852   4.217 -1.7699  1.1340 -0.4265
 4493SOL     OW24940   3.186   4.178  11.450  0.3091 -0.1272  0.1347
 4493SOL    HW124941   3.151   4.264  11.477  2.6932  0.7595  0.4088
 4493SOL    HW224942   3.253   4.193  11.384  0.3361 -0.3615  0.1108
 4494SOL     OW24943   2.929   2.593   5.156  0.0283  0.4240 -0.1913
 4494SOL    HW124944   2.922   2.498   5.158  0.5523  0.4004  0.6440
 4494SOL    HW224945   2.864   2.616   5.089  1.7923  0.1035 -2.0073
 4495SOL     OW24946   3.183   2.650   5.036  0.0227 -0.0583  0.6990
 4495SOL    HW124947   3.095   2.613   5.023  0.6734 -0.9528 -1.1655
 4495SOL    HW224948   3.185   2.677   5.128  0.3697  1.7769  0.1601
 4496SOL     OW24949   0.090   3.719  14.111 -0.4570  0.0229 -0.0877
 4496SOL    HW124950   0.004   3.726  14.069 -0.6042 -0.8063  0.0741
 4496SOL    HW224951   0.057   3.746  14.197 -1.2621  0.2441 -0.4679
 4497SOL     OW24952   2.137   0.167   2.920 -0.3647 -0.4843  0.0443
 4497SOL    HW124953   2.130   0.123   3.005 -0.5461 -1.7747 -0.6412
 4497SOL    HW224954   2.141   0.086   2.869  0.4466 -0.9105  0.7907
 4498SOL     OW24955   0.536   1.990   8.242 -0.9606 -0.0523 -0.3450
 4498SOL    HW124956   0.622   1.949   8.254 -2.1913 -2.3060  0.9419
 4498SOL    HW224957   0.536   2.050   8.317  0.0359 -2.1922  1.3607
 4499SOL     OW24958   4.657   3.399   8.597 -0.1444 -0.0437  0.0269
 4499SOL    HW124959   4.690   3.475   8.644  1.4454 -0.8594  0.2352
 4499SOL    HW224960   4.581   3.430   8.549  1.2429 -0.2303 -2.2880
 4500SOL     OW24961   4.472   4.619  11.844 -0.0733  0.2382 -0.0885
 4500SOL    HW124962   4.463   4.655  11.756  1.8038 -2.0657 -1.2089
 4500SOL    HW224963   4.543   4.560  11.822 -1.5164 -1.4460 -0.2193
 4501SOL     OW24964   2.246   4.352   3.074 -1.0546  0.0815  0.2359
 4501SOL    HW124965   2.284   4.352   3.162 -0.8480  0.9779  0.1419
 4501SOL    HW224966   2.299   4.282   3.036 -1.5541  0.4235 -1.0798
 4502SOL     OW24967   2.422   0.323  14.897  0.2384  0.1330  0.7150
 4502SOL    HW124968   2.428   0.414  14.923  0.6881 -0.2059  1.8017
 4502SOL    HW224969   2.497   0.287  14.945 -0.3913  0.1907  1.7270
 4503SOL     OW24970   0.263   3.121   5.205  0.0413  0.6277 -0.1251
 4503SOL    HW124971   0.303   3.170   5.277  0.4012  2.5994 -1.6737
 4503SOL    HW224972   0.234   3.190   5.146 -1.8090 -1.1628 -1.3143
 4504SOL     OW24973   2.741   1.289   8.738  0.1681  0.6203  0.0955
 4504SOL    HW124974   2.654   1.315   8.768  0.4593  2.5052 -0.6987
 4504SOL    HW224975   2.794   1.351   8.788  0.4764  0.7596 -0.3938
 4505SOL     OW24976   1.444   1.666  15.964  0.2207  0.5552  0.0067
 4505SOL    HW124977   1.470   1.591  16.018  0.5690  2.7949  2.9345
 4505SOL    HW224978   1.443   1.627  15.877  1.1556 -0.0402  0.2723
 4506SOL     OW24979   2.045   4.691   1.833  0.2333 -0.0812 -0.1799
 4506SOL    HW124980   1.994   0.045   1.853  0.1385 -0.4803  1.1077
 4506SOL    HW224981   2.100   4.722   1.761 -1.0616  2.6458 -0.0233
 4507SOL     OW24982   2.333   4.648   8.612 -0.3933  0.2618  0.0357
 4507SOL    HW124983   2.268   4.699   8.659  0.1387 -0.4575  1.5565
 4507SOL    HW224984   2.353   4.580   8.677 -2.2107 -1.0889 -0.8273
 4508SOL     OW24985   0.004   0.783   4.555  0.7024 -0.5465  0.2657
 4508SOL    HW124986   0.045   0.869   4.569 -0.5089  0.4666 -2.4144
 4508SOL    HW224987   0.062   0.721   4.598  0.2575  0.4418  2.3103
 4509SOL     OW24988   3.075   3.659   3.540 -0.2796  0.1155 -0.0864
 4509SOL    HW124989   3.021   3.668   3.461 -1.0260 -1.2407  0.2693
 4509SOL    HW224990   3.072   3.564   3.545 -0.8700  0.0252 -2.3067
 4510SOL     OW24991   0.807   3.028   8.733 -0.1259 -0.8801 -0.1840
 4510SOL    HW124992   0.818   3.014   8.639  0.6059 -0.2039 -0.2034
 4510SOL    HW224993   0.890   2.996   8.769  0.1555 -1.4365 -1.3530
 4511SOL     OW24994   1.565   1.450   4.642  0.0901  0.5099  0.6988
 4511SOL    HW124995   1.558   1.382   4.576 -0.8821  0.3213  0.9933
 4511SOL    HW224996   1.573   1.530   4.590 -1.4107  1.6079  2.1641
 4512SOL     OW24997   0.689   4.710   8.591 -0.3128 -0.4098  0.2112
 4512SOL    HW124998   0.691   4.642   8.524  2.6279 -0.9447  0.8016
 4512SOL    HW224999   0.652   0.058   8.541 -1.7334 -0.4294  1.2188
 4513SOL     OW25000   0.020   1.096   3.314 -0.1188 -0.2319 -0.0178
 4513SOL    HW125001   4.681   1.126   3.380 -0.3059 -2.3177  0.7645
 4513SOL    HW225002   0.101   1.137   3.346 -1.9713  2.7417  0.8911
 4514SOL     OW25003   3.859   0.727  11.101  0.0370  0.7937 -0.1729
 4514SOL    HW125004   3.763   0.733  11.098  0.0201  0.3635 -0.6616
 4514SOL    HW225005   3.884   0.813  11.135 -1.1292  0.0000  2.6529
 4515SOL     OW25006   0.481   4.064   4.604 -0.7116 -0.3308  0.0142
 4515SOL    HW125007   0.415   4.017   4.553  0.9023 -2.1692 -0.3666
 4515SOL    HW225008   0.507   4.139   4.550 -0.9513  0.9406  1.6466
 4516SOL     OW25009   0.616   0.776  10.449  0.4046  0.4048 -0.7759
 4516SOL    HW125010   0.702   0.801  10.481  0.9035  0.4076 -2.1281
 4516SOL    HW225011   0.558   0.811  10.517  1.7264  0.5830  0.2477
 4517SOL     OW25012   2.116   4.577   6.032 -0.1386  0.0900  0.0835
 4517SOL    HW125013   2.143   4.603   5.944 -0.4368 -3.8521 -1.1777
 4517SOL    HW225014   2.023   4.561   6.011  0.2226 -2.2064  0.3253
 4518SOL     OW25015   0.920   3.159   2.967 -0.1811 -0.0203 -0.1833
 4518SOL    HW125016   0.925   3.115   2.882 -2.1331  0.2585 -0.4326
 4518SOL    HW225017   0.921   3.084   3.026  0.4420  0.0472 -0.1022
 4519SOL     OW25018   0.780   4.469   3.917  0.8007 -0.0424 -0.1289
 4519SOL    HW125019   0.849   4.496   3.858  0.7841 -0.0281 -0.1417
 4519SOL    HW225020   0.708   4.455   3.856  1.5767 -2.1767 -0.5406
 4520SOL     OW25021   1.866   2.049   8.633 -0.5688 -0.6407 -0.3629
 4520SOL    HW125022   1.833   1.959   8.628 -0.4802 -0.7759  1.4938
 4520SOL    HW225023   1.919   2.053   8.553 -2.0544  2.0145 -1.2288
 4521SOL     OW25024   3.465   1.109  10.462  0.1913  0.5687 -0.6626
 4521SOL    HW125025   3.542   1.166  10.469  0.3148  0.2417  0.6567
 4521SOL    HW225026   3.432   1.140  10.378  0.1160 -0.8510 -1.1577
 4522SOL     OW25027   3.664   1.441  16.931  0.7088 -0.1874  0.7475
 4522SOL    HW125028   3.600   1.444  16.859  1.5234 -1.9299 -0.0331
 4522SOL    HW225029   3.743   1.476  16.890 -0.5362  3.1177  1.1761
 4523SOL     OW25030   4.357   0.404   5.433 -0.2285  0.4275  0.2578
 4523SOL    HW125031   4.365   0.312   5.407  0.8792  0.7490 -0.5600
 4523SOL    HW225032   4.449   0.414   5.459 -0.6811  1.5391  1.4174
 4524SOL     OW25033   2.794   1.193  10.195 -0.4719 -0.0332  0.0718
 4524SOL    HW125034   2.735   1.211  10.121 -0.0148  3.0336  0.4655
 4524SOL    HW225035   2.832   1.111  10.164  3.3586  2.9347 -3.0774
 4525SOL     OW25036   0.029   0.878   8.142  0.5447  0.7223 -0.2697
 4525SOL    HW125037   0.099   0.837   8.090  0.1815 -1.6739  1.1285
 4525SOL    HW225038   0.070   0.964   8.154 -1.1721  1.0650  2.9441
 4526SOL     OW25039   4.246   2.972  15.983 -0.0935  0.2544 -0.1640
 4526SOL    HW125040   4.243   2.932  16.070  1.1554 -1.7472 -1.0523
 4526SOL    HW225041   4.340   2.990  15.985 -0.1463  0.3093  2.7211
 4527SOL     OW25042   3.783   3.606   7.929 -0.3224  0.3755 -0.3837
 4527SOL    HW125043   3.745   3.576   8.012 -1.0997  0.9058 -0.5498
 4527SOL    HW225044   3.819   3.527   7.889 -1.0650 -0.3052  0.2724
 4528SOL     OW25045   1.530   1.459  12.439 -0.1664  0.2595 -0.5504
 4528SOL    HW125046   1.559   1.372  12.412  0.8289  0.9947 -1.8710
 4528SOL    HW225047   1.441   1.435  12.464 -0.4481 -0.2310 -1.9663
 4529SOL     OW25048   4.589   2.649   0.457  0.0396 -0.0716 -0.3755
 4529SOL    HW125049   4.528   2.724   0.457 -3.1055 -2.6503  0.6598
 4529SOL    HW225050   4.524   2.583   0.480 -0.8109  1.0941  0.6166
 4530SOL     OW25051   3.653   4.098   8.335  0.1167  0.0256  0.0744
 4530SOL    HW125052   3.609   4.014   8.350 -2.0805  1.1529 -0.1029
 4530SOL    HW225053   3.739   4.083   8.294 -0.5514 -0.6942 -1.0696
 4531SOL     OW25054   4.260   1.858   1.145  0.2638 -0.4979  0.1013
 4531SOL    HW125055   4.183   1.801   1.154 -0.5175  0.5144 -0.1082
 4531SOL    HW225056   4.220   1.945   1.139 -0.6176 -1.1156 -3.1340
 4532SOL     OW25057   2.882   4.039   9.479 -0.4853 -0.1998  0.0631
 4532SOL    HW125058   2.866   4.040   9.384 -0.5902 -0.8651  0.0714
 4532SOL    HW225059   2.867   4.132   9.493  0.7318  0.2016 -1.2630
 4533SOL     OW25060   1.156   1.180  12.513 -0.2847  0.2555  0.1516
 4533SOL    HW125061   1.082   1.154  12.459 -0.7397 -1.7227  1.7181
 4533SOL    HW225062   1.176   1.095  12.552 -1.3367  0.5581  1.3479
 4534SOL     OW25063   1.601   0.329  16.496  0.7869 -0.1613  0.4649
 4534SOL    HW125064   1.588   0.305  16.588 -1.1046 -0.2941  0.1483
 4534SOL    HW225065   1.575   0.248  16.453 -1.9769 -0.3531  2.4562
 4535SOL     OW25066   3.121   1.537   0.301  0.4753  0.3137 -0.3692
 4535SOL    HW125067   3.053   1.490   0.252 -0.7691  0.6738  1.0303
 4535SOL    HW225068   3.202   1.515   0.255  0.8013 -0.8087  0.7148
 4536SOL     OW25069   2.550   2.089   6.525  0.1425  0.5285  0.3487
 4536SOL    HW125070   2.491   2.030   6.570  0.9155  0.7316  1.6435
 4536SOL    HW225071   2.606   2.019   6.492  0.7675  0.7765  0.8680
 4537SOL     OW25072   3.373   4.585   1.883  0.2986 -0.3000 -0.8559
 4537SOL    HW125073   3.288   4.625   1.864  0.1847  0.2713  0.8345
 4537SOL    HW225074   3.339   4.496   1.872 -2.3299  0.6084 -0.1035
 4538SOL     OW25075   3.702   2.333   4.869  0.1537  0.1648  0.8890
 4538SOL    HW125076   3.666   2.404   4.816  1.2085  0.0647  0.0574
 4538SOL    HW225077   3.679   2.253   4.821  0.8290 -0.4542  1.5910
 4539SOL     OW25078   1.604   0.347  12.622  0.0949 -0.3312 -0.1172
 4539SOL    HW125079   1.695   0.375  12.626 -0.7894  2.4377  0.3235
 4539SOL    HW225080   1.578   0.415  12.560  3.3391  0.5917 -0.4933
 4540SOL     OW25081   3.750   0.413   6.431 -0.5258  0.2889 -0.6530
 4540SOL    HW125082   3.728   0.439   6.521 -1.0449  0.0477 -0.7117
 4540SOL    HW225083   3.845   0.401   6.440 -0.6090 -1.1746 -1.8272
 4541SOL     OW25084   2.808   3.522   5.376  0.0168 -0.3108  0.1916
 4541SOL    HW125085   2.724   3.489   5.342 -1.0882  0.5031  2.1330
 4541SOL    HW225086   2.860   3.442   5.376 -2.4772 -1.9193  0.0540
 4542SOL     OW25087   1.401   1.615   2.037  0.3728  0.4702  0.2579
 4542SOL    HW125088   1.342   1.680   1.999 -1.8805 -1.8285 -0.1524
 4542SOL    HW225089   1.475   1.630   1.979  0.9585  2.1949  1.4361
 4543SOL     OW25090   0.755   0.029   3.389  0.2884 -0.8161 -0.3929
 4543SOL    HW125091   0.701   4.675   3.375 -0.1783 -0.4358 -0.7460
 4543SOL    HW225092   0.693   0.101   3.373  0.8422 -0.5605 -1.3518
 4544SOL     OW25093   3.719   0.652   7.303 -0.9143 -0.2785 -0.4198
 4544SOL    HW125094   3.789   0.675   7.242 -1.0490 -0.7934 -0.7741
 4544SOL    HW225095   3.713   0.733   7.353 -2.0723 -1.6410  1.6504
 4545SOL     OW25096   4.421   0.130   5.679  0.0658  0.3806  0.0155
 4545SOL    HW125097   4.341   0.132   5.627 -0.3896 -2.6090  0.6321
 4545SOL    HW225098   4.408   0.049   5.728  2.3183 -1.3236 -2.2242
 4546SOL     OW25099   1.220   1.053   5.936  0.2800 -0.6950  0.5205
 4546SOL    HW125100   1.147   1.107   5.906 -1.3581 -2.9627  0.3893
 4546SOL    HW225101   1.191   1.040   6.027  1.2504 -1.5302  0.7183
 4547SOL     OW25102   2.091   4.722  14.139 -0.2369 -0.3411 -0.1751
 4547SOL    HW125103   2.086   4.666  14.216  0.8684  0.0281  0.1648
 4547SOL    HW225104   2.024   0.064  14.156  1.3615  1.0707  0.6268
 4548SOL     OW25105   2.585   3.915   7.901  0.4492  0.1610 -0.4772
 4548SOL    HW125106   2.556   3.828   7.875 -1.6324  1.0238 -1.0387
 4548SOL    HW225107   2.680   3.903   7.903  0.2478 -1.4309 -0.7862
 4549SOL     OW25108   2.759   3.248   7.841  0.0909  0.0986  0.4235
 4549SOL    HW125109   2.769   3.180   7.775  1.7631  0.5842  0.1797
 4549SOL    HW225110   2.690   3.222   7.903 -0.6587 -0.6177 -0.7229
 4550SOL     OW25111   2.965   3.276  12.380  0.1397  0.3067 -0.1561
 4550SOL    HW125112   2.871   3.261  12.392  0.4134 -1.5961 -0.3925
 4550SOL    HW225113   2.975   3.328  12.460  1.8420  1.1672 -0.9483
 4551SOL     OW25114   2.347   1.728   4.544 -0.1346 -0.2201  0.4597
 4551SOL    HW125115   2.423   1.680   4.510 -0.1242  0.1399 -0.0237
 4551SOL    HW225116   2.366   1.819   4.522  2.9129 -1.6817 -2.9911
 4552SOL     OW25117   3.472   2.614   7.491 -0.2396  0.2147  0.2558
 4552SOL    HW125118   3.460   2.672   7.566 -0.7932 -0.0326  0.3596
 4552SOL    HW225119   3.508   2.531   7.524  1.1196  0.1900 -1.2917
 4553SOL     OW25120   2.220   0.311   8.985 -0.2787  0.0248 -0.2608
 4553SOL    HW125121   2.195   0.220   8.971 -2.9071  0.9938 -1.7734
 4553SOL    HW225122   2.184   0.339   9.069  0.6078  0.4618 -0.0231
 4554SOL     OW25123   0.411   1.905   1.822 -0.0855  0.4275  0.5000
 4554SOL    HW125124   0.380   1.994   1.802  2.4013  1.7433  2.5725
 4554SOL    HW225125   0.505   1.903   1.808 -0.6059 -0.7315 -2.8470
 4555SOL     OW25126   1.180   0.812   6.428  0.2438 -0.1149 -0.0071
 4555SOL    HW125127   1.267   0.784   6.456  0.4383  0.3238 -0.1802
 4555SOL    HW225128   1.181   0.905   6.450  1.3352 -0.0983 -0.1370
 4556SOL     OW25129   0.723   1.964   8.868  0.1952 -0.2416  0.0382
 4556SOL    HW125130   0.705   1.990   8.778  0.0963 -0.2357  0.0596
 4556SOL    HW225131   0.814   1.990   8.881 -0.0697  1.6288 -1.7683
 4557SOL     OW25132   0.908   2.065   2.156 -0.1357  0.6426 -0.0222
 4557SOL    HW125133   0.957   2.103   2.083  2.0155 -1.3064  0.3849
 4557SOL    HW225134   0.858   2.139   2.189 -0.0108  0.2209  1.1255
 4558SOL     OW25135   3.421   4.623   3.525 -0.0916 -0.2385  0.3538
 4558SOL    HW125136   3.449   4.604   3.615  0.8063  2.1998  0.5827
 4558SOL    HW225137   3.414   4.717   3.537  0.1671 -0.1062 -0.5941
 4559SOL     OW25138   4.357   4.015  15.528 -0.6240  0.0299  0.2403
 4559SOL    HW125139   4.298   4.075  15.483 -1.2625 -0.3727  0.5396
 4559SOL    HW225140   4.301   3.981  15.597 -1.5357  2.5905  0.7590
 4560SOL     OW25141   0.996   2.410   4.361  0.2515  0.3036  0.9103
 4560SOL    HW125142   1.013   2.331   4.412 -1.1582 -0.7637 -0.2774
 4560SOL    HW225143   1.073   2.404   4.306  1.3647  1.3954  2.3424
 4561SOL     OW25144   1.813   3.599  13.179 -0.4011  0.4838  0.0008
 4561SOL    HW125145   1.874   3.657  13.135  2.0212 -0.9751  1.4579
 4561SOL    HW225146   1.839   3.599  13.271  0.0046 -2.0690 -0.1221
 4562SOL     OW25147   0.222   1.971   0.081  0.3004 -0.4941 -0.0249
 4562SOL    HW125148   0.282   1.939   0.014  0.2967  0.5304 -0.5128
 4562SOL    HW225149   0.185   1.894   0.124 -1.3875  0.0661 -0.4833
 4563SOL     OW25150   2.016   2.494   5.977 -0.3119  0.3436 -0.2190
 4563SOL    HW125151   2.033   2.562   6.042  0.3108  1.0491 -1.1126
 4563SOL    HW225152   1.942   2.449   6.018 -1.1440  0.2191 -1.8307
 4564SOL     OW25153   0.249   3.942   7.167  0.1559 -0.6707  0.2477
 4564SOL    HW125154   0.230   4.006   7.098  1.7034  0.7708  1.1559
 4564SOL    HW225155   0.304   4.004   7.215 -0.4862  0.8825 -1.0270
 4565SOL     OW25156   1.482   2.994   3.589 -0.1735  0.4703  0.8085
 4565SOL    HW125157   1.412   3.018   3.650 -0.3262 -0.0819  0.8562
 4565SOL    HW225158   1.455   3.046   3.513  0.5267 -0.5131 -0.1227
 4566SOL     OW25159   2.770   2.227  11.448  0.2978 -0.0821 -0.6228
 4566SOL    HW125160   2.854   2.245  11.489 -0.5451 -0.0871  1.1146
 4566SOL    HW225161   2.753   2.312  11.408 -0.3516 -0.6193 -1.4867
 4567SOL     OW25162   1.967   1.386   1.791 -0.6614  0.6040 -0.2294
 4567SOL    HW125163   2.047   1.373   1.842 -1.2000 -1.6329  0.0442
 4567SOL    HW225164   1.912   1.439   1.849 -2.3075 -0.9077 -0.4122
 4568SOL     OW25165   4.587   3.509   7.145 -0.8439  0.1373  0.0965
 4568SOL    HW125166   4.591   3.586   7.202  1.7498  1.1303 -1.4049
 4568SOL    HW225167   4.619   3.456   7.219 -1.1476 -2.0702 -1.3609
 4569SOL     OW25168   4.546   2.279   3.671  0.1233  0.2618  0.1339
 4569SOL    HW125169   4.577   2.332   3.597 -0.4321 -1.7437 -1.5395
 4569SOL    HW225170   4.530   2.191   3.636 -0.6399  1.5322 -2.7477
 4570SOL     OW25171   3.292   0.365   1.301  0.1761  0.3046  0.3511
 4570SOL    HW125172   3.359   0.427   1.333  3.2827 -2.5408 -0.6647
 4570SOL    HW225173   3.216   0.421   1.283  1.3030  1.4185 -0.9926
 4571SOL     OW25174   3.899   4.022   2.334 -0.2948 -0.3785 -0.3033
 4571SOL    HW125175   3.942   4.007   2.418 -0.4465  1.1748  0.0530
 4571SOL    HW225176   3.978   4.055   2.292  1.0595 -1.4794  1.3835
 4572SOL     OW25177   1.294   3.395  11.970 -0.1394 -0.4887 -0.2934
 4572SOL    HW125178   1.257   3.460  11.911 -0.7990 -2.0520 -1.6031
 4572SOL    HW225179   1.255   3.420  12.054  0.5177  1.8436 -0.7063
 4573SOL     OW25180   1.028   3.830   4.552  0.1800 -0.3295 -0.2654
 4573SOL    HW125181   1.062   3.818   4.464 -0.3512  1.5603 -0.7441
 4573SOL    HW225182   0.933   3.826   4.555  0.0582  2.6244  0.4629
 4574SOL     OW25183   2.666   2.628   4.773 -0.3036  0.4171  0.3090
 4574SOL    HW125184   2.599   2.685   4.736 -0.8105 -0.0079  0.5819
 4574SOL    HW225185   2.666   2.654   4.865 -1.9438 -2.1183  1.0168
 4575SOL     OW25186   2.902   3.547  16.102  0.0183  0.0774 -0.1335
 4575SOL    HW125187   2.988   3.549  16.144 -0.7400 -0.9522  1.5126
 4575SOL    HW225188   2.862   3.471  16.145 -1.2654  0.1260 -1.2448
 4576SOL     OW25189   3.888   2.841   5.716  0.4328  0.7552  0.1005
 4576SOL    HW125190   3.851   2.927   5.736 -1.4337  0.1203 -0.6883
 4576SOL    HW225191   3.859   2.786   5.789 -0.9891  1.5559  0.1192
 4577SOL     OW25192   3.631   1.987  16.258  0.0560  0.2154 -0.2007
 4577SOL    HW125193   3.623   1.928  16.183  1.6883 -1.1839  0.7162
 4577SOL    HW225194   3.669   2.059  16.208  0.4365 -1.4601 -2.3088
 4578SOL     OW25195   1.069   1.206   0.794  0.0776  0.1110 -0.1634
 4578SOL    HW125196   1.002   1.206   0.725 -1.8145 -0.3463  1.6920
 4578SOL    HW225197   1.088   1.112   0.799 -0.9633 -0.0816  0.1199
 4579SOL     OW25198   0.268   1.764   3.638 -0.3080 -0.1268  0.8078
 4579SOL    HW125199   0.325   1.701   3.682 -1.1559 -1.0277  0.6088
 4579SOL    HW225200   0.300   1.841   3.685 -1.0192  1.7751 -1.8017
 4580SOL     OW25201   3.122   4.232  15.472 -0.0421  0.5155  0.3145
 4580SOL    HW125202   3.132   4.264  15.382  2.5310  1.1688  0.8252
 4580SOL    HW225203   3.191   4.284  15.514  1.0363  0.3413 -1.2392
 4581SOL     OW25204   1.261   4.283   4.626 -0.1242 -0.4383  0.2064
 4581SOL    HW125205   1.256   4.199   4.581 -1.8743 -0.6285  0.7541
 4581SOL    HW225206   1.236   4.251   4.713  0.2564 -0.8603  0.1596
 4582SOL     OW25207   1.368   0.784   1.169  0.8131 -0.2513 -0.4590
 4582SOL    HW125208   1.411   0.760   1.252 -0.3620  1.2359  0.5877
 4582SOL    HW225209   1.278   0.752   1.180  0.8961 -0.9607 -1.9956
 4583SOL     OW25210   3.090   3.929   9.005  0.5008  0.3686  0.0447
 4583SOL    HW125211   3.137   3.950   8.924  0.1123 -0.4492 -0.3967
 4583SOL    HW225212   3.000   3.905   8.982  0.3620 -1.5551  2.5030
 4584SOL     OW25213   2.884   3.653   3.771 -0.5416 -0.1589  0.4348
 4584SOL    HW125214   2.908   3.694   3.687 -0.1608 -0.3740  0.4397
 4584SOL    HW225215   2.793   3.630   3.749 -0.3830  0.6942 -1.1430
 4585SOL     OW25216   3.793   4.117   1.126 -0.4317  0.0848 -0.3977
 4585SOL    HW125217   3.777   4.166   1.046 -1.5400  0.2892 -0.0474
 4585SOL    HW225218   3.708   4.076   1.142 -0.0926 -0.1908  0.7306
 4586SOL     OW25219   2.511   0.503   3.947 -0.2612  0.7296 -0.0928
 4586SOL    HW125220   2.485   0.522   4.037 -2.2603  1.6097 -0.8531
 4586SOL    HW225221   2.498   0.410   3.966  0.1118  1.1244  2.0350
 4587SOL     OW25222   1.209   0.184   0.428 -0.1730 -0.0252  0.6362
 4587SOL    HW125223   1.298   0.174   0.392 -0.6711 -0.4155 -0.4728
 4587SOL    HW225224   1.151   0.153   0.359 -2.2833  0.0561  2.3779
 4588SOL     OW25225   2.841   2.945   2.713 -0.1017 -0.0521  0.0573
 4588SOL    HW125226   2.791   3.001   2.773  0.1628 -0.3118  0.5165
 4588SOL    HW225227   2.850   3.007   2.641 -1.2028  1.2552  1.0252
 4589SOL     OW25228   1.974   2.129  10.693 -0.0049 -0.5304 -0.0231
 4589SOL    HW125229   1.882   2.154  10.704 -0.2324 -0.9576 -1.0632
 4589SOL    HW225230   2.011   2.189  10.759  0.0601 -0.2385 -0.3238
 4590SOL     OW25231   1.964   2.089   2.848 -0.4718  0.0564 -0.6470
 4590SOL    HW125232   1.921   2.154   2.903  1.6437  1.2820 -0.4820
 4590SOL    HW225233   1.941   2.012   2.901 -0.9135  0.3734 -0.3820
 4591SOL     OW25234   1.305   4.579  17.467 -0.2087  0.0716  1.0637
 4591SOL    HW125235   1.319   4.494  17.426  2.2963  0.8443  0.2928
 4591SOL    HW225236   1.211   4.595  17.466 -0.3050 -0.4295  2.0204
 4592SOL     OW25237   3.131   2.584  16.550 -0.1351 -0.2975  0.2229
 4592SOL    HW125238   3.062   2.582  16.616 -1.8864 -1.3028 -1.6247
 4592SOL    HW225239   3.135   2.678  16.532  0.9797 -0.1088  1.4769
 4593SOL     OW25240   2.310   0.837   7.559 -0.4703 -0.4540 -0.4758
 4593SOL    HW125241   2.363   0.899   7.607 -0.5825  0.6230 -1.7386
 4593SOL    HW225242   2.285   0.771   7.623  1.3461 -0.1866  0.5057
 4594SOL     OW25243   3.804   0.102  16.157 -0.2261  0.4849  0.6599
 4594SOL    HW125244   3.814   0.158  16.234  0.2368  1.7989 -0.3467
 4594SOL    HW225245   3.853   0.167  16.106  2.6860 -0.4943  2.2024
 4595SOL     OW25246   2.220   4.175   4.504 -0.0458 -0.0440  0.0171
 4595SOL    HW125247   2.270   4.109   4.457  0.1912 -1.1329  1.7930
 4595SOL    HW225248   2.286   4.243   4.489  0.3809 -0.6396 -0.8106
 4596SOL     OW25249   1.611   1.019   5.686  0.1114  0.5949 -0.1250
 4596SOL    HW125250   1.566   0.936   5.701  1.7483 -0.8156 -2.9796
 4596SOL    HW225251   1.700   0.984   5.684 -0.0972  0.1396 -1.3880
 4597SOL     OW25252   3.560   3.303   2.805 -0.1758  0.5637  0.1689
 4597SOL    HW125253   3.523   3.379   2.849  0.2740 -0.9000  3.0951
 4597SOL    HW225254   3.651   3.330   2.789 -0.2991  1.1298  0.4049
 4598SOL     OW25255   1.172   1.614   2.236  0.8267  0.1051 -0.3078
 4598SOL    HW125256   1.264   1.611   2.208  0.7921  0.1980 -0.4318
 4598SOL    HW225257   1.149   1.704   2.213  1.0695  0.0407 -0.7926
 4599SOL     OW25258   2.209   2.058   2.026 -0.5053  0.5564  0.1335
 4599SOL    HW125259   2.190   2.110   1.948 -0.9679 -0.3696 -0.3833
 4599SOL    HW225260   2.193   2.128   2.089 -0.9738  0.5693  0.0027
 4600SOL     OW25261   2.022   2.476   8.225 -0.3745  0.1962  0.3735
 4600SOL    HW125262   1.981   2.521   8.152 -0.2033  0.7428  0.6150
 4600SOL    HW225263   2.022   2.542   8.295 -0.6184  0.4503  0.1349
 4601SOL     OW25264   2.224   0.628   9.222 -0.0277 -0.1253  0.4177
 4601SOL    HW125265   2.173   0.549   9.204 -0.0219  0.1695 -0.8726
 4601SOL    HW225266   2.268   0.601   9.302 -0.4671  0.0987  0.7340
 4602SOL     OW25267   1.239   3.166   7.680 -0.2313 -0.4189 -0.4387
 4602SOL    HW125268   1.263   3.223   7.607 -0.5939 -0.0845 -0.2998
 4602SOL    HW225269   1.145   3.173   7.697 -0.2146 -1.0161 -0.0915
 4603SOL     OW25270   4.473   3.344   5.724  0.0816  0.3379 -0.3976
 4603SOL    HW125271   4.502   3.411   5.786 -0.7702  1.2960 -1.0540
 4603SOL    HW225272   4.379   3.345   5.738  0.1183 -0.4888 -0.0872
 4604SOL     OW25273   2.503   1.537  14.958  0.1454  0.2596 -0.2123
 4604SOL    HW125274   2.481   1.576  15.042 -1.0889 -0.8492 -0.0219
 4604SOL    HW225275   2.459   1.600  14.901  1.1524  2.6866  1.7014
 4605SOL     OW25276   3.336   4.130  16.020 -0.1667 -0.3665  0.1531
 4605SOL    HW125277   3.247   4.099  16.004  1.2092 -4.0951 -0.3938
 4605SOL    HW225278   3.316   4.222  16.035 -2.7058 -0.8489 -0.2584
 4606SOL     OW25279   0.514   0.535   8.013 -0.6668 -0.4910  0.0034
 4606SOL    HW125280   0.474   0.495   8.090 -2.1205 -0.7876 -0.9101
 4606SOL    HW225281   0.436   0.543   7.958  0.1950 -2.2677 -1.4906
 4607SOL     OW25282   0.249   4.614   2.893 -0.3390 -0.3157  0.7397
 4607SOL    HW125283   0.297   4.537   2.861  1.3708  1.5620 -1.1640
 4607SOL    HW225284   0.275   4.685   2.835 -2.4652  1.4077  1.8783
 4608SOL     OW25285   2.370   0.586  15.673  0.0958  0.0431  0.2115
 4608SOL    HW125286   2.422   0.661  15.701 -0.1310 -0.2839  1.5249
 4608SOL    HW225287   2.399   0.525  15.741  1.3477 -1.7028 -1.8773
 4609SOL     OW25288   3.973   2.229   9.985  0.1082  0.0968 -0.0566
 4609SOL    HW125289   3.952   2.319  10.008  0.7365 -0.1144  1.3640
 4609SOL    HW225290   4.049   2.214  10.042 -0.8337 -1.0686  0.8837
 4610SOL     OW25291   1.484   0.318   1.823 -0.2516 -0.3987 -0.0513
 4610SOL    HW125292   1.465   0.262   1.898  0.6158  1.7055  1.7520
 4610SOL    HW225293   1.484   0.251   1.755  1.2836 -1.7938  1.3242
 4611SOL     OW25294   1.801   1.127   7.678  0.5573  0.0274 -0.0532
 4611SOL    HW125295   1.843   1.207   7.709  1.1274 -0.3976  0.2709
 4611SOL    HW225296   1.847   1.112   7.595 -1.1561  2.1270 -1.3840
 4612SOL     OW25297   0.375   4.391   4.316  0.4435 -0.0834 -0.4894
 4612SOL    HW125298   0.378   4.486   4.330 -0.8207 -0.1783  0.4291
 4612SOL    HW225299   0.379   4.362   4.407 -0.8098  0.0315 -0.3934
 4613SOL     OW25300   0.833   4.451  16.980 -0.3450 -0.1472  0.2199
 4613SOL    HW125301   0.894   4.506  16.931  1.8458 -3.8639 -1.1583
 4613SOL    HW225302   0.854   4.491  17.065 -0.2253 -0.6571  0.4291
 4614SOL     OW25303   3.725   0.626   8.938  0.9550 -0.1620  0.6237
 4614SOL    HW125304   3.806   0.603   8.892 -0.8430 -1.7701 -1.7015
 4614SOL    HW225305   3.759   0.652   9.024 -0.9469  3.0949  0.3759
 4615SOL     OW25306   0.483   2.184   3.900 -0.0280 -0.2548  0.1269
 4615SOL    HW125307   0.394   2.218   3.900 -0.4812 -1.4612  0.7461
 4615SOL    HW225308   0.525   2.269   3.918 -0.1231 -0.0968 -0.3879
 4616SOL     OW25309   0.472   1.409   2.068  0.3819  0.0512  0.0779
 4616SOL    HW125310   0.534   1.482   2.076  1.2928 -0.6797 -0.3628
 4616SOL    HW225311   0.517   1.347   2.011 -0.4006  1.0423 -1.5963
 4617SOL     OW25312   0.189   3.599   9.876  0.0774  0.3037  0.3033
 4617SOL    HW125313   0.142   3.592   9.793  0.9821 -0.7982 -0.1189
 4617SOL    HW225314   0.131   3.557   9.939  0.6588  0.7072  1.1088
 4618SOL     OW25315   0.114   0.038  14.634 -0.2074  0.1035 -0.4096
 4618SOL    HW125316   0.126   4.720  14.718  1.3245 -1.8182 -1.5904
 4618SOL    HW225317   0.088   0.129  14.646 -0.0378  0.2269 -0.9697
 4619SOL     OW25318   0.864   3.064   4.852 -0.5117 -1.1936 -0.5963
 4619SOL    HW125319   0.816   3.033   4.929 -2.4723  2.5926 -0.3165
 4619SOL    HW225320   0.814   3.023   4.782  0.4260 -2.8362 -0.3213
 4620SOL     OW25321   1.594   1.517  11.919  0.2054 -0.1727 -0.1627
 4620SOL    HW125322   1.583   1.457  11.993 -1.3914  0.0495 -0.2383
 4620SOL    HW225323   1.656   1.467  11.865  2.1432  1.2056  0.7675
 4621SOL     OW25324   4.163   2.156  17.569 -0.6178  0.0728  0.1779
 4621SOL    HW125325   4.124   2.185  17.652  0.3189 -0.3567  0.7676
 4621SOL    HW225326   4.210   2.081  17.604 -1.4433  0.1131  1.3633
 4622SOL     OW25327   1.962   3.736   3.343  0.5431 -0.0244 -0.1337
 4622SOL    HW125328   1.926   3.649   3.359  0.7346 -0.5135 -2.2694
 4622SOL    HW225329   1.895   3.765   3.280  1.4774 -0.5658 -1.3812
 4623SOL     OW25330   0.074   0.627  13.212  0.1155  0.1959  0.2821
 4623SOL    HW125331   0.121   0.681  13.148  2.5478 -0.9186  1.0985
 4623SOL    HW225332   0.128   0.643  13.289 -0.7475 -0.8546  1.0909
 4624SOL     OW25333   3.991   0.108   8.751  0.0358  0.3908  0.0662
 4624SOL    HW125334   3.968   0.081   8.839 -1.3938  1.1815 -0.0536
 4624SOL    HW225335   3.970   0.027   8.704 -1.5935  0.8205  0.0605
 4625SOL     OW25336   2.126   2.926  15.714  0.3039 -0.7927  0.1353
 4625SOL    HW125337   2.132   3.018  15.737 -0.8703 -0.3806 -1.1491
 4625SOL    HW225338   2.072   2.891  15.785 -0.3478 -1.8196 -0.8560
 4626SOL     OW25339   3.395   3.298   8.299  0.3849 -0.2947  0.4331
 4626SOL    HW125340   3.395   3.387   8.335 -1.6300 -0.0786 -0.0685
 4626SOL    HW225341   3.393   3.245   8.379 -3.1823 -0.3734  0.2891
 4627SOL     OW25342   3.842   4.345   9.519 -0.1307  0.5413 -0.2720
 4627SOL    HW125343   3.847   4.413   9.452  0.1534 -1.2824 -2.0980
 4627SOL    HW225344   3.834   4.399   9.598  0.0786 -0.9552  0.7799
 4628SOL     OW25345   0.718   1.083   6.497 -0.4639 -0.4737  0.2232
 4628SOL    HW125346   0.648   1.133   6.539 -1.6555 -1.5130 -0.5438
 4628SOL    HW225347   0.719   1.006   6.554 -2.7652  0.1026  1.0393
 4629SOL     OW25348   3.158   1.426   1.212  0.2196 -0.6571 -0.3207
 4629SOL    HW125349   3.073   1.412   1.253 -0.7509  0.3692 -1.9428
 4629SOL    HW225350   3.171   1.331   1.206  1.3462 -0.5680  0.6688
 4630SOL     OW25351   4.205   0.521   4.251  0.6838  0.2712  0.0048
 4630SOL    HW125352   4.182   0.462   4.323 -1.8441  1.6383  0.3254
 4630SOL    HW225353   4.298   0.505   4.239 -0.0080 -2.8403 -1.2455
 4631SOL     OW25354   4.578   0.084  15.020 -0.0762 -0.3405 -0.2428
 4631SOL    HW125355   4.500   0.092  14.965  0.6222 -0.6858 -1.2903
 4631SOL    HW225356   4.553   0.035  15.099  1.6366 -1.0918 -0.1617
 4632SOL     OW25357   4.208   2.120   3.687  0.0022  0.2111  0.1039
 4632SOL    HW125358   4.219   2.192   3.749 -1.5762  0.2124  0.3686
 4632SOL    HW225359   4.128   2.079   3.721 -0.8107 -0.4698 -2.6657
 4633SOL     OW25360   1.509   1.332   2.132  0.5647  0.5086  0.1258
 4633SOL    HW125361   1.442   1.376   2.080  0.4403  1.9442  1.4992
 4633SOL    HW225362   1.493   1.245   2.095  1.2428  1.2348 -1.9098
 4634SOL     OW25363   1.762   2.006   2.118  0.1833  0.0179 -0.3820
 4634SOL    HW125364   1.828   1.968   2.059 -0.9444 -0.9497 -1.0037
 4634SOL    HW225365   1.768   2.097   2.089  0.2181  0.6707  1.7086
 4635SOL     OW25366   1.037   2.615   7.053  0.2699  0.5600 -0.0156
 4635SOL    HW125367   1.091   2.570   7.118  1.7001  1.1840 -0.7725
 4635SOL    HW225368   1.026   2.550   6.983 -3.8343  1.4220 -0.1759
 4636SOL     OW25369   3.695   1.238   7.445 -0.3480  0.3380 -0.4213
 4636SOL    HW125370   3.753   1.172   7.484 -0.2591  1.7414  1.7988
 4636SOL    HW225371   3.762   1.303   7.423 -0.1478  0.9049  1.8563
 4637SOL     OW25372   3.544   4.182   2.088 -0.2892 -1.1012 -0.5940
 4637SOL    HW125373   3.588   4.222   2.012 -0.0152  1.7340  1.0632
 4637SOL    HW225374   3.472   4.245   2.091  0.0104 -0.8206  0.8220
 4638SOL     OW25375   0.027   1.121   5.791  0.4819 -0.2228 -0.4545
 4638SOL    HW125376   0.088   1.133   5.718  0.2402 -1.9804 -0.9398
 4638SOL    HW225377   0.075   1.082   5.864 -1.6150  0.7808  1.4472
 4639SOL     OW25378   3.196   1.147   2.686 -0.3285 -0.6606  0.0763
 4639SOL    HW125379   3.102   1.161   2.697 -0.0838  1.8666 -1.1672
 4639SOL    HW225380   3.206   1.201   2.608  2.6978 -2.0094 -0.4694
 4640SOL     OW25381   0.079   4.448   9.335 -0.2980 -0.0359 -0.4601
 4640SOL    HW125382   0.091   4.357   9.306  0.2425  0.1599 -0.8451
 4640SOL    HW225383   0.050   4.435   9.425 -0.5541  1.4683 -0.3382
 4641SOL     OW25384   3.365   3.004   6.550  0.2460  0.1078  0.0322
 4641SOL    HW125385   3.302   2.931   6.547 -0.7741  0.9042  1.9786
 4641SOL    HW225386   3.371   3.019   6.644 -1.3207 -3.2883  0.6727
 4642SOL     OW25387   2.404   3.197   8.403 -0.5962  0.2541  0.6324
 4642SOL    HW125388   2.472   3.130   8.417 -0.0127  0.6344 -0.3944
 4642SOL    HW225389   2.421   3.243   8.486  2.6428 -0.5056  0.4054
 4643SOL     OW25390   2.812   4.199   7.786 -0.1032 -0.1131 -0.1542
 4643SOL    HW125391   2.722   4.175   7.766  1.1939 -2.8161 -2.7296
 4643SOL    HW225392   2.803   4.200   7.881 -0.8490  2.2038 -0.2404
 4644SOL     OW25393   3.269   1.657   1.326 -0.4022  0.1653 -0.3407
 4644SOL    HW125394   3.222   1.578   1.298  1.5337 -1.6049  1.4680
 4644SOL    HW225395   3.362   1.635   1.316  0.3194  3.0021  0.3447
 4645SOL     OW25396   4.559   4.575   0.715 -0.0816 -0.1673  0.7829
 4645SOL    HW125397   4.648   4.602   0.691 -0.5449 -1.1224 -1.9863
 4645SOL    HW225398   4.509   4.646   0.676  0.1569 -0.4639 -0.0528
 4646SOL     OW25399   4.537   1.845   0.168  0.2294 -0.9060 -0.1564
 4646SOL    HW125400   4.630   1.824   0.176 -0.2591 -2.8809  0.3959
 4646SOL    HW225401   4.507   1.778   0.107 -0.8182 -1.2933  0.7867
 4647SOL     OW25402   2.680   1.741   2.333 -0.2767  0.2726  0.1475
 4647SOL    HW125403   2.745   1.808   2.357  0.5587 -1.5001  2.8579
 4647SOL    HW225404   2.604   1.800   2.333 -1.0423 -0.7159 -1.5392
 4648SOL     OW25405   2.749   0.601   5.562 -0.4366  0.0429 -0.1207
 4648SOL    HW125406   2.822   0.659   5.585 -0.3553  0.3385 -1.0929
 4648SOL    HW225407   2.674   0.658   5.576 -3.1024 -3.3985 -0.3867
 4649SOL     OW25408   0.534   1.460   2.750 -0.3108  0.2797  0.5087
 4649SOL    HW125409   0.456   1.413   2.777  0.4116 -3.2712 -3.4677
 4649SOL    HW225410   0.554   1.416   2.667  0.8929 -1.9844  2.0131
 4650SOL     OW25411   2.051   0.484   3.755  0.2994  0.2311  0.5337
 4650SOL    HW125412   2.109   0.524   3.820  1.2830  0.8959 -0.7496
 4650SOL    HW225413   2.087   0.396   3.747  0.6678  0.8567 -4.6857
 4651SOL     OW25414   2.502   3.897  16.815 -0.2044 -0.2902  0.2102
 4651SOL    HW125415   2.440   3.970  16.809 -0.5787 -0.7304 -1.2003
 4651SOL    HW225416   2.562   3.933  16.880  1.8320 -2.0976 -0.6673
 4652SOL     OW25417   0.877   2.457  15.916 -0.5837  0.0256 -0.4737
 4652SOL    HW125418   0.896   2.501  15.999 -0.7048 -0.4308 -0.2060
 4652SOL    HW225419   0.787   2.480  15.894 -0.4294  2.0583  1.0521
 4653SOL     OW25420   4.088   2.308   3.493  0.1499 -0.0285 -1.0348
 4653SOL    HW125421   4.076   2.218   3.463 -0.9041 -0.2643  0.1193
 4653SOL    HW225422   4.143   2.304   3.571 -0.2799  0.8593 -0.6861
 4654SOL     OW25423   4.426   1.378   8.449 -0.0906  0.2166  0.0812
 4654SOL    HW125424   4.414   1.283   8.458 -0.6383 -0.0865 -3.7571
 4654SOL    HW225425   4.364   1.409   8.384  1.6275 -2.8239 -3.0154
 4655SOL     OW25426   3.140   2.564   0.745  0.1695 -0.8743  0.4341
 4655SOL    HW125427   3.168   2.481   0.783  1.1967 -0.3167  0.8991
 4655SOL    HW225428   3.150   2.549   0.651  0.7206  4.1285 -0.3125
 4656SOL     OW25429   2.105   2.907   4.474  0.1211  0.0638 -0.2418
 4656SOL    HW125430   2.129   2.870   4.389 -0.5296  1.7196 -1.1433
 4656SOL    HW225431   2.040   2.841   4.499  2.9357 -2.7979 -0.5392
 4657SOL     OW25432   2.085   4.228   2.448 -0.1877  0.0844 -0.3019
 4657SOL    HW125433   2.149   4.271   2.391  0.0445 -0.5089 -0.4919
 4657SOL    HW225434   2.112   4.136   2.459 -1.2380 -0.0885  0.8180
 4658SOL     OW25435   3.344   0.726   9.272  0.5468 -0.2346 -0.0457
 4658SOL    HW125436   3.258   0.683   9.265  0.0211  0.4334  2.1292
 4658SOL    HW225437   3.338   0.767   9.359 -1.3506 -2.9307  1.0923
 4659SOL     OW25438   0.900   1.565   5.244  0.3986  0.3913 -0.0468
 4659SOL    HW125439   0.822   1.556   5.189  0.7353  1.1331 -0.6398
 4659SOL    HW225440   0.871   1.624   5.313  1.0534 -1.2039  1.5905
 4660SOL     OW25441   3.651   2.054   5.267 -0.0398  0.0027 -0.2135
 4660SOL    HW125442   3.650   1.959   5.272 -1.4103 -0.0363 -0.9432
 4660SOL    HW225443   3.561   2.067   5.236 -0.2745 -1.2069 -0.0024
 4661SOL     OW25444   4.027   4.694  11.395 -0.0187  0.6074  0.3222
 4661SOL    HW125445   4.065   0.027  11.460  0.0102 -0.7309  1.4943
 4661SOL    HW225446   3.941   4.677  11.433 -0.2227  0.8058 -0.0472
 4662SOL     OW25447   3.673   3.805   6.572  0.2725  0.1184 -0.1688
 4662SOL    HW125448   3.715   3.758   6.499 -1.3304  0.0258 -1.0356
 4662SOL    HW225449   3.745   3.811   6.635  0.7729 -0.5947 -0.6717
 4663SOL     OW25450   0.373   0.344   7.462  0.2749  0.2601 -0.1027
 4663SOL    HW125451   0.426   0.410   7.506  0.0439  0.6990 -0.4766
 4663SOL    HW225452   0.353   0.371   7.372 -2.7294  0.7462  0.7311
 4664SOL     OW25453   0.498   3.598  11.477  0.3474  0.1653 -0.5429
 4664SOL    HW125454   0.537   3.510  11.480 -0.8283 -0.2906  1.2270
 4664SOL    HW225455   0.575   3.640  11.438  0.2462  0.7349 -0.1108
 4665SOL     OW25456   0.452   0.257   7.976 -0.1087  0.0186  0.6743
 4665SOL    HW125457   0.471   0.351   7.981  2.8596 -0.6015  0.9843
 4665SOL    HW225458   0.511   0.219   7.911 -1.6156 -1.9495  0.4750
 4666SOL     OW25459   3.674   4.605   8.358 -0.1030  0.2885 -0.0028
 4666SOL    HW125460   3.740   4.653   8.407 -0.8080 -0.7501  1.9463
 4666SOL    HW225461   3.610   4.676   8.345 -2.4749 -1.4314  2.4049
 4667SOL     OW25462   4.641   4.677   8.340 -0.3085 -0.3152 -0.0441
 4667SOL    HW125463   4.695   4.603   8.311  1.6671  1.8607 -1.9072
 4667SOL    HW225464   4.597   4.637   8.416 -0.0942 -1.0534 -0.3025
 4668SOL     OW25465   1.781   4.390   1.795 -0.0954  0.1359  0.2717
 4668SOL    HW125466   1.713   4.355   1.853 -0.0609  3.0751  2.0872
 4668SOL    HW225467   1.750   4.369   1.707  0.3848 -0.6190  0.2880
 4669SOL     OW25468   4.716   1.311   8.928 -0.7673 -0.0713  0.2918
 4669SOL    HW125469   0.012   1.334   9.019 -0.1387  2.0632 -0.3921
 4669SOL    HW225470   0.064   1.356   8.885 -0.3246 -0.4516  0.6442
 4670SOL     OW25471   0.277   2.532   6.205 -0.1494  0.6877 -0.3019
 4670SOL    HW125472   0.261   2.615   6.250 -0.0538  0.6073 -0.1195
 4670SOL    HW225473   0.191   2.519   6.165  0.2778  0.7621 -1.2443
 4671SOL     OW25474   3.234   4.239   7.112 -0.1562  0.5906 -0.3078
 4671SOL    HW125475   3.274   4.260   7.028 -2.9079  2.1970 -1.1921
 4671SOL    HW225476   3.198   4.152   7.098 -1.6858  1.0450  0.7627
 4672SOL     OW25477   0.390   3.136  11.287  0.3311  0.2902 -0.4582
 4672SOL    HW125478   0.479   3.115  11.260  1.1139 -0.2533  2.5887
 4672SOL    HW225479   0.345   3.053  11.273  0.2393  0.5050 -1.4555
 4673SOL     OW25480   1.967   3.924   3.570 -0.3918  0.1949 -0.2094
 4673SOL    HW125481   1.880   3.891   3.593 -0.3110 -2.0608 -3.1149
 4673SOL    HW225482   1.993   3.871   3.494 -0.2538 -1.5273  1.0424
 4674SOL     OW25483   3.341   1.723   5.812 -0.0575 -0.5271  0.0650
 4674SOL    HW125484   3.323   1.742   5.904 -2.5084 -1.2421 -0.2544
 4674SOL    HW225485   3.267   1.778   5.783  0.8536  1.1555  0.9647
 4675SOL     OW25486   1.850   1.499  11.681 -0.4011 -0.5300 -0.0913
 4675SOL    HW125487   1.914   1.484  11.612  0.3789 -1.1690  0.7732
 4675SOL    HW225488   1.811   1.412  11.689 -1.3167 -0.2548 -1.6242
 4676SOL     OW25489   1.210   0.844  11.249  0.4730 -0.6085 -0.6827
 4676SOL    HW125490   1.154   0.778  11.208 -0.4501 -0.9123  1.1031
 4676SOL    HW225491   1.253   0.786  11.312  3.1435  0.9019 -1.1053
 4677SOL     OW25492   4.108   1.246   6.311  0.5504 -0.1485 -0.0452
 4677SOL    HW125493   4.068   1.224   6.227 -0.6816 -1.2637  0.8245
 4677SOL    HW225494   4.046   1.309   6.347 -0.3327 -1.1890  0.2790
 4678SOL     OW25495   2.287   4.124  12.012  0.3747 -0.7896 -0.6782
 4678SOL    HW125496   2.381   4.109  12.009  0.8626  1.5738  3.3391
 4678SOL    HW225497   2.269   4.166  11.928 -2.2563 -0.4268  0.0758
 4679SOL     OW25498   4.310   0.884   4.243 -0.1088  0.2321 -0.0404
 4679SOL    HW125499   4.381   0.864   4.181  0.2063 -2.2837  1.1209
 4679SOL    HW225500   4.344   0.855   4.327  0.2819 -0.5967 -0.4870
 4680SOL     OW25501   2.498   3.635   8.205 -0.2849  0.1966 -0.4539
 4680SOL    HW125502   2.563   3.694   8.241  0.7077 -0.6765 -0.8230
 4680SOL    HW225503   2.423   3.650   8.263 -0.3721 -1.3179 -0.1836
 4681SOL     OW25504   0.820   0.891   8.117 -0.3886  0.1152 -0.0583
 4681SOL    HW125505   0.903   0.855   8.150  0.1129  2.5038  1.2504
 4681SOL    HW225506   0.812   0.839   8.037 -0.2187  1.7526 -1.1226
 4682SOL     OW25507   2.750   3.721   4.011  0.4252 -0.5591 -0.4390
 4682SOL    HW125508   2.798   3.722   3.928  0.9514 -0.9713 -0.1426
 4682SOL    HW225509   2.668   3.754   3.975  0.8629  1.6173  0.5492
 4683SOL     OW25510   1.996   4.408  11.634  0.2968 -0.3128 -0.5267
 4683SOL    HW125511   2.028   4.485  11.587  1.1637 -0.2292  0.1956
 4683SOL    HW225512   1.993   4.440  11.724  0.4331 -0.9819 -0.2850
 4684SOL     OW25513   1.817   2.748  13.700  0.0361 -0.1087  0.0084
 4684SOL    HW125514   1.790   2.793  13.620 -0.9985 -0.1255  0.3531
 4684SOL    HW225515   1.869   2.677  13.662  1.6291  1.2887 -0.4154
 4685SOL     OW25516   4.095   3.859   6.913  0.4320  0.0649  0.2928
 4685SOL    HW125517   4.146   3.781   6.932  0.5995  0.9053  3.2702
 4685SOL    HW225518   4.137   3.925   6.968  0.0092  0.0381  0.6511
 4686SOL     OW25519   1.251   1.120  11.226 -0.3764 -0.5067 -0.2565
 4686SOL    HW125520   1.344   1.105  11.243 -0.6466 -0.6049  1.1309
 4686SOL    HW225521   1.211   1.035  11.244  0.2892 -0.4943  1.2608
 4687SOL     OW25522   1.235   1.017  16.141 -0.0064  0.3183  0.3392
 4687SOL    HW125523   1.321   1.012  16.098  0.1142 -2.2950  0.9045
 4687SOL    HW225524   1.263   0.989  16.228 -2.3660 -1.8999  0.3879
 4688SOL     OW25525   0.808   2.345   3.362  0.3008  0.2202  0.1782
 4688SOL    HW125526   0.835   2.365   3.273  0.4166  2.6197  0.7667
 4688SOL    HW225527   0.855   2.416   3.405 -0.2096 -0.6420  2.1801
 4689SOL     OW25528   3.769   2.907   7.086 -0.7252 -0.0436 -0.3103
 4689SOL    HW125529   3.775   2.915   6.991  0.4781  0.5658 -0.1794
 4689SOL    HW225530   3.673   2.908   7.095 -0.9124  1.9420 -2.4828
 4690SOL     OW25531   3.160   3.662  12.858 -0.1675  0.2434  0.1314
 4690SOL    HW125532   3.192   3.573  12.867  0.3320  0.1146 -3.1268
 4690SOL    HW225533   3.227   3.709  12.809  0.6998 -1.6485 -0.4613
 4691SOL     OW25534   3.958   0.305  13.751 -0.0207 -0.1050 -0.5475
 4691SOL    HW125535   3.924   0.390  13.723  0.4715  0.5209  0.7294
 4691SOL    HW225536   4.032   0.310  13.690  0.4516 -0.4323 -0.0033
 4692SOL     OW25537   3.036   0.025  11.746 -0.0168 -0.3755  0.0642
 4692SOL    HW125538   2.967   0.042  11.811  0.9319 -1.2545  1.3069
 4692SOL    HW225539   3.106   0.077  11.784  0.0613 -0.7107  0.3808
 4693SOL     OW25540   3.827   1.629  14.489 -0.6907 -0.3106 -0.3583
 4693SOL    HW125541   3.873   1.565  14.434 -0.4198  0.5875 -1.1869
 4693SOL    HW225542   3.742   1.589  14.506 -1.3346  0.9891 -0.5230
 4694SOL     OW25543   3.376   2.006   4.738 -0.5205  0.0659 -0.1342
 4694SOL    HW125544   3.282   2.006   4.721 -0.7989  0.0170  1.4430
 4694SOL    HW225545   3.406   2.047   4.657 -0.2653  1.2842  0.5864
 4695SOL     OW25546   0.435   3.088   3.702 -0.1600  0.1506  0.4866
 4695SOL    HW125547   0.409   3.014   3.648  0.3056  0.9112 -0.7952
 4695SOL    HW225548   0.353   3.126   3.734 -0.9216  2.8817 -4.6758
 4696SOL     OW25549   0.488   2.119   5.143 -0.0577  0.2814 -0.1938
 4696SOL    HW125550   0.429   2.137   5.069  0.0212 -0.5766 -0.4578
 4696SOL    HW225551   0.564   2.150   5.094  0.3074  0.0364  0.2291
 4697SOL     OW25552   1.762   1.825   7.448  0.1108  0.3801  0.2434
 4697SOL    HW125553   1.841   1.815   7.396  1.3585  0.0901  2.1903
 4697SOL    HW225554   1.733   1.913   7.425 -2.1171 -0.2176  0.7030
 4698SOL     OW25555   3.136   3.726  10.453  0.4501 -0.5176 -0.0285
 4698SOL    HW125556   3.093   3.656  10.404  0.2606 -0.1139 -0.4453
 4698SOL    HW225557   3.077   3.797  10.428  0.2036  0.3108  2.8900
 4699SOL     OW25558   0.790   0.454   6.464 -0.3492 -0.6730 -0.0026
 4699SOL    HW125559   0.867   0.491   6.420  0.0956 -1.3724  0.1809
 4699SOL    HW225560   0.733   0.434   6.391  1.2073 -0.9135 -1.1515
 4700SOL     OW25561   3.713   2.275   2.621  0.1650  0.2420  0.0321
 4700SOL    HW125562   3.777   2.343   2.598 -0.4135  1.4428  1.9132
 4700SOL    HW225563   3.687   2.313   2.705  1.3741  0.3313  0.3739
 4701SOL     OW25564   2.177   1.563   2.766 -0.4167 -0.2917  0.9076
 4701SOL    HW125565   2.133   1.478   2.756 -0.0537 -0.3542 -0.1578
 4701SOL    HW225566   2.147   1.592   2.852  0.0526 -0.7473  1.2197
 4702SOL     OW25567   1.577   1.334   4.383  0.0206  0.6810  0.1498
 4702SOL    HW125568   1.574   1.243   4.355 -1.0876  1.4180 -2.1482
 4702SOL    HW225569   1.493   1.357   4.344  1.2354  0.4354 -2.6018
 4703SOL     OW25570   1.430   2.501   2.661  0.3630 -0.1002  0.3211
 4703SOL    HW125571   1.511   2.521   2.613  0.2399 -0.4201 -0.0222
 4703SOL    HW225572   1.375   2.488   2.583 -1.4274  0.8228  1.4381
 4704SOL     OW25573   2.845   2.754  17.135  0.4707 -0.2200 -0.1058
 4704SOL    HW125574   2.886   2.836  17.108  1.3120 -0.7677 -0.5204
 4704SOL    HW225575   2.763   2.788  17.170  0.3713  1.2129 -1.7450
 4705SOL     OW25576   4.631   3.444   7.442 -0.2566  0.2048  0.6226
 4705SOL    HW125577   4.576   3.367   7.436  1.0810 -0.7840  1.1098
 4705SOL    HW225578   4.713   3.404   7.470  0.8868  1.4854 -0.8962
 4706SOL     OW25579   4.370   0.061   8.742  0.3216 -0.0281  0.1421
 4706SOL    HW125580   4.379   4.703   8.791  1.7291 -0.2332 -0.4607
 4706SOL    HW225581   4.456   0.101   8.753 -0.2519  1.7414 -1.7305
 4707SOL     OW25582   4.377   2.056  11.588 -0.1365  0.1109 -0.0204
 4707SOL    HW125583   4.455   2.088  11.632  1.0109 -1.6525 -0.7575
 4707SOL    HW225584   4.410   2.063  11.498  0.2577 -0.7927  0.0458
 4708SOL     OW25585   2.077   1.435   4.378  0.1666  0.3323 -0.7623
 4708SOL    HW125586   2.099   1.383   4.455 -4.4859  0.0745  0.3917
 4708SOL    HW225587   2.147   1.414   4.316 -1.4331  0.7761 -2.7091
 4709SOL     OW25588   1.761   1.891   8.142 -0.3116  0.1596 -0.1876
 4709SOL    HW125589   1.813   1.958   8.098  0.9065 -2.3567 -2.6308
 4709SOL    HW225590   1.721   1.847   8.067  0.6187 -0.5220 -0.2856
 4710SOL     OW25591   3.932   4.502   7.545 -0.5241  0.1506  0.6510
 4710SOL    HW125592   3.972   4.527   7.462 -0.8439 -0.5509  0.2848
 4710SOL    HW225593   3.929   4.407   7.534  0.8115  0.4521 -2.2728
 4711SOL     OW25594   0.635   3.232   4.571  0.2994 -0.1914 -0.1504
 4711SOL    HW125595   0.625   3.233   4.476  0.1528 -3.1798 -0.1637
 4711SOL    HW225596   0.725   3.254   4.595 -0.0905  0.9867  0.2792
 4712SOL     OW25597   0.580   2.825   9.696 -0.3584 -0.2165  0.4547
 4712SOL    HW125598   0.507   2.886   9.691 -0.0186 -0.1429 -3.4689
 4712SOL    HW225599   0.631   2.847   9.774  2.6692 -0.9487 -1.2861
 4713SOL     OW25600   0.001   1.692   7.202  0.0026  0.0446  0.4513
 4713SOL    HW125601   4.709   1.613   7.150  2.9318 -1.8701  2.4220
 4713SOL    HW225602   4.635   1.715   7.221  0.0743  0.4565  0.2955
 4714SOL     OW25603   3.986   2.840   7.586  0.4826 -0.0443 -0.0853
 4714SOL    HW125604   3.900   2.860   7.547  0.0958  1.3265  1.4646
 4714SOL    HW225605   4.037   2.848   7.506 -0.2360  1.8019 -0.3655
 4715SOL     OW25606   3.762   3.151   4.293  0.2196  0.8967 -0.0219
 4715SOL    HW125607   3.677   3.110   4.275  1.2777 -1.9023  1.2391
 4715SOL    HW225608   3.751   3.183   4.382 -2.4045  0.5676 -0.2144
 4716SOL     OW25609   4.440   2.739   5.942 -0.1388 -0.3687 -0.3768
 4716SOL    HW125610   4.521   2.687   5.940 -0.2858 -0.7478  4.1931
 4716SOL    HW225611   4.455   2.791   5.863  2.0338 -0.2589  0.1141
 4717SOL     OW25612   2.151   3.329  11.005 -0.0791 -0.4675 -0.2177
 4717SOL    HW125613   2.246   3.318  11.009 -0.2202 -2.1366 -1.4165
 4717SOL    HW225614   2.135   3.359  10.915  1.6767  0.8980 -0.0884
 4718SOL     OW25615   1.697   4.097   8.158 -0.3911  0.0778 -0.5851
 4718SOL    HW125616   1.658   4.025   8.208  0.6094  0.1811  0.3309
 4718SOL    HW225617   1.707   4.051   8.075  0.2720 -0.9180  0.0515
 4719SOL     OW25618   1.051   4.690   1.629  0.2307 -0.0078 -0.0986
 4719SOL    HW125619   1.118   4.642   1.678 -0.2452 -2.0773 -1.4517
 4719SOL    HW225620   1.077   4.667   1.540 -2.3506  0.8719 -1.0917
 4720SOL     OW25621   0.213   0.869   4.026  0.2309  0.1295 -0.2728
 4720SOL    HW125622   0.275   0.796   4.028  0.5011  0.3649  0.0128
 4720SOL    HW225623   0.154   0.853   4.099  0.7747  0.8639  0.3394
 4721SOL     OW25624   3.108   3.893   8.730  0.1344 -0.7541  0.5416
 4721SOL    HW125625   3.064   3.898   8.646  0.6956 -0.9829  0.2317
 4721SOL    HW225626   3.041   3.858   8.789  0.2530  1.8842  2.2503
 4722SOL     OW25627   0.346   0.039   2.668 -0.6846  0.0253 -0.4650
 4722SOL    HW125628   0.418   4.710   2.636  0.2408 -0.0575  1.7811
 4722SOL    HW225629   0.405   0.110   2.693 -0.9213  1.2084 -3.2095
 4723SOL     OW25630   3.968   0.384   9.853  0.6643  0.0978 -0.3353
 4723SOL    HW125631   3.880   0.414   9.830  0.5276  0.8549  1.2170
 4723SOL    HW225632   4.026   0.454   9.820  0.0648  1.0680  0.7013
 4724SOL     OW25633   1.697   0.856  11.287  0.0075  0.1301  0.1682
 4724SOL    HW125634   1.637   0.911  11.236  1.7162  1.9058  0.0479
 4724SOL    HW225635   1.700   0.909  11.367  0.4399 -0.3893  0.4897
 4725SOL     OW25636   4.057   0.954  12.406 -0.2070  0.1174  0.0188
 4725SOL    HW125637   4.051   0.997  12.321  2.2461  2.2859  0.9350
 4725SOL    HW225638   4.119   1.019  12.440  0.9960 -2.3074  2.5100
 4726SOL     OW25639   3.958   2.127   0.306 -0.1889 -0.3670 -0.0980
 4726SOL    HW125640   3.866   2.099   0.302 -0.3122  0.0182  0.1140
 4726SOL    HW225641   3.966   2.201   0.246 -1.4119 -1.0127 -1.0838
 4727SOL     OW25642   3.111   0.262  11.542 -0.6331  0.1445 -0.4093
 4727SOL    HW125643   3.116   0.313  11.622  0.3334  0.4891 -0.6938
 4727SOL    HW225644   3.205   0.248  11.530 -0.8908 -2.0286  0.0678
 4728SOL     OW25645   3.884   2.264   3.867 -0.1134  0.1435 -0.1254
 4728SOL    HW125646   3.793   2.235   3.873 -0.4426  1.0609 -0.5641
 4728SOL    HW225647   3.861   2.339   3.812 -0.9789  0.3362  0.4977
 4729SOL     OW25648   2.323   1.438   0.030  0.4103 -0.1327  0.4280
 4729SOL    HW125649   2.363   1.524   0.015 -1.5536  0.3665 -2.0110
 4729SOL    HW225650   2.282   1.433  17.643 -0.0392 -0.4557  0.6617
 4730SOL     OW25651   2.859   0.615   6.310  0.2179  0.1867 -0.0816
 4730SOL    HW125652   2.821   0.528   6.302 -0.6477  0.4590  1.1144
 4730SOL    HW225653   2.813   0.655   6.236 -0.4158  1.8324  1.2066
 4731SOL     OW25654   4.272   4.011   8.674  0.2555 -0.2987 -0.2488
 4731SOL    HW125655   4.228   4.082   8.628 -0.9364 -0.3601  0.8163
 4731SOL    HW225656   4.344   3.991   8.613  0.1167  0.4078 -0.6349
 4732SOL     OW25657   3.388   2.950  13.889 -0.2765 -0.6564  0.7583
 4732SOL    HW125658   3.319   2.929  13.951  0.1032  0.4502  1.5508
 4732SOL    HW225659   3.348   3.016  13.832 -0.8785 -2.7693 -1.2849
 4733SOL     OW25660   3.269   1.271  17.416  0.1745  1.0809 -0.4938
 4733SOL    HW125661   3.314   1.285  17.500 -0.9068  1.0600  0.1022
 4733SOL    HW225662   3.347   1.264  17.362  0.1403 -3.3896  0.0370
 4734SOL     OW25663   0.095   2.960   1.444 -0.0629 -0.3951  0.9223
 4734SOL    HW125664   0.035   2.916   1.383  0.6573 -1.7240  1.1913
 4734SOL    HW225665   0.168   2.987   1.389 -1.2784  0.0714 -0.4875
 4735SOL     OW25666   1.143   1.630  12.456  0.0195 -0.1978  0.3720
 4735SOL    HW125667   1.213   1.564  12.459  2.1516  1.9850 -1.1902
 4735SOL    HW225668   1.119   1.651  12.546  1.8911  2.1599  0.3122
 4736SOL     OW25669   0.497   1.268   0.119  0.1353  0.1804 -0.5065
 4736SOL    HW125670   0.483   1.345   0.064  1.5915  0.8388  0.0225
 4736SOL    HW225671   0.415   1.223   0.099  0.1495 -0.0766  0.0149
 4737SOL     OW25672   2.853   0.324   3.156  0.2272 -0.4119 -0.2559
 4737SOL    HW125673   2.934   0.358   3.118  0.1136  0.5184  0.3423
 4737SOL    HW225674   2.836   0.401   3.210 -0.3962 -0.4704 -0.3686
 4738SOL     OW25675   3.492   1.889   4.432  0.0590 -0.1239 -0.7213
 4738SOL    HW125676   3.484   1.984   4.420  0.3147 -0.1708 -1.2601
 4738SOL    HW225677   3.431   1.858   4.366 -0.7409 -0.4109  0.1559
 4739SOL     OW25678   0.408   3.574  15.128 -0.2270 -0.3708  0.3256
 4739SOL    HW125679   0.472   3.619  15.072  0.0836 -1.1875  0.0099
 4739SOL    HW225680   0.458   3.577  15.210  0.1043  2.1394  0.0260
 4740SOL     OW25681   4.145   2.748  15.353 -0.3244  0.2813 -0.3418
 4740SOL    HW125682   4.232   2.758  15.316 -0.3224 -1.2113 -0.7100
 4740SOL    HW225683   4.154   2.659  15.387 -0.2898  0.1755 -0.6316
 4741SOL     OW25684   3.247   0.191  11.835  0.2266  0.2515 -0.0745
 4741SOL    HW125685   3.326   0.190  11.889  0.6886  1.9739 -0.6964
 4741SOL    HW225686   3.203   0.270  11.866  0.1638  0.2741 -0.2224
 4742SOL     OW25687   4.699   1.342   6.285 -0.0597 -0.9498 -0.2685
 4742SOL    HW125688   4.611   1.348   6.248 -0.3291 -1.0605  0.3539
 4742SOL    HW225689   0.027   1.405   6.235 -0.3349  2.2651  3.4899
 4743SOL     OW25690   1.114   0.662  14.153  0.4154 -0.3519 -0.2464
 4743SOL    HW125691   1.090   0.703  14.236  1.0470 -2.2322  0.8493
 4743SOL    HW225692   1.095   0.571  14.176 -1.6026  0.1844  0.2372
 4744SOL     OW25693   0.248   2.713   8.646  0.0194 -0.4185 -0.7406
 4744SOL    HW125694   0.339   2.688   8.664  0.0418  0.3132  0.1484
 4744SOL    HW225695   0.224   2.642   8.586 -1.0194  0.9128 -1.9052
 4745SOL     OW25696   3.062   4.132   8.380 -0.5231  0.2836  0.1039
 4745SOL    HW125697   3.119   4.055   8.376 -3.2547 -1.7460  0.5107
 4745SOL    HW225698   3.030   4.121   8.470  1.1141 -0.8666  0.5367
 4746SOL     OW25699   0.849   3.358   8.600 -0.3760 -0.2110 -0.3910
 4746SOL    HW125700   0.918   3.385   8.539 -0.4830  1.0499  0.0491
 4746SOL    HW225701   0.847   3.263   8.590  0.5099 -0.3733  0.9652
 4747SOL     OW25702   4.138   0.867  11.532 -0.5136 -0.1678 -1.1847
 4747SOL    HW125703   4.053   0.822  11.533  0.4665 -2.0258  0.4607
 4747SOL    HW225704   4.135   0.913  11.616  0.9498 -0.4397 -0.9747
 4748SOL     OW25705   0.106   3.342   1.770  0.0380  0.6879 -0.1059
 4748SOL    HW125706   0.047   3.274   1.737  0.7235  0.0795 -0.0840
 4748SOL    HW225707   0.062   3.420   1.738 -0.0791  0.9982  0.8223
 4749SOL     OW25708   3.795   3.023   2.692  0.4150  0.0556  0.1950
 4749SOL    HW125709   3.822   3.091   2.630  0.5157 -1.7902 -1.7764
 4749SOL    HW225710   3.863   2.962   2.662  0.5619  0.3624 -0.0955
 4750SOL     OW25711   2.405   3.764   2.039  0.1081 -0.6291 -0.5295
 4750SOL    HW125712   2.373   3.718   1.961  0.6577 -1.3122 -0.3561
 4750SOL    HW225713   2.451   3.835   1.995 -1.9135  0.4959 -0.8153
 4751SOL     OW25714   4.643   1.263  10.708 -0.4471 -0.2394 -0.0798
 4751SOL    HW125715   4.597   1.313  10.641  0.2083 -0.4117 -0.6549
 4751SOL    HW225716   4.693   1.335  10.745  0.9447 -1.4755  0.4284
 4752SOL     OW25717   3.594   1.623   1.250  0.3898 -0.2126 -0.0658
 4752SOL    HW125718   3.660   1.591   1.189  0.2609 -0.9803  0.2011
 4752SOL    HW225719   3.548   1.675   1.184  1.0679  0.2296 -0.1844
 4753SOL     OW25720   0.396   3.008   7.505 -0.1633 -0.1764  0.2305
 4753SOL    HW125721   0.428   3.080   7.451 -0.0566 -0.5130 -0.1490
 4753SOL    HW225722   0.468   2.948   7.486 -0.4618  0.1877 -2.0304
 4754SOL     OW25723   1.683   1.507  16.961 -0.8599 -0.5737 -0.2910
 4754SOL    HW125724   1.699   1.451  16.885  0.7394  1.3620 -1.3507
 4754SOL    HW225725   1.624   1.443  17.002 -0.4275 -1.2939 -0.7794
 4755SOL     OW25726   3.398   0.032   8.073  0.1120 -0.4756 -0.5274
 4755SOL    HW125727   3.452   0.039   7.995 -1.4618 -1.7220 -1.7243
 4755SOL    HW225728   3.390   4.661   8.074 -0.1735 -0.4312  1.3789
 4756SOL     OW25729   3.049   3.567   5.846 -0.2988 -0.0842 -0.3559
 4756SOL    HW125730   3.013   3.478   5.849  1.3877 -0.6963  1.1657
 4756SOL    HW225731   2.981   3.619   5.888  0.0896 -0.4750  0.7494
 4757SOL     OW25732   1.034   2.801   5.074 -0.1111  0.1282 -0.1681
 4757SOL    HW125733   1.017   2.791   5.168  1.3175 -0.2901  0.0502
 4757SOL    HW225734   1.001   2.719   5.036 -0.9901  0.9340 -1.1097
 4758SOL     OW25735   2.335   2.452   3.242  0.3565  0.2431 -0.1071
 4758SOL    HW125736   2.270   2.508   3.200 -3.5324 -3.0394  1.5604
 4758SOL    HW225737   2.300   2.436   3.330 -2.6263  2.7981 -0.8270
 4759SOL     OW25738   0.566   1.822   3.154  0.2105  0.0586  0.4091
 4759SOL    HW125739   0.534   1.785   3.072 -1.2065 -1.6547  1.7512
 4759SOL    HW225740   0.504   1.894   3.161  1.3551  0.8570  2.3361
 4760SOL     OW25741   4.398   1.708   6.479 -0.0943  0.2202  0.0477
 4760SOL    HW125742   4.312   1.684   6.443 -0.7512  0.4319  1.4675
 4760SOL    HW225743   4.432   1.623   6.505  1.1470  0.5485 -0.5081
 4761SOL     OW25744   1.661   3.223  17.199 -0.6316  0.2233  0.0730
 4761SOL    HW125745   1.617   3.200  17.281  0.1798  2.0999  1.0233
 4761SOL    HW225746   1.738   3.274  17.225  0.8774 -0.9909 -1.9334
 4762SOL     OW25747   0.165   0.645   4.709 -0.4999 -0.1848  0.3171
 4762SOL    HW125748   0.131   0.612   4.792  1.4001 -1.7801  0.4548
 4762SOL    HW225749   0.235   0.582   4.690  0.7617  1.2260  0.2994
 4763SOL     OW25750   1.623   3.498  15.258  0.2998 -0.5375 -0.2830
 4763SOL    HW125751   1.714   3.497  15.289  0.1522 -1.2339  0.1418
 4763SOL    HW225752   1.597   3.406  15.259 -1.5438 -0.0287 -2.7667
 4764SOL     OW25753   3.840   2.651   9.801 -0.0509  0.0781  0.3101
 4764SOL    HW125754   3.836   2.742   9.771  3.2677  0.4681  1.1169
 4764SOL    HW225755   3.890   2.610   9.731 -1.4456 -2.4003  0.7727
 4765SOL     OW25756   0.682   4.348   0.408  0.9941 -0.0912 -0.2934
 4765SOL    HW125757   0.661   4.380   0.321 -3.5607  2.0368  1.5724
 4765SOL    HW225758   0.752   4.408   0.434  0.6468  0.3464 -0.3505
 4766SOL     OW25759   3.041   3.420   8.127  0.4794 -0.1813 -0.0637
 4766SOL    HW125760   3.086   3.497   8.093 -0.5246 -0.3146 -1.6693
 4766SOL    HW225761   2.947   3.438   8.127  0.3743 -0.7167  0.6096
 4767SOL     OW25762   2.382   2.005   9.048  0.1311 -0.7140 -0.6007
 4767SOL    HW125763   2.414   2.091   9.021  2.7438 -1.6320 -0.4398
 4767SOL    HW225764   2.289   2.018   9.063 -0.2241 -1.2692 -2.3022
 4768SOL     OW25765   3.124   2.140   5.925  0.2929 -0.1229  0.9380
 4768SOL    HW125766   3.211   2.106   5.948  0.9727  0.6357 -0.4532
 4768SOL    HW225767   3.152   2.183   5.844 -0.4942  0.6736  1.0892
 4769SOL     OW25768   1.475   0.119  10.330  0.1904  0.8026 -0.4029
 4769SOL    HW125769   1.408   0.067  10.287  1.3832 -1.3133  0.2883
 4769SOL    HW225770   1.474   0.078  10.417  0.4925  1.4448 -0.0941
 4770SOL     OW25771   2.786   0.845   1.559 -0.3491 -0.2302  0.0602
 4770SOL    HW125772   2.801   0.761   1.604 -1.2065  0.8453  2.3670
 4770SOL    HW225773   2.875   0.874   1.539 -0.3575 -1.5709 -1.8994
 4771SOL     OW25774   1.774   4.510   9.107  0.7052 -0.3738  0.6122
 4771SOL    HW125775   1.779   4.489   9.014 -2.0758  0.4204  0.2795
 4771SOL    HW225776   1.810   4.599   9.103  0.2379 -0.2250 -0.3570
 4772SOL     OW25777   4.551   1.223   4.571 -0.7813 -0.3009  0.0606
 4772SOL    HW125778   4.463   1.186   4.572 -1.1364  0.5746  1.5054
 4772SOL    HW225779   4.546   1.288   4.501  1.6655  0.7297  0.8359
 4773SOL     OW25780   1.433   3.392  17.545 -0.0451 -0.5461  0.1139
 4773SOL    HW125781   1.393   3.456  17.485  1.3360 -0.1828 -0.4150
 4773SOL    HW225782   1.414   3.437  17.627  1.5248 -1.6210  1.0613
 4774SOL     OW25783   2.226   2.571  12.432 -0.1933  0.2765 -0.3745
 4774SOL    HW125784   2.153   2.575  12.370 -1.1935  0.3410  0.8076
 4774SOL    HW225785   2.239   2.476  12.437  1.7514  0.4911 -1.6851
 4775SOL     OW25786   3.695   3.640   8.477 -0.0470 -0.0380  0.3538
 4775SOL    HW125787   3.750   3.718   8.482  2.9044 -2.0500 -0.6733
 4775SOL    HW225788   3.612   3.687   8.492 -0.4414 -0.0173 -1.8788
 4776SOL     OW25789   0.237   2.587   2.097  0.7905 -0.9522  0.4086
 4776SOL    HW125790   0.214   2.564   2.007  3.1946 -1.2556 -0.1331
 4776SOL    HW225791   0.312   2.644   2.077 -1.4077  1.7818 -0.1003
 4777SOL     OW25792   1.995   0.542   2.445  0.7074 -0.2359  0.2325
 4777SOL    HW125793   2.076   0.524   2.494  2.6643  0.9992 -2.6000
 4777SOL    HW225794   2.034   0.530   2.358 -0.5098 -1.4523 -0.1419
 4778SOL     OW25795   1.009   2.672   4.228  0.0404  0.2016  0.1285
 4778SOL    HW125796   1.015   2.595   4.285  2.5760 -0.0629 -0.4959
 4778SOL    HW225797   1.052   2.642   4.149  1.5119 -0.1282  1.0538
 4779SOL     OW25798   1.044   4.510   5.863 -0.2675 -0.7039  0.5743
 4779SOL    HW125799   0.969   4.560   5.897  0.5421 -0.1746  1.5826
 4779SOL    HW225800   1.037   4.443   5.932  1.2562  1.2245  2.6023
 4780SOL     OW25801   0.107   2.667   6.385  0.3615  0.2523  0.3781
 4780SOL    HW125802   0.140   2.644   6.471 -0.2561 -0.8719  0.3253
 4780SOL    HW225803   0.149   2.748   6.357 -0.0882  0.7966  1.2998
 4781SOL     OW25804   2.360   2.992   8.633 -0.0747 -0.4486  0.2877
 4781SOL    HW125805   2.304   2.930   8.586 -2.4348  1.2494  0.8073
 4781SOL    HW225806   2.287   3.053   8.648  0.4508  0.2908 -0.1338
 4782SOL     OW25807   2.338   4.567   7.423  0.2156 -0.0089 -0.4522
 4782SOL    HW125808   2.424   4.601   7.444 -0.5008  1.9979 -0.7532
 4782SOL    HW225809   2.325   4.606   7.337 -1.6055  0.5012  0.0384
 4783SOL     OW25810   1.857   2.994   7.826 -0.8116  0.5319 -0.0442
 4783SOL    HW125811   1.827   2.911   7.788 -0.1459  0.4096 -0.3256
 4783SOL    HW225812   1.839   2.974   7.918 -1.4985  1.1654 -0.0519
 4784SOL     OW25813   4.186   0.797   8.913 -0.1114 -0.1051  0.5600
 4784SOL    HW125814   4.257   0.861   8.908  0.4837 -0.7631  0.5388
 4784SOL    HW225815   4.205   0.752   8.996 -0.0553 -0.8007  0.1696
 4785SOL     OW25816   2.777   2.343   6.696 -0.1583 -0.2616  0.3344
 4785SOL    HW125817   2.764   2.266   6.640 -1.4136  1.2674 -1.4621
 4785SOL    HW225818   2.819   2.414   6.648 -0.1062 -1.0720 -0.8126
 4786SOL     OW25819   3.335   1.400   6.271  0.0504  0.1639  0.3142
 4786SOL    HW125820   3.329   1.420   6.177 -0.4772 -0.5524  0.1936
 4786SOL    HW225821   3.268   1.455   6.310 -0.6018 -1.1271  1.0158
 4787SOL     OW25822   3.089   2.966   8.777  0.5390  0.3450  0.2579
 4787SOL    HW125823   3.072   3.060   8.784 -0.1512  0.3107 -1.0778
 4787SOL    HW225824   3.125   2.952   8.690 -0.5523 -0.1232 -0.1087
 4788SOL     OW25825   0.064   3.888   7.547 -0.2206 -0.0536  0.4186
 4788SOL    HW125826   0.084   3.816   7.487  0.8298  1.4844 -1.0314
 4788SOL    HW225827   0.096   3.860   7.633 -1.0138 -0.6548  0.5210
 4789SOL     OW25828   1.046   3.463   5.076  0.4301 -0.1676 -0.1686
 4789SOL    HW125829   1.006   3.380   5.102 -0.4545  0.7430  1.3577
 4789SOL    HW225830   0.979   3.531   5.065 -0.9292 -1.5908 -0.6580
 4790SOL     OW25831   3.429   2.852  13.639  0.2956  0.0590  0.0280
 4790SOL    HW125832   3.424   2.880  13.731 -0.1250 -1.5569  0.5105
 4790SOL    HW225833   3.456   2.934  13.598  1.1068 -0.2154  0.0217
 4791SOL     OW25834   4.142   4.685   0.410  0.1889  0.2897 -0.2256
 4791SOL    HW125835   4.214   0.012   0.448  1.1135 -0.5320 -0.8768
 4791SOL    HW225836   4.077   0.026   0.385  1.6295  2.1067  0.7227
 4792SOL     OW25837   0.447   3.247  15.212 -0.3063 -0.1814  0.2429
 4792SOL    HW125838   0.425   3.254  15.304 -0.1036 -0.8675  0.3515
 4792SOL    HW225839   0.507   3.320  15.200 -1.3222  0.6433  0.2778
 4793SOL     OW25840   4.671   0.851   0.578 -0.1145 -0.1456 -0.2753
 4793SOL    HW125841   4.640   0.941   0.569 -1.7094 -0.4576  2.1855
 4793SOL    HW225842   0.011   0.853   0.507  1.6151 -0.3405  1.2836
 4794SOL     OW25843   4.252   2.057   0.716 -0.0891  0.3037  0.0832
 4794SOL    HW125844   4.173   2.110   0.711 -0.1978  0.1627  0.2870
 4794SOL    HW225845   4.325   2.117   0.733  2.2067 -3.1600  2.6021
 4795SOL     OW25846   1.804   4.004   9.398 -0.2797  0.0476  0.4702
 4795SOL    HW125847   1.810   4.094   9.367  1.9655  0.0225  0.8029
 4795SOL    HW225848   1.898   3.983   9.397 -0.1728  0.5246  0.8177
 4796SOL     OW25849   1.826   4.144  13.376  0.2530 -1.1175 -0.1938
 4796SOL    HW125850   1.733   4.133  13.398  0.5283  1.2325  2.1071
 4796SOL    HW225851   1.822   4.198  13.297 -1.5946 -0.8376  0.0862
 4797SOL     OW25852   4.395   4.120   6.286  0.0570  0.5525  0.0855
 4797SOL    HW125853   4.391   4.119   6.190 -0.4389  1.2701  0.0967
 4797SOL    HW225854   4.412   4.214   6.297 -0.1938  0.5084  0.8203
 4798SOL     OW25855   3.328   1.040   6.809 -0.2669 -0.8750  0.0775
 4798SOL    HW125856   3.343   1.134   6.793 -1.2106 -0.7784 -0.2421
 4798SOL    HW225857   3.294   1.054   6.898 -1.2736  1.2966 -0.6437
 4799SOL     OW25858   0.904   0.955   0.056  0.2792  0.0923 -0.2322
 4799SOL    HW125859   0.905   1.018   0.128 -0.0465 -0.4540  0.2518
 4799SOL    HW225860   0.976   0.990   0.003 -1.1283  0.6789 -1.7353
 4800SOL     OW25861   0.000   4.294   6.268 -0.4810  0.3593  0.9691
 4800SOL    HW125862   0.085   4.260   6.240 -0.8100  2.9084 -3.0280
 4800SOL    HW225863   0.030   4.344   6.344  1.2032 -1.6931  1.6849
 4801SOL     OW25864   3.844   1.006   5.900 -0.3178  0.4617 -0.0965
 4801SOL    HW125865   3.870   0.927   5.853 -2.3991  0.2503 -0.8880
 4801SOL    HW225866   3.894   1.011   5.981  1.5736 -0.7861 -1.2010
 4802SOL     OW25867   1.072   0.938  12.579 -0.2694  0.3693 -0.3870
 4802SOL    HW125868   1.082   0.862  12.636 -0.2481 -0.4181 -1.4361
 4802SOL    HW225869   1.057   0.899  12.493 -0.5100 -0.3076 -0.0432
 4803SOL     OW25870   0.248   2.499  17.014  0.4560  0.1634  0.4449
 4803SOL    HW125871   0.318   2.447  17.053  1.6325  1.6154  0.2436
 4803SOL    HW225872   0.251   2.584  17.057 -0.9352  1.0376 -1.1987
 4804SOL     OW25873   2.646   3.802   6.417  0.1744  0.2220 -0.0541
 4804SOL    HW125874   2.654   3.709   6.398 -0.1789  0.4174 -1.1553
 4804SOL    HW225875   2.618   3.807   6.508 -0.0494  1.7254 -0.2087
 4805SOL     OW25876   4.084   0.907  17.438  0.2875  0.3988 -0.3132
 4805SOL    HW125877   4.015   0.971  17.457 -1.9660 -1.3260 -2.8075
 4805SOL    HW225878   4.140   0.938  17.509 -0.9168  0.1284  0.7534
 4806SOL     OW25879   4.634   4.098  11.171 -0.6095  0.4281  0.6377
 4806SOL    HW125880   4.631   4.192  11.188  0.4656  0.9206 -1.9424
 4806SOL    HW225881   4.677   4.087  11.086  2.7404  1.7701  2.1778
 4807SOL     OW25882   1.441   1.439   5.222  0.4476 -0.5892  0.2744
 4807SOL    HW125883   1.365   1.407   5.269  0.4224 -1.6111 -0.4707
 4807SOL    HW225884   1.452   1.523   5.267  2.2170 -1.4091  1.4258
 4808SOL     OW25885   3.492   2.504   3.048 -0.1366  0.1344 -0.2067
 4808SOL    HW125886   3.452   2.461   3.123 -0.5798  1.1399  0.1379
 4808SOL    HW225887   3.422   2.491   2.984  1.7927  2.0176 -2.7001
 4809SOL     OW25888   4.665   4.116   3.430 -0.7100 -0.5247 -0.0518
 4809SOL    HW125889   0.010   4.052   3.437  0.3043  0.4932 -0.8675
 4809SOL    HW225890   4.631   4.129   3.519 -0.5451  0.3393 -0.1135
 4810SOL     OW25891   2.244   1.093  16.014  0.3742 -0.3031  0.1026
 4810SOL    HW125892   2.188   1.071  16.088  1.2055 -0.9452  0.5419
 4810SOL    HW225893   2.238   1.008  15.971  2.1319 -0.6638  0.5703
 4811SOL     OW25894   2.669   0.420   7.709 -0.2070  0.1738  0.1123
 4811SOL    HW125895   2.728   0.423   7.785  0.7164  3.1589 -0.7253
 4811SOL    HW225896   2.606   0.354   7.737  0.5961 -0.0401  1.4124
 4812SOL     OW25897   0.495   1.424  11.026  0.1868  0.2640  0.2107
 4812SOL    HW125898   0.583   1.392  11.005 -0.3440 -1.9759  1.3905
 4812SOL    HW225899   0.498   1.495  10.962 -0.4258 -1.1198 -1.3322
 4813SOL     OW25900   4.276   3.767   8.806 -0.1555 -0.1721 -0.4249
 4813SOL    HW125901   4.268   3.839   8.743  1.0952  1.4826  1.2996
 4813SOL    HW225902   4.200   3.773   8.863  1.7474  0.2028  2.0785
 4814SOL     OW25903   1.065   1.188  16.246  0.0964 -0.4875 -0.2091
 4814SOL    HW125904   1.112   1.118  16.200  0.7172  0.4243 -0.9459
 4814SOL    HW225905   1.028   1.235  16.171  0.5937  0.8610  0.3886
 4815SOL     OW25906   1.290   2.631   6.320 -0.2256  0.2884  0.0210
 4815SOL    HW125907   1.347   2.651   6.394 -1.3081  0.7245  0.7374
 4815SOL    HW225908   1.319   2.545   6.290 -0.5654 -0.1789  1.0062
 4816SOL     OW25909   1.151   1.495  10.294 -0.0937 -0.1892 -0.0627
 4816SOL    HW125910   1.123   1.527  10.209  1.3118  0.4590 -0.2896
 4816SOL    HW225911   1.215   1.564  10.314 -0.9768  0.7337 -0.3960
 4817SOL     OW25912   1.876   0.438  15.473  0.1168 -0.0464 -0.4552
 4817SOL    HW125913   1.955   0.484  15.500  0.4002 -0.6878 -0.1869
 4817SOL    HW225914   1.835   0.511  15.427  1.0842  1.2732  0.7614
 4818SOL     OW25915   0.898   3.109  17.660 -0.0367  0.0003  0.6838
 4818SOL    HW125916   0.964   3.058  17.612 -0.1970 -0.9393  1.4614
 4818SOL    HW225917   0.818   3.058  17.648  1.8816 -3.1195  0.9536
 4819SOL     OW25918   1.123   4.141   7.114  0.0728  0.0115  0.1822
 4819SOL    HW125919   1.201   4.125   7.167 -1.3770 -1.1699  1.9836
 4819SOL    HW225920   1.067   4.204   7.160 -1.6519  0.7411 -2.9161
 4820SOL     OW25921   0.455   0.850   6.522 -0.2658 -0.0638 -0.3714
 4820SOL    HW125922   0.432   0.937   6.556  2.0896  0.0037  0.9885
 4820SOL    HW225923   0.408   0.785   6.574  2.5750 -3.7025 -2.3494
 4821SOL     OW25924   4.696   1.465   7.996 -0.0615 -0.5017 -0.1724
 4821SOL    HW125925   4.610   1.505   7.985  0.7647  0.8858 -1.6476
 4821SOL    HW225926   0.014   1.484   7.912  2.0467 -0.0489  1.0028
 4822SOL     OW25927   3.106   3.661  12.442 -0.2339 -0.3294 -0.1754
 4822SOL    HW125928   3.047   3.681  12.515  0.6251 -1.0679  0.7190
 4822SOL    HW225929   3.147   3.747  12.431 -2.0503  0.4712 -0.6440
 4823SOL     OW25930   4.452   3.197   6.298 -0.2110 -0.1946 -0.1023
 4823SOL    HW125931   4.529   3.140   6.300  2.2728  3.1514  0.0980
 4823SOL    HW225932   4.494   3.279   6.271  0.0436 -0.5686 -0.8337
 4824SOL     OW25933   3.552   2.901   2.740 -0.2838 -0.0904  0.3166
 4824SOL    HW125934   3.501   2.963   2.792 -0.0941 -1.4794  2.1714
 4824SOL    HW225935   3.627   2.956   2.716  0.2939 -0.9346  0.1734
 4825SOL     OW25936   0.041   0.565   1.685  0.2462  0.6195 -0.4184
 4825SOL    HW125937   4.703   0.549   1.756  2.0503 -1.2703  0.7499
 4825SOL    HW225938   4.722   0.642   1.649 -0.2814  0.8246  0.6599
 4826SOL     OW25939   3.271   2.435  13.716 -0.1794 -0.0879  0.1669
 4826SOL    HW125940   3.203   2.375  13.746 -0.9937  0.5233 -0.4383
 4826SOL    HW225941   3.340   2.410  13.777 -0.1859 -0.0741  0.1798
 4827SOL     OW25942   0.640   1.439  17.506  0.5064 -0.4677 -0.0109
 4827SOL    HW125943   0.673   1.369  17.564  0.0559  0.5878  1.5246
 4827SOL    HW225944   0.684   1.416  17.425 -0.0386 -2.7309  0.3265
 4828SOL     OW25945   4.431   1.901   0.568 -0.3122 -0.2161  0.3050
 4828SOL    HW125946   4.499   1.963   0.594  0.5211 -1.3050  0.7279
 4828SOL    HW225947   4.351   1.942   0.601 -0.1765 -0.1566  0.5651
 4829SOL     OW25948   4.257   2.127   7.842  0.3658 -0.3122 -0.6102
 4829SOL    HW125949   4.341   2.170   7.859 -0.4968 -0.0597  3.0505
 4829SOL    HW225950   4.264   2.049   7.898 -1.5447  0.3779  0.6005
 4830SOL     OW25951   0.607   1.269   0.967  0.5575  0.3459 -0.5403
 4830SOL    HW125952   0.526   1.228   0.936  0.7517 -0.1846 -0.3541
 4830SOL    HW225953   0.642   1.197   1.020 -2.5918 -0.2348  0.7779
 4831SOL     OW25954   0.389   4.396  12.795 -0.3868 -0.5389  0.6004
 4831SOL    HW125955   0.321   4.462  12.805 -1.5727 -1.8667  1.2531
 4831SOL    HW225956   0.344   4.323  12.754  0.2919 -0.5262 -0.1548
 4832SOL     OW25957   2.910   3.696   6.749  0.7996 -0.2078  0.6325
 4832SOL    HW125958   2.909   3.762   6.679 -1.2297 -0.7496  0.1537
 4832SOL    HW225959   2.826   3.710   6.792  0.1326 -2.3480  0.0189
 4833SOL     OW25960   0.891   1.861   9.143  0.0478 -0.5333  0.2263
 4833SOL    HW125961   0.975   1.839   9.102  1.2400  1.1517  1.7064
 4833SOL    HW225962   0.923   1.897   9.226 -0.8056  2.4304 -0.7166
 4834SOL     OW25963   2.676   3.824   8.274  0.7521  0.2045  0.6787
 4834SOL    HW125964   2.684   3.906   8.322 -1.3274 -0.1844  1.6648
 4834SOL    HW225965   2.715   3.853   8.192  0.1419 -0.4175  0.1683
 4835SOL     OW25966   0.899   2.583   4.973  0.5669 -0.2190  0.2883
 4835SOL    HW125967   0.911   2.593   4.879  0.3263 -0.4320  0.2359
 4835SOL    HW225968   0.823   2.642   4.983 -0.5873 -1.8223  0.9502
 4836SOL     OW25969   2.623   0.126   2.568 -0.9206  0.4539  0.2222
 4836SOL    HW125970   2.637   0.104   2.476  1.0268  1.5146  0.2524
 4836SOL    HW225971   2.612   0.221   2.562  1.8290  0.7328 -0.4198
 4837SOL     OW25972   1.304   0.087   2.336 -0.1372  0.3007 -0.0693
 4837SOL    HW125973   1.288   0.112   2.427 -1.5636  0.5055 -0.3819
 4837SOL    HW225974   1.223   0.116   2.295 -0.5647  0.1135  0.6407
 4838SOL     OW25975   0.266   0.768   8.053  0.3406  0.0393 -0.1383
 4838SOL    HW125976   0.360   0.770   8.071  0.8764 -0.8941 -2.8067
 4838SOL    HW225977   0.274   0.805   7.965 -1.5627 -1.5607 -0.9835
 4839SOL     OW25978   2.654   1.006   5.462  0.1127 -0.0467 -0.0990
 4839SOL    HW125979   2.714   1.032   5.531 -0.3168  0.7840 -0.0401
 4839SOL    HW225980   2.630   1.094   5.433  0.6178  0.0757 -0.1470
 4840SOL     OW25981   1.421   4.173  14.431  0.3477  0.4971 -0.2061
 4840SOL    HW125982   1.492   4.196  14.491  0.2816 -1.0839  0.4804
 4840SOL    HW225983   1.434   4.227  14.353  1.6202 -1.6150 -1.4722
 4841SOL     OW25984   3.672   1.296  11.481 -0.0161  0.0426  0.0941
 4841SOL    HW125985   3.722   1.335  11.552  1.0942 -1.9463  0.3940
 4841SOL    HW225986   3.655   1.377  11.431  0.2579 -0.0869 -0.2063
 4842SOL     OW25987   0.062   2.152  12.444  0.2966 -0.4653  0.8057
 4842SOL    HW125988   0.020   2.122  12.525  0.7238  1.9434  1.9510
 4842SOL    HW225989   0.100   2.070  12.414 -1.5749  0.5867 -4.3364
 4843SOL     OW25990   2.011   3.090   5.223 -0.0616 -0.0189  0.3175
 4843SOL    HW125991   1.973   3.178   5.230  1.4287  0.4839  1.9453
 4843SOL    HW225992   2.021   3.068   5.315 -2.0802 -1.0598  0.2999
 4844SOL     OW25993   3.462   0.444   0.709  0.5649  0.0916  0.0574
 4844SOL    HW125994   3.402   0.499   0.759  0.6869 -2.3796  2.9639
 4844SOL    HW225995   3.534   0.447   0.772  0.9589 -2.4188 -0.2660
 4845SOL     OW25996   0.646   1.454   4.607 -0.7726 -0.6765  0.7819
 4845SOL    HW125997   0.734   1.479   4.578 -1.6754  1.0510 -0.4654
 4845SOL    HW225998   0.640   1.365   4.571 -2.7851 -0.1844 -0.1275
 4846SOL     OW25999   2.767   2.178   4.856  0.2744 -0.1938 -0.0036
 4846SOL    HW126000   2.681   2.219   4.864  1.0347  2.1620 -3.8266
 4846SOL    HW226001   2.821   2.255   4.877 -1.1169  0.5690  0.7433
 4847SOL     OW26002   4.673   2.736   3.571 -0.8123 -0.2977  0.1168
 4847SOL    HW126003   4.636   2.823   3.562 -2.0713 -0.7559  0.9262
 4847SOL    HW226004   0.028   2.741   3.517 -0.1212 -0.9790  1.0800
 4848SOL     OW26005   3.196   2.674  13.626 -0.0324 -0.3974 -0.1566
 4848SOL    HW126006   3.281   2.702  13.660  0.4992  1.4136 -2.9901
 4848SOL    HW226007   3.187   2.584  13.658  0.5842  0.2797  1.8920
 4849SOL     OW26008   2.145   4.304  15.033  0.1265  0.1421 -0.0632
 4849SOL    HW126009   2.081   4.264  14.975  0.7898  0.1499 -0.7972
 4849SOL    HW226010   2.122   4.281  15.123 -0.9831  0.1670 -0.3427
 4850SOL     OW26011   4.415   1.181   3.253  0.0352 -0.1450  0.0610
 4850SOL    HW126012   4.371   1.098   3.271  0.4416 -0.0641  1.4528
 4850SOL    HW226013   4.469   1.155   3.179 -1.1346 -1.0712 -0.4737
 4851SOL     OW26014   3.617   3.174  16.505 -0.1032 -0.1737  0.1448
 4851SOL    HW126015   3.637   3.202  16.416 -0.1743 -1.4416 -0.2647
 4851SOL    HW226016   3.688   3.209  16.560 -0.7626  0.9797  0.2728
 4852SOL     OW26017   0.918   0.484   4.709 -0.1150  0.3540 -0.2629
 4852SOL    HW126018   1.005   0.521   4.723 -0.7443  1.1933  1.4208
 4852SOL    HW226019   0.861   0.536   4.767 -1.4942  0.4894 -1.7474
 4853SOL     OW26020   0.321   0.627   6.641 -0.4812  0.2183 -0.3305
 4853SOL    HW126021   0.286   0.551   6.687 -1.4781  2.1313  2.0675
 4853SOL    HW226022   0.248   0.687   6.657  1.0043  1.6045  1.2151
 4854SOL     OW26023   4.471   3.256  11.005  0.1255  0.7554 -0.3147
 4854SOL    HW126024   4.509   3.316  11.070  0.5603 -0.4386  0.5202
 4854SOL    HW226025   4.483   3.300  10.921  1.8281 -0.3563 -0.6455
 4855SOL     OW26026   1.619   1.831  17.447  0.4007  0.2485 -0.0278
 4855SOL    HW126027   1.542   1.884  17.428 -0.4245 -1.1662 -0.6109
 4855SOL    HW226028   1.591   1.768  17.514 -1.2598 -1.1127 -2.0026
 4856SOL     OW26029   0.865   2.800   3.539 -0.1763  0.4892  0.2481
 4856SOL    HW126030   0.954   2.834   3.549 -0.4622  1.2782  0.1570
 4856SOL    HW226031   0.809   2.836   3.608 -1.0450 -1.6657  0.6493
 4857SOL     OW26032   3.939   3.765  10.309 -0.1818 -0.4543 -0.0759
 4857SOL    HW126033   3.950   3.802  10.396 -0.9969  1.9850 -1.0076
 4857SOL    HW226034   3.853   3.727  10.326 -1.0620  0.9169 -1.4274
 4858SOL     OW26035   4.297   0.417  13.879  0.8272 -0.3642  0.2776
 4858SOL    HW126036   4.316   0.453  13.966  0.6512  1.9102 -0.6474
 4858SOL    HW226037   4.252   0.335  13.903  1.9013 -1.6329 -2.0749
 4859SOL     OW26038   4.708   0.260  12.685 -0.0496  0.6706  0.0248
 4859SOL    HW126039   0.011   0.346  12.653  0.6402  0.0565 -1.0005
 4859SOL    HW226040   0.055   0.223  12.736  1.7298  2.0200 -1.4636
 4860SOL     OW26041   4.071   4.206   9.523 -0.3175 -0.0696 -0.4307
 4860SOL    HW126042   4.017   4.280   9.549  2.6233  2.1911 -0.6863
 4860SOL    HW226043   4.109   4.182   9.608  1.8376 -2.2416 -2.0152
 4861SOL     OW26044   3.091   1.863   6.987 -0.0657  0.0035  0.7838
 4861SOL    HW126045   3.038   1.783   6.978  0.6610 -0.2687 -1.0846
 4861SOL    HW226046   3.147   1.848   6.911  0.2929  2.6226  0.5387
 4862SOL     OW26047   1.943   2.858   6.298 -0.3739  0.0163  0.9608
 4862SOL    HW126048   1.881   2.919   6.258  0.3470 -0.7560 -1.3486
 4862SOL    HW226049   1.904   2.835   6.382  0.3454 -0.1631  1.2370
 4863SOL     OW26050   3.098   2.397  14.689  0.3245 -0.3519 -0.1073
 4863SOL    HW126051   3.042   2.320  14.693 -1.0434  0.6218 -0.4247
 4863SOL    HW226052   3.187   2.364  14.701 -0.3725 -2.1331  0.0598
 4864SOL     OW26053   1.793   3.136  16.961  0.3439 -0.0426  0.4479
 4864SOL    HW126054   1.736   3.145  17.038 -1.4982 -2.7488 -0.5722
 4864SOL    HW226055   1.739   3.092  16.896  0.9684 -0.0030 -0.0969
 4865SOL     OW26056   0.016   4.052   5.989  0.2028  0.1938  0.0164
 4865SOL    HW126057   0.107   4.033   6.009  0.6624  1.2966 -1.0450
 4865SOL    HW226058   0.005   3.972   5.937 -0.0042 -0.5166  1.1350
 4866SOL     OW26059   3.941   2.991   5.243 -0.4930  0.0582 -0.5220
 4866SOL    HW126060   3.899   2.995   5.329 -0.5821  0.6900 -0.5942
 4866SOL    HW226061   4.033   2.969   5.256 -0.8682 -0.7575  0.7177
 4867SOL     OW26062   3.764   1.018   2.770 -0.8998  0.7057 -0.1654
 4867SOL    HW126063   3.738   0.975   2.689 -1.5089 -0.9167  0.8991
 4867SOL    HW226064   3.789   1.103   2.735  0.5360  0.4000  0.1233
 4868SOL     OW26065   0.262   0.502   1.542 -0.7666  0.0295 -0.1589
 4868SOL    HW126066   0.184   0.493   1.597 -0.4062 -2.8223 -0.1416
 4868SOL    HW226067   0.219   0.546   1.468  0.5196  2.2489  0.4180
 4869SOL     OW26068   4.261   4.464  14.777  0.1255  0.2847 -0.0636
 4869SOL    HW126069   4.174   4.475  14.739  0.4783  1.7583 -0.4170
 4869SOL    HW226070   4.323   4.469  14.705  0.1497 -1.7690 -0.1955
 4870SOL     OW26071   4.375   0.827   3.052  0.3659 -0.2821 -0.6164
 4870SOL    HW126072   4.440   0.763   3.024 -0.5260 -0.9673 -1.1227
 4870SOL    HW226073   4.352   0.873   2.972  1.6402 -1.0909 -1.4444
 4871SOL     OW26074   1.462   3.394   9.404 -0.6565 -0.0377  0.2013
 4871SOL    HW126075   1.497   3.401   9.315  2.2780  0.3547  1.3888
 4871SOL    HW226076   1.537   3.398   9.464  0.4486 -0.8983 -1.1068
 4872SOL     OW26077   3.834   1.700   8.226 -0.0011  0.0247 -0.0878
 4872SOL    HW126078   3.745   1.668   8.236  0.0631 -0.2229 -0.3081
 4872SOL    HW226079   3.846   1.757   8.301 -1.3697 -0.0873  0.2070
 4873SOL     OW26080   4.421   2.489   7.110 -0.8804 -0.2676 -0.6043
 4873SOL    HW126081   4.350   2.535   7.064  0.4857  1.8952 -0.5333
 4873SOL    HW226082   4.499   2.526   7.070 -2.4041  2.1049 -1.3772
 4874SOL     OW26083   0.688   0.205   6.665 -0.5368 -0.1044 -0.3162
 4874SOL    HW126084   0.744   0.135   6.632 -1.3377 -0.6717 -0.4512
 4874SOL    HW226085   0.600   0.185   6.632 -0.6159 -0.3666  0.0576
 4875SOL     OW26086   1.445   4.097   6.929  0.1041  0.0402 -0.0042
 4875SOL    HW126087   1.394   4.026   6.969  1.1872 -0.4741  0.4853
 4875SOL    HW226088   1.522   4.108   6.986  0.6512 -1.8973 -0.3584
 4876SOL     OW26089   3.636   3.227  14.189  0.0546  0.4440 -0.2927
 4876SOL    HW126090   3.659   3.309  14.233 -0.2914 -0.5874  1.8380
 4876SOL    HW226091   3.601   3.260  14.107 -1.5259 -1.4648 -0.3774
 4877SOL     OW26092   0.736   0.755   3.082 -0.0023 -0.3925 -0.0208
 4877SOL    HW126093   0.765   0.843   3.056 -3.8991  0.6674 -0.6854
 4877SOL    HW226094   0.658   0.751   3.027 -0.8697 -0.1457  1.1865
 4878SOL     OW26095   4.313   1.658  10.593 -0.3932 -0.4638  0.0492
 4878SOL    HW126096   4.373   1.584  10.586  1.3241  0.8442  0.8283
 4878SOL    HW226097   4.341   1.708  10.669 -0.5117  0.2618 -0.3774
 4879SOL     OW26098   1.086   3.387  11.514 -0.0654  0.1846 -0.3247
 4879SOL    HW126099   1.014   3.421  11.567  1.7549  3.5155  0.0170
 4879SOL    HW226100   1.085   3.296  11.545  2.7571  0.6092  1.0165
 4880SOL     OW26101   3.975   3.242   5.127  0.0530  0.0606  0.7491
 4880SOL    HW126102   3.885   3.270   5.107  1.2518  2.8420 -0.7641
 4880SOL    HW226103   3.961   3.152   5.157  2.1739 -1.7007 -3.5399
 4881SOL     OW26104   2.298   2.366  14.616  0.0673 -0.4590 -0.3689
 4881SOL    HW126105   2.335   2.429  14.679  0.2708 -1.9533  0.9901
 4881SOL    HW226106   2.235   2.322  14.672  0.7775 -0.1243  0.6879
 4882SOL     OW26107   3.875   0.586   9.657  0.2742  0.3895 -0.1877
 4882SOL    HW126108   3.825   0.664   9.633  0.3427 -0.0589 -1.7704
 4882SOL    HW226109   3.929   0.618   9.730  0.9639  0.3402 -0.6799
 4883SOL     OW26110   0.752   3.710   6.836 -0.7246  0.1448 -0.1089
 4883SOL    HW126111   0.657   3.714   6.830 -0.5490  0.8484 -2.4137
 4883SOL    HW226112   0.766   3.758   6.917 -1.8645  1.2271 -0.5592
 4884SOL     OW26113   3.014   1.329   6.966  0.0446  0.3318 -0.0858
 4884SOL    HW126114   2.925   1.323   6.931  0.6527 -1.1533 -1.3722
 4884SOL    HW226115   2.992   1.283   7.047  1.5633 -1.6699 -0.8164
 4885SOL     OW26116   0.746   2.492   4.203  0.5230 -0.1006  0.2447
 4885SOL    HW126117   0.757   2.481   4.109 -1.5676  1.2582 -0.1654
 4885SOL    HW226118   0.828   2.463   4.243  1.0731  0.5957 -0.3789
 4886SOL     OW26119   4.003   4.444   9.276  0.5983 -0.1528 -0.2811
 4886SOL    HW126120   3.967   4.513   9.220 -2.4507  0.5158  2.4856
 4886SOL    HW226121   4.094   4.467   9.290  0.6236 -0.4473  0.0192
 4887SOL     OW26122   4.705   3.850   5.833  0.0368 -0.1285  0.2406
 4887SOL    HW126123   4.680   3.810   5.916  2.3610  0.1115  1.0651
 4887SOL    HW226124   0.001   3.772   5.781  0.8291 -0.7737  1.5421
 4888SOL     OW26125   2.844   0.163   7.385 -0.7530  0.3771 -0.4937
 4888SOL    HW126126   2.910   0.147   7.318 -0.4068 -0.2044 -0.0155
 4888SOL    HW226127   2.892   0.220   7.445 -0.8924  2.9717 -2.8967
 4889SOL     OW26128   1.640   3.629  17.335  0.5461  0.6601  0.3518
 4889SOL    HW126129   1.649   3.719  17.304 -1.6969  0.7653 -0.0310
 4889SOL    HW226130   1.691   3.591  17.264  1.7658  0.1954  1.4790
 4890SOL     OW26131   3.544   1.719   4.645 -0.3336  0.3703 -0.0826
 4890SOL    HW126132   3.634   1.744   4.623 -0.0541  0.3393  1.0464
 4890SOL    HW226133   3.503   1.788   4.594 -0.6870 -0.7052 -1.2560
 4891SOL     OW26134   2.428   4.007  15.595  0.3061  0.2986 -0.3019
 4891SOL    HW126135   2.420   4.086  15.540 -0.4472  0.0355 -0.5705
 4891SOL    HW226136   2.333   4.002  15.609  0.4990 -3.3386 -0.4519
 4892SOL     OW26137   2.365   4.453   6.018 -0.1387 -0.1079 -0.0458
 4892SOL    HW126138   2.272   4.474   6.008 -0.0894  1.6349  3.2575
 4892SOL    HW226139   2.354   4.360   6.037 -0.7950 -0.1383 -0.5991
 4893SOL     OW26140   1.762   3.285   2.648  0.1222 -0.1123 -1.0200
 4893SOL    HW126141   1.712   3.203   2.640 -0.7550  0.4841 -1.7616
 4893SOL    HW226142   1.691   3.336   2.688  0.2353 -2.8247  2.6032
 4894SOL     OW26143   0.892   0.407  15.941 -0.2902 -0.1632  0.2292
 4894SOL    HW126144   0.971   0.462  15.945 -0.5972  0.2711  0.2461
 4894SOL    HW226145   0.926   0.332  15.891  0.7784 -0.1366  0.9026
 4895SOL     OW26146   3.436   2.744   0.767 -0.0173 -0.2231  0.1052
 4895SOL    HW126147   3.389   2.827   0.766 -0.0667 -0.2649 -0.7304
 4895SOL    HW226148   3.361   2.707   0.813  1.6834 -3.6401  0.1055
 4896SOL     OW26149   4.671   2.003   7.162 -0.1607  0.2425 -0.4777
 4896SOL    HW126150   0.035   2.013   7.128 -0.9508  0.6948 -2.3885
 4896SOL    HW226151   4.629   1.947   7.097 -3.4019 -0.0593  1.8599
 4897SOL     OW26152   3.715   2.863   6.605 -0.1006  0.0947  0.9717
 4897SOL    HW126153   3.678   2.802   6.541 -2.4653  1.7568  0.7490
 4897SOL    HW226154   3.701   2.954   6.578 -0.7817  0.1683  1.5736
 4898SOL     OW26155   2.072   1.536  16.021 -0.4820  0.3006  0.0313
 4898SOL    HW126156   2.103   1.467  15.963 -1.5725  1.5426 -2.0197
 4898SOL    HW226157   2.009   1.488  16.074 -1.3387 -0.3889 -1.6140
 4899SOL     OW26158   4.024   0.444   5.350 -0.2661  0.4466 -0.0258
 4899SOL    HW126159   4.108   0.489   5.353 -0.0753  0.0796  0.1393
 4899SOL    HW226160   4.002   0.443   5.443  1.6588 -1.5402  0.4171
 4900SOL     OW26161   3.877   2.456   3.082 -0.1845 -0.1022  0.4033
 4900SOL    HW126162   3.966   2.425   3.089  0.8993  2.8996  0.1922
 4900SOL    HW226163   3.873   2.458   2.987 -1.3313  0.6395  0.4563
 4901SOL     OW26164   0.602   0.388   9.028 -0.5122 -0.6465 -0.4050
 4901SOL    HW126165   0.575   0.296   9.033  1.4480 -1.2837 -1.5199
 4901SOL    HW226166   0.650   0.401   9.109  0.5232  1.0159 -1.2775
 4902SOL     OW26167   3.123   3.693   4.889  0.5648  0.6486  0.0450
 4902SOL    HW126168   3.080   3.769   4.928 -1.3569 -0.2894 -0.2225
 4902SOL    HW226169   3.052   3.629   4.884 -1.1288  2.4404  1.4745
 4903SOL     OW26170   2.436   3.685   0.034 -0.0162  0.4332 -0.3681
 4903SOL    HW126171   2.442   3.599  17.691 -1.6603 -0.8183  1.8899
 4903SOL    HW226172   2.482   3.743  17.674 -0.4856  1.4629  0.2736
 4904SOL     OW26173   2.900   3.300   5.932 -0.5043  0.3202  0.6074
 4904SOL    HW126174   2.876   3.349   6.011 -0.3252  2.1539 -0.4768
 4904SOL    HW226175   2.968   3.244   5.970  0.3952  1.4206  0.6299
 4905SOL     OW26176   2.221   1.426   1.948 -0.2685 -0.3706  0.0335
 4905SOL    HW126177   2.183   1.441   2.035  1.2698 -1.1346  0.8401
 4905SOL    HW226178   2.271   1.352   1.983  1.4862  0.8537  0.1315
 4906SOL     OW26179   3.504   4.571   3.261 -0.1988 -0.1316 -0.0551
 4906SOL    HW126180   3.595   4.575   3.290  0.2419  0.5299 -1.5442
 4906SOL    HW226181   3.461   4.579   3.346  0.2499  0.1735  0.1444
 4907SOL     OW26182   0.126   0.398   8.001  0.0418 -0.2905  0.2227
 4907SOL    HW126183   0.173   0.452   8.065 -1.7629  0.8062  0.6402
 4907SOL    HW226184   0.080   0.343   8.064 -1.8239  0.9369 -0.0513
 4908SOL     OW26185   0.942   4.187   9.126  0.3149 -0.3706  0.0800
 4908SOL    HW126186   0.941   4.222   9.037 -0.2341 -2.4361 -0.7134
 4908SOL    HW226187   0.854   4.151   9.135 -0.4518  1.5971  0.5066
 4909SOL     OW26188   2.743   2.151   4.387  0.3556 -0.0107 -0.0450
 4909SOL    HW126189   2.708   2.068   4.354 -0.5654  0.3637 -0.0068
 4909SOL    HW226190   2.771   2.121   4.473  0.2744  1.1851  0.3984
 4910SOL     OW26191   0.987   1.153   2.004  0.4251  0.1604  0.4212
 4910SOL    HW126192   1.065   1.206   1.988  0.1869  0.0182 -1.1596
 4910SOL    HW226193   0.984   1.104   1.922 -0.5316 -0.9827  1.1356
 4911SOL     OW26194   0.431   0.201  16.898  0.2604 -0.0808  0.0863
 4911SOL    HW126195   0.372   0.267  16.861  0.5601  1.2640  2.0386
 4911SOL    HW226196   0.384   0.128  16.939  1.5177  0.0977  1.8360
 4912SOL     OW26197   0.285   1.551  13.314  0.2593  0.4774 -0.2293
 4912SOL    HW126198   0.217   1.499  13.270 -0.7483  0.4416  1.3696
 4912SOL    HW226199   0.351   1.550  13.245  0.4520 -3.2782  0.0097
 4913SOL     OW26200   0.486   3.403   3.878  0.5802  0.3156 -0.7955
 4913SOL    HW126201   0.437   3.354   3.944  0.8868 -0.7149 -1.3458
 4913SOL    HW226202   0.430   3.394   3.802 -0.5475  0.2410  0.0465
 4914SOL     OW26203   3.482   3.338  12.322 -0.2854 -0.6345  0.3490
 4914SOL    HW126204   3.468   3.251  12.359 -2.0648 -0.4941  0.0244
 4914SOL    HW226205   3.424   3.387  12.380  0.9676  0.3892  0.7467
 4915SOL     OW26206   3.145   1.504   7.510  0.0751 -0.4395  0.6490
 4915SOL    HW126207   3.055   1.533   7.515  0.0964 -0.7446  2.7869
 4915SOL    HW226208   3.197   1.585   7.508 -0.9050  0.1667  0.0303
 4916SOL     OW26209   1.142   2.188  10.732 -0.1995  0.4968 -0.2869
 4916SOL    HW126210   1.183   2.210  10.648 -1.3151  1.3277 -0.6053
 4916SOL    HW226211   1.217   2.196  10.792 -1.5284  1.3290  1.2330
 4917SOL     OW26212   4.614   2.727   6.211 -0.3002 -0.3285 -0.4654
 4917SOL    HW126213   4.560   2.649   6.198  1.1971 -1.0175 -2.6989
 4917SOL    HW226214   4.661   2.702   6.291  0.0157 -0.8026 -0.7984
 4918SOL     OW26215   4.035   0.148   7.566 -0.1827  0.2666  0.1931
 4918SOL    HW126216   4.106   0.209   7.545  0.2469  0.4332  2.1173
 4918SOL    HW226217   4.063   0.102   7.645  0.7275 -0.7224 -0.7046
 4919SOL     OW26218   1.007   3.318   5.373  0.5380  0.1382 -0.3646
 4919SOL    HW126219   1.027   3.270   5.454  2.0044 -0.8350 -1.3118
 4919SOL    HW226220   1.004   3.244   5.313  0.1198 -1.7977  2.0238
 4920SOL     OW26221   0.403   2.235   7.665  0.0090 -0.4815 -0.0371
 4920SOL    HW126222   0.327   2.285   7.636 -1.2467 -1.4641  1.5629
 4920SOL    HW226223   0.362   2.149   7.660  1.2521 -1.0847  0.2119
 4921SOL     OW26224   2.891   4.722  13.985 -0.1442 -0.2030  0.5507
 4921SOL    HW126225   2.867   0.008  13.893  0.1907 -0.0788  0.4782
 4921SOL    HW226226   2.830   0.051  14.036 -2.2136 -1.2865 -0.7688
 4922SOL     OW26227   1.382   0.415   3.116 -0.5570  0.2894 -0.0763
 4922SOL    HW126228   1.402   0.418   3.023 -0.8087  0.3074 -0.1294
 4922SOL    HW226229   1.287   0.403   3.113 -0.4834  0.1578 -1.6587
 4923SOL     OW26230   3.603   2.765  12.872 -0.2045 -0.3930  0.4066
 4923SOL    HW126231   3.584   2.859  12.869  1.5220 -0.0569 -0.2581
 4923SOL    HW226232   3.525   2.730  12.915 -0.9269  2.4457  1.3925
 4924SOL     OW26233   2.560   0.780   8.425 -0.5185  0.4120 -0.2788
 4924SOL    HW126234   2.642   0.820   8.395  0.0918  1.4412  2.7467
 4924SOL    HW226235   2.582   0.758   8.515  0.6027 -2.3831 -1.2235
 4925SOL     OW26236   1.414   1.475   9.049 -0.1401 -0.0837  0.3394
 4925SOL    HW126237   1.331   1.515   9.019 -0.5416 -0.0593  1.4854
 4925SOL    HW226238   1.412   1.383   9.023 -1.3481  0.3473 -1.1730
 4926SOL     OW26239   0.599   4.212  10.624 -0.4802 -0.4920 -0.3875
 4926SOL    HW126240   0.592   4.272  10.698 -0.8412 -0.5152 -0.4036
 4926SOL    HW226241   0.510   4.191  10.595 -0.8402  0.8754 -0.2503
 4927SOL     OW26242   2.676   3.263   8.502 -0.6795  0.0083 -0.7582
 4927SOL    HW126243   2.678   3.300   8.414 -0.0604 -0.3968 -0.9151
 4927SOL    HW226244   2.748   3.200   8.509  0.2998  1.1786 -0.1397
 4928SOL     OW26245   0.473   4.436   4.588 -0.2711  0.0096  0.1089
 4928SOL    HW126246   0.524   4.516   4.600 -2.0071  1.6615 -3.6504
 4928SOL    HW226247   0.511   4.371   4.648 -3.8900 -2.4902 -0.2526
 4929SOL     OW26248   0.013   1.396   2.217  0.2153 -0.3289  0.2943
 4929SOL    HW126249   0.068   1.379   2.141  1.6844 -1.1403  1.5434
 4929SOL    HW226250   4.725   1.307   2.249  2.2825 -0.2049  1.4902
 4930SOL     OW26251   4.280   1.258   8.755 -0.8895 -0.2085 -0.1129
 4930SOL    HW126252   4.360   1.307   8.732  0.7226 -3.4529 -1.3076
 4930SOL    HW226253   4.308   1.168   8.742 -0.4107 -0.0585 -0.1466
 4931SOL     OW26254   3.740   3.785   1.612 -0.6089  0.5431  0.1427
 4931SOL    HW126255   3.678   3.819   1.676 -2.1329 -1.9110 -0.0221
 4931SOL    HW226256   3.693   3.701   1.609  0.2754  0.0867 -0.8641
 4932SOL     OW26257   4.465   1.700  17.649 -0.1641 -0.3927 -0.1539
 4932SOL    HW126258   4.500   1.622  17.606  0.6453 -0.3373  0.4116
 4932SOL    HW226259   4.457   1.766  17.580  0.7763  2.7559  2.7544
 4933SOL     OW26260   1.868   0.707  14.133 -0.5564 -0.6599 -0.2645
 4933SOL    HW126261   1.852   0.792  14.092  4.5907  0.6574  0.4600
 4933SOL    HW226262   1.903   0.654  14.060  3.6069 -0.1109  1.3071
 4934SOL     OW26263   1.967   3.976   7.875  0.2423 -0.3430  0.2149
 4934SOL    HW126264   1.991   3.884   7.891  1.5234 -0.3459 -1.7094
 4934SOL    HW226265   1.873   3.970   7.895  0.4198 -0.9665  0.8961
 4935SOL     OW26266   4.227   1.673  11.345  0.0964  0.2429 -0.0250
 4935SOL    HW126267   4.287   1.632  11.406  1.7448  0.9211 -1.1869
 4935SOL    HW226268   4.188   1.727  11.414 -1.3381 -1.0789  0.1869
 4936SOL     OW26269   1.290   4.462   7.721 -0.1802  0.1354 -0.1639
 4936SOL    HW126270   1.365   4.454   7.779 -0.8510  1.0991  0.8314
 4936SOL    HW226271   1.226   4.435   7.787 -0.8585  2.2861  0.0448
 4937SOL     OW26272   0.828   3.621   5.098 -0.0150  0.5197 -0.1333
 4937SOL    HW126273   0.865   3.672   5.171 -2.0059 -0.4573  1.5579
 4937SOL    HW226274   0.803   3.694   5.042  0.7038  1.4570  0.7581
 4938SOL     OW26275   0.906   1.648   2.864 -0.5245  0.0999 -0.0874
 4938SOL    HW126276   0.842   1.680   2.800 -0.8151 -2.0568 -0.8986
 4938SOL    HW226277   0.895   1.723   2.922 -0.0975 -0.3365  0.5559
 4939SOL     OW26278   0.720   1.128   8.755 -0.0834  0.3083 -0.6358
 4939SOL    HW126279   0.684   1.039   8.744 -0.9502  0.4391  1.1663
 4939SOL    HW226280   0.651   1.169   8.807 -0.6288 -1.4370  0.0177
 4940SOL     OW26281   1.515   4.334  10.791  0.6068 -0.3892 -0.1750
 4940SOL    HW126282   1.465   4.284  10.727  0.0105  0.4421 -0.3484
 4940SOL    HW226283   1.454   4.386  10.842  1.2290 -1.1124  1.3188
 4941SOL     OW26284   0.908   3.043   2.128 -0.2628  0.1461 -0.3265
 4941SOL    HW126285   0.876   3.100   2.058 -1.0653 -0.3331 -0.3527
 4941SOL    HW226286   0.988   3.014   2.082 -0.7850 -1.4224 -0.2614
 4942SOL     OW26287   2.081   4.085   6.874  0.2027  0.2091  0.2060
 4942SOL    HW126288   2.141   4.159   6.868 -0.5197  0.7076 -0.8557
 4942SOL    HW226289   2.021   4.120   6.940 -0.5301 -0.4919 -0.0820
 4943SOL     OW26290   3.436   2.677  17.541  0.2645  0.1449 -0.3382
 4943SOL    HW126291   3.485   2.642  17.616 -0.9103 -0.6423  0.0548
 4943SOL    HW226292   3.481   2.633  17.469  1.6339  1.0596 -0.0620
 4944SOL     OW26293   2.395   1.278  14.830  0.0186  0.3201 -0.1394
 4944SOL    HW126294   2.420   1.365  14.800 -0.1834  0.3713 -0.1598
 4944SOL    HW226295   2.352   1.288  14.915  1.2719 -0.4544  0.5866
 4945SOL     OW26296   1.067   2.429   5.406  0.3146  0.0247 -0.4779
 4945SOL    HW126297   1.026   2.385   5.332 -1.6364  0.5046  0.3046
 4945SOL    HW226298   1.052   2.364   5.475  1.4415  0.8603  0.5596
 4946SOL     OW26299   0.278   0.450   9.138  0.1812 -0.4519 -0.0500
 4946SOL    HW126300   0.278   0.362   9.175  0.6758 -1.1654 -1.7668
 4946SOL    HW226301   0.188   0.477   9.157 -0.4871 -1.8395 -1.2667
 4947SOL     OW26302   0.805   4.099   6.564 -0.1823 -0.2922  0.0509
 4947SOL    HW126303   0.814   4.182   6.610 -1.2564  0.0084 -0.2987
 4947SOL    HW226304   0.897   4.093   6.537  0.1041 -1.8345  1.3376
 4948SOL     OW26305   0.936   3.947   2.680  0.5448  0.5828 -0.2419
 4948SOL    HW126306   0.852   3.993   2.688  0.5619  0.4916  0.4065
 4948SOL    HW226307   0.928   3.918   2.589  0.8028 -1.0247  0.2484
 4949SOL     OW26308   3.539   3.539   9.660  0.1325 -0.1473  0.0493
 4949SOL    HW126309   3.489   3.535   9.742  1.2454 -0.7328  0.6857
 4949SOL    HW226310   3.620   3.522   9.707  0.5391 -1.4492 -1.1439
 4950SOL     OW26311   1.005   0.072   4.090  0.0218 -0.2988 -0.5857
 4950SOL    HW126312   1.074   0.139   4.095  2.1580 -2.5503  0.1083
 4950SOL    HW226313   0.932   0.115   4.045 -1.4581 -2.0871  0.1336
 4951SOL     OW26314   3.540   1.956  12.687 -0.1522  0.2991 -0.1551
 4951SOL    HW126315   3.542   1.978  12.594  0.6392 -0.6461 -0.3649
 4951SOL    HW226316   3.458   1.909  12.701  0.0592 -0.1445 -0.3740
 4952SOL     OW26317   1.349   4.545   2.818  0.1495 -0.6704  0.0736
 4952SOL    HW126318   1.373   4.584   2.902  2.9049  1.2017 -1.5996
 4952SOL    HW226319   1.436   4.530   2.783 -0.0127 -2.4016  0.4014
 4953SOL     OW26320   3.731   4.010  12.517 -0.5584  0.2079  0.7710
 4953SOL    HW126321   3.776   3.937  12.474 -0.1904  0.6136  0.4574
 4953SOL    HW226322   3.783   4.081  12.478 -1.2623 -0.2799 -1.0594
 4954SOL     OW26323   1.525   0.319   2.515 -0.5260 -0.0499 -0.2837
 4954SOL    HW126324   1.462   0.328   2.443 -0.5452 -1.9470 -0.5083
 4954SOL    HW226325   1.481   0.255   2.572  3.8174 -2.0854  0.7514
 4955SOL     OW26326   1.493   3.357   6.232 -0.3985  0.6339 -0.4202
 4955SOL    HW126327   1.471   3.268   6.260 -1.8055  1.2213  0.3369
 4955SOL    HW226328   1.536   3.340   6.148 -0.3839 -0.3589 -0.2077
 4956SOL     OW26329   3.132   4.368  14.521 -0.0758  0.3162  0.2668
 4956SOL    HW126330   3.170   4.456  14.521 -0.1033  0.3257  2.7943
 4956SOL    HW226331   3.211   4.314  14.527  0.8801  1.4007 -2.6954
 4957SOL     OW26332   3.676   4.229   2.854  0.4621 -0.3545 -0.3989
 4957SOL    HW126333   3.768   4.257   2.853  0.1980  0.5120 -0.6112
 4957SOL    HW226334   3.629   4.295   2.803 -0.6973  0.4761  1.7409
 4958SOL     OW26335   3.636   0.748   6.304 -0.5769 -0.0880  0.0566
 4958SOL    HW126336   3.686   0.711   6.377  1.8749 -1.6862 -2.4713
 4958SOL    HW226337   3.621   0.669   6.253 -2.9690  0.1268  0.4326
 4959SOL     OW26338   2.219   0.547   7.505  0.5315 -0.0074  0.2039
 4959SOL    HW126339   2.275   0.612   7.462 -0.9349 -0.0976 -1.8381
 4959SOL    HW226340   2.283   0.509   7.564  0.2635  0.7273  0.9652
 4960SOL     OW26341   1.379   1.420   7.686  0.1457  0.0884  0.1707
 4960SOL    HW126342   1.474   1.414   7.672  0.4464 -0.9178  2.7545
 4960SOL    HW226343   1.361   1.347   7.745 -0.8999  0.0205 -0.2318
 4961SOL     OW26344   0.617   2.084   2.189  0.2294  0.8634 -0.3679
 4961SOL    HW126345   0.622   2.160   2.131 -1.1067  1.7787  0.7142
 4961SOL    HW226346   0.629   2.127   2.274 -0.7428 -0.1749  0.3014
 4962SOL     OW26347   2.710   3.287  12.449 -0.5745  0.0548 -0.1734
 4962SOL    HW126348   2.684   3.361  12.504  1.7136 -0.0967  1.1142
 4962SOL    HW226349   2.631   3.234  12.450 -1.7388  1.8052  0.5380
 4963SOL     OW26350   2.597   0.366   1.618 -0.0715  0.1067  0.3587
 4963SOL    HW126351   2.534   0.312   1.665 -0.1381 -0.9801 -0.9703
 4963SOL    HW226352   2.545   0.375   1.538  3.9355  0.3649 -2.2600
 4964SOL     OW26353   0.498   0.415   2.400 -0.2544  0.1753 -0.4013
 4964SOL    HW126354   0.493   0.508   2.423  0.7322  0.2593 -0.5330
 4964SOL    HW226355   0.474   0.369   2.480 -1.7055  1.4660 -0.0867
 4965SOL     OW26356   3.095   3.339   9.011  0.5781 -0.4855 -0.4337
 4965SOL    HW126357   3.183   3.309   9.033  0.1267 -0.4081  1.4969
 4965SOL    HW226358   3.098   3.432   9.033  0.4586 -0.2975 -1.2190
 4966SOL     OW26359   2.033   2.989   6.922  0.6235  0.7801  0.7114
 4966SOL    HW126360   2.112   3.008   6.872  0.4460 -0.4591 -0.0360
 4966SOL    HW226361   2.052   3.038   7.002  0.4518  0.6968  0.8036
 4967SOL     OW26362   2.964   2.446   6.313  0.3936 -0.2197 -0.1371
 4967SOL    HW126363   3.017   2.394   6.373 -0.2619 -1.1576 -0.3740
 4967SOL    HW226364   2.936   2.516   6.373 -0.8885 -0.1357 -0.8405
 4968SOL     OW26365   3.221   4.292   4.547  0.4830 -0.4583  0.0513
 4968SOL    HW126366   3.259   4.281   4.460 -1.9417  2.0362 -1.2999
 4968SOL    HW226367   3.202   4.386   4.541  3.1067  0.1129  0.8832
 4969SOL     OW26368   0.229   4.362   6.731 -0.0768  0.4362 -0.4809
 4969SOL    HW126369   0.307   4.310   6.752  0.1922  1.4645  1.0186
 4969SOL    HW226370   0.183   4.314   6.662 -0.3453 -0.8706  0.6318
 4970SOL     OW26371   1.549   3.890   7.719 -0.7134  0.2907 -0.1970
 4970SOL    HW126372   1.456   3.894   7.740 -0.7011  1.5455 -0.3536
 4970SOL    HW226373   1.563   3.795   7.720  0.7472  0.5059 -0.6124
 4971SOL     OW26374   1.220   2.156   7.648  0.7834  0.8610 -0.4989
 4971SOL    HW126375   1.234   2.210   7.725  1.9288  0.6452 -0.5526
 4971SOL    HW226376   1.126   2.165   7.632  0.1335  0.0336  2.9801
 4972SOL     OW26377   1.475   1.123   2.953  0.1053  0.3474 -0.1457
 4972SOL    HW126378   1.569   1.102   2.954  0.5258  2.1782 -0.7024
 4972SOL    HW226379   1.481   1.218   2.954  2.5809  0.1916  1.5244
 4973SOL     OW26380   0.047   0.068   6.569 -0.2166 -0.3715 -0.6227
 4973SOL    HW126381   0.084   0.028   6.491 -0.0012 -0.9139 -0.2453
 4973SOL    HW226382   0.088   0.010   6.634  0.4590 -0.3341 -1.0110
 4974SOL     OW26383   0.721   2.218  14.494 -0.0827 -0.7413  0.0844
 4974SOL    HW126384   0.664   2.294  14.483  0.2786 -0.3714  0.7438
 4974SOL    HW226385   0.696   2.146  14.437  0.8084 -1.1465  0.2046
 4975SOL     OW26386   3.167   1.351   1.972  0.0023 -0.7377 -0.3876
 4975SOL    HW126387   3.121   1.435   1.979  2.0754  0.4001 -0.6374
 4975SOL    HW226388   3.208   1.356   1.886  2.1762 -4.1698  0.4420
 4976SOL     OW26389   2.568   0.144   7.735 -0.0657  0.0163  0.6946
 4976SOL    HW126390   2.486   0.094   7.736  0.5398 -0.8792  4.5285
 4976SOL    HW226391   2.603   0.126   7.822  1.1131 -0.6316  0.0880
 4977SOL     OW26392   1.209   0.472   9.106  0.4265  0.2354 -0.1053
 4977SOL    HW126393   1.126   0.519   9.117 -0.3944 -1.3411  0.3962
 4977SOL    HW226394   1.175   0.384   9.123  1.7555  0.1460  2.0320
 4978SOL     OW26395   0.643   4.266  17.175 -0.4232 -0.6629  0.0614
 4978SOL    HW126396   0.611   4.316  17.100 -1.7432  0.2637  1.2458
 4978SOL    HW226397   0.728   4.304  17.199 -1.5187  1.2219  0.9755
 4979SOL     OW26398   3.094   2.754   5.859 -0.2900  0.0974  0.6676
 4979SOL    HW126399   3.179   2.763   5.815  0.5332 -1.8229  1.8721
 4979SOL    HW226400   3.046   2.714   5.787 -2.5706  3.8315  0.1447
 4980SOL     OW26401   3.674   3.597   5.565  0.0505 -0.1694 -0.1055
 4980SOL    HW126402   3.701   3.525   5.622 -1.4509 -1.1358 -0.5755
 4980SOL    HW226403   3.721   3.669   5.607  3.2883 -1.8505 -0.8581
 4981SOL     OW26404   2.963   2.976   2.066 -0.5353 -0.3104  0.0254
 4981SOL    HW126405   2.966   3.035   2.141 -3.3141 -0.0109 -0.0807
 4981SOL    HW226406   2.909   2.902   2.095 -0.7235 -0.5918 -1.0537
 4982SOL     OW26407   0.198   3.451  10.208  0.1739  0.2910 -0.1800
 4982SOL    HW126408   0.108   3.481  10.222  0.4563  0.8466  0.4479
 4982SOL    HW226409   0.230   3.533  10.170  2.0724 -0.6791 -0.6967
 4983SOL     OW26410   3.933   4.171   9.254  0.3009 -0.0716  0.8065
 4983SOL    HW126411   3.996   4.155   9.324  2.4094  1.8402 -0.6457
 4983SOL    HW226412   3.954   4.263   9.237  0.1467 -0.2599 -0.3771
 4984SOL     OW26413   0.766   1.261   2.816 -0.6876  0.2309 -0.0380
 4984SOL    HW126414   0.714   1.206   2.758 -1.1988  0.8325 -0.1467
 4984SOL    HW226415   0.693   1.310   2.853 -1.7517 -1.3322 -0.0731
 4985SOL     OW26416   2.975   4.611   5.786  0.4747  0.4521 -0.0577
 4985SOL    HW126417   2.888   4.583   5.815  1.0299 -2.7499 -1.4817
 4985SOL    HW226418   2.975   4.568   5.701 -1.8231  0.3123  0.0015
 4986SOL     OW26419   3.395   2.564  16.703  0.2595  0.2193  0.1511
 4986SOL    HW126420   3.451   2.634  16.669 -0.7031  0.0252 -1.8183
 4986SOL    HW226421   3.326   2.555  16.637  0.3129 -1.5984  0.3562
 4987SOL     OW26422   3.095   1.902  13.809 -0.0441  0.3161 -0.0122
 4987SOL    HW126423   3.065   1.845  13.739  0.2609  0.4150 -0.2197
 4987SOL    HW226424   3.080   1.850  13.889  1.1508 -1.4130 -0.9013
 4988SOL     OW26425   1.989   1.941  12.052  0.0071  0.3559  0.4196
 4988SOL    HW126426   1.934   1.878  12.006  1.2566  0.4381 -1.1526
 4988SOL    HW226427   1.919   2.000  12.082 -0.8337 -0.4967  0.1553
 4989SOL     OW26428   4.170   1.883   6.736  0.4469 -0.1973  0.7299
 4989SOL    HW126429   4.108   1.811   6.735  0.0331  0.2045 -1.6255
 4989SOL    HW226430   4.114   1.958   6.717  1.7439  0.9236  1.2750
 4990SOL     OW26431   0.343   1.945   6.168 -0.0027 -0.3307 -0.5926
 4990SOL    HW126432   0.409   1.876   6.172  1.6668  1.4560  2.0738
 4990SOL    HW226433   0.280   1.933   6.238  0.3964 -0.6040 -0.2831
 4991SOL     OW26434   1.975   1.609   5.291 -0.3532 -0.0100 -0.5643
 4991SOL    HW126435   2.018   1.538   5.244 -1.2134  1.2959 -3.2958
 4991SOL    HW226436   1.883   1.598   5.267 -0.4358  0.7352 -0.5871
 4992SOL     OW26437   0.153   3.034   2.125  0.7078 -0.1533  0.2411
 4992SOL    HW126438   0.200   3.001   2.048  2.4315  1.7546  0.4731
 4992SOL    HW226439   0.141   3.124   2.094 -0.8943  0.0162  1.3464
 4993SOL     OW26440   0.767   0.673   7.918  0.4090 -0.0111 -0.4156
 4993SOL    HW126441   0.713   0.723   7.858 -1.8546 -1.3762  0.4609
 4993SOL    HW226442   0.703   0.607   7.944 -1.7386  1.9645 -0.7455
 4994SOL     OW26443   3.086   1.178  12.338  0.3310  0.2007  0.0246
 4994SOL    HW126444   3.107   1.138  12.254 -1.1692 -0.0442 -0.2417
 4994SOL    HW226445   3.171   1.170  12.380 -0.0859 -2.6438  0.3639
 4995SOL     OW26446   4.543   1.188   5.528 -0.2647  0.1827  0.4553
 4995SOL    HW126447   4.486   1.159   5.457 -0.7641  1.4454  0.3518
 4995SOL    HW226448   4.627   1.154   5.498  0.2971  2.0798 -0.0909
 4996SOL     OW26449   0.791   0.767   8.473 -0.9991  0.0964  0.3163
 4996SOL    HW126450   0.849   0.803   8.540  1.6468 -0.2226 -1.7858
 4996SOL    HW226451   0.857   0.717   8.424 -0.7546  0.9922 -0.2718
 4997SOL     OW26452   4.539   4.052  10.650  0.2220  0.3076 -0.4446
 4997SOL    HW126453   4.445   4.033  10.646  0.2444 -0.0921  1.0505
 4997SOL    HW226454   4.568   3.967  10.683 -0.0034  0.3075 -0.2473
 4998SOL     OW26455   4.040   2.134  11.625 -0.3735 -0.1705 -0.1444
 4998SOL    HW126456   4.070   2.051  11.586 -0.5701 -0.5112  0.4298
 4998SOL    HW226457   4.046   2.193  11.550  0.1861  0.0552  0.0741
 4999SOL     OW26458   1.083   3.562   4.310  0.3132 -0.0042 -0.2422
 4999SOL    HW126459   1.140   3.639   4.309 -0.4516  0.5591 -0.7569
 4999SOL    HW226460   0.996   3.596   4.288 -0.2839 -1.9046 -0.8223
 5000SOL     OW26461   1.411   0.588   4.531  0.1045  0.1723 -0.1932
 5000SOL    HW126462   1.438   0.553   4.447  1.5069 -0.8411  0.6729
 5000SOL    HW226463   1.480   0.655   4.539  0.0600  0.2587 -0.5628
 5001SOL     OW26464   0.499   1.477   5.641 -0.4301 -0.2485  0.1228
 5001SOL    HW126465   0.485   1.568   5.666  0.9487  0.5124 -1.8444
 5001SOL    HW226466   0.584   1.449   5.674  0.0666  1.1430 -0.0088
 5002SOL     OW26467   3.731   3.250   7.526 -0.3210 -0.8788  0.9020
 5002SOL    HW126468   3.772   3.200   7.596 -0.9870 -0.8447  1.3174
 5002SOL    HW226469   3.653   3.288   7.566  0.1477  0.1645  0.8270
 5003SOL     OW26470   2.446   4.647   2.255  0.1768  0.1608 -0.4975
 5003SOL    HW126471   2.437   0.018   2.263  2.4426  0.3967 -0.8166
 5003SOL    HW226472   2.539   4.628   2.261  0.1416  0.1551  0.0200
 5004SOL     OW26473   0.689   3.912   5.257  0.3095 -0.1728  0.4789
 5004SOL    HW126474   0.736   3.894   5.176 -0.3912 -0.9591  0.2468
 5004SOL    HW226475   0.599   3.916   5.224  0.3084 -1.2344  0.3685
 5005SOL     OW26476   1.697   2.893  13.501  0.0140  0.0771 -0.1111
 5005SOL    HW126477   1.791   2.884  13.481 -0.1352  1.2485 -1.2822
 5005SOL    HW226478   1.682   2.977  13.459 -1.4650  0.1270  0.5092
 5006SOL     OW26479   3.299   4.183  10.379  0.1625  0.3450 -0.2420
 5006SOL    HW126480   3.292   4.259  10.322  0.4339  0.0888 -0.6156
 5006SOL    HW226481   3.363   4.208  10.445 -0.9676  0.8529  0.6592
 5007SOL     OW26482   4.513   4.524  13.064  0.1538  0.2888  0.1619
 5007SOL    HW126483   4.511   4.525  13.160  2.1370  0.6704  0.1925
 5007SOL    HW226484   4.443   4.462  13.044  0.1093  0.5649 -0.5265
 5008SOL     OW26485   0.910   4.583  17.195  0.3032 -0.2613 -0.0827
 5008SOL    HW126486   0.957   4.649  17.247  0.5488  2.0959 -3.2946
 5008SOL    HW226487   0.921   4.501  17.244  0.8529 -0.9151 -1.3056
 5009SOL     OW26488   0.175   4.425   6.108  0.5315 -0.1378 -0.2982
 5009SOL    HW126489   0.247   4.452   6.051 -0.0593 -1.6861 -1.7882
 5009SOL    HW226490   0.097   4.405   6.056  0.0746  0.3337  0.2054
 5010SOL     OW26491   2.665   2.219   8.255  0.0209  0.1156  0.6457
 5010SOL    HW126492   2.760   2.228   8.246  0.0889 -0.8948  0.3960
 5010SOL    HW226493   2.643   2.209   8.162 -0.9563  0.7435  0.8131
 5011SOL     OW26494   2.996   1.141   1.868 -0.0726 -0.1474  0.0555
 5011SOL    HW126495   3.029   1.214   1.920  3.1708 -1.0335 -0.7496
 5011SOL    HW226496   2.912   1.176   1.837 -0.1674 -2.2834 -2.1259
 5012SOL     OW26497   1.210   4.039   4.527  0.4594 -0.8344 -0.4311
 5012SOL    HW126498   1.303   4.016   4.526  0.1402 -1.9817 -3.6486
 5012SOL    HW226499   1.165   3.959   4.555  0.0308 -0.4307  0.0213
 5013SOL     OW26500   1.676   1.631   5.709 -0.3068 -0.3251  0.5724
 5013SOL    HW126501   1.742   1.563   5.700 -1.1979 -0.8725 -1.7828
 5013SOL    HW226502   1.626   1.601   5.633  0.8374 -0.0045 -0.3139
 5014SOL     OW26503   3.477   1.565   7.298  0.4811  0.1636 -0.4432
 5014SOL    HW126504   3.386   1.590   7.282  0.3358  0.2724  0.5765
 5014SOL    HW226505   3.496   1.537   7.208  2.1061  0.5770 -0.2303
 5015SOL     OW26506   0.665   3.355  11.840  0.3384 -0.2488  0.0258
 5015SOL    HW126507   0.590   3.328  11.788 -0.3755  0.0262  0.9152
 5015SOL    HW226508   0.642   3.330  11.929  2.2777 -0.8846  0.3429
 5016SOL     OW26509   3.644   0.828  15.412  0.3164  0.0096 -0.1041
 5016SOL    HW126510   3.557   0.830  15.451  0.7461  0.5838  0.8066
 5016SOL    HW226511   3.645   0.735  15.390 -2.8835  0.4550 -2.1483
 5017SOL     OW26512   4.069   3.469   2.132 -0.0004 -0.3207 -0.0035
 5017SOL    HW126513   4.083   3.410   2.059 -0.6066 -0.8542  0.3127
 5017SOL    HW226514   4.142   3.433   2.183  2.3049  1.3969 -2.0977
 5018SOL     OW26515   2.177   0.624  13.663  0.3026 -0.0310 -0.2695
 5018SOL    HW126516   2.210   0.541  13.699  0.3852  0.3155  0.4575
 5018SOL    HW226517   2.157   0.589  13.576  0.7469 -2.1459  0.4643
 5019SOL     OW26518   2.956   0.532   7.256  0.3481 -0.0775  0.6165
 5019SOL    HW126519   2.959   0.627   7.250  2.0771 -0.1890 -0.5845
 5019SOL    HW226520   2.986   0.500   7.170  0.7214 -1.2646  1.1855
 5020SOL     OW26521   1.625   1.604  11.184  0.3086 -0.0790 -0.5086
 5020SOL    HW126522   1.538   1.587  11.221  0.0785 -0.2640 -1.1350
 5020SOL    HW226523   1.636   1.688  11.228  0.8524 -1.3598  1.7968
 5021SOL     OW26524   0.337   0.386   1.256 -0.2368  0.0228 -0.3325
 5021SOL    HW126525   0.243   0.376   1.269 -0.2692  1.2172  0.3123
 5021SOL    HW226526   0.346   0.317   1.190  0.0350  0.1270 -0.4036
 5022SOL     OW26527   0.963   4.491   6.972 -0.0847  0.1766  0.6643
 5022SOL    HW126528   1.058   4.482   6.974 -0.2241 -1.0137  1.9364
 5022SOL    HW226529   0.947   4.570   7.025 -0.7706 -0.2931  1.1614
 5023SOL     OW26530   0.952   3.813   6.718 -0.2308 -0.3797 -0.3555
 5023SOL    HW126531   0.978   3.848   6.804  1.6635 -1.0520 -0.6428
 5023SOL    HW226532   0.879   3.755   6.738 -0.9960  0.5285 -0.5198
 5024SOL     OW26533   1.164   3.766   3.657  0.1399 -0.0696 -0.0380
 5024SOL    HW126534   1.078   3.797   3.683 -0.4211  0.7834 -2.8894
 5024SOL    HW226535   1.186   3.829   3.587  0.9479  1.7625  1.8656
 5025SOL     OW26536   0.295   0.350   3.256  0.3779  0.3637 -0.0322
 5025SOL    HW126537   0.247   0.404   3.318 -0.1549 -2.0426  1.6417
 5025SOL    HW226538   0.227   0.286   3.236  1.0464  0.2047 -1.8411
 5026SOL     OW26539   4.617   1.714  16.907  0.5960  0.1768 -0.3700
 5026SOL    HW126540   4.663   1.744  16.828  1.7131  1.0311  0.5991
 5026SOL    HW226541   4.548   1.780  16.917  0.2369 -0.5372  1.9027
 5027SOL     OW26542   3.644   3.694   3.403  0.3163  0.2507 -0.2085
 5027SOL    HW126543   3.607   3.781   3.390  1.5863  0.5207 -1.9335
 5027SOL    HW226544   3.583   3.640   3.454 -0.0380  1.6872  0.8858
 5028SOL     OW26545   0.282   1.115   0.009  0.2169  0.2766 -0.2723
 5028SOL    HW126546   0.190   1.135  17.688  0.1565 -0.0937 -0.3647
 5028SOL    HW226547   0.270   1.023   0.031  1.1202  0.4829  1.0821
 5029SOL     OW26548   1.889   2.517   3.900 -1.2679 -0.5134 -0.2915
 5029SOL    HW126549   1.810   2.471   3.929 -2.8443  2.3358 -0.0997
 5029SOL    HW226550   1.897   2.581   3.971 -0.8356 -1.8948  0.9069
 5030SOL     OW26551   3.702   0.399   9.369  0.7578  0.2696 -0.2689
 5030SOL    HW126552   3.664   0.311   9.370  0.7480  0.2848  1.3114
 5030SOL    HW226553   3.671   0.448   9.445  1.3358 -1.3734  1.0300
 5031SOL     OW26554   0.614   0.004   1.719  0.0309 -0.0543 -0.1239
 5031SOL    HW126555   0.653   4.697   1.638  0.5873  0.3111 -0.0005
 5031SOL    HW226556   0.549   4.660   1.733 -1.8588  1.3494 -1.8962
 5032SOL     OW26557   0.819   0.375  17.262 -0.6623 -0.6823  0.1030
 5032SOL    HW126558   0.774   0.446  17.306 -0.5694 -1.4385  1.4157
 5032SOL    HW226559   0.765   0.352  17.186  1.5899 -3.0098 -0.7948
 5033SOL     OW26560   3.008   0.880   7.961 -0.5301  0.2395 -0.2433
 5033SOL    HW126561   3.018   0.946   8.029  0.4197  0.0596 -0.2104
 5033SOL    HW226562   2.929   0.899   7.911 -1.1417  0.6411  0.8803
 5034SOL     OW26563   2.859   4.416   6.166  0.4959 -0.5166 -0.2482
 5034SOL    HW126564   2.766   4.438   6.172  0.2508 -1.8397  0.7307
 5034SOL    HW226565   2.903   4.501   6.164 -0.0359 -0.2292  0.4637
 5035SOL     OW26566   3.331   0.986   9.676  0.1278 -0.6004 -0.4953
 5035SOL    HW126567   3.406   1.045   9.672  1.4417 -2.3162 -1.1704
 5035SOL    HW226568   3.282   1.031   9.607  2.9421 -0.0105 -2.1136
 5036SOL     OW26569   0.480   3.243  11.616 -0.3064  0.0758  0.1977
 5036SOL    HW126570   0.542   3.299  11.570  1.1021 -0.0883  1.8477
 5036SOL    HW226571   0.403   3.273  11.570  0.0892  4.2394  2.2378
 5037SOL     OW26572   0.254   0.715   0.541  0.2769  0.2673 -0.1912
 5037SOL    HW126573   0.292   0.795   0.504 -0.5763  1.0493  0.5982
 5037SOL    HW226574   0.250   0.737   0.634  2.0547  0.6376 -0.2008
 5038SOL     OW26575   3.961   3.728   7.255  0.3331 -0.2967 -0.1696
 5038SOL    HW126576   4.045   3.755   7.293  1.2772 -0.1703 -2.3613
 5038SOL    HW226577   3.900   3.797   7.281 -0.6871 -0.8216 -1.1598
 5039SOL     OW26578   3.200   4.096   7.429 -0.0212 -0.2121  0.3009
 5039SOL    HW126579   3.157   4.075   7.512  0.5546 -1.1746  0.3600
 5039SOL    HW226580   3.135   4.067   7.365  0.8537 -2.4112  0.4113
 5040SOL     OW26581   1.972   3.350   5.155  0.2810 -0.4148 -0.1935
 5040SOL    HW126582   2.022   3.356   5.074 -0.2588  1.3744 -0.3744
 5040SOL    HW226583   1.995   3.434   5.194  2.7057 -0.7131 -1.0315
 5041SOL     OW26584   4.085   2.196   6.144  0.0609 -0.6544 -0.2963
 5041SOL    HW126585   4.116   2.141   6.216 -0.1014  1.2395  1.2239
 5041SOL    HW226586   4.066   2.126   6.082 -1.1428 -0.2038 -0.4374
 5042SOL     OW26587   3.178   3.147   8.128 -0.4375  1.0384  0.1710
 5042SOL    HW126588   3.200   3.191   8.210  0.6714 -0.4912  0.6890
 5042SOL    HW226589   3.151   3.222   8.075 -0.1219  1.2264  0.2767
 5043SOL     OW26590   0.179   4.255  16.581  0.0087 -0.1308 -0.3718
 5043SOL    HW126591   0.203   4.332  16.633  0.8010 -0.8365  0.3230
 5043SOL    HW226592   0.089   4.240  16.611  0.4625  0.4603  1.3081
 5044SOL     OW26593   3.446   3.243   2.303 -0.0503  0.8681  0.1778
 5044SOL    HW126594   3.460   3.260   2.396 -0.2953 -0.1354  0.3995
 5044SOL    HW226595   3.369   3.297   2.280  0.4140  0.7138 -1.7604
 5045SOL     OW26596   4.114   3.278   5.476  0.2496  0.0901 -0.3528
 5045SOL    HW126597   4.128   3.205   5.417 -0.0796  0.7086 -1.1947
 5045SOL    HW226598   4.086   3.347   5.416  0.3175  0.7572  0.3856
 5046SOL     OW26599   2.040   1.344  17.525 -0.0621  0.0230  0.1039
 5046SOL    HW126600   1.975   1.339  17.454 -0.9097 -1.7409  1.0156
 5046SOL    HW226601   2.089   1.423  17.501  0.3267 -0.3664 -0.3950
 5047SOL     OW26602   1.248   2.715  12.000  0.4650  0.5730 -0.0848
 5047SOL    HW126603   1.208   2.775  11.936  0.5285 -1.2046 -1.7754
 5047SOL    HW226604   1.192   2.713  12.077  1.7272  1.3126  0.8646
 5048SOL     OW26605   2.542   3.358   9.031  0.3050  1.0205  0.2370
 5048SOL    HW126606   2.538   3.316   9.117 -0.7507  0.3498 -0.1364
 5048SOL    HW226607   2.612   3.307   8.989 -1.5986  0.6151 -2.4598
 5049SOL     OW26608   3.148   0.830   1.304 -0.0284 -0.2630  0.3364
 5049SOL    HW126609   3.083   0.897   1.324  0.1573 -0.0673  0.2782
 5049SOL    HW226610   3.180   0.853   1.216  2.3080 -0.9897  0.9986
 5050SOL     OW26611   4.341   3.638  17.444 -0.3723  0.0352 -0.1430
 5050SOL    HW126612   4.254   3.675  17.460 -0.3129  0.1209 -0.0234
 5050SOL    HW226613   4.365   3.659  17.354 -0.6182 -2.7905 -0.8970
 5051SOL     OW26614   1.830   2.903  15.321 -0.1642 -0.7080 -0.0842
 5051SOL    HW126615   1.909   2.879  15.370  0.7114  1.4490 -0.4486
 5051SOL    HW226616   1.862   2.916  15.232  0.0231  0.7625  0.1959
 5052SOL     OW26617   2.686   0.137   1.982 -0.1356 -0.2735  0.7300
 5052SOL    HW126618   2.739   0.200   1.933  0.7746  0.8091  3.1430
 5052SOL    HW226619   2.674   0.068   1.917  0.9272  0.2332 -0.0034
 5053SOL     OW26620   4.200   2.105   7.342  0.2577 -0.0829 -0.3829
 5053SOL    HW126621   4.282   2.155   7.338 -0.1101  0.5803  0.3558
 5053SOL    HW226622   4.152   2.170   7.290  1.0427  0.8374  0.0387
 5054SOL     OW26623   4.017   3.216   1.600  0.1583 -0.0984 -0.4996
 5054SOL    HW126624   4.094   3.167   1.631 -0.9684 -2.1750 -1.0599
 5054SOL    HW226625   4.044   3.308   1.597 -1.0428  0.1917 -2.1351
 5055SOL     OW26626   2.565   4.115   7.707 -0.1642 -0.6601  0.0666
 5055SOL    HW126627   2.573   4.052   7.635  0.1565 -0.2628 -0.2465
 5055SOL    HW226628   2.564   4.047   7.774 -0.5253 -0.8438 -0.1263
 5056SOL     OW26629   1.356   3.540   3.984  1.0351 -0.2566 -1.0529
 5056SOL    HW126630   1.295   3.590   3.929 -0.1289  1.8220  2.0824
 5056SOL    HW226631   1.314   3.455   3.997  1.2880 -0.1740  0.3742
 5057SOL     OW26632   4.089   3.955  11.522 -0.0778 -0.3677  0.4739
 5057SOL    HW126633   4.087   3.896  11.597 -1.3295  0.6502  1.2485
 5057SOL    HW226634   4.044   3.898  11.460 -1.0345  0.3642  0.4786
 5058SOL     OW26635   3.222   2.233   1.637  0.6282  0.9236  0.5281
 5058SOL    HW126636   3.243   2.228   1.730 -0.6805  1.7816  0.8693
 5058SOL    HW226637   3.261   2.149   1.611 -0.9571 -0.2829  2.0077
 5059SOL     OW26638   0.067   0.062   5.973  0.4419 -0.0570  0.0048
 5059SOL    HW126639   0.019   0.093   5.896  0.8633 -0.5809 -0.4710
 5059SOL    HW226640   0.140   0.011   5.937  1.6666  0.8307  1.2540
 5060SOL     OW26641   2.575   0.601   4.447  0.2256  0.1709 -0.7493
 5060SOL    HW126642   2.668   0.597   4.424  0.4475  1.8221 -0.1338
 5060SOL    HW226643   2.579   0.662   4.521 -2.6579  0.7154 -1.0330
 5061SOL     OW26644   3.333   3.347   6.107  0.3269 -0.8015  0.5235
 5061SOL    HW126645   3.278   3.313   6.177 -2.2858  1.4774 -0.4593
 5061SOL    HW226646   3.422   3.324   6.135  1.3675  1.3370 -1.0082
 5062SOL     OW26647   1.068   3.124   5.171  0.3041  0.1007 -0.2415
 5062SOL    HW126648   1.105   3.140   5.085  2.3668 -0.2633  0.5762
 5062SOL    HW226649   1.010   3.051   5.146  3.7522 -2.2570 -1.3522
 5063SOL     OW26650   1.481   1.825   4.710  0.2179  0.1197 -0.3698
 5063SOL    HW126651   1.482   1.760   4.780 -1.7062  0.1529 -0.2994
 5063SOL    HW226652   1.404   1.812   4.655 -0.9676  0.0636  1.3121
 5064SOL     OW26653   1.304   1.701   3.589 -0.5860  0.0802 -0.3332
 5064SOL    HW126654   1.348   1.661   3.515  2.0682  0.2985  1.1443
 5064SOL    HW226655   1.214   1.691   3.559 -0.3024 -2.0995 -0.4306
 5065SOL     OW26656   1.494   1.242   5.598 -0.1909  0.5445  0.2507
 5065SOL    HW126657   1.403   1.221   5.619  0.8310 -0.7740  3.3697
 5065SOL    HW226658   1.534   1.159   5.623 -1.0728 -0.0346 -0.2571
 5066SOL     OW26659   2.697   0.997   7.377 -0.5027 -0.3456  0.0498
 5066SOL    HW126660   2.673   1.052   7.302  0.6185 -1.5188 -1.1822
 5066SOL    HW226661   2.779   1.034   7.409 -1.2881  0.2712  1.2939
 5067SOL     OW26662   3.188   3.837   9.254 -0.0420 -0.2759  0.1659
 5067SOL    HW126663   3.167   3.904   9.319 -0.2167  0.1453 -0.3302
 5067SOL    HW226664   3.139   3.862   9.176 -1.8612  0.1863  1.4704
 5068SOL     OW26665   0.075   3.121  17.505 -0.1523 -0.6195 -0.3913
 5068SOL    HW126666   0.153   3.162  17.469  1.9861 -2.7686  1.7412
 5068SOL    HW226667   0.037   3.193  17.555  0.2405 -0.0976 -0.8597
 5069SOL     OW26668   3.432   4.489   3.768  0.5309  0.4971 -0.2730
 5069SOL    HW126669   3.509   4.476   3.823  1.8380  1.9700 -1.7949
 5069SOL    HW226670   3.444   4.412   3.713  0.6969 -1.4336  2.4664
 5070SOL     OW26671   0.268   2.414   4.346  0.3398 -0.3243 -0.4091
 5070SOL    HW126672   0.344   2.377   4.302  0.6156 -0.4408  0.1649
 5070SOL    HW226673   0.293   2.502   4.374 -1.1438 -0.3831  1.0717
 5071SOL     OW26674   3.881   3.511   5.302  0.0626  0.1932  0.0324
 5071SOL    HW126675   3.804   3.567   5.292  0.2518  0.1373 -1.7905
 5071SOL    HW226676   3.848   3.422   5.312  1.1451 -0.3226 -1.0194
 5072SOL     OW26677   0.668   2.843  11.043 -0.4609 -0.3749 -0.1009
 5072SOL    HW126678   0.756   2.830  11.078 -0.9114 -1.6803  0.5570
 5072SOL    HW226679   0.656   2.937  11.027 -0.1961 -0.5125 -1.0946
 5073SOL     OW26680   2.040   1.190  11.318 -0.6249 -0.2972  0.2050
 5073SOL    HW126681   1.959   1.198  11.269  0.0013 -2.1842 -1.1576
 5073SOL    HW226682   2.103   1.143  11.263 -0.9073  0.2657 -0.5800
 5074SOL     OW26683   2.101   2.971   6.622 -0.5136 -0.2256  1.1950
 5074SOL    HW126684   2.167   3.002   6.684  0.6970  0.2595 -0.3527
 5074SOL    HW226685   2.164   2.947   6.555 -2.7233  0.1406 -1.0426
 5075SOL     OW26686   2.701   2.581   2.633 -0.3502 -0.0618 -0.3238
 5075SOL    HW126687   2.698   2.514   2.566  0.7119  0.2060 -0.6329
 5075SOL    HW226688   2.776   2.565   2.691  1.1222 -1.2090 -2.5763
 5076SOL     OW26689   3.867   1.173   9.249 -0.0484 -0.1640 -0.2805
 5076SOL    HW126690   3.888   1.098   9.194 -2.7545  0.4048 -2.1111
 5076SOL    HW226691   3.955   1.203   9.273 -1.2007  2.1251  1.0941
 5077SOL     OW26692   1.037   0.038   5.728  0.0598  0.9630  0.0274
 5077SOL    HW126693   1.070   4.673   5.737  0.9367  1.3694  0.8373
 5077SOL    HW226694   0.982   0.027   5.651  0.1166  1.3790 -0.0705
 5078SOL     OW26695   3.666   2.521   4.102  0.1652 -0.4356 -0.0035
 5078SOL    HW126696   3.746   2.560   4.067 -0.8870  1.6969 -0.0340
 5078SOL    HW226697   3.693   2.464   4.173 -2.0279 -3.6097 -1.6937
 5079SOL     OW26698   0.586   0.451   3.353 -0.0324  0.1311 -0.3649
 5079SOL    HW126699   0.532   0.512   3.404  1.0596  0.0640  0.8696
 5079SOL    HW226700   0.669   0.475   3.393  0.5043  0.1189 -1.4821
 5080SOL     OW26701   3.949   1.355   1.664 -0.1084 -0.6431  0.1153
 5080SOL    HW126702   3.990   1.435   1.630  0.0625 -0.6713  0.2509
 5080SOL    HW226703   4.009   1.326   1.733 -1.4850  3.5995  3.1478
 5081SOL     OW26704   2.045   1.570   8.982 -0.3942 -0.2040 -0.8744
 5081SOL    HW126705   2.121   1.623   9.008 -0.3829 -0.6900  0.0939
 5081SOL    HW226706   2.063   1.580   8.889  2.8878 -1.2154 -0.3560
 5082SOL     OW26707   1.262   2.297  16.092  0.0248 -0.0529 -0.7792
 5082SOL    HW126708   1.190   2.256  16.043  0.6198 -2.3711  0.2730
 5082SOL    HW226709   1.338   2.254  16.052  1.9299  2.3145  0.3175
 5083SOL     OW26710   3.913   1.825   0.027 -0.8304 -0.4192 -0.6555
 5083SOL    HW126711   3.868   1.741   0.040 -0.2653 -0.7542 -0.8617
 5083SOL    HW226712   3.930   1.851   0.118 -1.7000 -0.8062 -0.3762
 5084SOL     OW26713   1.512   2.625   3.491 -0.0054  0.2027  0.0887
 5084SOL    HW126714   1.524   2.720   3.487  2.1586 -0.1113 -0.6860
 5084SOL    HW226715   1.450   2.613   3.563 -0.1577  3.2552  0.4724
 5085SOL     OW26716   3.674   0.490   8.410 -0.4049 -0.5535  0.5306
 5085SOL    HW126717   3.727   0.570   8.400 -3.8122  1.6517  0.0842
 5085SOL    HW226718   3.643   0.465   8.323  0.7233 -1.0664  0.2682
 5086SOL     OW26719   4.348   0.269   3.764  0.4311 -0.0870 -0.2746
 5086SOL    HW126720   4.285   0.340   3.771 -1.2764 -1.3912 -2.0490
 5086SOL    HW226721   4.362   0.269   3.669 -0.5069  1.3185 -0.4063
 5087SOL     OW26722   0.759   1.683  13.152 -0.7888 -0.5176 -0.2906
 5087SOL    HW126723   0.725   1.678  13.063  2.2386  1.0485 -1.5131
 5087SOL    HW226724   0.801   1.600  13.174  0.0278  0.6071  2.4158
 5088SOL     OW26725   3.439   0.303   4.273 -0.1103 -0.0108  0.8364
 5088SOL    HW126726   3.478   0.265   4.194 -1.0174 -0.2372  0.4936
 5088SOL    HW226727   3.429   0.395   4.249  2.3059 -0.3271 -1.4005
 5089SOL     OW26728   4.492   2.866  15.337  0.0178  0.1969 -0.2924
 5089SOL    HW126729   4.567   2.899  15.287  2.1907 -0.4411  2.5065
 5089SOL    HW226730   4.453   2.803  15.276  3.5496 -0.8161 -1.5256
 5090SOL     OW26731   0.106   0.932  16.288  0.7638 -0.1000  0.0299
 5090SOL    HW126732   0.133   1.015  16.249  0.9005 -0.0230  0.2921
 5090SOL    HW226733   0.147   0.869  16.228  3.7005 -0.0938  2.0465
 5091SOL     OW26734   3.385   0.899  15.469  0.1338  0.0800  0.1889
 5091SOL    HW126735   3.325   0.826  15.457 -0.3795  0.5465 -0.0843
 5091SOL    HW226736   3.349   0.965  15.410  2.1384  1.3691  0.4167
 5092SOL     OW26737   0.697   2.335  17.094  0.2149  0.7906  0.4388
 5092SOL    HW126738   0.771   2.290  17.053 -0.3334 -0.4740  0.8349
 5092SOL    HW226739   0.705   2.305  17.185 -0.1938 -1.5725 -0.2930
 5093SOL     OW26740   3.700   0.027   5.117  0.6073  0.1316 -0.7214
 5093SOL    HW126741   3.739   0.094   5.173  1.8055  0.7289 -2.2786
 5093SOL    HW226742   3.715   4.676   5.173  0.2147 -1.0672 -2.2344
 5094SOL     OW26743   1.102   2.541  14.035  0.1324  0.0081  0.0210
 5094SOL    HW126744   1.131   2.482  13.965 -0.9347 -0.9950  0.4201
 5094SOL    HW226745   1.178   2.595  14.057  0.8531 -1.0627  0.1373
 5095SOL     OW26746   2.706   1.267   3.065  0.1444  0.1571  0.3123
 5095SOL    HW126747   2.711   1.183   3.110 -2.9324 -0.7308 -0.9865
 5095SOL    HW226748   2.661   1.228   2.990 -0.7725  0.9358  0.4608
 5096SOL     OW26749   1.623   3.541   8.849 -0.7166  0.8433  0.6593
 5096SOL    HW126750   1.596   3.609   8.910  1.0414  0.9302  1.3378
 5096SOL    HW226751   1.538   3.502   8.830  0.0695 -1.1666  1.2641
 5097SOL     OW26752   0.876   3.142   3.243  0.3512 -0.6139 -0.8332
 5097SOL    HW126753   0.881   3.231   3.209 -0.9466 -0.3526 -0.3408
 5097SOL    HW226754   0.852   3.144   3.335 -0.7991 -0.3906 -1.1344
 5098SOL     OW26755   2.920   3.912   6.132 -0.0973 -0.1825  0.1805
 5098SOL    HW126756   3.007   3.881   6.157 -0.9602 -2.2179  0.6626
 5098SOL    HW226757   2.923   4.006   6.151  1.3066 -0.5055  1.4680
 5099SOL     OW26758   0.488   0.951  12.937 -0.0093 -0.1896  0.3172
 5099SOL    HW126759   0.524   0.862  12.931  0.3446 -0.1966  2.3320
 5099SOL    HW226760   0.397   0.934  12.911 -0.4724  0.4781  1.5092
 5100SOL     OW26761   1.077   4.592   3.919 -0.4561  0.0695 -0.2045
 5100SOL    HW126762   1.168   4.561   3.917 -0.4151  0.2318 -0.8939
 5100SOL    HW226763   1.071   4.657   3.988 -1.0313 -1.4207  1.1432
 5101SOL     OW26764   1.439   3.089   1.806 -0.2331  0.0983  0.7655
 5101SOL    HW126765   1.503   3.076   1.737 -0.6089  3.0250 -0.1513
 5101SOL    HW226766   1.363   3.126   1.760  1.1128  1.0407 -0.7015
 5102SOL     OW26767   0.422   2.819   4.928 -0.5639  0.4062 -0.2208
 5102SOL    HW126768   0.330   2.834   4.950  0.1612 -0.1265  3.1197
 5102SOL    HW226769   0.448   2.910   4.944  0.4558 -0.1281  1.1398
 5103SOL     OW26770   1.670   0.233   3.180 -0.8470  0.5629 -0.2657
 5103SOL    HW126771   1.582   0.195   3.176 -0.7006  0.3334 -1.3183
 5103SOL    HW226772   1.686   0.243   3.086 -5.5601  1.9579 -0.8997
 5104SOL     OW26773   3.036   0.727  16.226 -0.2577  0.1551 -0.7474
 5104SOL    HW126774   2.975   0.654  16.215  1.9264 -1.7847 -0.0486
 5104SOL    HW226775   3.021   0.751  16.317 -2.0944 -1.1709 -0.6952
 5105SOL     OW26776   0.876   4.635   7.207  0.2698 -0.0035  0.0932
 5105SOL    HW126777   0.834   4.639   7.293  3.6425  2.2391  1.6274
 5105SOL    HW226778   0.958   4.675   7.234  0.9441 -1.9067  0.8546
 5106SOL     OW26779   3.975   3.872   2.829 -0.5542 -0.1453 -0.3700
 5106SOL    HW126780   3.891   3.898   2.867 -1.4388 -2.3548 -0.8181
 5106SOL    HW226781   3.976   3.875   2.734  2.1812 -0.4520 -0.3571
 5107SOL     OW26782   1.589   3.275   4.272  0.4329  0.5891  0.6773
 5107SOL    HW126783   1.514   3.254   4.217  2.2462  2.4209 -2.4840
 5107SOL    HW226784   1.658   3.240   4.216 -0.0725 -1.4378  1.3240
 5108SOL     OW26785   0.502   1.555  17.051 -0.6592  0.4072 -0.0437
 5108SOL    HW126786   0.500   1.539  16.956 -0.9097  0.8351 -0.1129
 5108SOL    HW226787   0.544   1.479  17.090 -1.0987 -1.1172 -2.4907
 5109SOL     OW26788   0.750   3.671  13.387 -0.4496  0.6108 -0.2141
 5109SOL    HW126789   0.657   3.674  13.407 -0.2130 -0.0989  1.0229
 5109SOL    HW226790   0.752   3.637  13.297  1.3010  0.4640 -0.1225
 5110SOL     OW26791   1.235   2.621  12.715 -0.0488  0.3389  0.1288
 5110SOL    HW126792   1.236   2.624  12.619 -0.7603  0.7658  0.1336
 5110SOL    HW226793   1.249   2.528  12.731 -0.0659  0.0384 -1.5501
 5111SOL     OW26794   0.590   2.431  10.946 -0.1508 -0.2662  0.2525
 5111SOL    HW126795   0.536   2.504  10.976 -1.8079 -1.8257  1.0414
 5111SOL    HW226796   0.550   2.407  10.862 -1.3219 -2.7622  1.5245
 5112SOL     OW26797   1.557   4.500  13.010 -0.0627 -0.0434 -0.1755
 5112SOL    HW126798   1.553   4.582  13.059  1.3956 -0.4854  0.6745
 5112SOL    HW226799   1.640   4.509  12.963 -0.9354 -1.9789 -2.0875
 5113SOL     OW26800   3.695   1.564   6.979  0.1749 -0.2610  0.3728
 5113SOL    HW126801   3.603   1.540   6.985  0.0213  0.3878  0.6077
 5113SOL    HW226802   3.697   1.655   6.950  0.8746 -0.1211  0.8398
 5114SOL     OW26803   0.226   0.334   6.417  0.2425 -0.2653  0.3207
 5114SOL    HW126804   0.236   0.381   6.334  0.1670 -1.0686 -0.1437
 5114SOL    HW226805   0.142   0.290   6.401 -1.3659  2.0300  2.3629
 5115SOL     OW26806   3.281   1.889   3.824 -0.3689 -0.2196  0.3707
 5115SOL    HW126807   3.279   1.911   3.917 -0.1302 -0.9947  0.5619
 5115SOL    HW226808   3.369   1.852   3.822  0.6351  2.0969  1.9152
 5116SOL     OW26809   0.271   1.850   7.243 -0.3265  0.2200 -0.0188
 5116SOL    HW126810   0.185   1.822   7.211 -0.6557  0.7591  0.3721
 5116SOL    HW226811   0.316   1.866   7.160 -0.0614  1.3714  0.3495
 5117SOL     OW26812   3.781   0.504  16.234  0.0774 -0.8201  0.1476
 5117SOL    HW126813   3.739   0.460  16.308  0.5185 -1.3317  0.0945
 5117SOL    HW226814   3.755   0.593  16.260  0.8388 -0.2992 -0.8579
 5118SOL     OW26815   3.643   4.636  12.389  0.1845  0.7312  0.2108
 5118SOL    HW126816   3.665   4.720  12.349  1.6305  1.0155  1.6236
 5118SOL    HW226817   3.602   4.660  12.472 -0.5993  1.3588 -0.3493
 5119SOL     OW26818   2.812   2.073   7.149 -0.0426 -0.3512  0.0904
 5119SOL    HW126819   2.784   2.050   7.061 -0.0383 -0.1589  0.0391
 5119SOL    HW226820   2.741   2.130   7.181  0.6067  1.8521 -2.4117
 5120SOL     OW26821   2.689   4.069   4.993 -0.1862  0.5395 -0.1068
 5120SOL    HW126822   2.766   4.075   5.049  0.5353 -0.7740 -0.9640
 5120SOL    HW226823   2.724   4.101   4.910  2.0528 -6.0874 -1.7623
 5121SOL     OW26824   1.839   2.468  14.308 -0.1215 -0.5951  0.3622
 5121SOL    HW126825   1.907   2.455  14.241 -0.9039 -2.4117 -0.0715
 5121SOL    HW226826   1.773   2.524  14.268 -0.1273 -0.4461  0.5780
 5122SOL     OW26827   4.036   2.006   2.950 -0.3343 -0.3851  0.5500
 5122SOL    HW126828   4.086   1.947   2.895 -0.5388 -0.9982  1.0221
 5122SOL    HW226829   4.105   2.049   3.001  0.8925 -0.7154 -0.8637
 5123SOL     OW26830   2.505   0.376   8.418 -0.2350  0.3736  0.0899
 5123SOL    HW126831   2.579   0.430   8.390  0.5600  0.2636  1.9187
 5123SOL    HW226832   2.441   0.437   8.454 -1.4704 -0.1899 -1.1735
 5124SOL     OW26833   4.486   3.213   4.445  0.0367  0.2650 -0.0124
 5124SOL    HW126834   4.525   3.153   4.509  1.1840 -0.8921 -1.7641
 5124SOL    HW226835   4.411   3.161   4.415 -1.1771  1.3431  1.1586
 5125SOL     OW26836   1.029   3.495  13.646  0.3242  0.2186 -0.1585
 5125SOL    HW126837   0.940   3.462  13.641  0.1736  0.8827 -1.9404
 5125SOL    HW226838   1.011   3.589  13.654 -0.4541  0.0634 -0.1340
 5126SOL     OW26839   1.190   4.419  12.439 -0.1339  0.3684  0.3968
 5126SOL    HW126840   1.120   4.470  12.479  1.0021  1.1924  1.3284
 5126SOL    HW226841   1.150   4.332  12.428  0.3278  0.1646  0.3214
 5127SOL     OW26842   3.059   1.872   2.574  0.2993  0.3235  0.0045
 5127SOL    HW126843   3.084   1.848   2.484  2.5514 -0.7112  0.8884
 5127SOL    HW226844   2.972   1.832   2.580  0.0471  0.6480 -1.4154
 5128SOL     OW26845   0.268   1.541   3.338 -0.1841 -0.0051 -0.0697
 5128SOL    HW126846   0.361   1.546   3.317  0.0702 -0.1020  1.0310
 5128SOL    HW226847   0.243   1.492   3.259 -2.8176 -1.4271  1.6661
 5129SOL     OW26848   2.457   3.479  17.583 -0.3751 -0.1860  0.0825
 5129SOL    HW126849   2.533   3.424  17.564 -1.8930 -2.4366  0.5332
 5129SOL    HW226850   2.393   3.443  17.523 -0.3461  0.7404 -0.5020
 5130SOL     OW26851   0.058   4.625   4.904 -0.0506  0.4111 -0.0042
 5130SOL    HW126852   0.026   4.584   4.824 -1.5856 -1.4456  1.5682
 5130SOL    HW226853   4.697   4.638   4.944  0.1957 -0.5566  0.8213
 5131SOL     OW26854   4.631   4.521   6.856  0.2314 -0.1829 -0.1933
 5131SOL    HW126855   4.716   4.476   6.855 -0.0185 -0.5834 -3.2010
 5131SOL    HW226856   4.583   4.457   6.803 -1.3075  1.3123 -0.5850
 5132SOL     OW26857   1.024   4.636  12.617 -0.2650  0.1903 -0.1571
 5132SOL    HW126858   1.102   4.641  12.562 -0.0191  0.6061  0.2310
 5132SOL    HW226859   1.068   4.630  12.702 -0.0734  2.8733 -0.0617
 5133SOL     OW26860   1.935   2.763   8.387  0.1368  0.0955 -0.5332
 5133SOL    HW126861   1.842   2.738   8.385  0.6742 -1.9933  0.4451
 5133SOL    HW226862   1.920   2.843   8.336 -1.1197  0.1477 -0.0793
 5134SOL     OW26863   4.640   4.168   0.564  0.3429 -0.1857  0.1583
 5134SOL    HW126864   4.554   4.204   0.590 -0.8185 -1.8782 -1.3408
 5134SOL    HW226865   4.677   4.151   0.650  2.8375  1.0047 -0.7039
 5135SOL     OW26866   3.137   0.620   4.214  0.1535 -0.4102 -0.5164
 5135SOL    HW126867   3.176   0.597   4.130 -1.8101  1.1194 -1.8564
 5135SOL    HW226868   3.170   0.705   4.241 -1.4199 -0.1325  0.5661
 5136SOL     OW26869   3.352   4.035   4.243  0.6801  1.0598 -0.5618
 5136SOL    HW126870   3.352   4.039   4.147 -1.4917 -0.3096 -0.6133
 5136SOL    HW226871   3.329   4.126   4.259 -2.0134  0.3213 -0.1588
 5137SOL     OW26872   2.793   3.458   2.553  0.7151  0.0887 -0.1283
 5137SOL    HW126873   2.718   3.479   2.498  1.3997  0.4886 -0.9171
 5137SOL    HW226874   2.766   3.477   2.643  1.5786  0.7289 -0.0016
 5138SOL     OW26875   3.034   0.989  16.456 -0.4058 -0.1731  0.3557
 5138SOL    HW126876   3.045   1.008  16.363  0.4392  0.4474  0.5770
 5138SOL    HW226877   2.939   0.994  16.466 -0.4220  0.2610 -0.0050
 5139SOL     OW26878   1.742   1.126  17.180 -1.4314 -0.7065  0.4517
 5139SOL    HW126879   1.719   1.055  17.241  0.7328 -2.1802 -0.4319
 5139SOL    HW226880   1.760   1.065  17.109 -0.8939 -0.2457  0.1941
 5140SOL     OW26881   4.256   2.699   6.612  0.5790  0.0906  0.1527
 5140SOL    HW126882   4.226   2.672   6.525  0.4284 -1.5577  0.7106
 5140SOL    HW226883   4.351   2.708   6.599  0.6992 -0.9637  0.2840
 5141SOL     OW26884   0.292   1.855   6.562  0.7125 -0.2024  0.2388
 5141SOL    HW126885   0.253   1.931   6.520  1.6915 -0.1459 -0.5791
 5141SOL    HW226886   0.217   1.797   6.571  0.4750  0.1567  0.5490
 5142SOL     OW26887   0.284   0.437   6.159  0.5094  0.0530  0.0950
 5142SOL    HW126888   0.215   0.396   6.105  0.3668  1.3671 -0.7275
 5142SOL    HW226889   0.317   0.501   6.095 -1.3392  1.1977  0.2748
 5143SOL     OW26890   1.091   2.942  10.110  0.1432  0.2053  0.0249
 5143SOL    HW126891   1.044   2.891  10.176 -1.7735 -0.2276 -1.6910
 5143SOL    HW226892   1.042   2.907  10.036  0.2463  0.7527 -0.2963
 5144SOL     OW26893   4.464   0.064   0.284  0.6876 -0.1004  0.2066
 5144SOL    HW126894   4.420   0.145   0.310 -0.8115 -0.9530  0.3592
 5144SOL    HW226895   4.550   0.091   0.253  0.5864 -1.4791 -1.2532
 5145SOL     OW26896   3.387   3.101   2.861  0.3558 -0.2491  0.4741
 5145SOL    HW126897   3.428   3.185   2.845  0.6911 -0.7729 -1.4756
 5145SOL    HW226898   3.309   3.101   2.805  1.9198 -0.5293 -1.7035
 5146SOL     OW26899   2.203   1.639   1.452 -0.4368  0.5129 -0.0343
 5146SOL    HW126900   2.281   1.589   1.427 -0.0581  0.8747  0.4248
 5146SOL    HW226901   2.221   1.636   1.546 -0.1804  1.5403 -0.0467
 5147SOL     OW26902   4.617   4.399  11.145 -0.1348 -0.4414 -0.3237
 5147SOL    HW126903   4.571   4.391  11.229  1.8395  0.4163  0.8437
 5147SOL    HW226904   4.700   4.439  11.170 -0.4593 -0.5590  0.9544
 5148SOL     OW26905   2.623   4.239   1.364 -0.0785  0.6215  0.0759
 5148SOL    HW126906   2.603   4.231   1.270  1.8955 -1.0373 -0.1924
 5148SOL    HW226907   2.654   4.151   1.384  1.5202  1.6382  2.0248
 5149SOL     OW26908   1.707   3.754  12.902  0.0509 -0.4081 -0.4556
 5149SOL    HW126909   1.669   3.723  12.985  0.4541  0.5317  0.0853
 5149SOL    HW226910   1.687   3.848  12.905 -1.0468 -0.5851 -2.6953
 5150SOL     OW26911   3.889   0.928   4.110 -0.0500  0.1588 -0.7842
 5150SOL    HW126912   3.924   0.875   4.181  0.4930  0.5140 -0.7892
 5150SOL    HW226913   3.931   0.901   4.028 -1.9068 -1.1558 -1.3042
 5151SOL     OW26914   3.620   0.505  11.739  0.3772 -0.3374 -0.1956
 5151SOL    HW126915   3.557   0.436  11.762 -1.9734  1.4350 -1.2541
 5151SOL    HW226916   3.561   0.567  11.695 -0.5744 -0.7077  0.5559
 5152SOL     OW26917   0.084   3.895  12.000 -0.3291 -0.1700  0.3980
 5152SOL    HW126918   4.720   3.923  12.026 -0.3234  0.3845 -0.1770
 5152SOL    HW226919   0.136   3.962  12.044 -0.5015 -0.2623  0.7450
 5153SOL     OW26920   4.193   0.003  13.458  0.1258 -0.0173  0.1266
 5153SOL    HW126921   4.208   4.638  13.429  0.9420  0.2399 -0.2467
 5153SOL    HW226922   4.151   4.724  13.545  0.0383  1.3846  0.1458
 5154SOL     OW26923   3.160   0.866  15.122  0.1641  0.5235  0.1254
 5154SOL    HW126924   3.164   0.929  15.194 -0.3372 -0.4343  0.9813
 5154SOL    HW226925   3.113   0.791  15.156  0.4322  1.0776  1.7111
 5155SOL     OW26926   1.371   4.509   5.080 -0.5074 -0.1389  0.2786
 5155SOL    HW126927   1.279   4.508   5.053  0.2211 -2.4620 -2.1245
 5155SOL    HW226928   1.416   4.569   5.020  0.5031  0.8552  2.0560
 5156SOL     OW26929   3.997   2.102   7.059 -0.2277 -0.5227  0.1645
 5156SOL    HW126930   4.085   2.114   7.025  0.3946 -1.8583  1.2886
 5156SOL    HW226931   3.965   2.185   7.095 -3.0162 -2.2512  1.7240
 5157SOL     OW26932   0.846   1.770  17.405  0.1158 -0.0190 -0.2195
 5157SOL    HW126933   0.772   1.798  17.353 -1.6971  0.4209  2.5742
 5157SOL    HW226934   0.887   1.856  17.420 -0.5994  0.5374 -1.5278
 5158SOL     OW26935   1.627   0.121  12.397  0.4912  0.4027  0.1831
 5158SOL    HW126936   1.681   0.167  12.461  0.1675  1.1206 -0.0510
 5158SOL    HW226937   1.542   0.129  12.440  0.0663 -0.1941 -0.5494
 5159SOL     OW26938   1.490   0.791   2.623  0.1500 -0.0201 -0.1644
 5159SOL    HW126939   1.477   0.881   2.653  1.4722  0.5517 -1.2967
 5159SOL    HW226940   1.527   0.756   2.703  0.2609  1.8952  0.6335
 5160SOL     OW26941   1.258   3.572  17.374  0.0739  0.2654 -0.0651
 5160SOL    HW126942   1.312   3.643  17.339  0.2169 -0.1509 -0.7059
 5160SOL    HW226943   1.173   3.612  17.391 -0.0520 -0.0708  0.1080
 5161SOL     OW26944   2.985   2.546  16.792 -0.2085 -0.6439 -0.0622
 5161SOL    HW126945   2.890   2.548  16.805 -0.1193  0.6685  0.3479
 5161SOL    HW226946   3.014   2.456  16.778 -1.5568 -0.7560 -2.1036
 5162SOL     OW26947   1.970   1.246  16.463 -0.6479 -0.8096 -0.6280
 5162SOL    HW126948   1.987   1.262  16.556  0.4774 -0.7970 -0.8402
 5162SOL    HW226949   2.032   1.176  16.446  0.3069 -0.3632  1.0300
 5163SOL     OW26950   1.183   0.132   3.740 -0.2646 -0.1759  0.2794
 5163SOL    HW126951   1.138   0.208   3.776  1.2468  1.1311 -0.5840
 5163SOL    HW226952   1.114   0.070   3.717 -2.2207  1.7668  0.9468
 5164SOL     OW26953   3.940   1.972   8.777 -0.4441 -0.3861 -0.1948
 5164SOL    HW126954   3.869   1.932   8.827 -0.1783  0.3540  0.7520
 5164SOL    HW226955   3.895   2.044   8.732 -0.0361 -0.1723 -0.2594
 5165SOL     OW26956   1.900   2.868  15.879  0.3007 -0.5958  0.3001
 5165SOL    HW126957   1.838   2.935  15.850 -0.1709 -0.8880  0.6298
 5165SOL    HW226958   1.905   2.889  15.972  1.0004  0.3239  0.0565
 5166SOL     OW26959   0.744   2.014   8.612  0.5506 -0.0038 -0.7589
 5166SOL    HW126960   0.701   2.084   8.562 -2.5542 -2.1262 -1.0414
 5166SOL    HW226961   0.719   1.931   8.571 -0.4162 -0.5724  1.0176
 5167SOL     OW26962   0.726   1.242   2.008  0.5429  0.2382 -0.4007
 5167SOL    HW126963   0.808   1.195   2.019  1.3434  1.4443 -1.1724
 5167SOL    HW226964   0.748   1.334   2.026  2.0326 -0.3818  0.9130
 5168SOL     OW26965   2.483   1.081   0.632  0.1378 -0.2039 -0.0590
 5168SOL    HW126966   2.557   1.102   0.689 -0.3571  0.7441  0.2430
 5168SOL    HW226967   2.521   1.081   0.544  1.6204 -0.9498  0.5806
 5169SOL     OW26968   1.506   1.233   9.270  0.5936 -0.2915 -0.2621
 5169SOL    HW126969   1.454   1.231   9.190 -0.6048 -0.6633  0.5389
 5169SOL    HW226970   1.461   1.167   9.323  1.4735 -0.5187  0.2136
 5170SOL     OW26971   4.430   3.068   4.931 -0.6405  0.4787  0.1025
 5170SOL    HW126972   4.413   3.136   4.996  0.4463  1.2985 -0.4494
 5170SOL    HW226973   4.397   2.995   4.983 -1.3128 -1.2533 -2.7213
 5171SOL     OW26974   2.019   3.132   3.556 -0.1387 -0.5286  0.2598
 5171SOL    HW126975   1.985   3.216   3.587 -1.1811 -1.0665  0.5855
 5171SOL    HW226976   2.027   3.078   3.635  0.1459 -0.9776 -0.0813
 5172SOL     OW26977   1.206   4.700   6.112 -0.7174 -0.3273 -0.0276
 5172SOL    HW126978   1.293   4.702   6.154 -1.0764  4.0167  0.5412
 5172SOL    HW226979   1.211   4.625   6.053 -0.9469  0.2467 -0.7853
 5173SOL     OW26980   4.065   1.422   0.995  0.6609  0.0572  0.1477
 5173SOL    HW126981   4.064   1.481   0.920 -1.6675 -1.2704 -0.8630
 5173SOL    HW226982   4.102   1.338   0.967  0.7817 -0.5821  2.2294
 5174SOL     OW26983   0.786   1.500  11.223 -0.2028  0.3283  0.3097
 5174SOL    HW126984   0.812   1.449  11.146  1.7111 -0.3420  1.3911
 5174SOL    HW226985   0.834   1.463  11.298  0.8927 -1.0123 -1.0563
 5175SOL     OW26986   0.502   4.187   4.177  0.1180  0.8745  0.4796
 5175SOL    HW126987   0.592   4.190   4.209  0.7506 -0.7593 -1.1589
 5175SOL    HW226988   0.476   4.273   4.209  1.3424  1.6095 -0.4742
 5176SOL     OW26989   2.655   4.516   7.185  0.1500  0.3400  0.1880
 5176SOL    HW126990   2.737   4.483   7.220 -0.2798  1.6801  2.4252
 5176SOL    HW226991   2.684   4.592   7.134 -0.1691 -1.5326 -2.7756
 5177SOL     OW26992   3.062   4.030   4.724 -0.0185  0.0270 -0.6474
 5177SOL    HW126993   3.153   4.046   4.700 -0.2569 -0.5728 -1.9362
 5177SOL    HW226994   3.030   4.012   4.635 -2.0837 -1.5177  0.4011
 5178SOL     OW26995   0.854   1.408   5.521  0.3284  0.0630 -0.0921
 5178SOL    HW126996   0.798   1.355   5.464 -0.8738  2.3991 -1.0428
 5178SOL    HW226997   0.935   1.356   5.521 -0.5235 -1.2285  2.1647
 5179SOL     OW26998   3.182   1.783  15.468 -0.4255 -0.8913 -0.1542
 5179SOL    HW126999   3.253   1.732  15.506  0.5928 -0.0758 -0.9823
 5179SOL    HW227000   3.118   1.717  15.440 -2.0196  1.5326 -2.2351
 5180SOL     OW27001   2.023   2.159   9.133 -0.1415 -0.2134 -0.3324
 5180SOL    HW127002   2.050   2.225   9.070  1.5636 -0.0673  0.5456
 5180SOL    HW227003   1.969   2.111   9.070  0.5891  1.4157 -2.1947
 5181SOL     OW27004   3.833   1.665   0.460 -0.2017  0.5582 -0.7039
 5181SOL    HW127005   3.881   1.621   0.529  1.1674 -0.2399 -2.1575
 5181SOL    HW227006   3.895   1.702   0.396 -1.3594 -0.9217 -2.6977
 5182SOL     OW27007   0.723   3.316   5.388  0.0271 -0.3639 -0.0244
 5182SOL    HW127008   0.797   3.373   5.367 -1.6304  1.5503 -0.6741
 5182SOL    HW227009   0.721   3.312   5.484  1.0968 -0.4265 -0.0112
 5183SOL     OW27010   2.305   1.270   4.848  0.0362 -0.3451  0.2242
 5183SOL    HW127011   2.289   1.324   4.925  0.5267  0.7758 -0.4694
 5183SOL    HW227012   2.317   1.334   4.779  2.9572 -0.2180  0.8210
 5184SOL     OW27013   3.936   0.754   7.955 -0.1911  0.4514  0.0104
 5184SOL    HW127014   3.992   0.772   7.880 -1.3523  0.0300 -0.9394
 5184SOL    HW227015   3.982   0.805   8.022 -1.9155  1.9771  0.0356
 5185SOL     OW27016   2.958   1.371  15.154  0.1139 -0.8320  0.0151
 5185SOL    HW127017   2.876   1.366  15.105 -0.6853 -1.1598  1.3726
 5185SOL    HW227018   2.938   1.324  15.235  0.2765  1.8617  1.6198
 5186SOL     OW27019   1.988   1.200   6.636 -0.3486  0.4737  0.3327
 5186SOL    HW127020   1.991   1.294   6.619  0.5665  0.0055 -2.0362
 5186SOL    HW227021   1.952   1.163   6.556  2.8556 -1.6155 -0.1507
 5187SOL     OW27022   3.115   3.550   6.223  0.4505  0.4445  0.2130
 5187SOL    HW127023   3.130   3.526   6.315  1.4550  0.0386 -0.0617
 5187SOL    HW227024   3.031   3.510   6.201 -0.0539  0.7487  1.5419
 5188SOL     OW27025   1.479   0.510   6.263 -0.5307  0.1708 -0.7523
 5188SOL    HW127026   1.435   0.446   6.207  2.1785 -1.5433 -0.9693
 5188SOL    HW227027   1.441   0.594   6.239  1.2258  1.3460  0.6015
 5189SOL     OW27028   1.996   3.596   2.777 -0.2871 -0.5598  0.2562
 5189SOL    HW127029   2.029   3.678   2.740 -0.0157 -0.6077  0.3969
 5189SOL    HW227030   1.976   3.567   2.688 -0.6450  0.5217 -0.0207
 5190SOL     OW27031   4.287   2.778   3.519  0.4204 -0.2390  0.1405
 5190SOL    HW127032   4.214   2.800   3.462  0.1599 -1.5346 -0.0184
 5190SOL    HW227033   4.244   2.735   3.593  1.7170 -1.6775  0.0703
 5191SOL     OW27034   0.587   1.742   5.296 -0.1200 -0.7451  0.0124
 5191SOL    HW127035   0.631   1.686   5.232  0.4535 -0.5481  0.2403
 5191SOL    HW227036   0.633   1.712   5.374  1.4037  0.6509 -0.3354
 5192SOL     OW27037   1.545   1.783   7.090 -0.0020  0.6310 -0.0323
 5192SOL    HW127038   1.545   1.829   7.174  0.1685 -1.5751  1.1755
 5192SOL    HW227039   1.603   1.708   7.103 -1.5762 -0.6752 -0.6168
 5193SOL     OW27040   2.920   1.160   7.449  0.1198  0.2165 -0.2247
 5193SOL    HW127041   2.874   1.243   7.456 -0.6910 -0.2508  0.0454
 5193SOL    HW227042   2.955   1.159   7.538  0.0806 -0.5274 -0.2145
 5194SOL     OW27043   3.659   4.701  12.026 -0.5358 -0.1692 -0.3577
 5194SOL    HW127044   3.653   0.031  12.104 -0.4116  0.7385 -0.9759
 5194SOL    HW227045   3.734   0.020  11.984 -0.3342  0.4827  0.6692
 5195SOL     OW27046   0.528   3.691   2.392  0.4549 -0.4168 -0.4474
 5195SOL    HW127047   0.541   3.632   2.466 -1.2161  2.7181  2.3725
 5195SOL    HW227048   0.616   3.727   2.384 -0.3077  1.7956  1.2570
 5196SOL     OW27049   0.386   1.971   8.005  0.2516 -0.7029  0.0954
 5196SOL    HW127050   0.441   1.971   8.084  1.6106 -0.0256 -0.8470
 5196SOL    HW227051   0.366   1.878   8.009 -0.0600 -0.6102  0.6935
 5197SOL     OW27052   2.272   4.597   7.007 -0.5818 -0.0083  0.3431
 5197SOL    HW127053   2.318   4.658   7.065 -0.0214 -0.2973  0.2097
 5197SOL    HW227054   2.322   4.516   7.008 -3.7738 -1.9490  0.6786
 5198SOL     OW27055   4.597   1.601   7.550  0.2110  0.7977  0.8297
 5198SOL    HW127056   4.514   1.560   7.527  0.7113  1.0382 -1.3509
 5198SOL    HW227057   4.570   1.674   7.606 -0.3001  0.6279  0.8037
 5199SOL     OW27058   3.684   3.807   4.571 -0.6897 -0.0017  0.2585
 5199SOL    HW127059   3.695   3.803   4.666 -1.5089  0.1349  0.3625
 5199SOL    HW227060   3.601   3.852   4.554  1.7976  4.2610 -0.4964
 5200SOL     OW27061   3.022   1.545   2.559 -0.3093 -0.1634  0.2300
 5200SOL    HW127062   3.114   1.570   2.545  0.2763 -1.1635  2.2623
 5200SOL    HW227063   3.038   1.450   2.564  0.6587  0.0306  0.9341
 5201SOL     OW27064   4.329   1.181   8.170 -0.1526 -0.1997 -0.2822
 5201SOL    HW127065   4.296   1.162   8.258  0.6805 -0.1533  0.0351
 5201SOL    HW227066   4.417   1.145   8.177  0.0951  0.4915  0.1498
 5202SOL     OW27067   3.214   1.639  10.298  0.2689 -0.5829  0.0578
 5202SOL    HW127068   3.275   1.663  10.368  0.0009  0.3000 -0.0124
 5202SOL    HW227069   3.259   1.559  10.270 -0.6174 -0.8875 -0.5198
 5203SOL     OW27070   2.113   3.239   8.756 -0.1901  0.3488  0.1635
 5203SOL    HW127071   2.066   3.263   8.836 -0.3034  3.2992 -0.8003
 5203SOL    HW227072   2.143   3.326   8.731  2.1511 -0.7984 -1.0378
 5204SOL     OW27073   3.280   3.086   3.331  0.1350 -0.1168  0.0655
 5204SOL    HW127074   3.192   3.090   3.295 -0.7947  1.3051  2.5697
 5204SOL    HW227075   3.338   3.081   3.254 -0.0858 -1.3184 -0.0335
 5205SOL     OW27076   2.241   1.855   2.183  0.4721 -0.4430 -0.4645
 5205SOL    HW127077   2.225   1.925   2.120  2.1356  0.2541 -0.1088
 5205SOL    HW227078   2.214   1.894   2.266  0.9670  0.5322 -0.7615
 5206SOL     OW27079   1.612   3.896   3.003 -0.2034  0.6142  0.3326
 5206SOL    HW127080   1.648   3.901   2.914 -0.5855  0.4179  0.1671
 5206SOL    HW227081   1.518   3.883   2.989  0.0242 -1.2214  0.5335
 5207SOL     OW27082   4.216   3.069  12.558 -0.3607 -0.6124  0.2278
 5207SOL    HW127083   4.298   3.087  12.605  0.7918  0.8936 -2.3508
 5207SOL    HW227084   4.238   3.090  12.468  3.2562  0.1349  1.2869
 5208SOL     OW27085   0.766   0.608  17.497  0.0380  0.1488  0.1790
 5208SOL    HW127086   0.734   0.689  17.457  2.2433 -0.5704 -3.0709
 5208SOL    HW227087   0.756   0.632  17.589  1.5172 -0.9121  0.6100
 5209SOL     OW27088   2.404   4.438   4.748  0.3681  0.8101  0.1709
 5209SOL    HW127089   2.482   4.384   4.737 -1.2935 -1.4637 -0.4679
 5209SOL    HW227090   2.429   4.496   4.820 -1.2161 -0.8299  2.0703
 5210SOL     OW27091   3.523   1.556   5.220 -0.6017  0.0408 -0.9113
 5210SOL    HW127092   3.493   1.479   5.171 -1.6288  1.1466 -2.0084
 5210SOL    HW227093   3.448   1.561   5.279  0.0252 -1.3080 -0.0119
 5211SOL     OW27094   4.490   0.148   6.591 -0.7891  0.1720 -0.0816
 5211SOL    HW127095   4.545   0.090   6.643 -0.8027 -1.4932 -1.9565
 5211SOL    HW227096   4.555   0.169   6.524  1.3502  1.8734  2.4939
 5212SOL     OW27097   4.493   0.327   2.369 -0.1024  0.2960 -0.7643
 5212SOL    HW127098   4.492   0.234   2.393 -1.1494  0.6359  0.5570
 5212SOL    HW227099   4.491   0.359   2.459  2.1792  0.9063 -0.9431
 5213SOL     OW27100   0.594   4.025   2.025  0.3842  0.5917  0.0175
 5213SOL    HW127101   0.642   3.994   1.948 -0.4048 -0.7528  0.0617
 5213SOL    HW227102   0.648   4.099   2.051  2.1060 -0.5043 -0.4114
 5214SOL     OW27103   2.591   1.116   6.985  0.4262  0.3946  0.6774
 5214SOL    HW127104   2.619   1.024   6.992  0.6405  0.4415  0.4621
 5214SOL    HW227105   2.589   1.152   7.073 -2.7997  2.7762 -0.3853
 5215SOL     OW27106   2.904   2.438  10.535  0.0509 -0.0947  0.1934
 5215SOL    HW127107   2.956   2.506  10.579 -1.9446 -0.2862  2.7985
 5215SOL    HW227108   2.818   2.479  10.534 -0.3699 -0.8932  2.5175
 5216SOL     OW27109   3.284   4.162   3.090  0.8645 -0.7845 -0.0484
 5216SOL    HW127110   3.282   4.080   3.140 -1.5841  1.6248  3.8121
 5216SOL    HW227111   3.357   4.202   3.138 -1.3038  0.8757  1.8817
 5217SOL     OW27112   2.892   4.362   3.792 -0.1320  0.0263 -0.1962
 5217SOL    HW127113   2.955   4.387   3.860 -0.9061  2.4463 -0.3459
 5217SOL    HW227114   2.830   4.305   3.837  1.5000 -0.7636  1.0359
 5218SOL     OW27115   3.465   1.412   2.125  0.0702  0.3289  0.8011
 5218SOL    HW127116   3.391   1.471   2.140  0.8565  1.8660 -1.4030
 5218SOL    HW227117   3.540   1.457   2.165 -0.0459  1.4100 -0.1967
 5219SOL     OW27118   2.660   3.138  12.796  0.2860  0.3374  0.4716
 5219SOL    HW127119   2.701   3.224  12.810 -2.7537  1.6370  1.2938
 5219SOL    HW227120   2.575   3.174  12.770 -0.2469 -1.6660 -0.4971
 5220SOL     OW27121   3.956   4.073  16.046 -0.6779 -0.2266 -0.0616
 5220SOL    HW127122   3.983   4.161  16.073  1.4410 -0.7264 -0.5195
 5220SOL    HW227123   3.877   4.058  16.098 -1.6370 -0.7405 -1.6697
 5221SOL     OW27124   0.135   3.917   8.162  0.3576  0.0133 -0.7012
 5221SOL    HW127125   0.186   3.837   8.171 -1.6705 -1.0069  1.4339
 5221SOL    HW227126   0.196   3.974   8.210  1.6446 -0.9858 -1.1335
 5222SOL     OW27127   0.220   0.085   3.449  0.2295  0.2970 -0.1775
 5222SOL    HW127128   0.267   0.095   3.532 -1.0440 -0.1752  0.6030
 5222SOL    HW227129   0.133   0.112   3.478 -0.8527 -2.4345 -0.9433
 5223SOL     OW27130   0.344   0.228   0.197  0.3877  0.2901  0.5339
 5223SOL    HW127131   0.361   0.138   0.170  0.7050 -0.2331  2.5410
 5223SOL    HW227132   0.256   0.251   0.165  0.5520  0.0868 -0.0566
 5224SOL     OW27133   2.656   3.721  16.696 -0.0205  0.5325 -0.2054
 5224SOL    HW127134   2.610   3.789  16.745  0.8810  1.4861 -0.6748
 5224SOL    HW227135   2.747   3.733  16.724  0.3126 -0.0668 -1.0302
 5225SOL     OW27136   0.752   1.515   2.330  0.1199 -0.0530 -0.2206
 5225SOL    HW127137   0.840   1.484   2.353  0.1790  1.3446  1.4247
 5225SOL    HW227138   0.754   1.497   2.236 -0.8292 -3.2806  0.3917
 5226SOL     OW27139   2.110   2.829   7.475 -0.0820 -0.0677  0.3685
 5226SOL    HW127140   2.046   2.839   7.405  0.8691 -0.1700 -0.5184
 5226SOL    HW227141   2.105   2.908   7.529  1.4723 -0.4037  0.9969
 5227SOL     OW27142   2.327   4.239   8.309 -0.0735  0.0652 -0.2321
 5227SOL    HW127143   2.406   4.292   8.318  1.3547 -1.9651 -0.8208
 5227SOL    HW227144   2.376   4.156   8.309 -0.2673 -0.0497 -0.2379
 5228SOL     OW27145   2.353   4.467   3.534  0.1450 -0.4632  0.0877
 5228SOL    HW127146   2.397   4.520   3.468  0.9384 -1.8815 -0.5296
 5228SOL    HW227147   2.265   4.489   3.504 -0.1471 -2.5012 -0.5178
 5229SOL     OW27148   4.667   3.263   6.003  0.0435  0.4775  0.2128
 5229SOL    HW127149   4.644   3.208   6.078  1.2586  1.0759  1.0175
 5229SOL    HW227150   4.687   3.192   5.941 -0.8678  0.8327 -0.4992
 5230SOL     OW27151   0.511   1.481   8.607  0.1003  0.1212  0.0059
 5230SOL    HW127152   0.500   1.552   8.544 -0.8276  1.8340  2.1329
 5230SOL    HW227153   0.571   1.522   8.670  1.0778 -2.6811  0.9009
 5231SOL     OW27154   2.840   2.058   4.610 -0.1888  0.1731 -0.2795
 5231SOL    HW127155   2.821   2.093   4.698  1.2311  1.6309 -0.5487
 5231SOL    HW227156   2.811   1.968   4.620 -1.9159  0.4861 -2.7295
 5232SOL     OW27157   4.423   1.331  17.019 -0.3764 -0.0774 -0.5437
 5232SOL    HW127158   4.445   1.402  17.079  0.3195 -0.0201 -0.8627
 5232SOL    HW227159   4.483   1.354  16.948  1.0352 -0.1145  0.6359
 5233SOL     OW27160   0.878   3.274   8.913 -0.4274  0.6754 -0.3501
 5233SOL    HW127161   0.882   3.365   8.941  2.9004 -0.1565  2.0063
 5233SOL    HW227162   0.797   3.264   8.863 -0.6282 -1.3587  0.3605
 5234SOL     OW27163   1.801   4.604  15.605 -0.6929 -0.2556 -0.3191
 5234SOL    HW127164   1.888   4.578  15.575  0.8361  1.1857  2.8247
 5234SOL    HW227165   1.797   4.695  15.573  0.2837  0.3074  1.1560
 5235SOL     OW27166   1.180   0.576   4.677 -0.1599  0.2687 -0.1152
 5235SOL    HW127167   1.211   0.621   4.755 -1.5940 -0.7247  1.0440
 5235SOL    HW227168   1.255   0.583   4.619 -1.0355 -0.4522 -1.3477
 5236SOL     OW27169   4.588   2.572   2.706  0.6000  0.3547 -0.0858
 5236SOL    HW127170   4.650   2.557   2.776  1.5195 -2.5251 -1.5446
 5236SOL    HW227171   4.644   2.608   2.637 -1.4906  0.9077 -1.5332
 5237SOL     OW27172   0.066   0.427  17.052 -0.8448 -0.1266  0.7228
 5237SOL    HW127173   0.118   0.364  17.004  0.0705  0.1016  1.4139
 5237SOL    HW227174   0.026   0.469  16.976  2.0371  2.5064  0.6407
 5238SOL     OW27175   4.342   0.955   1.696 -0.0500 -0.7092 -0.4949
 5238SOL    HW127176   4.411   1.020   1.687  0.3597 -0.9761  0.5882
 5238SOL    HW227177   4.300   0.990   1.775  0.0630 -1.3477 -0.1468
 5239SOL     OW27178   2.997   0.389   8.557 -0.4313 -0.1195 -0.2002
 5239SOL    HW127179   2.946   0.407   8.479 -0.0502  1.4756 -0.0670
 5239SOL    HW227180   3.056   0.464   8.553 -1.8774  1.1882  3.2991
 5240SOL     OW27181   2.182   1.101  11.617 -0.3978 -0.0193 -0.0435
 5240SOL    HW127182   2.245   1.114  11.687 -0.2887 -1.2708  0.0870
 5240SOL    HW227183   2.212   1.172  11.560 -0.8384  0.1327 -0.0932
 5241SOL     OW27184   2.524   4.639  16.874  0.3347  0.1194  0.2701
 5241SOL    HW127185   2.528   4.704  16.804  1.3899  1.0082  1.1630
 5241SOL    HW227186   2.517   4.699  16.948  1.8460  1.9357 -1.0720
 5242SOL     OW27187   4.698   2.124   3.119 -0.2446  0.4721  0.5809
 5242SOL    HW127188   0.003   2.190   3.055  2.0151  1.5716  2.7616
 5242SOL    HW227189   4.634   2.178   3.165 -1.3064 -0.5166  0.2570
 5243SOL     OW27190   0.532   3.993   2.519 -0.0516  0.3910 -0.2536
 5243SOL    HW127191   0.589   4.016   2.446  2.4957 -0.2099  1.5750
 5243SOL    HW227192   0.595   4.018   2.587  0.5949 -0.9335 -0.3721
 5244SOL     OW27193   1.811   1.227  11.123  0.1849  0.6257 -0.0267
 5244SOL    HW127194   1.874   1.220  11.051  0.7646  0.0314  0.5387
 5244SOL    HW227195   1.734   1.179  11.094  0.1240  0.0295  1.1312
 5245SOL     OW27196   4.221   4.216  12.381 -0.3670 -0.0785  0.4430
 5245SOL    HW127197   4.187   4.297  12.419 -0.0332  1.7670 -3.1580
 5245SOL    HW227198   4.154   4.191  12.318 -0.1144  1.5867 -0.4906
 5246SOL     OW27199   0.671   3.111   5.811  0.3438 -0.1216 -0.1193
 5246SOL    HW127200   0.673   3.163   5.731  1.3351 -2.0677 -1.3615
 5246SOL    HW227201   0.666   3.181   5.877 -1.4128  0.2260 -0.6172
 5247SOL     OW27202   0.148   2.723   3.392 -0.4394 -0.6982 -0.3031
 5247SOL    HW127203   0.101   2.784   3.334  0.1987  0.8089  0.7855
 5247SOL    HW227204   0.136   2.645   3.338 -2.0106 -1.5960  1.3401
 5248SOL     OW27205   3.454   2.869   0.353 -0.4558  0.0150  0.1460
 5248SOL    HW127206   3.403   2.820   0.289 -0.4120  0.9488 -0.6037
 5248SOL    HW227207   3.425   2.959   0.335 -0.4652  0.6008  3.0873
 5249SOL     OW27208   3.193   2.153   3.386  0.2260  0.4536  0.3774
 5249SOL    HW127209   3.132   2.099   3.435  0.3492  1.8584  2.1045
 5249SOL    HW227210   3.168   2.140   3.294 -0.8383 -0.2238  0.7656
 5250SOL     OW27211   3.180   2.985   4.098  0.6755  0.0733 -0.5984
 5250SOL    HW127212   3.093   3.000   4.134  1.6592  0.6104  1.5656
 5250SOL    HW227213   3.195   3.072   4.061 -1.1645  1.2707  1.4659
 5251SOL     OW27214   1.920   0.218  15.799  0.2605  0.0459 -0.2581
 5251SOL    HW127215   1.950   0.308  15.800 -0.4042  0.2572  0.4151
 5251SOL    HW227216   2.004   0.174  15.813  0.1380 -0.3974 -0.9111
 5252SOL     OW27217   2.716   1.349   4.360 -0.0430  0.5530  0.1090
 5252SOL    HW127218   2.645   1.380   4.304  0.7662 -0.3170 -1.4159
 5252SOL    HW227219   2.698   1.371   4.451 -0.1721  1.2918 -0.0953
 5253SOL     OW27220   4.361   2.633  15.532 -0.0142 -0.0459  0.3015
 5253SOL    HW127221   4.425   2.577  15.576 -0.2978 -0.6864 -0.0926
 5253SOL    HW227222   4.418   2.700  15.493 -0.6806  0.1912 -0.2616
 5254SOL     OW27223   1.355   2.899  10.004  0.0257  0.2597  0.2807
 5254SOL    HW127224   1.274   2.916  10.053 -0.1578  1.5882 -0.4917
 5254SOL    HW227225   1.327   2.871   9.917  0.9235 -2.1379  0.7583
 5255SOL     OW27226   4.153   3.613   4.630  0.0663 -0.8632 -0.4321
 5255SOL    HW127227   4.106   3.535   4.662 -0.7921  0.2750  1.0765
 5255SOL    HW227228   4.237   3.574   4.606  0.7900  0.3527  0.1435
 5256SOL     OW27229   1.362   2.867   8.944 -0.1163  0.2633  0.1072
 5256SOL    HW127230   1.290   2.913   8.987  0.5784  2.0672 -0.6370
 5256SOL    HW227231   1.411   2.823   9.014 -1.2483  0.1377  0.8122
 5257SOL     OW27232   2.531   0.337   3.349  0.4328  0.1732 -0.0815
 5257SOL    HW127233   2.451   0.298   3.314  0.7220 -0.5473  0.0671
 5257SOL    HW227234   2.589   0.368   3.280 -0.5677 -1.2856 -1.5868
 5258SOL     OW27235   1.602   0.309   6.006  0.4917  0.0820 -0.0790
 5258SOL    HW127236   1.567   0.305   6.095 -0.5690  0.8412 -0.4634
 5258SOL    HW227237   1.549   0.376   5.962 -0.1615 -2.0713 -2.5452
 5259SOL     OW27238   1.229   3.317  15.566  0.2400 -0.6794 -0.5023
 5259SOL    HW127239   1.146   3.303  15.612 -0.1535 -1.2687 -1.3982
 5259SOL    HW227240   1.204   3.385  15.503  1.6829 -1.1619 -1.5850
 5260SOL     OW27241   4.299   4.002   7.142  0.7274 -0.2172 -0.1111
 5260SOL    HW127242   4.277   4.039   7.228  0.1335  1.5534 -1.0238
 5260SOL    HW227243   4.290   4.075   7.082  0.0853  0.3286  0.6437
 5261SOL     OW27244   3.188   0.745  15.390 -0.0119 -0.4178 -0.1607
 5261SOL    HW127245   3.168   0.836  15.369  1.1456  0.2525  1.6030
 5261SOL    HW227246   3.104   0.700  15.384  0.6241 -1.3853 -1.7791
 5262SOL     OW27247   2.384   3.964   4.397  0.0986 -0.6000 -0.8706
 5262SOL    HW127248   2.462   3.916   4.370  1.5468  0.9905  0.5383
 5262SOL    HW227249   2.351   4.007   4.318  1.4361  0.5811 -0.7714
 5263SOL     OW27250   3.059   1.494   6.652  0.3591 -0.1398 -0.1163
 5263SOL    HW127251   2.981   1.457   6.609 -0.4321  1.7853 -0.3518
 5263SOL    HW227252   3.103   1.531   6.576 -0.6841  1.9801  0.3344
 5264SOL     OW27253   4.522   1.744  11.279  0.0367  0.5100  0.3221
 5264SOL    HW127254   4.593   1.739  11.215  1.4090  2.3874  1.7036
 5264SOL    HW227255   4.575   1.746  11.359  0.2236  0.2086  0.2081
 5265SOL     OW27256   1.423   4.548  11.172  0.0086 -0.3541  1.1982
 5265SOL    HW127257   1.369   4.627  11.164  1.3738  0.5224  0.5965
 5265SOL    HW227258   1.369   4.480  11.133 -1.5186  1.5286  0.0420
 5266SOL     OW27259   1.897   0.969  17.391 -0.3301 -0.0083  0.5519
 5266SOL    HW127260   1.821   0.924  17.427  1.1686 -1.5055  1.8493
 5266SOL    HW227261   1.885   1.057  17.425  1.0745  0.1657  0.6329
 5267SOL     OW27262   0.083   1.278   1.548  0.1639 -0.2895  0.2449
 5267SOL    HW127263   0.135   1.245   1.475 -1.4744 -2.4742  0.0622
 5267SOL    HW227264   0.115   1.366   1.566 -0.6236 -0.0225  0.3497
 5268SOL     OW27265   0.068   3.939   8.611  0.2736  0.0043 -0.5632
 5268SOL    HW127266   0.031   3.862   8.568 -1.0568  0.3583 -0.0618
 5268SOL    HW227267   0.045   3.908   8.699 -2.2463 -2.2763 -2.0211
 5269SOL     OW27268   0.680   1.173   3.175 -0.6374  0.0407 -0.1035
 5269SOL    HW127269   0.600   1.139   3.134  0.5017 -0.2047 -2.1241
 5269SOL    HW227270   0.665   1.267   3.162 -0.3897  0.2014  0.7579
 5270SOL     OW27271   0.010   3.907   3.706  0.1786 -0.0932 -0.5323
 5270SOL    HW127272   0.096   3.878   3.736 -0.5074  0.2333  1.7959
 5270SOL    HW227273   4.692   3.822   3.693  0.6415 -0.0836 -2.0770
 5271SOL     OW27274   1.020   0.321   7.554  0.2933 -1.0875 -0.1868
 5271SOL    HW127275   1.104   0.282   7.533  1.1034  1.4234 -1.6295
 5271SOL    HW227276   1.054   0.406   7.580  2.1447 -1.5829 -1.0233
 5272SOL     OW27277   0.471   1.795  11.175  0.0030  0.5198 -0.0738
 5272SOL    HW127278   0.389   1.747  11.190  0.7636 -0.4807  0.8742
 5272SOL    HW227279   0.491   1.839  11.258  1.1532 -1.8396  0.8911
 5273SOL     OW27280   3.482   0.571   3.871  0.6718  0.0209 -0.4953
 5273SOL    HW127281   3.573   0.584   3.845  1.7505  0.9695  3.6694
 5273SOL    HW227282   3.477   0.638   3.939 -1.5190 -0.3520 -0.2850
 5274SOL     OW27283   1.112   3.637   9.116  0.1655 -0.1318  0.0871
 5274SOL    HW127284   1.112   3.594   9.202 -1.3101  0.1432  0.2248
 5274SOL    HW227285   1.201   3.670   9.105  0.1507 -0.2980 -0.5270
 5275SOL     OW27286   0.843   2.214   7.965  0.2223 -0.0946  0.2960
 5275SOL    HW127287   0.799   2.167   7.895  2.0046  0.2721 -1.0790
 5275SOL    HW227288   0.880   2.287   7.916  2.8191  0.6126  3.2987
 5276SOL     OW27289   0.885   4.216   3.976  0.2633 -0.1631 -0.1204
 5276SOL    HW127290   0.841   4.297   3.951  2.8346  1.2325 -0.1669
 5276SOL    HW227291   0.899   4.232   4.069 -4.0015  3.1294 -0.0676
 5277SOL     OW27292   1.915   2.889   0.443 -0.3734 -0.1498  0.6461
 5277SOL    HW127293   1.961   2.843   0.513  0.4049 -0.7892 -0.2785
 5277SOL    HW227294   1.862   2.950   0.494 -0.4007  1.2437 -1.0717
 5278SOL     OW27295   1.650   2.332   7.375  0.2639  0.3726  0.0792
 5278SOL    HW127296   1.567   2.326   7.422 -0.8587  0.4338 -1.9122
 5278SOL    HW227297   1.628   2.395   7.307  0.9388 -0.7071 -1.1382
 5279SOL     OW27298   4.432   1.914  16.911  0.3248 -0.1228  0.4339
 5279SOL    HW127299   4.482   1.973  16.854  0.2684  0.0455  0.5568
 5279SOL    HW227300   4.346   1.949  16.886  0.3916 -1.2853 -1.4349
 5280SOL     OW27301   4.400   2.840   2.779  0.2300  0.0626 -0.5197
 5280SOL    HW127302   4.338   2.770   2.762 -0.9673  0.9804  0.0405
 5280SOL    HW227303   4.484   2.795   2.787  0.7772  1.2418  0.4043
 5281SOL     OW27304   2.589   2.816   3.982  0.3974 -0.3639  0.3658
 5281SOL    HW127305   2.526   2.753   3.945  0.2063  1.5747 -2.6035
 5281SOL    HW227306   2.583   2.797   4.076 -0.8616  0.5607  0.4803
 5282SOL     OW27307   0.163   4.116   5.722  0.4548  0.1252  0.1835
 5282SOL    HW127308   0.112   4.137   5.645  0.9136  1.9142  0.3605
 5282SOL    HW227309   0.117   4.039   5.755 -0.1523  0.3393 -0.1700
 5283SOL     OW27310   1.989   4.371  10.621 -0.0412  0.1026 -0.2806
 5283SOL    HW127311   2.060   4.361  10.685 -0.1254 -0.3063 -0.2504
 5283SOL    HW227312   1.909   4.360  10.673  1.0208  0.8009  1.5088
 5284SOL     OW27313   3.501   3.350   1.843 -0.4703 -0.0734  0.2225
 5284SOL    HW127314   3.595   3.331   1.842 -0.1847  1.3626 -0.4316
 5284SOL    HW227315   3.475   3.305   1.763  0.6997  0.4646 -0.4715
 5285SOL     OW27316   3.009   4.343  15.877 -0.1815  0.2894  0.4035
 5285SOL    HW127317   3.063   4.352  15.955  0.5980  0.5292 -0.1712
 5285SOL    HW227318   2.923   4.326  15.916 -0.6346 -1.1456 -1.2212
 5286SOL     OW27319   1.615   1.930  13.997 -0.2680 -0.1547  0.9806
 5286SOL    HW127320   1.563   1.856  13.966  1.8596 -1.6436  0.9813
 5286SOL    HW227321   1.589   1.999  13.936  1.0216 -1.8631 -1.5535
 5287SOL     OW27322   2.081   0.423  15.171 -0.1088  0.1690 -0.4003
 5287SOL    HW127323   2.092   0.412  15.076 -1.6100  1.0069 -0.6660
 5287SOL    HW227324   1.988   0.403  15.181  0.5537 -1.8687  1.4021
 5288SOL     OW27325   1.265   2.384  17.493 -0.4573  0.5256 -0.1998
 5288SOL    HW127326   1.309   2.390  17.578  0.9080  0.6642 -0.9214
 5288SOL    HW227327   1.334   2.357  17.432  0.7964  0.4026  1.2819
 5289SOL     OW27328   2.214   1.325   0.283 -0.2774 -0.0280 -0.0611
 5289SOL    HW127329   2.232   1.348   0.191 -0.7245  1.3011  0.1991
 5289SOL    HW227330   2.175   1.402   0.322 -0.5801 -1.0424  1.6270
 5290SOL     OW27331   2.539   1.626  11.180  0.0098  0.5637  0.0626
 5290SOL    HW127332   2.631   1.648  11.162  0.4786 -1.1699  0.3373
 5290SOL    HW227333   2.540   1.538  11.144 -2.0102 -0.0473  1.5296
 5291SOL     OW27334   1.220   0.395   7.274 -0.3494 -0.4085 -0.0050
 5291SOL    HW127335   1.289   0.461   7.264  0.4708 -1.7618 -3.3771
 5291SOL    HW227336   1.248   0.374   7.363  1.1346 -0.9268 -0.5904
 5292SOL     OW27337   1.741   4.224   4.390  0.0887  0.4368  0.2331
 5292SOL    HW127338   1.804   4.281   4.347  0.2836  0.2089  0.2140
 5292SOL    HW227339   1.794   4.205   4.468  1.0831  0.6324 -0.3909
 5293SOL     OW27340   0.266   2.278   6.874  0.1025  0.0976  0.2354
 5293SOL    HW127341   0.216   2.206   6.837 -1.3840  1.9201 -1.3259
 5293SOL    HW227342   0.207   2.351   6.855  0.4440  0.9413  2.4414
 5294SOL     OW27343   1.388   1.926  14.244  0.3728 -0.8928 -0.3688
 5294SOL    HW127344   1.362   1.836  14.221 -0.1404 -0.9518  0.4699
 5294SOL    HW227345   1.389   1.913  14.339  0.7680  1.4335 -0.0671
 5295SOL     OW27346   2.706   0.841  12.330 -0.2669  0.5241  0.0429
 5295SOL    HW127347   2.615   0.865  12.314 -0.4999  1.3208  2.5867
 5295SOL    HW227348   2.708   0.837  12.426  0.0316  1.9511  0.1082
 5296SOL     OW27349   4.295   0.604   7.241 -0.5943  0.1033  0.0975
 5296SOL    HW127350   4.274   0.521   7.200 -0.6391 -0.7784  1.9076
 5296SOL    HW227351   4.366   0.582   7.301 -0.5420 -1.5188 -0.5730
 5297SOL     OW27352   2.189   1.904   5.523 -0.6687  0.1737  0.0919
 5297SOL    HW127353   2.116   1.857   5.483 -0.8709  1.0219 -0.5308
 5297SOL    HW227354   2.136   1.958   5.582 -1.1030  1.0209 -1.0716
 5298SOL     OW27355   0.946   2.464   7.828 -0.7270 -0.8411 -0.4135
 5298SOL    HW127356   0.866   2.478   7.778 -0.4440  2.1899 -0.0080
 5298SOL    HW227357   0.942   2.517   7.908  0.1940  2.8838 -2.8362
 5299SOL     OW27358   4.219   3.989  13.915 -0.1133 -0.8663  0.3253
 5299SOL    HW127359   4.246   3.947  13.834  0.1484 -1.0264  0.4942
 5299SOL    HW227360   4.163   3.923  13.956  1.0962 -4.1032 -3.2202
 5300SOL     OW27361   3.386   1.197   1.004  0.2478  0.3495  0.3903
 5300SOL    HW127362   3.332   1.125   1.035  0.0529  0.2123 -0.2742
 5300SOL    HW227363   3.367   1.204   0.910 -1.1062  0.0940  0.6457
 5301SOL     OW27364   4.290   1.989   4.099  0.0869  0.1015  0.5378
 5301SOL    HW127365   4.197   1.991   4.075  0.2362  0.7593  0.0089
 5301SOL    HW227366   4.314   1.922   4.035  1.6120 -0.1609  1.3822
 5302SOL     OW27367   2.027   3.117   1.801 -0.4675  0.5880 -0.4768
 5302SOL    HW127368   2.043   3.029   1.767 -0.1824  0.4248  0.0772
 5302SOL    HW227369   2.043   3.110   1.895 -0.8247  0.7951 -0.3980
 5303SOL     OW27370   0.555   3.506   4.665  0.0316 -0.3044  0.1429
 5303SOL    HW127371   0.481   3.451   4.689 -1.9703  3.4924  2.5782
 5303SOL    HW227372   0.602   3.441   4.612 -0.0899  1.9192 -2.6611
 5304SOL     OW27373   0.765   4.517   0.695  0.3189 -0.0878  0.5033
 5304SOL    HW127374   0.791   4.553   0.611  1.4277 -3.5375 -0.6012
 5304SOL    HW227375   0.826   4.444   0.696  0.9228  0.4323  1.6700
 5305SOL     OW27376   0.463   1.646   6.464  0.2204  0.2102 -0.2892
 5305SOL    HW127377   0.428   1.735   6.470  0.3910  0.2227  0.5710
 5305SOL    HW227378   0.391   1.606   6.416 -0.9892  0.8289  1.0148
 5306SOL     OW27379   2.366   3.008  10.890 -0.2411 -0.7396 -0.2190
 5306SOL    HW127380   2.453   3.003  10.850  0.3086  0.8856  0.7490
 5306SOL    HW227381   2.365   2.916  10.916  0.1857 -0.9023 -0.7773
 5307SOL     OW27382   3.646   2.449   4.571 -0.4406  0.4601 -0.0480
 5307SOL    HW127383   3.664   2.424   4.480 -0.3685  0.7680 -0.1176
 5307SOL    HW227384   3.680   2.538   4.563  0.4967  0.1913  1.0143
 5308SOL     OW27385   3.404   2.258   2.481 -0.1834  0.2115 -0.1769
 5308SOL    HW127386   3.452   2.319   2.424 -1.4739  2.1159  0.7733
 5308SOL    HW227387   3.329   2.228   2.430  0.4477 -0.7198 -0.5676
 5309SOL     OW27388   0.165   4.099   7.400 -0.2282 -0.5411 -0.2435
 5309SOL    HW127389   0.093   4.153   7.368  0.5386  1.0554  0.7159
 5309SOL    HW227390   0.116   4.046   7.463 -2.3707 -0.0752 -1.5298
 5310SOL     OW27391   3.464   3.791   2.900  0.6515  0.2485 -0.6029
 5310SOL    HW127392   3.554   3.758   2.905  0.6818  0.2965 -0.8267
 5310SOL    HW227393   3.482   3.880   2.871  0.8485  0.1330 -0.8394
 5311SOL     OW27394   1.064   0.425   1.571  0.1653 -0.5343  0.1356
 5311SOL    HW127395   1.086   0.332   1.574  1.4079 -0.2370  0.1665
 5311SOL    HW227396   1.145   0.461   1.606 -0.0258  0.7405 -0.7718
 5312SOL     OW27397   0.499   3.169   7.325  0.2610  0.5655 -0.8650
 5312SOL    HW127398   0.487   3.126   7.241  0.4643 -1.1367 -0.0242
 5312SOL    HW227399   0.498   3.262   7.302  4.0603  0.8400  0.1254
 5313SOL     OW27400   0.275   1.260   1.323  0.0931  0.0002 -1.0089
 5313SOL    HW127401   0.370   1.257   1.311  0.1204  1.7122 -1.3169
 5313SOL    HW227402   0.255   1.353   1.315 -0.7574 -0.2629 -1.9499
 5314SOL     OW27403   2.398   4.649   5.500  0.2133  0.3417 -0.4609
 5314SOL    HW127404   2.410   4.558   5.474 -1.0422 -0.0928  0.4970
 5314SOL    HW227405   2.488   4.681   5.495 -1.0974  3.9978 -0.9480
 5315SOL     OW27406   3.448   0.835  13.114  0.2330 -0.0873 -0.2475
 5315SOL    HW127407   3.496   0.895  13.057 -0.8271  0.6518 -0.3481
 5315SOL    HW227408   3.430   0.893  13.188  1.7224 -0.2168  0.2153
 5316SOL     OW27409   1.688   0.195   1.450  0.1034 -0.7293 -0.4672
 5316SOL    HW127410   1.738   0.114   1.442 -0.4377 -1.0412 -0.6914
 5316SOL    HW227411   1.696   0.222   1.359 -0.0934  0.9794  0.0207
 5317SOL     OW27412   1.466   2.301   8.305 -0.4678  0.6667 -0.0533
 5317SOL    HW127413   1.402   2.279   8.237 -0.5906 -0.9485  0.5674
 5317SOL    HW227414   1.504   2.215   8.321  1.8303  1.7025 -0.0206
 5318SOL     OW27415   2.736   0.724   2.637  0.0836 -0.5376  0.8129
 5318SOL    HW127416   2.643   0.703   2.638  0.4765 -2.3716  0.1318
 5318SOL    HW227417   2.770   0.695   2.552 -1.9965 -0.1219 -0.1497
 5319SOL     OW27418   4.240   2.981  11.557  0.3169  0.4695  0.2250
 5319SOL    HW127419   4.181   3.056  11.564  1.2692  1.5316 -3.2379
 5319SOL    HW227420   4.187   2.907  11.585 -0.1756  0.8035  0.1666
 5320SOL     OW27421   1.790   4.357  15.903  0.2056  0.0758  0.3268
 5320SOL    HW127422   1.760   4.297  15.834  1.5385  0.5498 -0.6455
 5320SOL    HW227423   1.706   4.401  15.919  0.1314 -0.1320  0.5136
 5321SOL     OW27424   3.007   0.823  10.451 -1.2674 -0.3733 -0.2728
 5321SOL    HW127425   2.938   0.889  10.450 -2.1030 -1.2600 -1.0042
 5321SOL    HW227426   2.969   0.751  10.501  0.8855 -0.4575  1.2821
 5322SOL     OW27427   1.679   2.172  15.811 -0.0518 -0.1683 -0.5241
 5322SOL    HW127428   1.649   2.085  15.785  0.2895 -0.2006 -0.8065
 5322SOL    HW227429   1.771   2.151  15.829 -0.6691 -2.1053  0.4198
 5323SOL     OW27430   3.129   2.860  12.694 -0.1584 -0.1206 -0.1511
 5323SOL    HW127431   3.206   2.874  12.748 -0.1661 -0.1949 -0.1205
 5323SOL    HW227432   3.073   2.915  12.749 -0.8118  1.3528 -2.3096
 5324SOL     OW27433   4.363   0.469  11.331  0.5450  0.0648 -0.0908
 5324SOL    HW127434   4.297   0.535  11.307  0.7098  0.3370  0.2032
 5324SOL    HW227435   4.388   0.447  11.241  1.3699 -0.2937  0.2244
 5325SOL     OW27436   1.290   3.107   4.436  0.2848  0.4041 -0.2044
 5325SOL    HW127437   1.243   3.188   4.457 -1.0387 -0.7303  1.1814
 5325SOL    HW227438   1.259   3.046   4.503  0.9725 -1.3682 -1.5098
 5326SOL     OW27439   0.407   1.072   7.093 -0.0892 -0.2475 -0.2816
 5326SOL    HW127440   0.473   1.130   7.130  1.0394 -2.2203  0.7670
 5326SOL    HW227441   0.449   1.072   7.008 -0.7144  2.1060 -0.5944
 5327SOL     OW27442   0.080   1.103   1.244 -0.1516 -0.2957  0.1774
 5327SOL    HW127443   0.121   1.060   1.169  0.9074  0.9389  0.0505
 5327SOL    HW227444   0.148   1.163   1.274 -0.5194 -0.3560  1.1481
 5328SOL     OW27445   1.663   2.595   2.519 -0.0584 -0.0089 -0.1449
 5328SOL    HW127446   1.660   2.684   2.554 -1.6534  0.5557 -1.7422
 5328SOL    HW227447   1.657   2.615   2.426  0.4647  0.3438 -0.1038
 5329SOL     OW27448   3.018   1.226  16.702 -0.1964  0.2149 -0.4473
 5329SOL    HW127449   3.030   1.187  16.616 -1.3821  1.4750 -1.1809
 5329SOL    HW227450   3.039   1.149  16.756  2.5543  0.5173 -1.0709
 5330SOL     OW27451   2.480   0.497   1.214  0.1341  0.1327 -0.4077
 5330SOL    HW127452   2.562   0.529   1.251  0.7480 -2.6662  0.7129
 5330SOL    HW227453   2.514   0.428   1.156  0.7444  0.6350 -0.6529
 5331SOL     OW27454   1.519   2.385   4.323 -0.2180  0.2361 -0.0997
 5331SOL    HW127455   1.510   2.335   4.404 -0.4575 -1.1724 -1.0062
 5331SOL    HW227456   1.550   2.470   4.356 -1.9060  1.2322 -1.0799
 5332SOL     OW27457   2.953   0.319   4.763  0.0842  0.0940 -0.2099
 5332SOL    HW127458   2.872   0.361   4.737  0.1853  1.1106  1.0904
 5332SOL    HW227459   3.015   0.392   4.755  0.5985 -0.2567  0.5445
 5333SOL     OW27460   1.593   0.852   4.532 -0.2200 -0.3270 -0.7961
 5333SOL    HW127461   1.510   0.892   4.556 -0.6154 -2.3947  1.2308
 5333SOL    HW227462   1.574   0.830   4.440 -0.0402 -3.3599 -0.1288
 5334SOL     OW27463   0.160   4.595  15.900 -0.1301 -0.2359 -0.3480
 5334SOL    HW127464   0.122   4.671  15.856 -1.0706 -0.4381  0.1195
 5334SOL    HW227465   0.239   4.599  15.846 -0.6482 -0.1033 -1.0911
 5335SOL     OW27466   3.613   2.687   5.817  0.0998  0.8583  0.4933
 5335SOL    HW127467   3.574   2.599   5.814  0.8203  0.6264 -2.1990
 5335SOL    HW227468   3.571   2.717   5.737  2.2062  1.4430 -0.3834
 5336SOL     OW27469   3.201   3.310   5.174 -0.4883 -0.3394  0.1000
 5336SOL    HW127470   3.182   3.279   5.086 -2.3800  0.9271  0.0678
 5336SOL    HW227471   3.169   3.399   5.161 -3.1289 -0.9734  2.1503
 5337SOL     OW27472   1.973   2.542  13.503  0.5241 -0.2866  0.3883
 5337SOL    HW127473   2.023   2.510  13.578  1.3763 -0.7669 -0.3708
 5337SOL    HW227474   2.006   2.481  13.436 -0.6682 -2.2074  1.5502
 5338SOL     OW27475   0.305   0.007  12.128  0.6093 -0.1538 -0.2088
 5338SOL    HW127476   0.396   0.033  12.120  0.7767 -0.1315  1.6653
 5338SOL    HW227477   0.265   0.067  12.065  1.9172  1.1564  0.1989
 5339SOL     OW27478   1.909   2.759   8.797  0.0694  0.3856 -0.5791
 5339SOL    HW127479   1.943   2.828   8.853  0.0291 -0.8075  0.8952
 5339SOL    HW227480   1.979   2.695   8.791 -0.2653 -0.0808  0.5399
 5340SOL     OW27481   2.815   1.246  12.396  0.5145  0.3109  0.1370
 5340SOL    HW127482   2.909   1.252  12.380  0.5944  2.3990  1.3511
 5340SOL    HW227483   2.783   1.242  12.306 -1.0400  1.7183  0.6324
 5341SOL     OW27484   0.118   1.803   7.909 -0.0135  0.0791  0.6396
 5341SOL    HW127485   0.031   1.772   7.938 -0.6198 -1.5388 -2.8995
 5341SOL    HW227486   0.169   1.803   7.990  2.5835  0.2110 -1.0036
 5342SOL     OW27487   0.815   2.669   6.771 -0.6619  0.1475  0.1349
 5342SOL    HW127488   0.728   2.667   6.730  0.6218  1.0334 -2.6363
 5342SOL    HW227489   0.817   2.591   6.827  1.4648 -1.4577 -2.1743
 5343SOL     OW27490   2.396   4.117   8.028 -0.0236  0.6691 -0.3565
 5343SOL    HW127491   2.458   4.045   8.018  1.4293  1.7255  1.0413
 5343SOL    HW227492   2.434   4.199   7.998 -1.3840  0.7970 -1.7181
 5344SOL     OW27493   4.183   4.195  12.871 -0.2727  0.1870  0.0029
 5344SOL    HW127494   4.088   4.194  12.866 -0.1915  0.0738 -1.4745
 5344SOL    HW227495   4.211   4.141  12.797 -0.4461 -1.3596  1.0816
 5345SOL     OW27496   2.084   4.475   0.103  0.4074 -0.4471  0.1216
 5345SOL    HW127497   2.077   4.565   0.070  0.1130 -0.1548  1.0003
 5345SOL    HW227498   1.990   4.457   0.111  0.1211  0.5298 -0.8333
 5346SOL     OW27499   4.122   1.326  12.991  0.2416 -0.0644  0.6041
 5346SOL    HW127500   4.172   1.407  12.985 -1.2375  1.0451  3.5447
 5346SOL    HW227501   4.150   1.271  12.918 -1.0437  1.7213 -1.2460
 5347SOL     OW27502   0.980   2.726  13.135 -0.0262  0.0542  0.0889
 5347SOL    HW127503   1.023   2.784  13.072 -1.5451  0.0837 -0.9188
 5347SOL    HW227504   0.929   2.681  13.068 -0.8537  1.3183 -0.1317
 5348SOL     OW27505   2.514   2.207   7.524 -0.7440  0.3471 -0.0199
 5348SOL    HW127506   2.479   2.262   7.594  1.1376  2.0481 -0.4121
 5348SOL    HW227507   2.454   2.133   7.512 -0.5252  0.0816  0.5683
 5349SOL     OW27508   3.304   4.409   5.407 -0.1550  0.6743  0.0753
 5349SOL    HW127509   3.371   4.344   5.388  0.3350  1.1548  0.1543
 5349SOL    HW227510   3.355   4.489   5.416  1.1688 -0.1212 -0.4015
 5350SOL     OW27511   3.603   1.510   8.274  0.9104 -0.9769 -0.0405
 5350SOL    HW127512   3.647   1.438   8.228 -2.9356 -4.3204  1.5834
 5350SOL    HW227513   3.530   1.529   8.215 -0.6116  1.9352  2.7833
 5351SOL     OW27514   0.118   4.364  14.518  0.0366 -0.2004 -0.1225
 5351SOL    HW127515   0.147   4.450  14.485 -3.5126  1.3250  0.6425
 5351SOL    HW227516   0.099   4.394  14.607 -0.2473  1.0784 -0.6007
 5352SOL     OW27517   0.538   0.399   0.220 -0.9432  0.5279  0.4158
 5352SOL    HW127518   0.532   0.397   0.125  0.1895 -1.4838  0.3969
 5352SOL    HW227519   0.468   0.336   0.238 -0.4259 -0.2397 -0.2550
 5353SOL     OW27520   0.143   4.568  10.351  0.2091  0.0834 -0.7663
 5353SOL    HW127521   0.163   4.661  10.358 -0.3840  0.1191  0.5366
 5353SOL    HW227522   0.204   4.545  10.281 -1.4307 -0.8601 -1.8928
 5354SOL     OW27523   4.705   0.230   9.380 -0.3491  0.0357 -0.8469
 5354SOL    HW127524   4.617   0.244   9.416 -0.7472 -0.8984 -1.4790
 5354SOL    HW227525   0.030   0.249   9.460  0.1971 -2.5956 -0.5878
 5355SOL     OW27526   2.627   4.343  15.368 -0.2686 -0.3336 -0.2517
 5355SOL    HW127527   2.561   4.305  15.310 -1.9699 -2.3513  3.0027
 5355SOL    HW227528   2.582   4.426  15.381 -0.3372 -0.3580 -0.3385
 5356SOL     OW27529   1.360   3.852  11.175  0.4097 -0.2880 -0.0294
 5356SOL    HW127530   1.379   3.785  11.241  0.6691 -1.2328 -1.0701
 5356SOL    HW227531   1.392   3.936  11.210  0.8681 -0.5610  0.2066
 5357SOL     OW27532   4.199   2.530   6.951  0.8725 -0.2470 -0.2280
 5357SOL    HW127533   4.187   2.612   6.999 -0.2493 -0.2804 -0.4696
 5357SOL    HW227534   4.109   2.498   6.946  1.3193 -1.4649 -0.5405
 5358SOL     OW27535   2.524   0.792  17.370  0.0987  0.3273  0.2844
 5358SOL    HW127536   2.587   0.740  17.420 -0.8938  0.7778  1.9740
 5358SOL    HW227537   2.532   0.744  17.287 -1.8364  0.4029  0.0371
 5359SOL     OW27538   2.102   1.320   9.748  0.0755 -0.2401  0.0962
 5359SOL    HW127539   2.065   1.288   9.831 -0.4782  0.4676  0.1244
 5359SOL    HW227540   2.144   1.402   9.774 -1.3170 -0.2205  2.3559
 5360SOL     OW27541   4.023   4.451   8.911 -0.0249  0.5766 -0.4348
 5360SOL    HW127542   4.043   4.377   8.970  3.1475  1.1626 -0.7721
 5360SOL    HW227543   3.935   4.434   8.877 -0.5543 -2.4052  2.3644
 5361SOL     OW27544   2.198   1.782  15.236 -0.1443  0.7427 -0.4057
 5361SOL    HW127545   2.218   1.803  15.327  0.2568  0.1313 -0.3487
 5361SOL    HW227546   2.267   1.724  15.205 -1.9786 -1.2718 -0.7632
 5362SOL     OW27547   1.734   3.672  15.038  0.0970  0.7050  0.6147
 5362SOL    HW127548   1.704   3.731  15.107 -1.4633 -0.3994  0.8893
 5362SOL    HW227549   1.711   3.587  15.076  0.9235  1.3291  2.5281
 5363SOL     OW27550   1.426   1.100   2.432 -0.7303  0.1476  0.1026
 5363SOL    HW127551   1.432   1.076   2.525 -2.2058 -2.9897 -0.6124
 5363SOL    HW227552   1.513   1.080   2.399 -0.0711  1.6416  0.9065
 5364SOL     OW27553   3.407   2.588   8.344  0.0103  0.6392 -0.0058
 5364SOL    HW127554   3.361   2.530   8.405  0.8971 -0.9380 -0.8157
 5364SOL    HW227555   3.337   2.592   8.278  1.5900  1.5064 -1.6260
 5365SOL     OW27556   0.099   4.678   0.946  0.0376  0.0259  0.1697
 5365SOL    HW127557   0.043   0.031   0.946  1.4508  1.0434 -0.5985
 5365SOL    HW227558   0.093   4.654   0.853  0.9872  0.8715 -0.1034
 5366SOL     OW27559   0.777   4.413   5.920  0.1206 -0.0499 -0.3210
 5366SOL    HW127560   0.781   4.479   5.989  1.3500 -0.6874  0.2201
 5366SOL    HW227561   0.772   4.471   5.844  1.2954 -0.3957 -0.6683
 5367SOL     OW27562   1.406   4.521   4.393 -0.1710 -0.1347 -0.6683
 5367SOL    HW127563   1.420   4.428   4.411  0.3677 -0.2262 -1.5418
 5367SOL    HW227564   1.497   4.546   4.380 -0.0870  0.4513  1.1682
 5368SOL     OW27565   0.269   1.180   2.376 -0.4162  0.0586 -0.4738
 5368SOL    HW127566   0.205   1.182   2.447  0.1021  0.1553 -0.0174
 5368SOL    HW227567   0.214   1.136   2.312 -0.3991  3.0360 -2.5745
 5369SOL     OW27568   1.139   1.853   2.420  0.3616  0.2014  1.0348
 5369SOL    HW127569   1.158   1.807   2.502  1.0981 -0.5102  0.4751
 5369SOL    HW227570   1.226   1.867   2.383  0.4093  0.3309  1.1994
 5370SOL     OW27571   0.549   3.512   6.284  0.3031 -0.4904  0.4668
 5370SOL    HW127572   0.460   3.525   6.318  0.5719 -2.7577  2.0042
 5370SOL    HW227573   0.542   3.430   6.236 -1.2840  1.0003 -1.8865
 5371SOL     OW27574   4.171   3.956   7.641 -0.6912  0.7498  0.0017
 5371SOL    HW127575   4.173   3.912   7.726  1.4673 -0.1630 -0.5206
 5371SOL    HW227576   4.086   3.934   7.604 -1.1833  1.7471  0.5437
 5372SOL     OW27577   2.960   2.722  12.993  0.6674 -0.5279  0.5954
 5372SOL    HW127578   2.909   2.734  13.074 -0.1725  0.8598 -0.1400
 5372SOL    HW227579   2.959   2.813  12.964  0.6210  0.1195  2.5648
 5373SOL     OW27580   2.211   2.329   6.218 -0.2288 -0.4736 -0.2525
 5373SOL    HW127581   2.273   2.394   6.253 -0.6206  1.5686 -3.2985
 5373SOL    HW227582   2.191   2.380   6.139  1.3984  1.9144  0.8797
 5374SOL     OW27583   1.891   0.797   3.193 -0.0736  0.0205 -0.6700
 5374SOL    HW127584   1.835   0.720   3.202  0.5720 -0.0431  3.0326
 5374SOL    HW227585   1.886   0.820   3.101 -0.5385 -0.1486 -0.6840
 5375SOL     OW27586   1.382   4.718  12.796 -0.5602  0.0843 -0.5751
 5375SOL    HW127587   1.405   4.652  12.730  0.4674  0.2092 -0.3365
 5375SOL    HW227588   1.294   4.697  12.828 -0.1121 -0.4305  0.3150
 5376SOL     OW27589   4.274   1.436   5.263 -0.2462  0.2112  0.6975
 5376SOL    HW127590   4.241   1.483   5.186 -3.1620  0.9906  2.4162
 5376SOL    HW227591   4.361   1.412   5.232 -0.8020 -1.0077  0.0554
 5377SOL     OW27592   0.024   3.005   5.279 -0.0029 -0.1729  0.5214
 5377SOL    HW127593   4.703   2.964   5.205  1.6020  0.5500 -0.8630
 5377SOL    HW227594   0.109   3.025   5.239 -0.4386  0.4452 -0.0923
 5378SOL     OW27595   4.495   1.213  10.944  0.0732 -0.5984 -0.0015
 5378SOL    HW127596   4.562   1.235  10.878 -0.8996 -0.7886 -1.0541
 5378SOL    HW227597   4.430   1.189  10.878  0.0700  0.5874 -0.4208
 5379SOL     OW27598   4.365   0.022   8.286 -0.4743  0.0877 -0.0133
 5379SOL    HW127599   4.450   4.704   8.290 -0.3117  0.5484  1.2000
 5379SOL    HW227600   4.368   0.090   8.353  0.1926  0.1360 -0.0992
 5380SOL     OW27601   0.154   4.245  12.701  0.6499  0.3598 -0.1831
 5380SOL    HW127602   0.107   4.298  12.766 -1.8206 -1.9479 -0.1024
 5380SOL    HW227603   0.114   4.161  12.724  1.2906  0.0821 -0.1013
 5381SOL     OW27604   0.406   3.263   6.868  0.5318  0.6476  0.2337
 5381SOL    HW127605   0.324   3.253   6.916  0.0548 -0.2888 -0.7982
 5381SOL    HW227606   0.399   3.348   6.823  0.1640  0.7556  0.4986
 5382SOL     OW27607   4.512   0.712   6.589 -0.1157  0.2377  0.2280
 5382SOL    HW127608   4.481   0.650   6.655 -0.2956 -0.3260 -0.3864
 5382SOL    HW227609   4.499   0.799   6.628 -0.5941  0.1529  0.2560
 5383SOL     OW27610   3.974   1.400   4.253 -0.3316  0.2925  0.5692
 5383SOL    HW127611   3.961   1.315   4.295  3.5991 -0.1216  0.9220
 5383SOL    HW227612   4.067   1.400   4.233 -0.7348  0.8789 -1.3500
 5384SOL     OW27613   4.607   3.535   5.888 -0.3064  0.1766 -0.2931
 5384SOL    HW127614   4.624   3.447   5.922  0.3405  0.9538  1.4316
 5384SOL    HW227615   4.607   3.593   5.965  1.4364  2.2183 -1.8229
 5385SOL     OW27616   0.628   1.644   0.185 -0.2949 -0.1070  0.1390
 5385SOL    HW127617   0.620   1.738   0.172 -1.9677 -0.3598 -0.6368
 5385SOL    HW227618   0.615   1.620   0.094 -1.4752 -1.1347  0.5751
 5386SOL     OW27619   0.706   1.955   6.572  0.1902  0.4653 -0.3957
 5386SOL    HW127620   0.697   2.046   6.602  1.1736  0.4045  0.0709
 5386SOL    HW227621   0.679   1.965   6.480  1.2446  1.1711 -0.6335
 5387SOL     OW27622   0.956   1.325  11.410 -0.3150  0.3033  0.1568
 5387SOL    HW127623   1.048   1.345  11.427 -0.4373  0.8587  0.1717
 5387SOL    HW227624   0.907   1.333  11.492  1.5043  0.1331  1.2670
 5388SOL     OW27625   4.349   0.972   4.697  0.0111 -0.2242 -0.0952
 5388SOL    HW127626   4.329   1.057   4.736  0.5638  0.5977 -1.6002
 5388SOL    HW227627   4.391   0.930   4.771 -0.5921 -0.5528  0.0648
 5389SOL     OW27628   3.276   2.396   1.365  0.4293  0.1480  0.5694
 5389SOL    HW127629   3.356   2.374   1.317 -0.8562 -1.6287 -0.7439
 5389SOL    HW227630   3.268   2.328   1.432  2.5005  0.5073  1.2003
 5390SOL     OW27631   3.273   2.849   7.003  0.3100  0.8284 -0.3324
 5390SOL    HW127632   3.322   2.768   6.993  1.2043  1.3806 -0.4871
 5390SOL    HW227633   3.297   2.861   7.094  0.0181  1.3320 -0.3164
 5391SOL     OW27634   0.118   3.222  15.079 -0.1554  0.2804  0.3907
 5391SOL    HW127635   0.156   3.183  15.001 -0.8634  1.3228 -0.4653
 5391SOL    HW227636   0.186   3.198  15.142 -0.2057 -0.8309  0.0328
 5392SOL     OW27637   1.777   4.012  11.749  0.3768 -0.0930  0.2246
 5392SOL    HW127638   1.853   3.998  11.693 -0.6323  1.0458 -1.4196
 5392SOL    HW227639   1.700   3.994  11.694  1.7537 -1.6613 -1.1865
 5393SOL     OW27640   1.693   2.736   8.259  0.2881  0.1635  0.2490
 5393SOL    HW127641   1.635   2.801   8.220  0.4299  1.3921  2.1038
 5393SOL    HW227642   1.633   2.663   8.275  0.4091 -0.1478 -0.6962
 5394SOL     OW27643   1.248   2.040   7.295  0.1003  0.3651  0.0989
 5394SOL    HW127644   1.315   2.071   7.357  0.5076 -1.5182  0.5821
 5394SOL    HW227645   1.173   2.091   7.326  0.3235  1.2152 -0.7690
 5395SOL     OW27646   4.308   0.270   0.428  0.1811 -0.5344 -0.3059
 5395SOL    HW127647   4.370   0.328   0.472 -1.7436  0.3218  1.2755
 5395SOL    HW227648   4.234   0.328   0.413  2.6011  2.0142 -2.2302
 5396SOL     OW27649   1.324   1.072   4.999 -0.0329 -0.1300 -0.0253
 5396SOL    HW127650   1.311   1.135   5.070 -0.6488 -2.8570  2.2822
 5396SOL    HW227651   1.311   1.133   4.926  3.0065  0.6548  0.0659
 5397SOL     OW27652   0.838   3.901  12.835  0.2074 -1.1394 -0.3570
 5397SOL    HW127653   0.787   3.822  12.851 -0.8808 -0.2166  0.7400
 5397SOL    HW227654   0.860   3.911  12.742  0.7459  2.5259  0.1828
 5398SOL     OW27655   1.030   1.029   1.111 -0.3336 -0.4273 -0.3730
 5398SOL    HW127656   1.005   1.120   1.132 -3.5491 -1.9618  2.5898
 5398SOL    HW227657   1.125   1.035   1.112 -0.4131  0.7918  0.6540
 5399SOL     OW27658   1.364   0.010   0.604 -0.4767  0.7401  0.3665
 5399SOL    HW127659   1.304   0.066   0.554 -0.5419 -1.9751 -2.6351
 5399SOL    HW227660   1.312   4.712   0.680 -1.1549  0.8101 -0.0726
 5400SOL     OW27661   4.308   1.668   4.461 -0.2488 -0.2693  0.0749
 5400SOL    HW127662   4.242   1.671   4.530 -1.7067 -0.2247 -1.3173
 5400SOL    HW227663   4.308   1.755   4.420 -1.0747 -0.6294 -0.7062
 5401SOL     OW27664   2.178   3.443  13.267  0.2369 -0.4461 -0.3586
 5401SOL    HW127665   2.252   3.406  13.314 -0.8645 -0.5615  1.2816
 5401SOL    HW227666   2.143   3.368  13.220 -0.1281 -0.4289 -0.1174
 5402SOL     OW27667   0.417   0.575   8.929 -0.2615 -0.1835 -0.3593
 5402SOL    HW127668   0.353   0.563   8.999 -1.1770  1.5874 -0.8838
 5402SOL    HW227669   0.490   0.526   8.965  0.1465  1.3890  0.9559
 5403SOL     OW27670   3.982   1.241   0.480 -0.1708  0.1124  0.6498
 5403SOL    HW127671   4.027   1.232   0.564  1.0155 -2.7684 -0.3082
 5403SOL    HW227672   3.920   1.306   0.514 -1.0249 -0.8932  1.0105
 5404SOL     OW27673   4.513   2.204   7.893  0.4807 -0.1119 -0.2293
 5404SOL    HW127674   4.580   2.184   7.959 -1.6488 -1.3461  1.5426
 5404SOL    HW227675   4.509   2.300   7.890  0.6565 -0.1143 -0.6876
 5405SOL     OW27676   4.603   4.128   3.167 -0.0129 -0.3890  0.3435
 5405SOL    HW127677   4.679   4.185   3.153 -0.5766  0.6188  1.3665
 5405SOL    HW227678   4.599   4.132   3.262  0.8363  0.6706  0.3378
 5406SOL     OW27679   0.964   3.519   7.615 -0.3452  0.3399 -0.1951
 5406SOL    HW127680   0.923   3.463   7.549  1.7123 -0.6535 -0.6222
 5406SOL    HW227681   0.955   3.608   7.582  0.2026 -0.1712 -1.6956
 5407SOL     OW27682   1.966   3.462  17.689  0.2054 -0.4612 -0.2034
 5407SOL    HW127683   1.877   3.485  17.663 -0.5994 -2.2739  0.9292
 5407SOL    HW227684   1.997   3.533   0.046  0.6463 -0.6075 -0.2600
 5408SOL     OW27685   3.658   3.664   5.292 -0.7200 -0.0247  0.3525
 5408SOL    HW127686   3.664   3.756   5.267  3.3912 -0.0627  1.2241
 5408SOL    HW227687   3.645   3.667   5.387  0.0518  2.2811  0.3920
 5409SOL     OW27688   3.963   1.813   4.203  0.4225  0.3166 -0.3364
 5409SOL    HW127689   4.051   1.783   4.225 -0.6179 -2.4233  0.0031
 5409SOL    HW227690   3.904   1.761   4.257 -0.0093  1.8469  0.6704
 5410SOL     OW27691   1.921   0.487   6.631 -0.1950 -0.5613  0.0105
 5410SOL    HW127692   1.965   0.519   6.552 -0.3248 -1.5399 -0.4596
 5410SOL    HW227693   1.828   0.508   6.625 -0.6194 -1.6301  2.4490
 5411SOL     OW27694   0.334   3.850   2.264 -0.8518 -0.2857 -0.0068
 5411SOL    HW127695   0.248   3.815   2.287 -1.0397  2.0272  2.8222
 5411SOL    HW227696   0.394   3.802   2.321 -0.8385 -2.0236 -1.4970
 5412SOL     OW27697   0.897   2.050   0.731 -0.3428  0.7947  0.3540
 5412SOL    HW127698   0.817   2.050   0.784  0.1729  0.3848  1.1322
 5412SOL    HW227699   0.949   2.126   0.755 -0.1513  0.5174  0.8342
 5413SOL     OW27700   0.100   1.164   8.005 -0.1674  0.3173 -0.5897
 5413SOL    HW127701   0.109   1.254   7.974 -1.1591  0.4239 -0.5841
 5413SOL    HW227702   0.192   1.139   8.015 -0.2620  0.4226  0.5835
 5414SOL     OW27703   3.658   1.614   6.446 -0.3696 -0.4674  0.5473
 5414SOL    HW127704   3.709   1.695   6.439  0.2396 -0.7772  1.3553
 5414SOL    HW227705   3.727   1.548   6.456  0.0608  0.2226  2.1294
 5415SOL     OW27706   4.441   2.733   5.275  0.4148 -0.4577  0.0155
 5415SOL    HW127707   4.366   2.774   5.319 -0.3001 -0.5728 -1.0895
 5415SOL    HW227708   4.426   2.639   5.284  0.1862 -0.4283 -0.0456
 5416SOL     OW27709   3.917   1.105   7.611 -0.6172 -0.3267 -0.2679
 5416SOL    HW127710   3.988   1.135   7.667  0.0091  1.6164 -2.0804
 5416SOL    HW227711   3.948   1.023   7.572  2.7144  1.2133 -0.8447
 5417SOL     OW27712   1.302   0.918   1.794  0.0680 -0.0162  0.2366
 5417SOL    HW127713   1.240   0.854   1.760  1.5894 -0.9538 -0.7698
 5417SOL    HW227714   1.261   1.004   1.802 -0.0973 -0.0291 -0.4774
 5418SOL     OW27715   3.356   2.819   0.067  0.7729 -0.2877  0.7246
 5418SOL    HW127716   3.353   2.786  17.676  1.8332  1.3606  0.0827
 5418SOL    HW227717   3.332   2.910   0.053 -1.6442 -1.2452 -1.4153
 5419SOL     OW27718   3.338   1.780   5.054 -0.6035 -0.0398  0.0082
 5419SOL    HW127719   3.332   1.703   4.998  0.1062 -1.6194  2.1080
 5419SOL    HW227720   3.428   1.797   5.028 -0.5175 -0.6609 -0.1011
 5420SOL     OW27721   4.390   4.173  16.588 -0.1842  0.4918  0.4290
 5420SOL    HW127722   4.454   4.103  16.603  0.0207  1.2614  3.1624
 5420SOL    HW227723   4.318   4.129  16.632  0.5209 -1.1978 -0.1130
 5421SOL     OW27724   2.321   3.810  10.281 -0.2556 -0.7426 -0.0719
 5421SOL    HW127725   2.269   3.889  10.270 -0.6658 -0.8189  1.2389
 5421SOL    HW227726   2.360   3.807  10.368  0.3574 -1.0959 -0.3581
 5422SOL     OW27727   0.664   1.709  17.604 -0.1228  0.0774 -0.3616
 5422SOL    HW127728   0.647   1.627  17.557  2.8727  0.3981 -1.9585
 5422SOL    HW227729   0.743   1.747  17.567 -0.0103  1.3831  1.2143
 5423SOL     OW27730   4.300   1.573   8.744 -0.2001 -0.0194  0.0719
 5423SOL    HW127731   4.361   1.500   8.732  1.1339  0.8823  1.4296
 5423SOL    HW227732   4.217   1.533   8.717  0.1068  0.9182 -2.2608
 5424SOL     OW27733   0.119   3.354   3.506  0.1280  0.3353 -0.4132
 5424SOL    HW127734   0.024   3.354   3.498  0.0111  1.0395  1.0419
 5424SOL    HW227735   0.142   3.283   3.447  0.5329 -0.8147  1.1308
 5425SOL     OW27736   2.823   4.565  16.803 -0.0859 -0.1915  0.5971
 5425SOL    HW127737   2.736   4.585  16.838  0.6291  1.8758  1.2085
 5425SOL    HW227738   2.810   4.553  16.709  0.1571 -0.3169  0.5801
 5426SOL     OW27739   1.172   3.251   4.012 -0.3189  0.4377  0.4242
 5426SOL    HW127740   1.118   3.317   3.968 -0.2473  0.1190 -0.1401
 5426SOL    HW227741   1.140   3.256   4.102 -0.5328  1.9412  0.2726
 5427SOL     OW27742   1.334   4.177   9.090  0.4871  0.3655  0.7381
 5427SOL    HW127743   1.350   4.180   8.996  0.3848  0.1034  0.7129
 5427SOL    HW227744   1.399   4.114   9.121  0.7157 -0.1539 -0.8111
 5428SOL     OW27745   2.438   2.659  13.535  0.2006  0.0333 -0.2160
 5428SOL    HW127746   2.370   2.666  13.468 -0.6653 -0.3264  0.6154
 5428SOL    HW227747   2.375   2.672  13.606 -1.0160  0.6624 -1.3962
 5429SOL     OW27748   1.690   1.685   2.888  0.3777 -0.1272  0.3008
 5429SOL    HW127749   1.628   1.738   2.839 -0.7083 -0.0630  1.7394
 5429SOL    HW227750   1.642   1.659   2.967 -0.7742  1.7359  0.2127
 5430SOL     OW27751   2.826   3.333   4.227 -0.4221  0.1608  0.3552
 5430SOL    HW127752   2.832   3.425   4.250 -1.2296  0.2087  0.3593
 5430SOL    HW227753   2.740   3.338   4.185  0.3883 -0.3936 -1.3901
 5431SOL     OW27754   0.663   3.408  12.974  0.5444 -0.2545 -0.2386
 5431SOL    HW127755   0.628   3.351  12.905  0.2197  1.0231 -1.1214
 5431SOL    HW227756   0.610   3.377  13.048 -0.3563  0.5852 -0.5372
 5432SOL     OW27757   4.192   2.249   8.629  0.2147 -0.0243  0.0332
 5432SOL    HW127758   4.255   2.181   8.605 -0.5410 -0.9519  0.6684
 5432SOL    HW227759   4.226   2.272   8.716 -1.3935  0.9313  0.3990
 5433SOL     OW27760   4.207   3.137   6.836 -0.0165 -0.5460 -0.5336
 5433SOL    HW127761   4.248   3.091   6.763 -0.3508  1.1858 -1.8097
 5433SOL    HW227762   4.116   3.159   6.814  0.5877  2.2415 -0.2486
 5434SOL     OW27763   1.340   2.836   6.082  0.3507  0.0663 -0.2848
 5434SOL    HW127764   1.433   2.843   6.061  0.5347 -0.8329  0.2143
 5434SOL    HW227765   1.338   2.778   6.158 -1.2340  0.1238 -0.2910
 5435SOL     OW27766   1.740   4.690   0.177  0.5664 -0.2405  0.3696
 5435SOL    HW127767   1.767   4.599   0.177 -2.1801 -1.0665  1.0917
 5435SOL    HW227768   1.732   4.710   0.270 -0.5848  1.9837 -0.1946
 5436SOL     OW27769   1.699   2.452   3.358  0.1174  0.2220  0.2658
 5436SOL    HW127770   1.663   2.363   3.359  1.4918 -0.3430 -0.7909
 5436SOL    HW227771   1.634   2.501   3.409  0.1030 -0.1907  0.6401
 5437SOL     OW27772   0.066   0.032  15.688 -0.2599  0.2907 -0.3083
 5437SOL    HW127773   0.005   0.093  15.729  0.4546 -0.5276  1.9371
 5437SOL    HW227774   0.023   0.011  15.604 -0.5269  0.3126 -0.1791
 5438SOL     OW27775   3.714   2.395   5.997  0.0496 -0.0131 -0.0023
 5438SOL    HW127776   3.708   2.378   6.091 -0.9413  1.6724  0.2408
 5438SOL    HW227777   3.807   2.421   5.991 -0.0418 -0.1011 -1.6428
 5439SOL     OW27778   3.019   2.662   3.535 -0.4221 -0.1972  0.0152
 5439SOL    HW127779   3.098   2.609   3.519  0.6039  1.0745  0.8955
 5439SOL    HW227780   2.980   2.604   3.600 -0.6260  0.3711  0.3963
 5440SOL     OW27781   2.386   0.043   4.880  0.0097  0.3145 -0.5015
 5440SOL    HW127782   2.404   0.094   4.959  1.3664 -1.2712  0.2287
 5440SOL    HW227783   2.327   4.699   4.911  0.6343 -0.7482 -1.6738
 5441SOL     OW27784   3.662   0.601   5.668  0.5457  0.1510  0.6574
 5441SOL    HW127785   3.733   0.537   5.666  0.3547 -0.0086 -0.8384
 5441SOL    HW227786   3.621   0.602   5.755  1.8645  0.2693  1.2746
 5442SOL     OW27787   1.081   4.032   0.296  0.4613  0.4263  0.3747
 5442SOL    HW127788   1.104   4.070   0.211 -2.2296  1.1605 -0.0161
 5442SOL    HW227789   1.018   3.965   0.269 -1.4094  1.6941  1.5924
 5443SOL     OW27790   1.315   4.173   3.433 -0.4131 -0.1055  0.1968
 5443SOL    HW127791   1.295   4.197   3.342  2.9184  1.7308 -0.0495
 5443SOL    HW227792   1.408   4.154   3.442 -0.2599 -0.6981 -2.5750
 5444SOL     OW27793   2.356   2.634   8.407  0.5895 -0.0206 -0.7085
 5444SOL    HW127794   2.272   2.611   8.448  0.7318 -2.0473 -1.5757
 5444SOL    HW227795   2.347   2.720   8.367  0.8757  1.7129  2.9103
 5445SOL     OW27796   1.949   4.383   0.821  0.1552 -0.1501  0.7720
 5445SOL    HW127797   2.013   4.313   0.809  2.1491  1.4657  2.0631
 5445SOL    HW227798   1.905   4.339   0.894 -2.2303 -0.0267 -0.5881
 5446SOL     OW27799   2.395   0.658   3.774  0.0800  0.6021 -0.0970
 5446SOL    HW127800   2.434   0.619   3.852  0.5740  1.2576 -0.0113
 5446SOL    HW227801   2.420   0.596   3.705  0.8885 -1.2137  1.8335
 5447SOL     OW27802   3.406   1.044   8.238 -0.1253  0.1045 -0.3544
 5447SOL    HW127803   3.417   0.949   8.230 -0.6947 -0.0762  1.0592
 5447SOL    HW227804   3.499   1.070   8.234  0.5209 -1.9603  1.7419
 5448SOL     OW27805   1.509   0.454   4.301  0.3472 -0.1571  0.0310
 5448SOL    HW127806   1.592   0.420   4.269 -0.0366 -0.4817 -0.6171
 5448SOL    HW227807   1.467   0.476   4.218 -1.4377 -1.9060  0.4856
 5449SOL     OW27808   0.994   2.196   7.031 -0.0845  0.0317  0.1225
 5449SOL    HW127809   1.013   2.236   7.116  0.4174 -1.6708  0.8045
 5449SOL    HW227810   0.982   2.104   7.056  0.4683  0.2032  1.0147
 5450SOL     OW27811   4.246   4.438   7.896 -0.4276  0.0392  0.4646
 5450SOL    HW127812   4.331   4.434   7.938 -0.4223  0.4013  0.4876
 5450SOL    HW227813   4.244   4.349   7.861 -0.3513  0.4195 -0.5107
 5451SOL     OW27814   1.357   3.924  13.951 -0.3971 -0.1640 -0.2010
 5451SOL    HW127815   1.301   3.981  14.003 -1.8866 -2.6205  0.8846
 5451SOL    HW227816   1.428   3.988  13.942 -0.4413 -0.2173 -0.9636
 5452SOL     OW27817   2.717   1.388  14.998 -0.0106 -0.0243  0.2561
 5452SOL    HW127818   2.652   1.456  14.983 -1.2427 -0.7231  2.4898
 5452SOL    HW227819   2.731   1.359  14.908 -2.7200  0.6177 -0.3549
 5453SOL     OW27820   1.173   2.193   3.208  0.1942  0.1196 -0.8587
 5453SOL    HW127821   1.110   2.244   3.157 -1.1343  0.1486  0.8355
 5453SOL    HW227822   1.219   2.145   3.139 -3.3767 -1.7021 -1.9893
 5454SOL     OW27823   4.399   3.849  16.858  0.4203  0.0772 -0.6626
 5454SOL    HW127824   4.322   3.804  16.894  0.0185  0.1751 -1.4073
 5454SOL    HW227825   4.381   3.849  16.764 -1.2957  1.2158 -0.3129
 5455SOL     OW27826   0.233   2.778   3.759  0.6790 -0.3876 -0.6575
 5455SOL    HW127827   0.272   2.811   3.840 -1.4013  0.5236  0.0039
 5455SOL    HW227828   0.144   2.813   3.753 -0.3837 -2.8774  0.6059
 5456SOL     OW27829   2.330   4.535   2.582 -1.2195  0.2313 -0.6899
 5456SOL    HW127830   2.400   4.472   2.598 -1.8531 -0.3133 -0.0984
 5456SOL    HW227831   2.302   4.500   2.497  0.8902 -1.6229 -0.6213
 5457SOL     OW27832   1.780   4.145   3.277  0.1257  0.0137  0.5174
 5457SOL    HW127833   1.823   4.061   3.262 -0.0480  0.2508 -1.2482
 5457SOL    HW227834   1.849   4.209   3.265  0.3006  0.0332  1.6373
 5458SOL     OW27835   4.341   2.013  10.101  0.2908  0.2959  0.1482
 5458SOL    HW127836   4.289   2.093  10.102  0.8741  0.6526  1.0072
 5458SOL    HW227837   4.393   2.020  10.180  1.7581  1.8737 -0.9496
 5459SOL     OW27838   1.558   4.163  13.448  0.4581  0.6605 -0.3978
 5459SOL    HW127839   1.512   4.245  13.467 -0.1626  0.8433 -2.6585
 5459SOL    HW227840   1.508   4.104  13.504  0.7896 -0.5758 -1.4080
 5460SOL     OW27841   0.437   2.627   2.367  0.3100  0.3465  0.3574
 5460SOL    HW127842   0.449   2.543   2.411 -3.2735 -0.2084  0.3308
 5460SOL    HW227843   0.397   2.585   2.291  2.9923 -0.3611 -0.6258
 5461SOL     OW27844   2.357   0.637   7.931 -0.3298 -0.1384 -0.1373
 5461SOL    HW127845   2.440   0.668   7.896  1.6808 -2.9779  2.0647
 5461SOL    HW227846   2.382   0.549   7.960  0.7472  0.1256 -0.2583
 5462SOL     OW27847   3.709   0.654  16.617  0.0923 -0.0082 -0.1166
 5462SOL    HW127848   3.621   0.691  16.611 -0.0962 -0.7627 -1.9557
 5462SOL    HW227849   3.730   0.660  16.523  0.7357  1.6684  0.1337
 5463SOL     OW27850   0.285   0.759  12.713  0.9134  0.6194  0.5079
 5463SOL    HW127851   0.237   0.758  12.630  0.6905  1.0499  0.6293
 5463SOL    HW227852   0.368   0.795  12.684  0.4644  0.4538 -0.9693
 5464SOL     OW27853   2.662   2.667   9.732 -0.3146 -0.0325  0.1961
 5464SOL    HW127854   2.617   2.704   9.808 -2.4431  2.0837 -2.0722
 5464SOL    HW227855   2.635   2.712   9.652  3.1010 -0.2107 -1.0599
 5465SOL     OW27856   0.821   0.848   7.487 -0.2276  0.3264 -0.3847
 5465SOL    HW127857   0.908   0.824   7.456  0.9228  1.9027  1.6665
 5465SOL    HW227858   0.774   0.768   7.511  2.2184 -0.7791  0.6317
 5466SOL     OW27859   0.564   1.841  11.683 -0.0649 -0.0242 -0.2704
 5466SOL    HW127860   0.612   1.778  11.628  0.2779  1.6736 -1.9125
 5466SOL    HW227861   0.512   1.896  11.624 -0.9247 -0.0906  0.4277
 5467SOL     OW27862   1.860   3.970   5.329  0.0004 -0.3021 -0.1150
 5467SOL    HW127863   1.814   4.053   5.338  0.3891  0.0163 -1.0530
 5467SOL    HW227864   1.829   3.913   5.400 -0.2719 -0.4898 -0.3833
 5468SOL     OW27865   0.427   4.621  10.965  0.3248 -0.0540  0.3279
 5468SOL    HW127866   0.470   4.692  11.013 -1.3555  1.3705 -0.2699
 5468SOL    HW227867   0.360   4.581  11.020 -0.7153  1.9065  0.4921
 5469SOL     OW27868   0.760   2.553   6.475 -0.2374 -0.9741  0.0649
 5469SOL    HW127869   0.850   2.580   6.452 -0.8406 -0.1572 -1.3330
 5469SOL    HW227870   0.785   2.462   6.493  3.3988 -0.4489 -2.4150
 5470SOL     OW27871   4.141   2.481  10.296  0.2094  0.5298  0.0558
 5470SOL    HW127872   4.182   2.526  10.370  0.5634  0.4581 -0.1014
 5470SOL    HW227873   4.105   2.549  10.239 -0.9089 -0.8346 -0.8599
 5471SOL     OW27874   3.737   3.014   4.755  0.2086  0.4169 -0.3771
 5471SOL    HW127875   3.698   2.927   4.766  2.4788 -0.7182 -1.2293
 5471SOL    HW227876   3.700   3.067   4.826 -2.2792  0.0960 -1.4152
 5472SOL     OW27877   0.119   3.700  16.112  0.0083 -0.2940  0.0450
 5472SOL    HW127878   0.121   3.613  16.150  1.4446  0.4975  1.7665
 5472SOL    HW227879   0.040   3.694  16.059  0.5580  1.2835 -0.9626
 5473SOL     OW27880   2.295   2.933   9.088 -0.0297 -0.3543  0.2934
 5473SOL    HW127881   2.327   3.016   9.123 -1.3777  0.7018 -0.9542
 5473SOL    HW227882   2.376   2.901   9.048  0.2011  0.6286 -0.0316
 5474SOL     OW27883   0.029   2.268   4.219 -0.1811 -0.0604 -0.1715
 5474SOL    HW127884   0.077   2.342   4.255  1.9124 -2.8797  2.8549
 5474SOL    HW227885   4.724   2.303   4.135 -0.0255  0.7586  0.1183
 5475SOL     OW27886   3.595   2.765   5.537  0.4436  0.1858 -0.0061
 5475SOL    HW127887   3.667   2.814   5.496  0.9556 -0.0085  0.6667
 5475SOL    HW227888   3.642   2.681   5.534  2.4927  1.3884 -2.6034
 5476SOL     OW27889   1.746   0.561   3.130 -0.2680 -0.1146  0.1958
 5476SOL    HW127890   1.781   0.536   3.045  1.5928  0.5067  0.7773
 5476SOL    HW227891   1.797   0.497   3.180 -0.0093 -0.0314  0.0355
 5477SOL     OW27892   3.611   3.892   5.999 -0.2114  0.6007 -0.0101
 5477SOL    HW127893   3.668   3.912   6.073  0.0115  1.8225 -0.5172
 5477SOL    HW227894   3.552   3.829   6.041  0.3356 -1.3479 -2.1974
 5478SOL     OW27895   3.315   3.686  15.194 -0.2233  0.3302 -0.2814
 5478SOL    HW127896   3.336   3.703  15.102 -0.7180 -2.2322 -0.8525
 5478SOL    HW227897   3.288   3.594  15.191  1.5041 -0.2274  1.0873
 5479SOL     OW27898   0.429   3.152  10.843  1.0830  0.0793 -0.3192
 5479SOL    HW127899   0.497   3.103  10.796  1.8039  2.0681 -1.3827
 5479SOL    HW227900   0.472   3.173  10.925  0.5134 -1.9229  0.4966
 5480SOL     OW27901   1.770   1.830   6.009  0.6211  0.1272 -0.8155
 5480SOL    HW127902   1.821   1.764   5.962  0.3837  0.3310 -1.3584
 5480SOL    HW227903   1.740   1.785   6.088  3.1101  0.1879  0.1833
 5481SOL     OW27904   4.303   0.343   7.157  0.2793 -0.1205  0.0900
 5481SOL    HW127905   4.304   0.301   7.242  1.5861 -1.2304 -0.4809
 5481SOL    HW227906   4.394   0.372   7.148 -0.5059  2.4263  0.2029
 5482SOL     OW27907   1.886   1.082   5.144  0.8515  0.1494 -0.3471
 5482SOL    HW127908   1.967   1.031   5.138  0.3483 -0.5027 -1.7974
 5482SOL    HW227909   1.937   1.162   5.150  1.0596  0.0351 -0.5643
 5483SOL     OW27910   4.426   1.575  15.122 -0.0757  0.2082 -0.0494
 5483SOL    HW127911   4.363   1.569  15.051  0.2288  0.1147 -0.3141
 5483SOL    HW227912   4.385   1.626  15.191  1.7823  0.5731  0.8004
 5484SOL     OW27913   0.258   0.206  13.834 -0.2784  0.2334 -0.3119
 5484SOL    HW127914   0.162   0.201  13.837 -0.1888 -0.6291  0.8888
 5484SOL    HW227915   0.281   0.121  13.873 -3.3023 -0.0170  0.9611
 5485SOL     OW27916   1.504   1.074   3.862 -0.4223 -0.5313 -0.5945
 5485SOL    HW127917   1.580   1.130   3.878  0.8783 -2.8195  1.1670
 5485SOL    HW227918   1.554   1.001   3.825  2.2339 -0.5836  3.0640
 5486SOL     OW27919   1.527   0.166   7.370 -0.4960  0.3550  0.2174
 5486SOL    HW127920   1.592   0.225   7.332 -0.6426 -0.0600 -0.6796
 5486SOL    HW227921   1.545   0.174   7.463  1.3498  1.8020 -0.2673
 5487SOL     OW27922   2.619   1.158  14.156 -0.6944  0.5559  0.9036
 5487SOL    HW127923   2.596   1.102  14.082  0.6945  0.7052  0.3690
 5487SOL    HW227924   2.714   1.158  14.153 -0.7319 -0.6287 -0.1335
 5488SOL     OW27925   3.686   1.360   6.095 -0.4835 -0.1140 -0.0143
 5488SOL    HW127926   3.679   1.399   6.008 -1.1630 -0.2945 -0.0448
 5488SOL    HW227927   3.598   1.323   6.109 -1.0943  1.5750  0.5709
 5489SOL     OW27928   2.709   0.178   9.338 -0.3815 -0.4052 -0.1390
 5489SOL    HW127929   2.682   0.087   9.348 -0.6289 -0.1492  1.4407
 5489SOL    HW227930   2.800   0.175   9.367 -0.2485  0.0037 -0.5055
 5490SOL     OW27931   2.000   3.641   9.278 -0.5231  0.3157  0.5192
 5490SOL    HW127932   1.933   3.697   9.237  1.7112  1.9265 -0.9133
 5490SOL    HW227933   2.073   3.702   9.274  0.6076 -1.1730 -1.2333
 5491SOL     OW27934   1.081   4.518  16.840 -0.0012 -0.2637 -0.0166
 5491SOL    HW127935   1.160   4.468  16.859  0.0358 -1.2360 -2.7017
 5491SOL    HW227936   1.100   4.537  16.748  2.1777  0.8568  0.6611
 5492SOL     OW27937   4.578   4.183   8.516  0.1501  0.8426 -0.3965
 5492SOL    HW127938   4.515   4.189   8.444  0.2251 -2.1860 -0.6763
 5492SOL    HW227939   4.561   4.095   8.549  1.9082  1.5312  2.3720
 5493SOL     OW27940   1.702   4.184  12.535 -0.3745  0.2900 -0.1951
 5493SOL    HW127941   1.649   4.242  12.589  1.0053  2.1940 -0.8734
 5493SOL    HW227942   1.641   4.151  12.469  1.4133  0.8289 -2.1113
 5494SOL     OW27943   0.872   2.306  13.934 -0.1667  0.1905 -0.5742
 5494SOL    HW127944   0.932   2.238  13.964  0.9780  2.3468  2.0730
 5494SOL    HW227945   0.880   2.373  14.003  0.4337 -1.9045  1.3990
 5495SOL     OW27946   0.085   0.021   5.509 -0.2377 -0.1304 -0.7581
 5495SOL    HW127947   0.176   0.048   5.524 -0.4762  0.4902 -0.4274
 5495SOL    HW227948   0.041   0.103   5.530  1.1587  0.0058  1.6241
 5496SOL     OW27949   2.343   3.942  15.279  0.3500 -0.8502 -0.6179
 5496SOL    HW127950   2.362   3.992  15.199 -0.4960 -2.3593 -1.7627
 5496SOL    HW227951   2.344   4.015  15.341 -0.2639 -0.3545 -1.1895
 5497SOL     OW27952   3.938   3.287  13.460 -0.8108  0.7004 -0.2584
 5497SOL    HW127953   3.873   3.326  13.519 -2.0171 -0.1675 -1.0088
 5497SOL    HW227954   3.994   3.225  13.506 -1.7254  0.4326  0.4897
 5498SOL     OW27955   3.754   2.181   4.554 -0.1182  0.6472 -0.5485
 5498SOL    HW127956   3.661   2.200   4.545 -0.4781 -0.7226  0.4383
 5498SOL    HW227957   3.782   2.167   4.463  2.3854 -3.9359  0.9446
 5499SOL     OW27958   0.207   0.101   1.745 -0.7021  0.2187  1.0169
 5499SOL    HW127959   0.119   0.135   1.738 -0.4893  0.7100  0.7246
 5499SOL    HW227960   0.229   0.133   1.832 -0.8581 -1.9406  1.8517
 5500SOL     OW27961   3.538   1.620   7.760  0.4173  0.1861  0.6096
 5500SOL    HW127962   3.627   1.616   7.796  1.6386  1.7356 -2.3043
 5500SOL    HW227963   3.561   1.677   7.687 -1.7446 -0.7954 -0.8113
 5501SOL     OW27964   1.727   3.312   4.830  0.0810 -0.0447  0.3249
 5501SOL    HW127965   1.648   3.362   4.851  0.5012  0.2212  1.2891
 5501SOL    HW227966   1.727   3.318   4.735 -1.3483 -0.0840  0.3327
 5502SOL     OW27967   2.125   2.317  17.011 -0.4295  0.2620 -0.4345
 5502SOL    HW127968   2.135   2.225  16.986  1.9451  0.1477  0.9484
 5502SOL    HW227969   2.105   2.315  17.104  3.5567 -1.6297  0.3655
 5503SOL     OW27970   3.806   4.710   2.020 -0.2972  0.0960 -0.4074
 5503SOL    HW127971   3.821   0.036   1.940 -1.5853  1.5194  0.2711
 5503SOL    HW227972   3.823   4.621   1.988  2.2653  0.9558 -1.3840
 5504SOL     OW27973   1.200   1.497   1.238 -0.2061  0.0724  0.2951
 5504SOL    HW127974   1.177   1.471   1.148 -0.5863  2.5784 -0.3558
 5504SOL    HW227975   1.116   1.529   1.269 -0.6350 -1.7068  0.9703
 5505SOL     OW27976   3.170   1.336   1.477  0.4296  0.6057 -0.0230
 5505SOL    HW127977   3.167   1.258   1.421  0.6795  0.0259  0.7744
 5505SOL    HW227978   3.255   1.374   1.456  0.0911  0.0961 -2.3779
 5506SOL     OW27979   4.399   2.498   0.576  0.9730 -0.2703 -0.0915
 5506SOL    HW127980   4.359   2.567   0.629  1.7956 -1.5373  2.1490
 5506SOL    HW227981   4.338   2.478   0.506  0.9011  0.0815 -0.1275
 5507SOL     OW27982   0.194   4.340  10.941  0.0868  0.5406 -0.4763
 5507SOL    HW127983   0.231   4.389  11.014  2.0018 -0.5343 -0.7356
 5507SOL    HW227984   0.134   4.410  10.915  1.0232  0.8577 -1.7393
 5508SOL     OW27985   2.671   0.112   6.223  0.5674  0.0991 -0.2910
 5508SOL    HW127986   2.628   0.030   6.197 -1.0662  0.3595  1.5306
 5508SOL    HW227987   2.611   0.182   6.196 -1.2689 -0.5460  2.0328
 5509SOL     OW27988   3.254   2.895  10.657  0.7498  0.0375  0.6256
 5509SOL    HW127989   3.280   2.814  10.699  1.0841 -0.1537  0.0533
 5509SOL    HW227990   3.293   2.892  10.569 -0.3239 -0.5378  0.1794
 5510SOL     OW27991   3.742   3.237   4.531 -0.0866 -0.7341 -0.4552
 5510SOL    HW127992   3.668   3.295   4.550 -0.4102 -2.0406  2.1815
 5510SOL    HW227993   3.750   3.195   4.616  1.0268  2.2153  0.9219
 5511SOL     OW27994   3.256   2.568   6.347 -0.2205  0.6977 -0.1522
 5511SOL    HW127995   3.318   2.512   6.394  1.2682  3.1002  0.7569
 5511SOL    HW227996   3.171   2.525   6.352  0.5578 -0.6115  1.6020
 5512SOL     OW27997   1.394   2.064   2.403 -0.1737  0.4699 -0.0326
 5512SOL    HW127998   1.446   2.138   2.372 -1.1895  1.6272  1.0698
 5512SOL    HW227999   1.411   2.075   2.497 -1.0978  4.6649 -0.3556
 5513SOL     OW28000   0.225   1.814  13.848  0.1935 -0.2905  0.1014
 5513SOL    HW128001   0.236   1.720  13.860  1.2326 -0.5898 -3.1037
 5513SOL    HW228002   0.318   1.838  13.849  0.1256  0.0047 -0.6499
 5514SOL     OW28003   0.605   2.495  15.172 -0.2221  0.4047  0.2486
 5514SOL    HW128004   0.686   2.544  15.157  0.5547 -1.1001 -0.4601
 5514SOL    HW228005   0.627   2.414  15.219 -0.6535  0.2544  0.1907
 5515SOL     OW28006   2.116   1.986   8.830 -0.5128 -0.3297  0.3382
 5515SOL    HW128007   2.197   1.935   8.824 -0.4015  0.2197 -2.7811
 5515SOL    HW228008   2.052   1.916   8.827 -1.7129  0.7760  0.2033
 5516SOL     OW28009   3.961   0.626  11.538 -0.0475  0.4930  0.8490
 5516SOL    HW128010   3.866   0.637  11.545 -0.3225 -2.1967  1.5814
 5516SOL    HW228011   3.963   0.573  11.459 -0.4600  2.1293 -0.2432
 5517SOL     OW28012   3.398   0.480   6.059  0.6014  0.4563  0.2849
 5517SOL    HW128013   3.392   0.472   6.154  1.0271  0.9791  0.3568
 5517SOL    HW228014   3.492   0.469   6.043  0.5842 -0.1629  0.6112
 5518SOL     OW28015   1.932   3.619   5.316 -0.2461  0.9412 -0.3180
 5518SOL    HW128016   2.013   3.653   5.355 -0.6278  1.0065  0.4197
 5518SOL    HW228017   1.855   3.661   5.354  0.1301  0.2482  1.2057
 5519SOL     OW28018   2.443   2.060  12.596  0.2355  0.0705 -0.0059
 5519SOL    HW128019   2.473   2.025  12.679  1.2571  0.8678 -0.0279
 5519SOL    HW228020   2.412   1.979  12.557 -1.2620  1.1891 -1.1540
 5520SOL     OW28021   2.925   3.450   7.740  0.3109 -0.4609  0.2470
 5520SOL    HW128022   2.916   3.435   7.645 -0.8666  0.6643  0.1787
 5520SOL    HW228023   2.855   3.396   7.776  1.2856 -1.7226  0.2940
 5521SOL     OW28024   4.302   2.448   0.331  0.0818 -0.0461  0.2607
 5521SOL    HW128025   4.248   2.370   0.320  0.1793  0.0167 -0.6736
 5521SOL    HW228026   4.380   2.426   0.281 -1.2474 -1.1016 -1.3477
 5522SOL     OW28027   2.761   0.931   1.949  0.4992  0.5995  0.7134
 5522SOL    HW128028   2.811   0.852   1.927 -0.6996 -0.4343  1.6463
 5522SOL    HW228029   2.825   1.002   1.943  2.4989 -1.3650 -1.0352
 5523SOL     OW28030   1.838   4.521   4.730 -0.3055  0.3873  0.1040
 5523SOL    HW128031   1.838   4.616   4.743  1.1950  0.2318  1.2354
 5523SOL    HW228032   1.913   4.507   4.672  0.2403  2.3244  0.3363
 5524SOL     OW28033   1.602   0.472   6.667  0.2674  0.0663 -0.2728
 5524SOL    HW128034   1.661   0.414   6.716 -1.6982 -0.4647  1.4947
 5524SOL    HW228035   1.527   0.416   6.647 -0.1391  0.2160  0.8266
 5525SOL     OW28036   0.920   4.583   3.146  0.2998  0.3931  0.1950
 5525SOL    HW128037   1.003   4.568   3.191 -0.9885 -1.1039  2.0777
 5525SOL    HW228038   0.925   4.675   3.123  0.6539  0.4453  0.4782
 5526SOL     OW28039   3.522   0.036   4.893 -0.0063 -0.4249  0.1861
 5526SOL    HW128040   3.551   0.054   4.982 -0.1555 -1.2714  0.4060
 5526SOL    HW228041   3.578   0.098   4.846  1.6142 -3.0169 -1.2908
 5527SOL     OW28042   3.012   3.796   0.350  0.1650 -0.1436 -0.5844
 5527SOL    HW128043   2.948   3.836   0.292  1.9613 -0.6853 -2.8993
 5527SOL    HW228044   2.972   3.793   0.437  0.5128 -1.9110 -0.4828
 5528SOL     OW28045   3.890   2.912   7.874 -0.2764 -0.7026  0.3244
 5528SOL    HW128046   3.906   2.932   7.782 -0.8366  1.2137  0.6341
 5528SOL    HW228047   3.874   2.818   7.872  3.0225 -1.2237 -1.7726
 5529SOL     OW28048   0.990   1.536   6.609 -0.2421 -0.0705 -0.4582
 5529SOL    HW128049   0.894   1.528   6.613 -0.2113 -0.8126 -1.2244
 5529SOL    HW228050   1.000   1.617   6.659  2.6722 -0.9951  0.4371
 5530SOL     OW28051   1.832   1.431   4.297  0.0502  0.1531 -0.1481
 5530SOL    HW128052   1.918   1.448   4.337  0.5249  1.6784 -1.7700
 5530SOL    HW228053   1.804   1.341   4.310 -0.7561  0.3127 -0.8407
 5531SOL     OW28054   0.886   1.606  13.844  0.0301  0.1738 -0.1890
 5531SOL    HW128055   0.930   1.630  13.925  2.9362 -2.3845 -0.9989
 5531SOL    HW228056   0.909   1.513  13.838 -0.3034 -0.0714  2.3174
 5532SOL     OW28057   0.925   0.444  11.047  0.4967 -0.0224  0.0457
 5532SOL    HW128058   0.851   0.505  11.054 -0.5082 -1.3626  0.9612
 5532SOL    HW228059   0.941   0.444  10.953  1.4773  0.3448  0.2135
 5533SOL     OW28060   0.017   3.117   4.157  0.5835 -0.2251  0.0996
 5533SOL    HW128061   0.000   3.201   4.113 -0.4661 -0.1017  0.7454
 5533SOL    HW228062   4.650   3.100   4.176  0.8625 -0.3881  1.3093
 5534SOL     OW28063   3.991   0.766   3.855  0.1615  0.0207  0.1249
 5534SOL    HW128064   4.076   0.723   3.871 -0.6641 -1.3267  0.8621
 5534SOL    HW228065   4.009   0.853   3.818  1.4428 -0.2081  0.2098
 5535SOL     OW28066   3.803   0.669   7.633  0.1194 -0.8617  0.9037
 5535SOL    HW128067   3.869   0.737   7.617 -0.5226 -1.1042 -2.7516
 5535SOL    HW228068   3.749   0.675   7.555 -1.6661  0.7031  2.2665
 5536SOL     OW28069   4.439   4.418   7.023  0.0705  0.2908 -0.2293
 5536SOL    HW128070   4.502   4.466   6.969 -1.6149  2.0308 -0.6621
 5536SOL    HW228071   4.442   4.465   7.106 -1.2682  2.3428 -1.3296
 5537SOL     OW28072   3.865   0.800   6.898 -0.3734  0.0655 -0.3016
 5537SOL    HW128073   3.864   0.819   6.991 -0.3677  1.5607 -0.6045
 5537SOL    HW228074   3.794   0.737   6.883  0.1122 -0.8994  1.4976
 5538SOL     OW28075   1.520   2.825  12.721 -0.5315  0.0821  0.4668
 5538SOL    HW128076   1.574   2.778  12.659 -1.0268 -0.2901  0.3164
 5538SOL    HW228077   1.442   2.820  12.665  0.0034  1.4417 -0.3992
 5539SOL     OW28078   0.089   0.246   7.491  0.1527 -0.0726  0.3200
 5539SOL    HW128079   0.048   0.273   7.573  0.6091 -0.4227  0.6604
 5539SOL    HW228080   0.159   0.310   7.480  0.3396 -0.4670 -0.7946
 5540SOL     OW28081   1.689   3.886   6.246  0.6538 -0.0589 -0.0380
 5540SOL    HW128082   1.618   3.870   6.184 -0.2543  1.1483  0.6844
 5540SOL    HW228083   1.650   3.948   6.308 -0.4991  1.0580 -1.8706
 5541SOL     OW28084   1.696   3.949   4.669  0.4262  0.4647  0.6270
 5541SOL    HW128085   1.761   3.882   4.646 -0.0157  0.2711 -0.0448
 5541SOL    HW228086   1.752   4.016   4.708 -0.2132  1.0945  0.4515
 5542SOL     OW28087   4.005   0.085   4.235  0.3141 -0.1409  0.2149
 5542SOL    HW128088   3.915   0.106   4.258  0.4701  0.1449  0.5646
 5542SOL    HW228089   4.005   0.108   4.142  2.9013  0.3040  0.3161
 5543SOL     OW28090   0.665   0.304  16.509 -0.3015 -0.1004 -0.7077
 5543SOL    HW128091   0.735   0.275  16.451  1.2502  0.8071  0.7161
 5543SOL    HW228092   0.597   0.246  16.474 -0.0846 -0.7557 -0.0379
 5544SOL     OW28093   0.840   1.938   7.595  0.1603  0.1555  0.2867
 5544SOL    HW128094   0.839   1.888   7.676 -2.9570  0.7798  0.6157
 5544SOL    HW228095   0.762   1.992   7.595 -0.4804 -0.7633 -1.0225
 5545SOL     OW28096   4.083   0.065  12.453  0.1502 -0.0845 -0.7469
 5545SOL    HW128097   4.038   0.128  12.398  1.3757 -0.9399 -2.7241
 5545SOL    HW228098   4.031   0.095  12.528 -0.3581 -0.9052 -0.7736
 5546SOL     OW28099   0.546   0.916   1.587 -0.4310 -0.3983 -0.2626
 5546SOL    HW128100   0.454   0.941   1.593 -0.4233 -0.6162  0.8376
 5546SOL    HW228101   0.570   0.861   1.661 -0.7415 -1.4420 -0.9405
 5547SOL     OW28102   4.050   1.458   3.904 -0.9315  0.1361 -0.5905
 5547SOL    HW128103   4.073   1.366   3.895  0.8145  0.4913  0.2745
 5547SOL    HW228104   4.137   1.488   3.930 -0.3454 -1.3218 -0.8976
 5548SOL     OW28105   3.512   2.089   1.854 -0.0411  0.0907  0.4908
 5548SOL    HW128106   3.586   2.149   1.865  0.8220 -0.9532  0.3341
 5548SOL    HW228107   3.542   2.008   1.894 -1.1017 -0.3492  0.4092
 5549SOL     OW28108   0.250   1.200   3.372  0.3233  0.7005  0.3153
 5549SOL    HW128109   0.342   1.186   3.397  0.1715 -0.6177  0.1523
 5549SOL    HW228110   0.231   1.264   3.440  0.6317  0.8701  0.2413
 5550SOL     OW28111   2.818   0.013   7.092  0.5467 -0.4258 -0.1384
 5550SOL    HW128112   2.890   0.071   7.070  0.7789 -1.1287 -1.2218
 5550SOL    HW228113   2.740   0.067   7.078  1.5510  0.9391 -0.4339
 5551SOL     OW28114   1.001   0.111   2.549 -0.3420 -0.2120  0.6069
 5551SOL    HW128115   1.090   0.075   2.554 -0.3304  0.0076  1.9249
 5551SOL    HW228116   0.957   0.058   2.615 -1.2112 -1.2464 -0.8000
 5552SOL     OW28117   3.905   3.885  10.586 -0.1148 -0.1965 -0.5729
 5552SOL    HW128118   3.971   3.892  10.655 -0.4513  2.4567 -0.5475
 5552SOL    HW228119   3.844   3.953  10.614 -0.2549 -0.6734  0.2755
 5553SOL     OW28120   3.263   3.049   5.795 -0.3850 -0.0405 -0.3609
 5553SOL    HW128121   3.213   3.000   5.730 -1.1468  0.4021 -0.1039
 5553SOL    HW228122   3.355   3.023   5.787 -0.2784  1.1136 -2.8502
 5554SOL     OW28123   2.198   1.473   8.174  0.1843 -0.3881  0.1445
 5554SOL    HW128124   2.246   1.397   8.206  1.0902  0.5546  1.0201
 5554SOL    HW228125   2.130   1.478   8.242  0.0822  1.8356 -0.1093
 5555SOL     OW28126   2.487   3.088   4.826  0.1402 -0.1255 -0.1819
 5555SOL    HW128127   2.406   3.080   4.776 -1.1525 -0.8930  2.0443
 5555SOL    HW228128   2.551   3.108   4.757  0.2417  0.8636  0.2075
 5556SOL     OW28129   2.065   2.327   8.895  0.3764  0.3086 -0.7954
 5556SOL    HW128130   2.159   2.318   8.913  0.1776 -1.5748 -0.6750
 5556SOL    HW228131   2.062   2.421   8.910  0.8627  0.4984 -1.8171
 5557SOL     OW28132   3.233   1.318   7.296 -0.5090  0.2125 -0.6876
 5557SOL    HW128133   3.322   1.340   7.326 -1.4369  0.8795  1.5646
 5557SOL    HW228134   3.167   1.376   7.334 -1.2259 -0.5387 -0.8023
 5558SOL     OW28135   4.519   3.275   7.997 -0.1196  0.0318  0.2577
 5558SOL    HW128136   4.590   3.318   7.949  0.7147 -0.8915  0.6715
 5558SOL    HW228137   4.509   3.193   7.948 -1.6278  0.2126  0.2585
 5559SOL     OW28138   2.058   1.769   3.659  0.2273 -0.0458 -0.3596
 5559SOL    HW128139   2.101   1.728   3.584  2.4503  1.0902  0.3045
 5559SOL    HW228140   2.119   1.744   3.727  0.0448 -2.5844 -1.1395
 5560SOL     OW28141   0.920   2.256   6.355  0.2278 -0.1031  0.1780
 5560SOL    HW128142   0.827   2.238   6.368 -0.9621  4.8451 -1.3682
 5560SOL    HW228143   0.958   2.205   6.427  2.2542 -0.6275 -1.2730
 5561SOL     OW28144   1.235   2.526   2.465 -0.1956 -0.3584 -0.1384
 5561SOL    HW128145   1.249   2.561   2.377 -0.7870  0.4791  0.1051
 5561SOL    HW228146   1.163   2.583   2.490  0.2036  0.3166 -0.5084
 5562SOL     OW28147   2.924   2.755   2.524 -0.4245  1.1884  0.3903
 5562SOL    HW128148   2.867   2.679   2.537 -2.0229  2.5148  1.2233
 5562SOL    HW228149   2.928   2.775   2.618 -0.0576  0.0468  0.6171
 5563SOL     OW28150   2.930   0.474   8.279  0.3649 -0.4228  0.1404
 5563SOL    HW128151   2.850   0.526   8.288 -0.2173 -1.1554 -0.8339
 5563SOL    HW228152   2.961   0.501   8.192 -0.1413 -0.5270 -0.0770
 5564SOL     OW28153   1.181   4.383   0.760  0.1098  0.3179  0.1776
 5564SOL    HW128154   1.185   4.398   0.666  1.4007  0.2929  0.2338
 5564SOL    HW228155   1.257   4.428   0.797  2.0854 -1.5522 -1.5771
 5565SOL     OW28156   3.744   3.524   3.211  0.0855  0.2670 -0.7358
 5565SOL    HW128157   3.655   3.495   3.228  1.0551 -0.8619  2.3333
 5565SOL    HW228158   3.739   3.603   3.265  1.5481 -1.2488  1.6122
 5566SOL     OW28159   0.196   1.942   8.857 -0.0485 -0.2291  0.4091
 5566SOL    HW128160   0.254   1.903   8.923  0.4877 -1.4806 -0.8030
 5566SOL    HW228161   0.258   1.965   8.788 -0.8229  0.1191 -0.1703
 5567SOL     OW28162   0.659   3.599   3.785 -1.1218  0.5349  0.3341
 5567SOL    HW128163   0.637   3.648   3.864 -0.4683  2.3098 -0.5814
 5567SOL    HW228164   0.630   3.512   3.812 -0.0854  0.1435  0.1730
 5568SOL     OW28165   4.313   3.821   1.162  0.4514  0.4392  0.1950
 5568SOL    HW128166   4.327   3.791   1.252  0.9567 -2.1191 -0.7327
 5568SOL    HW228167   4.237   3.769   1.136 -0.4602  2.0772 -0.4269
 5569SOL     OW28168   2.620   0.476   5.356 -0.4114 -0.0744  0.5628
 5569SOL    HW128169   2.666   0.522   5.427  0.1882 -0.0188  0.1340
 5569SOL    HW228170   2.701   0.437   5.324  0.6644  2.9010 -0.3606
 5570SOL     OW28171   4.495   3.605   8.841 -0.4009 -0.1462 -0.2583
 5570SOL    HW128172   4.455   3.529   8.882 -0.7962 -0.3176 -0.9821
 5570SOL    HW228173   4.417   3.654   8.817 -1.5594 -1.8217  0.1156
 5571SOL     OW28174   1.222   4.571   4.637 -0.0490 -0.4588  0.1647
 5571SOL    HW128175   1.254   4.481   4.643  1.3728 -0.0972 -1.9418
 5571SOL    HW228176   1.293   4.611   4.587  1.7527 -4.0935 -0.2448
 5572SOL     OW28177   1.478   1.702  10.944  0.7696 -0.1836 -0.1675
 5572SOL    HW128178   1.547   1.724  10.880  0.4358  1.2876 -0.0353
 5572SOL    HW228179   1.453   1.789  10.976  0.0054 -0.4013 -0.1878
 5573SOL     OW28180   4.540   3.416   4.919  0.3780  0.5930  0.1160
 5573SOL    HW128181   4.623   3.441   4.960  0.8177  1.7426 -1.4710
 5573SOL    HW228182   4.553   3.322   4.925 -1.9605  0.1441 -1.6953
 5574SOL     OW28183   4.081   1.979  15.816  0.3126  0.9711 -0.0091
 5574SOL    HW128184   4.143   2.005  15.884  0.8521 -0.9225  0.2472
 5574SOL    HW228185   4.114   2.010  15.732  3.0165  0.6093  0.9314
 5575SOL     OW28186   3.244   4.262   3.395  0.0108 -0.0946  0.3275
 5575SOL    HW128187   3.219   4.181   3.351 -0.7012  0.5726 -0.5083
 5575SOL    HW228188   3.196   4.258   3.477 -2.3045 -0.9175 -1.0902
 5576SOL     OW28189   2.833   0.029   7.913  0.3137  0.8073 -0.0059
 5576SOL    HW128190   2.867   0.078   7.838  1.8580 -0.6523 -0.2610
 5576SOL    HW228191   2.909   0.046   7.969  1.2517 -1.4105 -0.6107
 5577SOL     OW28192   0.401   4.157   5.221  0.6298  0.0426 -0.2173
 5577SOL    HW128193   0.389   4.063   5.213 -0.9298  0.2622 -0.6343
 5577SOL    HW228194   0.397   4.157   5.317  1.2769  0.5537 -0.1935
 5578SOL     OW28195   3.347   1.164   8.017  0.4229 -0.4698  0.2662
 5578SOL    HW128196   3.418   1.204   7.966 -2.3662  3.7406 -0.3454
 5578SOL    HW228197   3.384   1.125   8.096 -0.7291 -0.2579  0.9080
 5579SOL     OW28198   2.768   3.880   3.391  0.4308 -0.4359  0.4613
 5579SOL    HW128199   2.705   3.812   3.368 -1.7430  3.1703 -4.2486
 5579SOL    HW228200   2.827   3.892   3.316  1.0191  0.0825  0.9985
 5580SOL     OW28201   3.609   2.132   3.152  0.6176  0.2733  0.2999
 5580SOL    HW128202   3.667   2.116   3.078 -1.7977  0.5308 -1.6470
 5580SOL    HW228203   3.532   2.146   3.098  0.7571  2.2169  0.5983
 5581SOL     OW28204   4.693   0.166  13.860  0.3082 -0.1877  0.2238
 5581SOL    HW128205   4.658   0.244  13.815 -1.1584 -0.5462  0.7441
 5581SOL    HW228206   4.689   0.187  13.953  0.9064 -1.6651  0.5738
 5582SOL     OW28207   2.498   1.554   5.656  0.3159 -0.1035 -0.2182
 5582SOL    HW128208   2.568   1.616   5.639  1.7715 -1.6429  0.1634
 5582SOL    HW228209   2.431   1.608   5.698  1.8570  1.5032  0.1141
 5583SOL     OW28210   2.676   0.849  14.954 -0.1289  0.1152 -0.3255
 5583SOL    HW128211   2.584   0.848  14.927 -0.1466 -1.5157 -0.1516
 5583SOL    HW228212   2.670   0.927  15.011 -2.1545  1.1508 -1.9562
 5584SOL     OW28213   2.479   4.262   8.656  0.7013  0.3883 -0.0348
 5584SOL    HW128214   2.441   4.182   8.619  0.6802 -0.1901  1.2575
 5584SOL    HW228215   2.465   4.255   8.750  1.0500  1.3992  0.0979
 5585SOL     OW28216   1.236   4.176   7.843 -0.1103  0.3139 -0.6943
 5585SOL    HW128217   1.196   4.263   7.841  1.6118  1.1303  0.5688
 5585SOL    HW228218   1.273   4.176   7.931 -0.3150  2.5027 -0.6167
 5586SOL     OW28219   4.072   3.162  14.512  0.3311  0.0563 -0.3182
 5586SOL    HW128220   4.012   3.177  14.439 -0.1186  2.2517  0.5222
 5586SOL    HW228221   4.126   3.100  14.463 -0.5212 -1.1578  0.2723
 5587SOL     OW28222   3.630   0.240   6.270 -0.1865  0.9935  0.2602
 5587SOL    HW128223   3.685   0.187   6.213  1.3571  0.5602  2.1529
 5587SOL    HW228224   3.697   0.295   6.310  0.2234 -0.0077  0.9438
 5588SOL     OW28225   1.249   1.630   4.730  0.1597 -0.0416 -0.2695
 5588SOL    HW128226   1.184   1.698   4.745 -0.5844 -0.8498  0.1721
 5588SOL    HW228227   1.246   1.587   4.816 -0.4669  0.3622 -0.0911
 5589SOL     OW28228   3.816   4.145   4.861 -0.3252 -0.0123 -0.0608
 5589SOL    HW128229   3.760   4.076   4.896 -0.6848  0.7020  0.7806
 5589SOL    HW228230   3.777   4.152   4.774  1.4239  2.1143 -0.7031
 5590SOL     OW28231   1.470   4.267  12.156  0.3986  0.0784 -0.4033
 5590SOL    HW128232   1.453   4.360  12.166  2.2309  0.1016  2.5596
 5590SOL    HW228233   1.463   4.272  12.061  1.3991  2.2765 -0.3592
 5591SOL     OW28234   2.432   0.370   7.966 -0.2756  0.4335  0.2433
 5591SOL    HW128235   2.377   0.331   8.034 -0.5011 -1.2769 -0.9228
 5591SOL    HW228236   2.503   0.306   7.960  0.1528  0.8255  1.1633
 5592SOL     OW28237   3.160   3.926  13.405 -0.0528 -0.0734  0.2473
 5592SOL    HW128238   3.182   3.890  13.491 -1.0437 -1.7322 -0.1777
 5592SOL    HW228239   3.229   3.890  13.349 -0.2103 -0.0363  0.0278
 5593SOL     OW28240   1.308   0.721   7.023  0.3210 -0.4536  0.1017
 5593SOL    HW128241   1.337   0.661   7.092 -0.3451  0.7693  1.4271
 5593SOL    HW228242   1.334   0.801   7.067 -2.3265  0.6946 -0.4476
 5594SOL     OW28243   3.853   0.698   8.349  0.6427  0.0207 -0.2592
 5594SOL    HW128244   3.810   0.762   8.407 -1.8237 -0.8019 -1.1722
 5594SOL    HW228245   3.922   0.659   8.402  0.5230  1.1246  0.7103
 5595SOL     OW28246   0.709   2.438   7.693 -0.1667  0.0584 -0.3615
 5595SOL    HW128247   0.650   2.413   7.764 -1.4873  4.3959  0.1012
 5595SOL    HW228248   0.656   2.414   7.617 -0.7864 -0.0829  0.1111
 5596SOL     OW28249   4.407   4.125  10.100  0.2721 -0.4199  0.2706
 5596SOL    HW128250   4.340   4.062  10.073 -0.4198  1.0478 -1.4591
 5596SOL    HW228251   4.369   4.166  10.177  1.0584 -1.6477  1.2965
 5597SOL     OW28252   0.980   1.986   9.348  0.7237 -0.1803 -0.3411
 5597SOL    HW128253   1.010   1.957   9.435  3.5629  0.1726 -1.1931
 5597SOL    HW228254   0.967   2.079   9.363  0.4176 -0.3046  0.1795
 5598SOL     OW28255   3.446   0.082   0.686 -0.2733  0.6241  0.5203
 5598SOL    HW128256   3.541   0.085   0.682 -0.2197 -0.6891  0.6408
 5598SOL    HW228257   3.431   0.161   0.635 -1.2504  0.8712  1.1984
 5599SOL     OW28258   0.520   0.589   6.370 -0.5341  0.1983 -0.4804
 5599SOL    HW128259   0.499   0.662   6.428 -4.5658 -2.6214  1.5493
 5599SOL    HW228260   0.507   0.518   6.432  0.9127  0.6784  0.3706
 5600SOL     OW28261   2.624   4.002   2.279  0.1399  0.3416  0.4316
 5600SOL    HW128262   2.645   3.966   2.365  0.9928 -0.0792  0.0436
 5600SOL    HW228263   2.664   3.932   2.228  1.7050  1.2074  0.4628
 5601SOL     OW28264   2.090   2.076   4.065 -0.1136 -0.6668 -0.0489
 5601SOL    HW128265   2.076   2.034   4.150  0.6232 -1.8094 -0.4956
 5601SOL    HW228266   2.141   2.014   4.013  0.7942 -3.1577  3.8026
 5602SOL     OW28267   2.213   2.944  10.508  0.0906 -0.2134  0.1080
 5602SOL    HW128268   2.135   2.913  10.555  0.2378 -0.8347 -0.0489
 5602SOL    HW228269   2.173   2.984  10.431 -0.7744  1.7082  1.5591
 5603SOL     OW28270   3.555   4.245   3.714  0.0015  0.7795  0.2262
 5603SOL    HW128271   3.582   4.217   3.627 -2.4100  1.1341 -0.6212
 5603SOL    HW228272   3.635   4.247   3.767 -0.5087  0.7387  1.0034
 5604SOL     OW28273   0.823   2.833  10.482 -0.2959 -0.2305  0.0490
 5604SOL    HW128274   0.731   2.860  10.477 -0.7751 -1.4518  1.9904
 5604SOL    HW228275   0.853   2.862  10.569  4.7671 -0.5206 -1.5924
 5605SOL     OW28276   1.771   1.352   3.020  0.3095  0.2196  0.0858
 5605SOL    HW128277   1.690   1.338   2.971  0.0209  1.6601  0.1583
 5605SOL    HW228278   1.731   1.369   3.106 -1.1691 -2.0091 -0.1646
 5606SOL     OW28279   1.159   1.937  17.323 -0.0828 -0.0398 -0.8686
 5606SOL    HW128280   1.247   1.942  17.359  0.1454 -1.7143 -1.1716
 5606SOL    HW228281   1.175   1.859  17.269 -0.0639 -0.0454 -0.8545
 5607SOL     OW28282   0.723   1.999   0.360 -0.3139 -0.2086 -0.0974
 5607SOL    HW128283   0.792   2.064   0.372 -0.3404 -0.0219 -0.9243
 5607SOL    HW228284   0.750   1.929   0.418  1.9872  1.9754  1.4693
 5608SOL     OW28285   1.451   2.866  10.782 -0.3457  0.8841 -0.1005
 5608SOL    HW128286   1.497   2.837  10.704  0.8472 -1.9363  1.6268
 5608SOL    HW228287   1.505   2.936  10.818 -0.0191 -0.0984  1.3275
 5609SOL     OW28288   0.481   2.403   2.567 -0.0911 -0.1016 -0.0862
 5609SOL    HW128289   0.469   2.312   2.593  1.0418  0.2458  1.7146
 5609SOL    HW228290   0.566   2.424   2.606  0.3273 -1.2136 -0.3970
 5610SOL     OW28291   1.968   0.812  11.689  0.1773  0.0243 -0.3408
 5610SOL    HW128292   2.034   0.748  11.717  1.9178  1.6258 -0.7605
 5610SOL    HW228293   1.937   0.786  11.602 -1.6716 -0.9530  0.6106
 5611SOL     OW28294   4.239   2.903  10.710  0.3392  0.1920  0.1301
 5611SOL    HW128295   4.312   2.894  10.771  1.8614  0.3207 -1.6667
 5611SOL    HW228296   4.183   2.957  10.765 -0.3027 -2.6401  2.2823
 5612SOL     OW28297   0.771   4.055  15.935 -0.0148  0.1949  0.2964
 5612SOL    HW128298   0.826   4.130  15.913 -1.6771  0.9630 -1.2461
 5612SOL    HW228299   0.811   4.029  16.019  1.4208  1.3026 -0.0436
 5613SOL     OW28300   3.153   0.922   7.515  0.4232  0.5601  0.0925
 5613SOL    HW128301   3.062   0.951   7.524  0.2031  0.1376 -0.7677
 5613SOL    HW228302   3.148   0.831   7.486  0.8278  1.2441 -2.1573
 5614SOL     OW28303   0.366   4.284   7.679  0.5811  0.1164 -0.8872
 5614SOL    HW128304   0.355   4.199   7.721 -1.7306  0.1139 -1.4919
 5614SOL    HW228305   0.396   4.264   7.590 -0.0686 -3.5105 -0.2722
 5615SOL     OW28306   4.551   2.170   5.913 -0.1407  0.0614 -0.0512
 5615SOL    HW128307   4.573   2.136   5.827  0.2186  0.1648 -0.0013
 5615SOL    HW228308   4.549   2.087   5.960  0.7685 -0.2436 -0.5693
 5616SOL     OW28309   3.663   3.623   2.870 -0.0734  0.2050 -0.5300
 5616SOL    HW128310   3.727   3.602   2.803 -0.7843 -1.8970 -0.5331
 5616SOL    HW228311   3.705   3.593   2.951  0.1484  1.0310 -0.3393
 5617SOL     OW28312   2.210   3.723   8.288  0.2342  0.6980  0.3355
 5617SOL    HW128313   2.181   3.757   8.203  1.0007  0.3825 -0.0574
 5617SOL    HW228314   2.135   3.769   8.326 -1.3636 -0.7118 -1.0931
 5618SOL     OW28315   4.145   0.497   5.598  0.3619  0.1506  0.2618
 5618SOL    HW128316   4.230   0.481   5.557  0.4449  2.6863 -0.5750
 5618SOL    HW228317   4.165   0.562   5.667  0.0441 -0.4669  0.9337
 5619SOL     OW28318   3.925   1.133   2.959  0.2822 -0.0540 -0.0957
 5619SOL    HW128319   3.897   1.054   2.913  1.0366  0.3215 -1.2012
 5619SOL    HW228320   3.931   1.201   2.892 -0.3000 -0.5072 -0.6119
 5620SOL     OW28321   4.133   2.371   3.115 -0.8497  0.4711 -0.7269
 5620SOL    HW128322   4.181   2.403   3.191 -1.5711  2.7399 -1.2493
 5620SOL    HW228323   4.164   2.280   3.116 -1.5276  0.2291 -1.9649
 5621SOL     OW28324   2.125   1.068  11.062  0.0820  0.6103  0.1733
 5621SOL    HW128325   2.205   1.065  11.113  0.4370  1.2016 -0.3524
 5621SOL    HW228326   2.155   1.093  10.975  3.5181 -0.5309  1.0470
 5622SOL     OW28327   4.305   4.595   2.269  0.3362 -0.4233  0.1396
 5622SOL    HW128328   4.225   4.561   2.230  0.2542  0.9806 -0.9263
 5622SOL    HW228329   4.301   4.552   2.354  0.2205  0.3101  0.5092
 5623SOL     OW28330   4.168   3.428   5.154 -0.0345  0.1581 -0.4173
 5623SOL    HW128331   4.099   3.361   5.156  1.3262 -1.3169 -2.2380
 5623SOL    HW228332   4.119   3.511   5.150 -0.6318 -0.1892 -0.3492
 5624SOL     OW28333   4.498   1.001   7.039 -0.0062 -0.5049 -0.3208
 5624SOL    HW128334   4.404   0.994   7.020 -0.5591  1.5076  1.6516
 5624SOL    HW228335   4.505   0.943   7.114 -0.6174 -1.0249 -0.6605
 5625SOL     OW28336   3.652   0.404  10.445  0.0540 -0.2148 -0.0895
 5625SOL    HW128337   3.663   0.499  10.446 -0.3359 -0.1534 -1.4904
 5625SOL    HW228338   3.557   0.403  10.431  0.0954  2.4226 -0.7048
 5626SOL     OW28339   2.012   4.539  15.410  0.6620  0.0211 -0.2819
 5626SOL    HW128340   2.034   4.595  15.335  1.8022  0.9263  0.7481
 5626SOL    HW228341   1.966   4.467  15.367 -0.0286 -0.9066  2.0364
 5627SOL     OW28342   3.348   2.006  16.245  0.1878  0.0110  0.0186
 5627SOL    HW128343   3.304   2.008  16.329  0.8602 -1.0094  0.3850
 5627SOL    HW228344   3.441   1.993  16.262  0.4783  2.1346  0.0381
 5628SOL     OW28345   1.581   3.421   1.870  0.1579  0.1522 -0.9905
 5628SOL    HW128346   1.561   3.454   1.783 -0.2660 -0.1575 -1.0045
 5628SOL    HW228347   1.635   3.347   1.843  0.1426 -0.3463  0.3563
 5629SOL     OW28348   3.340   3.004   4.848  0.4098 -0.3077 -0.9986
 5629SOL    HW128349   3.363   3.000   4.941 -1.7030  0.1845 -0.4539
 5629SOL    HW228350   3.381   3.083   4.813 -0.9174  0.7122 -0.2564
 5630SOL     OW28351   2.631   3.902  14.960  0.2053  0.0662 -0.0981
 5630SOL    HW128352   2.703   3.934  14.907 -0.2495 -0.4753 -1.0482
 5630SOL    HW228353   2.672   3.824  14.997 -0.1631 -0.2268 -0.3016
 5631SOL     OW28354   2.820   4.211  16.793 -0.3137 -0.2667 -0.4438
 5631SOL    HW128355   2.892   4.242  16.850  0.9303 -1.3010 -1.4554
 5631SOL    HW228356   2.792   4.288  16.743 -1.2148 -0.6639 -0.5452
 5632SOL     OW28357   2.164   2.743  14.763  0.2575 -0.1266 -0.3229
 5632SOL    HW128358   2.122   2.689  14.696  1.2641  1.5092 -2.2746
 5632SOL    HW228359   2.125   2.711  14.844 -1.3779 -0.7756 -1.3740
 5633SOL     OW28360   4.305   2.372   6.167  0.2317  0.2337 -0.6567
 5633SOL    HW128361   4.263   2.287   6.152 -0.2546  0.1482  1.2170
 5633SOL    HW228362   4.267   2.388   6.253  1.5490 -0.2268 -0.0005
 5634SOL     OW28363   1.196   1.312  11.014  0.8033  0.0474 -0.2642
 5634SOL    HW128364   1.154   1.394  11.039  0.0509  0.2407 -2.1439
 5634SOL    HW228365   1.214   1.267  11.097  0.2630  2.6676  1.2726
 5635SOL     OW28366   3.602   0.319   9.831 -0.0221  0.2231  0.5372
 5635SOL    HW128367   3.654   0.326   9.912  1.3235  0.0545 -0.3135
 5635SOL    HW228368   3.519   0.343   9.872 -0.8154 -0.8822 -0.4553
 5636SOL     OW28369   0.369   2.587   7.641 -0.8617  0.2899  0.1063
 5636SOL    HW128370   0.348   2.496   7.662  0.9839 -0.7182 -2.3694
 5636SOL    HW228371   0.287   2.618   7.603 -2.6086 -1.4991  2.3963
 5637SOL     OW28372   2.715   1.383   9.407  0.5048 -0.6217  0.0943
 5637SOL    HW128373   2.779   1.336   9.461  1.9907 -0.3253 -1.4026
 5637SOL    HW228374   2.654   1.313   9.384 -1.4729  0.7497  1.1473
 5638SOL     OW28375   4.279   0.205  11.422 -0.2684 -0.9461  0.4081
 5638SOL    HW128376   4.347   0.212  11.356  0.2281  1.0129  1.1337
 5638SOL    HW228377   4.323   0.153  11.489  2.4847  0.8328 -0.0674
 5639SOL     OW28378   1.748   1.537   2.652  0.3512 -0.1782 -0.3377
 5639SOL    HW128379   1.733   1.610   2.713  1.5325  0.1956 -0.4964
 5639SOL    HW228380   1.656   1.522   2.633 -0.3649  0.5359  2.5902
 5640SOL     OW28381   1.071   1.012  16.538  0.2288  0.0846 -0.5170
 5640SOL    HW128382   1.066   1.040  16.629 -2.2502 -1.7553 -0.0934
 5640SOL    HW228383   1.158   1.039  16.507  0.6429 -0.8119 -0.1250
 5641SOL     OW28384   0.747   0.124   3.936  0.2688 -0.0444  0.4584
 5641SOL    HW128385   0.771   0.212   3.905  0.1023  0.1842  0.9771
 5641SOL    HW228386   0.757   0.089   3.848 -0.7126  1.7168 -0.3682
 5642SOL     OW28387   2.539   2.780   2.134 -0.3787  0.2995  0.6884
 5642SOL    HW128388   2.476   2.735   2.077 -0.0780 -0.2465  0.7812
 5642SOL    HW228389   2.519   2.872   2.120  1.4885  0.3256 -2.0114
 5643SOL     OW28390   1.025   0.117   9.825  0.5028  0.1172 -0.2370
 5643SOL    HW128391   1.035   0.212   9.814  0.6413  0.0991 -0.2736
 5643SOL    HW228392   1.021   0.077   9.738 -1.5101  0.8105 -0.4679
 5644SOL     OW28393   1.425   0.175   5.784 -0.1854  0.5140  0.0234
 5644SOL    HW128394   1.383   0.150   5.866 -0.0352 -0.0049 -0.0614
 5644SOL    HW228395   1.349   0.195   5.730 -0.3938 -1.7932 -0.5099
 5645SOL     OW28396   1.184   3.003   9.448  0.8710  0.1495  0.5993
 5645SOL    HW128397   1.124   2.983   9.519 -1.2839 -0.5113 -1.4141
 5645SOL    HW228398   1.125   3.062   9.402 -1.7290 -1.6991  1.5861
 5646SOL     OW28399   3.998   2.848  13.044 -0.4510 -0.2653  0.4606
 5646SOL    HW128400   4.087   2.847  13.079 -0.6281  1.7469  0.9560
 5646SOL    HW228401   3.933   2.838  13.113 -1.5337  2.6826 -0.1090
 5647SOL     OW28402   4.038   3.924   1.313 -0.3947  0.1780 -0.5407
 5647SOL    HW128403   3.951   3.946   1.344 -0.2911  0.5121 -0.4889
 5647SOL    HW228404   4.051   3.829   1.323  0.4381  0.3208 -0.2589
 5648SOL     OW28405   1.560   3.902   8.277  0.2108 -0.1214 -0.4155
 5648SOL    HW128406   1.484   3.844   8.265  0.0636 -0.0572  0.2236
 5648SOL    HW228407   1.632   3.840   8.276 -1.6410 -2.2841 -1.0312
 5649SOL     OW28408   2.558   3.509  12.029 -0.0626  0.0437  0.0083
 5649SOL    HW128409   2.529   3.467  12.110  0.6992 -0.1572  0.1726
 5649SOL    HW228410   2.652   3.521  12.039  0.0514  0.9516 -1.9911
 5650SOL     OW28411   0.666   2.524   4.501 -0.6083 -0.7865 -0.1842
 5650SOL    HW128412   0.636   2.615   4.501 -1.9318 -1.2001  1.8174
 5650SOL    HW228413   0.692   2.497   4.413 -2.4805  0.6988 -1.2185
 5651SOL     OW28414   0.267   3.003   6.434  0.1517  0.6239 -0.4622
 5651SOL    HW128415   0.329   3.071   6.461  0.8298  0.4146 -1.5343
 5651SOL    HW228416   0.318   2.930   6.400  0.0350 -0.0704  0.8469
 5652SOL     OW28417   2.797   2.747   2.080  0.0281 -0.1559  0.0414
 5652SOL    HW128418   2.703   2.763   2.086  0.6674  3.1657  1.3377
 5652SOL    HW228419   2.802   2.654   2.058 -0.6070  0.4366 -2.5320
 5653SOL     OW28420   3.388   0.205  12.205  0.1909  0.0920 -0.6642
 5653SOL    HW128421   3.478   0.208  12.237  0.3161  0.6523 -1.0811
 5653SOL    HW228422   3.383   0.125  12.153 -1.1377 -2.0987  2.8376
 5654SOL     OW28423   2.015   3.970  14.575  0.3672  0.4377 -0.2392
 5654SOL    HW128424   1.919   3.974  14.569  0.3988  0.7330 -0.5354
 5654SOL    HW228425   2.019   4.034  14.646  1.0086  0.9056 -0.7028
 5655SOL     OW28426   2.374   2.739  10.595  0.2226  1.1438 -0.0630
 5655SOL    HW128427   2.341   2.823  10.564  1.0214  1.6677  0.5027
 5655SOL    HW228428   2.434   2.757  10.667 -0.5011  1.1388  0.5346
 5656SOL     OW28429   0.591   3.942   4.815 -0.6173  0.7884 -0.0540
 5656SOL    HW128430   0.551   3.985   4.739 -0.1577  1.0889 -0.1220
 5656SOL    HW228431   0.566   4.004   4.883 -0.6500 -0.8785  1.4416
 5657SOL     OW28432   2.449   4.699   7.177 -0.3500 -0.0427 -0.0416
 5657SOL    HW128433   2.475   0.064   7.157  1.6707 -0.4944  0.6347
 5657SOL    HW228434   2.534   4.660   7.195 -0.0364  1.0858  0.9375
 5658SOL     OW28435   4.332   1.595   9.729  0.2159  0.7866 -0.4001
 5658SOL    HW128436   4.293   1.572   9.813  1.2474  0.1137 -0.1003
 5658SOL    HW228437   4.395   1.522   9.732 -0.0289  0.5106 -1.7711
 5659SOL     OW28438   1.833   0.337   4.829 -0.0016  0.1147 -0.3901
 5659SOL    HW128439   1.881   0.402   4.777 -1.2927  0.2245 -1.4529
 5659SOL    HW228440   1.741   0.359   4.814 -0.7037 -2.2946  0.2876
 5660SOL     OW28441   3.554   2.829   9.712  0.7168  0.3132  0.1104
 5660SOL    HW128442   3.649   2.839   9.708  0.6361  0.8084 -0.5585
 5660SOL    HW228443   3.535   2.912   9.669  0.8719  0.1129 -0.3465
 5661SOL     OW28444   3.875   1.237   6.689  0.2628 -0.3547  0.1854
 5661SOL    HW128445   3.925   1.258   6.768 -0.9526  1.8772  0.3764
 5661SOL    HW228446   3.815   1.169   6.719  0.9489  0.0020  2.3994
 5662SOL     OW28447   2.396   0.080   5.162  0.1367  0.0286 -0.8188
 5662SOL    HW128448   2.476   0.106   5.207  0.4176 -2.2052 -0.0076
 5662SOL    HW228449   2.328   0.124   5.214  0.4918  2.4770 -2.4291
 5663SOL     OW28450   1.513   3.694  10.964  0.0773 -0.6476 -0.2407
 5663SOL    HW128451   1.536   3.627  11.028  0.9834 -0.0475  0.0570
 5663SOL    HW228452   1.440   3.737  11.008 -1.0724 -1.6593 -1.1437
 5664SOL     OW28453   2.764   0.303   3.507  0.2920  0.4283  0.1691
 5664SOL    HW128454   2.681   0.313   3.460  0.7089 -1.2172 -0.9100
 5664SOL    HW228455   2.733   0.245   3.577 -0.3162  0.0940 -0.3801
 5665SOL     OW28456   0.933   3.500   2.338 -0.2999 -0.3691 -0.4819
 5665SOL    HW128457   0.951   3.414   2.301  2.9332  0.0606  0.1350
 5665SOL    HW228458   1.015   3.525   2.381 -0.1031 -0.6939 -0.6729
 5666SOL     OW28459   2.814   1.568  11.077  0.1012  0.5769 -0.5789
 5666SOL    HW128460   2.879   1.624  11.120  1.1700 -0.7421 -0.4915
 5666SOL    HW228461   2.842   1.481  11.104  1.8565  1.4522  0.4866
 5667SOL     OW28462   3.392   2.413   8.999  0.2075  0.8594 -0.0875
 5667SOL    HW128463   3.377   2.502   8.969  1.5546  1.4367  0.9647
 5667SOL    HW228464   3.315   2.411   9.056  1.3016  3.3102  1.4654
 5668SOL     OW28465   1.616   4.403   7.929 -0.2496  0.2829 -0.1245
 5668SOL    HW128466   1.615   4.460   7.852  0.6555 -0.4235 -0.6649
 5668SOL    HW228467   1.636   4.316   7.896  0.5059  0.3093  0.2635
 5669SOL     OW28468   3.894   2.629   7.867  0.3147 -0.0268  0.4046
 5669SOL    HW128469   3.871   2.540   7.841 -0.2198 -0.2378  1.5828
 5669SOL    HW228470   3.920   2.605   7.956  0.4813 -0.9275  0.1060
 5670SOL     OW28471   1.767   4.214   6.727 -0.0222 -0.4628 -0.2697
 5670SOL    HW128472   1.848   4.178   6.690  0.1057  1.8975 -2.2911
 5670SOL    HW228473   1.743   4.150   6.793 -1.8067  1.1698  0.6657
 5671SOL     OW28474   4.264   1.805   1.597  0.1122  0.1505  0.4494
 5671SOL    HW128475   4.282   1.858   1.674  0.4171  1.5187 -0.5642
 5671SOL    HW228476   4.169   1.812   1.584  0.0988 -0.0824  0.4268
 5672SOL     OW28477   3.048   1.074   8.906 -0.6300  0.2046  0.0268
 5672SOL    HW128478   3.059   1.072   8.811  1.4430  0.8087  0.2472
 5672SOL    HW228479   2.988   1.000   8.911 -2.0635  1.3968  0.2790
 5673SOL     OW28480   0.553   3.042   7.959  0.5240  0.0892 -0.0114
 5673SOL    HW128481   0.488   3.017   7.893 -0.0984 -0.9246  0.9819
 5673SOL    HW228482   0.500   3.070   8.034 -0.4407 -1.7912  0.0218
 5674SOL     OW28483   1.702   1.854   6.536 -0.5522  0.2976 -0.2119
 5674SOL    HW128484   1.746   1.779   6.576  1.2496  1.7392  0.5142
 5674SOL    HW228485   1.747   1.855   6.451  0.2275 -0.6953  0.1961
 5675SOL     OW28486   4.080   1.775   3.425 -0.4141 -0.2190  0.3577
 5675SOL    HW128487   4.078   1.736   3.512  1.5671  0.0498  0.5140
 5675SOL    HW228488   4.014   1.726   3.375 -0.9255  0.8986 -0.0678
 5676SOL     OW28489   4.526   0.125   0.613  0.0792 -0.2686 -0.6174
 5676SOL    HW128490   4.576   0.193   0.567 -0.3645 -0.8027 -1.8856
 5676SOL    HW228491   4.443   0.116   0.566 -1.0932 -0.7962  1.5893
 5677SOL     OW28492   0.205   2.235   0.074  0.4047 -0.4142 -0.1017
 5677SOL    HW128493   0.207   2.140   0.082 -0.6067 -0.2077  2.5100
 5677SOL    HW228494   0.280   2.268   0.025  0.3318  0.8724  0.6409
 5678SOL     OW28495   3.837   0.076   2.315  0.5381 -0.2542  0.2172
 5678SOL    HW128496   3.838   0.030   2.231 -0.6966  0.9695 -0.4757
 5678SOL    HW228497   3.838   0.168   2.286 -2.7887  0.0073  0.8513
 5679SOL     OW28498   4.304   2.741   8.249  0.1034 -0.3588  0.3104
 5679SOL    HW128499   4.360   2.802   8.299 -2.0332  0.2163  2.0151
 5679SOL    HW228500   4.331   2.655   8.281  0.5801  0.2391  1.5533
 5680SOL     OW28501   3.180   4.172   0.265 -0.3932  0.2361  0.3483
 5680SOL    HW128502   3.185   4.107   0.195  1.0390  1.2667 -0.5051
 5680SOL    HW228503   3.148   4.247   0.214 -1.2326 -1.9988 -2.4191
 5681SOL     OW28504   2.475   1.744   1.981  0.4630  0.2044  0.2618
 5681SOL    HW128505   2.444   1.686   2.050  1.3330  0.2047  0.6531
 5681SOL    HW228506   2.416   1.819   1.990 -1.8493 -1.5303 -0.5921
 5682SOL     OW28507   0.173   4.724   4.685 -0.0364 -0.4057 -0.0902
 5682SOL    HW128508   0.093   4.724   4.633 -1.0922 -0.3102  1.5111
 5682SOL    HW228509   0.141   4.670   4.757 -0.0264 -1.2740 -0.7407
 5683SOL     OW28510   3.083   4.427   7.625  0.0277 -0.2054 -0.5290
 5683SOL    HW128511   3.025   4.494   7.588 -1.1741 -0.3695  1.0416
 5683SOL    HW228512   3.087   4.463   7.713  2.0203  1.2131 -1.2122
 5684SOL     OW28513   2.695   4.679   8.213 -0.1483 -0.0723  0.0252
 5684SOL    HW128514   2.605   4.688   8.244 -0.2266  0.8676 -0.4692
 5684SOL    HW228515   2.736   4.657   8.296  0.5115 -2.8108 -1.0280
 5685SOL     OW28516   1.823   0.156  16.708  0.4838  0.4494  0.4789
 5685SOL    HW128517   1.880   0.215  16.757 -1.1367  1.5436  1.0290
 5685SOL    HW228518   1.836   0.182  16.616  0.1161  0.7519  0.5121
 5686SOL     OW28519   4.520   2.792  12.468  0.0190  0.4104  0.5454
 5686SOL    HW128520   4.546   2.884  12.466  1.4745  0.0064  0.7312
 5686SOL    HW228521   4.603   2.757  12.435 -0.2530  2.0255 -1.8708
 5687SOL     OW28522   1.587   3.352  15.690 -0.0025  0.2454 -0.0866
 5687SOL    HW128523   1.563   3.282  15.751  1.2418 -0.3810 -0.3093
 5687SOL    HW228524   1.617   3.304  15.613  1.0687 -0.8659  1.0098
 5688SOL     OW28525   3.849   2.431   0.683 -0.0728 -0.4451 -0.2488
 5688SOL    HW128526   3.880   2.511   0.728 -0.3450 -0.1202 -0.6414
 5688SOL    HW228527   3.802   2.468   0.608 -1.4418 -0.7532  0.4562
 5689SOL     OW28528   2.553   3.212   3.471  0.4122 -0.1268 -0.8407
 5689SOL    HW128529   2.459   3.218   3.488  0.9245 -0.1963  2.0839
 5689SOL    HW228530   2.551   3.119   3.445  0.9169 -0.1595 -0.7596
 5690SOL     OW28531   1.324   3.928   2.439  1.1177  0.0967 -0.5421
 5690SOL    HW128532   1.369   3.862   2.387 -3.2630 -2.5559 -0.9733
 5690SOL    HW228533   1.264   3.958   2.370 -1.5518  2.1106  2.6157
 5691SOL     OW28534   2.369   2.590   3.639 -0.4715  0.1466 -0.3599
 5691SOL    HW128535   2.338   2.516   3.587  1.0792  1.3667 -3.0685
 5691SOL    HW228536   2.362   2.660   3.574 -2.7609  1.4358  1.2852
 5692SOL     OW28537   0.260   1.251   6.059 -0.8613  0.3604  0.1520
 5692SOL    HW128538   0.186   1.190   6.060  0.4481 -1.2170  0.3735
 5692SOL    HW228539   0.212   1.333   6.071 -0.1422  1.0093 -1.3363
 5693SOL     OW28540   1.342   3.416   5.280 -0.4224 -0.7942  0.1943
 5693SOL    HW128541   1.405   3.432   5.350 -1.9403 -1.5413  1.7360
 5693SOL    HW228542   1.346   3.324   5.254 -1.2810 -0.9791  0.7119
 5694SOL     OW28543   3.325   2.242   5.536  0.7940  0.0369  0.1646
 5694SOL    HW128544   3.285   2.329   5.543 -2.5744 -1.6592  1.8034
 5694SOL    HW228545   3.411   2.275   5.511  0.5732 -0.7532 -1.6435
 5695SOL     OW28546   3.890   4.094  16.753 -0.3130 -0.7132  0.3061
 5695SOL    HW128547   3.832   4.162  16.787  0.7480  0.1688  0.3513
 5695SOL    HW228548   3.839   4.013  16.764 -3.3510  0.7448 -3.0043
 5696SOL     OW28549   4.183   2.783   7.067 -0.2838  0.0853 -0.1939
 5696SOL    HW128550   4.153   2.749   7.151  0.9277 -1.9140 -0.5766
 5696SOL    HW228551   4.208   2.872   7.092  0.0660 -0.0734  0.0221
 5697SOL     OW28552   1.304   0.307   7.515  0.8224  0.0345 -0.0502
 5697SOL    HW128553   1.355   0.231   7.543 -1.7892 -2.3059 -1.5948
 5697SOL    HW228554   1.320   0.376   7.580 -0.8319 -0.8946  1.3300
 5698SOL     OW28555   3.628   2.927   3.477  0.7299 -0.1054  0.3205
 5698SOL    HW128556   3.575   3.001   3.507  0.1728 -0.9396  1.4053
 5698SOL    HW228557   3.599   2.907   3.388  1.8930 -0.9364  0.1325
 5699SOL     OW28558   4.656   2.808   7.976  0.5017 -0.1374 -1.0230
 5699SOL    HW128559   4.690   2.741   7.918 -0.6059 -1.4740 -0.1446
 5699SOL    HW228560   4.566   2.778   7.986  0.9755 -0.2621  3.1071
 5700SOL     OW28561   3.579   0.474   0.951 -0.6962 -0.6600 -0.0154
 5700SOL    HW128562   3.535   0.557   0.973  1.2230  0.6232 -0.9971
 5700SOL    HW228563   3.559   0.430   1.033 -0.3724  0.0586  0.4564
 5701SOL     OW28564   1.498   3.267   3.471  0.0583  0.5396 -0.3935
 5701SOL    HW128565   1.539   3.324   3.406  0.6054  0.0833 -0.4527
 5701SOL    HW228566   1.452   3.326   3.530  0.8631  1.6503 -0.8587
 5702SOL     OW28567   2.617   4.281   5.622 -0.2213 -0.2321  0.2141
 5702SOL    HW128568   2.633   4.320   5.536  0.4462 -3.8753 -1.3017
 5702SOL    HW228569   2.522   4.267   5.626 -0.8868  4.1212  0.4199
 5703SOL     OW28570   1.509   2.762   2.163 -0.2039 -0.5435  0.2319
 5703SOL    HW128571   1.528   2.847   2.125  2.0074 -1.0868  0.1275
 5703SOL    HW228572   1.590   2.730   2.204  1.8837  3.2551 -0.9546
 5704SOL     OW28573   0.718   2.089   0.044  0.6412 -0.2139  0.3574
 5704SOL    HW128574   0.801   2.134   0.032  0.7424  0.1834  2.4982
 5704SOL    HW228575   0.730   2.057   0.133  2.4025  1.6703  0.7846
 5705SOL     OW28576   1.064   3.137   2.504 -0.2555 -0.1264  0.0362
 5705SOL    HW128577   0.979   3.134   2.548 -1.6034 -0.5413 -2.5938
 5705SOL    HW228578   1.053   3.057   2.452  1.2344 -0.4665  0.2527
 5706SOL     OW28579   1.567   2.965   2.015 -0.2017  0.1450 -0.2852
 5706SOL    HW128580   1.524   2.998   1.936  0.4562 -0.3588 -0.8530
 5706SOL    HW228581   1.634   3.033   2.021 -0.7371  0.6430  0.0636
 5707SOL     OW28582   0.535   2.326   4.281  0.1757 -0.0542 -0.0006
 5707SOL    HW128583   0.532   2.249   4.224 -1.0476 -0.8903  1.1954
 5707SOL    HW228584   0.574   2.398   4.231  0.2273 -0.7381 -0.9413
 5708SOL     OW28585   1.298   1.100   2.178  0.1053  0.0148  0.0045
 5708SOL    HW128586   1.344   1.125   2.258 -0.3400 -0.4209  0.3968
 5708SOL    HW228587   1.229   1.166   2.178 -0.0276 -0.1237  0.1907
 5709SOL     OW28588   4.197   3.957   5.569 -0.3731 -0.5251  0.0744
 5709SOL    HW128589   4.277   4.000   5.602  0.8406 -3.3550  0.7780
 5709SOL    HW228590   4.231   3.956   5.480  1.1834  0.9383  0.6284
 5710SOL     OW28591   2.248   3.296   6.569 -0.0821 -0.0297 -0.0071
 5710SOL    HW128592   2.267   3.352   6.644  0.2216 -2.1533  1.4863
 5710SOL    HW228593   2.154   3.307   6.553  0.3089  1.2783 -1.4170
 5711SOL     OW28594   3.962   1.255   6.949 -0.5342 -0.3691 -0.1276
 5711SOL    HW128595   3.867   1.251   6.960 -0.4121 -3.9677 -0.5585
 5711SOL    HW228596   3.993   1.316   7.017 -0.1260  0.9605 -1.5043
 5712SOL     OW28597   0.311   0.239  14.884 -0.0278  0.1133  0.7584
 5712SOL    HW128598   0.277   0.151  14.900 -1.8578  0.2476 -2.3438
 5712SOL    HW228599   0.226   0.280  14.898 -0.3415 -0.8005  1.4948
 5713SOL     OW28600   3.768   1.708   8.528 -0.2382 -0.3021  0.2838
 5713SOL    HW128601   3.739   1.616   8.529  1.8888 -0.9839 -0.7055
 5713SOL    HW228602   3.775   1.729   8.621  0.3494 -2.7183  0.7850
 5714SOL     OW28603   0.045   2.451   4.779  0.6870 -0.3089  0.0108
 5714SOL    HW128604   0.069   2.505   4.855 -0.9424  0.5898 -0.0990
 5714SOL    HW228605   0.003   2.379   4.825  0.7724 -0.3436  0.0346
 5715SOL     OW28606   2.779   3.271   9.895  0.1145  0.2163 -0.1354
 5715SOL    HW128607   2.741   3.220   9.823 -0.2015 -0.9526  0.8551
 5715SOL    HW228608   2.848   3.207   9.911  1.2232  1.3274 -0.4881
 5716SOL     OW28609   3.672   1.332   8.033  0.1532  0.0186  0.1773
 5716SOL    HW128610   3.603   1.322   7.968  0.8428 -0.5736 -0.4559
 5716SOL    HW228611   3.679   1.242   8.065 -2.6198 -0.3588 -0.2772
 5717SOL     OW28612   2.055   0.215   7.448 -0.2131  0.1095  0.0420
 5717SOL    HW128613   2.045   0.175   7.534  2.5582  2.6974  1.5750
 5717SOL    HW228614   2.137   0.174   7.422  0.1670 -0.3080  1.9045
 5718SOL     OW28615   2.391   3.324   8.178  0.1163  0.4079  0.6859
 5718SOL    HW128616   2.464   3.385   8.186 -0.1151  1.0396 -1.9878
 5718SOL    HW228617   2.398   3.273   8.259 -1.6191 -0.8998  0.0207
 5719SOL     OW28618   2.411   1.162   1.460  0.3335  0.3674  0.6367
 5719SOL    HW128619   2.370   1.222   1.523 -1.3212 -0.4076  0.3096
 5719SOL    HW228620   2.469   1.114   1.519 -1.4846  2.0532  3.8029
 5720SOL     OW28621   3.261   3.771   5.938 -0.2537 -0.0715 -0.1097
 5720SOL    HW128622   3.195   3.712   5.901 -2.0567  1.4181  0.7315
 5720SOL    HW228623   3.205   3.847   5.951  1.9067  1.4187  0.4278
 5721SOL     OW28624   2.693   2.117   5.952  1.0288 -0.4166  0.3313
 5721SOL    HW128625   2.666   2.144   5.864 -0.9450  1.8223  1.5960
 5721SOL    HW228626   2.609   2.091   5.990  0.8341  1.7660  1.4219
 5722SOL     OW28627   3.066   1.598   4.738 -0.5329 -0.8406  0.7637
 5722SOL    HW128628   3.160   1.579   4.747 -0.7076 -2.1596 -0.1129
 5722SOL    HW228629   3.048   1.540   4.664 -0.8198 -0.4974  0.5679
 5723SOL     OW28630   3.102   3.778   7.384  0.0429 -0.6100  0.2270
 5723SOL    HW128631   3.195   3.792   7.367  0.1222 -1.6285 -0.1696
 5723SOL    HW228632   3.070   3.824   7.306  3.7468 -0.7049 -1.3388
 5724SOL     OW28633   1.725   4.486   2.265  0.3863 -0.0063 -0.1117
 5724SOL    HW128634   1.646   4.447   2.228 -0.6237 -0.8143  2.8786
 5724SOL    HW228635   1.743   4.554   2.200 -0.9698 -0.4887 -0.9848
 5725SOL     OW28636   0.011   0.674   6.447  0.4094  0.8464  0.6226
 5725SOL    HW128637   4.654   0.711   6.480  1.4025  1.2173  2.6140
 5725SOL    HW228638   0.041   0.617   6.517 -0.6760 -0.4109  0.0762
 5726SOL     OW28639   4.598   2.983   6.126  0.8126 -0.0706 -0.1967
 5726SOL    HW128640   4.638   2.968   6.040 -0.1130 -0.6464 -0.5331
 5726SOL    HW228641   4.592   2.892   6.154 -1.2016  0.5022  1.2754
 5727SOL     OW28642   1.758   0.035  11.698 -0.4035 -0.2454  0.1124
 5727SOL    HW128643   1.718   4.702  11.633  0.4596 -0.8501  0.1108
 5727SOL    HW228644   1.836   0.070  11.655 -1.2553  0.9190 -0.4728
 5728SOL     OW28645   4.421   4.360  16.797  0.1672  0.1372 -0.3607
 5728SOL    HW128646   4.327   4.356  16.815  0.4421  0.6482  1.1706
 5728SOL    HW228647   4.431   4.314  16.714  0.0907 -0.2317 -0.1650
 5729SOL     OW28648   0.065   3.486   3.909 -0.0862  0.2012 -0.2343
 5729SOL    HW128649   0.059   3.517   3.999  0.0287  2.1601 -0.9098
 5729SOL    HW228650   0.138   3.540   3.879  0.2062 -0.9311 -1.5406
 5730SOL     OW28651   0.200   4.512   8.576 -0.3159  0.4921  0.1245
 5730SOL    HW128652   0.129   4.513   8.641 -0.2780  0.7886  0.1623
 5730SOL    HW228653   0.269   4.516   8.641  0.1399 -0.7957 -0.2864
 5731SOL     OW28654   1.701   4.419   1.529  0.8380  0.1304 -0.2945
 5731SOL    HW128655   1.757   4.481   1.482 -0.7276  1.6155 -0.2341
 5731SOL    HW228656   1.627   4.408   1.470  2.0185  3.3222 -2.3802
 5732SOL     OW28657   4.300   0.541  14.822  0.6185 -0.0803  0.9035
 5732SOL    HW128658   4.300   0.463  14.877  0.3884  0.3378  1.4984
 5732SOL    HW228659   4.279   0.614  14.881  0.7827  0.0065  0.8544
 5733SOL     OW28660   0.641   2.103  15.540  0.8948  0.4630 -0.0298
 5733SOL    HW128661   0.707   2.043  15.504  1.0787  0.0089  1.0500
 5733SOL    HW228662   0.632   2.170  15.473  2.8668 -0.0135 -0.7832
 5734SOL     OW28663   4.112   0.147  12.153 -0.2105 -0.2838 -0.2711
 5734SOL    HW128664   4.179   0.213  12.172  0.0067 -0.5143 -0.2306
 5734SOL    HW228665   4.159   0.115  12.076 -1.1418  1.4482 -1.5561
 5735SOL     OW28666   1.250   3.720  17.013  0.0139  0.6849  0.1418
 5735SOL    HW128667   1.294   3.635  17.011 -1.4253 -0.0743  0.8587
 5735SOL    HW228668   1.277   3.744  17.101  0.5773  0.6027 -0.0063
 5736SOL     OW28669   4.504   4.652   7.197  0.5639 -0.3653 -0.0435
 5736SOL    HW128670   4.452   4.662   7.277  1.8687  0.8467  0.6365
 5736SOL    HW228671   4.594   4.658   7.227  1.2715  3.4655 -2.9824
 5737SOL     OW28672   2.927   0.544   5.879  0.0590  0.2570  0.5063
 5737SOL    HW128673   2.994   0.607   5.907  0.0879  0.9026 -0.9808
 5737SOL    HW228674   2.848   0.598   5.876  0.8477  1.3184 -1.1771
 5738SOL     OW28675   3.484   4.484   7.780 -0.4293 -0.5728  0.0453
 5738SOL    HW128676   3.473   4.411   7.841 -1.4656 -1.0202 -0.6682
 5738SOL    HW228677   3.539   4.555   7.814 -1.0622 -0.6505  1.2283
 5739SOL     OW28678   1.754   3.306   7.968  0.3674  0.2450 -0.3550
 5739SOL    HW128679   1.700   3.279   7.894 -0.8090  1.7212 -0.0506
 5739SOL    HW228680   1.746   3.223   8.014  0.6196 -0.0400 -0.8278
 5740SOL     OW28681   0.461   4.445   2.827 -0.4056  0.0347  0.0839
 5740SOL    HW128682   0.507   4.504   2.887 -2.1029  1.6222 -0.1849
 5740SOL    HW228683   0.460   4.362   2.875 -2.3025 -0.8250 -1.4578
 5741SOL     OW28684   4.291   3.990   0.953  0.9863  0.0018 -0.0478
 5741SOL    HW128685   4.307   3.936   1.031 -0.9848 -0.4358  0.0555
 5741SOL    HW228686   4.195   3.990   0.959  1.0166 -2.3622  0.4287
 5742SOL     OW28687   1.766   1.608   7.065 -0.3314  0.0827  0.0669
 5742SOL    HW128688   1.832   1.678   7.059 -0.4990  0.1367 -1.1935
 5742SOL    HW228689   1.737   1.595   6.975 -0.6345  1.0448  0.0217
 5743SOL     OW28690   4.248   3.327   9.532 -0.2759 -0.1528 -0.2820
 5743SOL    HW128691   4.311   3.257   9.546 -0.5634 -0.5883 -1.1887
 5743SOL    HW228692   4.260   3.353   9.441 -1.2382 -2.3773 -1.0406
 5744SOL     OW28693   0.250   3.959   6.134 -0.5294  0.2571 -0.1440
 5744SOL    HW128694   0.317   3.900   6.168 -0.0992  1.0547  0.4084
 5744SOL    HW228695   0.309   4.023   6.093  0.3008 -1.4918 -1.6327
 5745SOL     OW28696   3.885   3.476  14.170  0.3493  0.4626  0.1652
 5745SOL    HW128697   3.931   3.537  14.228 -1.7181  2.8171 -0.6502
 5745SOL    HW228698   3.817   3.535  14.136  0.2062 -0.1119 -0.5312
 5746SOL     OW28699   1.846   3.081   0.613  0.4959 -0.3719 -0.1522
 5746SOL    HW128700   1.838   3.131   0.695  1.2172 -0.7458  0.1417
 5746SOL    HW228701   1.908   3.137   0.566 -2.2757  1.2938 -1.8459
 5747SOL     OW28702   1.549   3.572   4.205  0.0593 -0.3914 -0.1905
 5747SOL    HW128703   1.470   3.565   4.150 -1.6965 -0.9901  2.4256
 5747SOL    HW228704   1.610   3.505   4.173 -0.3656  0.1658 -2.2143
 5748SOL     OW28705   1.008   3.598  16.775 -0.3154 -0.1929 -0.3137
 5748SOL    HW128706   0.960   3.638  16.847 -2.8753  1.2988 -2.8677
 5748SOL    HW228707   1.085   3.561  16.818  0.3326  1.8298  0.2419
 5749SOL     OW28708   1.043   4.637   8.271  0.0869  0.1066  0.2770
 5749SOL    HW128709   1.064   4.545   8.281 -0.9772 -0.2146 -0.4688
 5749SOL    HW228710   0.991   4.641   8.352 -0.6855  0.8845 -0.2512
 5750SOL     OW28711   4.113   4.610   6.124  0.1114 -0.1679  0.0854
 5750SOL    HW128712   4.165   4.538   6.088 -0.7504  0.0371 -1.5449
 5750SOL    HW228713   4.028   4.567   6.117  0.0694 -0.2319  0.9156
 5751SOL     OW28714   1.476   4.562   6.648  0.6151  0.1592 -0.2875
 5751SOL    HW128715   1.549   4.623   6.640 -1.0378  2.4111  1.7205
 5751SOL    HW228716   1.431   4.579   6.565  0.7680 -1.7411 -0.7520
 5752SOL     OW28717   1.880   2.565   7.709 -0.3255 -0.3451  0.1003
 5752SOL    HW128718   1.803   2.552   7.653  0.0861  2.1635 -1.0299
 5752SOL    HW228719   1.840   2.565   7.796  0.3502  1.8776  0.4031
 5753SOL     OW28720   2.406   3.628  16.404 -0.0003 -0.1931 -0.1377
 5753SOL    HW128721   2.345   3.561  16.435 -1.0120 -0.0651 -1.8115
 5753SOL    HW228722   2.370   3.663  16.322  0.2957 -0.9543 -0.5959
 5754SOL     OW28723   1.569   2.839   4.329 -0.3903 -0.3232 -0.2775
 5754SOL    HW128724   1.637   2.905   4.325 -2.2788  1.5617 -1.1869
 5754SOL    HW228725   1.572   2.800   4.242  0.4431 -0.6100 -0.1215
 5755SOL     OW28726   4.476   0.829   4.502 -0.4213  0.4932 -0.1281
 5755SOL    HW128727   4.564   0.824   4.539  0.2661 -2.0989 -2.0998
 5755SOL    HW228728   4.433   0.884   4.567  0.1801 -0.0171  0.7065
 5756SOL     OW28729   1.179   0.726   4.949  0.0437 -0.3369  0.3335
 5756SOL    HW128730   1.121   0.802   4.940 -1.4146 -1.3661  1.0102
 5756SOL    HW228731   1.263   0.771   4.965 -0.7899  1.2256  0.3265
 5757SOL     OW28732   3.540   1.640   2.487  0.1620  0.0470  0.0513
 5757SOL    HW128733   3.562   1.635   2.394 -2.0205  0.1151 -0.4579
 5757SOL    HW228734   3.625   1.648   2.531 -0.6989  0.8490  1.6039
 5758SOL     OW28735   0.686   3.558   8.685 -0.2557  0.1662  0.3121
 5758SOL    HW128736   0.731   3.474   8.677  1.3286  1.2001 -1.6490
 5758SOL    HW228737   0.596   3.528   8.701 -0.1822  0.5842  1.4687
 5759SOL     OW28738   3.998   0.851   7.570  0.4795  0.1514 -0.7470
 5759SOL    HW128739   4.058   0.848   7.495  2.2892 -0.5978  0.7361
 5759SOL    HW228740   4.068   0.847   7.635  0.0988  2.3569 -0.2186
 5760SOL     OW28741   4.438   3.839   3.925 -0.2552 -0.1685 -0.2390
 5760SOL    HW128742   4.445   3.748   3.955  1.3526 -0.6741 -2.1492
 5760SOL    HW228743   4.347   3.860   3.903 -0.2307  0.1960  0.0192
 5761SOL     OW28744   4.217   2.804   3.113  0.0878 -0.0110 -0.0967
 5761SOL    HW128745   4.262   2.860   3.175  0.1053  0.9926 -1.0215
 5761SOL    HW228746   4.131   2.781   3.150 -0.1786 -0.4365 -0.9705
 5762SOL     OW28747   2.085   2.846   0.710  0.3801  0.2708 -1.0837
 5762SOL    HW128748   2.109   2.866   0.800  0.3630 -0.9993 -0.7983
 5762SOL    HW228749   2.122   2.915   0.655 -1.4329  2.0901 -0.0193
 5763SOL     OW28750   2.963   3.888  10.350  0.1257 -0.4053 -0.0175
 5763SOL    HW128751   2.932   3.957  10.291 -0.5271 -0.3082  0.4319
 5763SOL    HW228752   2.893   3.823  10.340  1.3481 -1.5202 -1.3382
 5764SOL     OW28753   2.028   4.266   3.270  0.1940 -0.3040  0.2417
 5764SOL    HW128754   2.081   4.187   3.282  0.0632 -0.2952  0.8683
 5764SOL    HW228755   2.023   4.258   3.175 -2.0655  0.5121  0.3013
 5765SOL     OW28756   2.526   2.153   2.878  0.1387  0.1219 -0.7053
 5765SOL    HW128757   2.561   2.113   2.798  3.0201 -0.1545  0.7048
 5765SOL    HW228758   2.434   2.153   2.849 -0.1596 -0.0835  0.2563
 5766SOL     OW28759   1.656   2.291  14.445 -0.5113  0.2674  0.8367
 5766SOL    HW128760   1.634   2.231  14.374 -1.1072  2.3806 -0.7922
 5766SOL    HW228761   1.735   2.334  14.410 -0.1985 -0.1038  1.0957
 5767SOL     OW28762   2.156   3.984  14.351  0.1501  0.1148  0.4055
 5767SOL    HW128763   2.229   3.925  14.367 -1.4897 -2.3741 -1.0891
 5767SOL    HW228764   2.100   3.965  14.426 -0.7381  0.9232 -0.0458
 5768SOL     OW28765   2.316   0.608  11.931 -0.4151 -0.0314 -0.1952
 5768SOL    HW128766   2.267   0.563  11.862 -0.0330 -1.6794  0.6109
 5768SOL    HW228767   2.256   0.597  12.005 -0.7810 -0.0916 -0.5004
 5769SOL     OW28768   2.000   0.415   6.876  0.3428  0.3268  0.2192
 5769SOL    HW128769   2.082   0.464   6.879  0.2730  0.4111  0.7617
 5769SOL    HW228770   1.973   0.431   6.786 -0.2975 -2.1762 -0.0195
 5770SOL     OW28771   0.782   0.326   0.336 -0.0378  0.0566  0.0771
 5770SOL    HW128772   0.710   0.264   0.342  0.1627 -0.0972  0.9164
 5770SOL    HW228773   0.750   0.385   0.267 -0.5756  0.4898  0.6969
 5771SOL     OW28774   3.115   3.899   2.390 -0.2530  0.6564 -0.4307
 5771SOL    HW128775   3.197   3.852   2.409 -0.5375 -0.5401 -2.2095
 5771SOL    HW228776   3.106   3.951   2.470 -0.6804 -0.3735  0.1947
 5772SOL     OW28777   3.657   1.052  15.758  0.4766  0.3190  0.1676
 5772SOL    HW128778   3.575   1.102  15.756 -0.1904 -0.6502  2.7224
 5772SOL    HW228779   3.719   1.104  15.809  1.3344  0.6042 -1.1706
 5773SOL     OW28780   3.070   1.790   5.694  0.4073 -0.3534 -0.7049
 5773SOL    HW128781   3.086   1.767   5.603 -0.4815 -1.2849 -0.6196
 5773SOL    HW228782   3.004   1.860   5.685 -0.4570 -1.1632 -0.6296
 5774SOL     OW28783   4.655   3.713   2.604  0.5066 -0.0930  0.9492
 5774SOL    HW128784   0.019   3.705   2.569 -0.4199 -0.7593 -1.2244
 5774SOL    HW228785   4.629   3.625   2.631 -0.9677  0.0807  0.1599
 5775SOL     OW28786   1.357   2.707   6.579  0.0499  0.2452  0.3319
 5775SOL    HW128787   1.426   2.696   6.644 -1.1601 -0.9552  1.4154
 5775SOL    HW228788   1.339   2.801   6.592 -0.6072  0.0619  0.7559
 5776SOL     OW28789   3.220   4.216   8.967  0.5879 -0.3885  0.5351
 5776SOL    HW128790   3.304   4.241   8.928  1.2769 -2.0196  0.9581
 5776SOL    HW228791   3.203   4.299   9.011 -2.0900 -1.0777  0.7888
 5777SOL     OW28792   0.865   3.075   8.465  0.3131  0.3658  0.2973
 5777SOL    HW128793   0.827   3.138   8.404 -0.5731 -1.7337 -1.3416
 5777SOL    HW228794   0.902   3.009   8.407 -0.1824 -0.7124  1.2042
 5778SOL     OW28795   4.470   1.663   0.676  0.2351 -0.3463 -0.5625
 5778SOL    HW128796   4.427   1.735   0.630  1.5560 -0.6371 -2.2540
 5778SOL    HW228797   4.555   1.670   0.634 -0.9625  3.4841 -2.3170
 5779SOL     OW28798   4.408   0.662   2.063  0.4340  0.0997 -0.2950
 5779SOL    HW128799   4.463   0.586   2.082 -0.7701 -0.9375 -0.9248
 5779SOL    HW228800   4.320   0.639   2.033  0.4876 -0.0634 -0.3277
 5780SOL     OW28801   1.060   4.483  16.344 -0.2830  0.3946  0.0966
 5780SOL    HW128802   1.154   4.464  16.349 -0.5656 -0.8052  0.7928
 5780SOL    HW228803   1.037   4.393  16.320 -2.2477  0.8986  0.0842
 5781SOL     OW28804   1.655   4.615   9.808 -0.5337 -0.0824  0.5814
 5781SOL    HW128805   1.627   4.551   9.873  0.9045 -2.6420 -1.2989
 5781SOL    HW228806   1.573   4.619   9.759 -0.1458 -1.9749 -0.2332
 5782SOL     OW28807   0.170   2.264   4.597 -0.4137  0.7890  0.4198
 5782SOL    HW128808   0.182   2.312   4.515  2.5749 -1.4459 -0.4511
 5782SOL    HW228809   0.139   2.332   4.656 -0.4058  1.3276 -0.1969
 5783SOL     OW28810   4.080   0.339   8.618  0.3156  0.1909  0.0619
 5783SOL    HW128811   4.112   0.371   8.702 -0.2656 -1.9276  1.0885
 5783SOL    HW228812   4.054   0.251   8.646  1.3246 -0.1699 -0.1622
 5784SOL     OW28813   0.232   4.507   1.999 -0.3991 -0.7088 -0.7646
 5784SOL    HW128814   0.149   4.459   2.001 -0.4944 -0.4522  0.7256
 5784SOL    HW228815   0.248   4.524   2.091  0.1794 -1.0114 -0.8083
 5785SOL     OW28816   3.846   4.524   4.254 -0.0023  0.2803 -0.3356
 5785SOL    HW128817   3.908   4.459   4.222  3.0506  2.8593  0.3213
 5785SOL    HW228818   3.884   4.549   4.338 -1.9797 -0.0884  0.6745
 5786SOL     OW28819   4.133   4.299  16.898  0.0154 -0.5660 -0.1239
 5786SOL    HW128820   4.131   4.235  16.826 -1.8127 -1.0813  0.4062
 5786SOL    HW228821   4.094   4.250  16.969  1.7303 -0.1058  1.1521
 5787SOL     OW28822   1.239   4.386   1.477  0.2605 -0.6391  0.4447
 5787SOL    HW128823   1.243   4.390   1.572  2.2636 -0.0387  0.3291
 5787SOL    HW228824   1.172   4.318   1.464 -0.5012  0.3899 -1.0053
 5788SOL     OW28825   2.922   3.089   4.174  0.1414 -0.0987 -0.0031
 5788SOL    HW128826   2.912   3.181   4.198  1.0719 -0.4816  1.8891
 5788SOL    HW228827   2.880   3.044   4.248  1.5151 -0.2475  0.6898
 5789SOL     OW28828   1.355   0.741   6.197 -0.4514  0.3711 -0.1491
 5789SOL    HW128829   1.300   0.818   6.213 -2.4884 -1.1476  0.1240
 5789SOL    HW228830   1.407   0.779   6.126 -1.4536 -0.3544 -1.2706
 5790SOL     OW28831   4.205   3.480   2.673 -0.0592  0.2885 -0.5008
 5790SOL    HW128832   4.150   3.517   2.742 -0.5267 -2.8933  0.8273
 5790SOL    HW228833   4.202   3.387   2.693  0.3810  0.2401 -0.6650
 5791SOL     OW28834   0.759   3.970   5.945  0.7018  0.0927  0.6134
 5791SOL    HW128835   0.854   3.981   5.946  0.9483 -1.8360 -0.2571
 5791SOL    HW228836   0.750   3.893   6.002 -1.2561  1.3519  2.0154
 5792SOL     OW28837   4.669   2.570   5.811  0.1463 -0.0035  0.1908
 5792SOL    HW128838   4.657   2.494   5.754  1.2725 -0.1714  0.1771
 5792SOL    HW228839   4.694   2.628   5.739  0.8875  0.7974  1.0879
 5793SOL     OW28840   4.457   4.469  13.324  0.0689  0.2668 -0.2201
 5793SOL    HW128841   4.450   4.466  13.420 -1.5251  2.9192 -0.2659
 5793SOL    HW228842   4.363   4.474  13.306 -0.2048 -0.5332  0.9653
 5794SOL     OW28843   2.229   2.406   2.621 -0.1873  0.2248 -0.0499
 5794SOL    HW128844   2.299   2.469   2.602  0.0420 -0.3854 -1.2376
 5794SOL    HW228845   2.219   2.370   2.532  1.4790  2.7966 -1.2873
 5795SOL     OW28846   4.309   3.619  15.899 -0.2296  0.7228  0.2453
 5795SOL    HW128847   4.225   3.663  15.913 -0.6562 -0.0374  0.0992
 5795SOL    HW228848   4.326   3.571  15.979 -1.1373  0.6968  0.4238
 5796SOL     OW28849   0.050   4.483   8.199  0.0094 -0.2346  0.3581
 5796SOL    HW128850   0.128   4.536   8.217  0.0743 -0.5519  0.9971
 5796SOL    HW228851   0.046   4.504   8.106  0.5472  3.1216  1.0958
 5797SOL     OW28852   2.948   0.607   5.100 -0.2831 -0.1384  0.3805
 5797SOL    HW128853   2.983   0.694   5.084  0.4218 -0.5484 -0.3333
 5797SOL    HW228854   3.007   0.567   5.036 -1.3568  0.3671 -0.9221
 5798SOL     OW28855   3.476   3.750   4.021  0.0911 -0.4230  0.3136
 5798SOL    HW128856   3.532   3.698   3.964  1.4647  1.4601 -0.0497
 5798SOL    HW228857   3.535   3.824   4.035 -0.7933  0.2760  0.3331
 5799SOL     OW28858   2.068   3.020  14.695 -0.1370 -0.5736 -0.1340
 5799SOL    HW128859   2.135   3.024  14.626  2.5601  0.7683  2.5399
 5799SOL    HW228860   2.096   2.939  14.738 -1.3817 -0.9813 -0.1063
 5800SOL     OW28861   2.358   1.085  15.088  0.1543 -0.3259  0.0017
 5800SOL    HW128862   2.302   1.036  15.148 -1.8592  3.6671  1.3929
 5800SOL    HW228863   2.308   1.164  15.069 -0.1414 -0.7810 -1.0653
 5801SOL     OW28864   1.861   4.412   7.354 -0.1174 -0.0223  0.4279
 5801SOL    HW128865   1.826   4.332   7.392  0.4072  0.5903  2.1612
 5801SOL    HW228866   1.942   4.386   7.310  0.9458  1.9512  1.2335
 5802SOL     OW28867   4.169   0.534   3.775 -0.0936  0.4824  0.1118
 5802SOL    HW128868   4.119   0.568   3.700 -1.4567  0.6881  1.1215
 5802SOL    HW228869   4.102   0.489   3.826 -2.3476  3.3750 -0.3474
 5803SOL     OW28870   0.038   2.563   4.096 -0.2387  0.0629 -0.5296
 5803SOL    HW128871   0.000   2.592   4.013 -1.5731 -1.4284 -0.4363
 5803SOL    HW228872   0.123   2.535   4.060 -1.2522 -2.0552 -1.2852
 5804SOL     OW28873   4.591   1.282   4.872 -0.4681 -0.3719  0.1921
 5804SOL    HW128874   4.585   1.307   4.780 -1.6677 -0.6770  0.1841
 5804SOL    HW228875   4.684   1.261   4.880 -0.1464  1.5643  1.4584
 5805SOL     OW28876   1.395   2.440   7.756 -0.0235 -0.2617  0.1918
 5805SOL    HW128877   1.402   2.504   7.827  3.1572 -0.1917 -0.1843
 5805SOL    HW228878   1.376   2.362   7.809 -0.6929  1.4246  2.4571
 5806SOL     OW28879   1.790   0.386   9.523  0.3067  0.1754  0.5244
 5806SOL    HW128880   1.808   0.429   9.606 -1.2214 -0.7409  1.3358
 5806SOL    HW228881   1.697   0.375   9.546  0.2426  0.1428  0.2565
 5807SOL     OW28882   2.348   3.310   3.161 -0.2523 -0.2973 -0.0392
 5807SOL    HW128883   2.377   3.363   3.234 -1.1898 -1.9750  1.5472
 5807SOL    HW228884   2.280   3.362   3.118  0.1849  0.0004 -0.3690
 5808SOL     OW28885   4.434   1.784  14.810  0.1627 -0.1718  0.3272
 5808SOL    HW128886   4.438   1.698  14.767 -0.2491 -0.1710  0.2882
 5808SOL    HW228887   4.473   1.847  14.750  1.9432 -0.7635  0.8682
 5809SOL     OW28888   4.699   1.071  11.991  0.2165  0.3862  0.0670
 5809SOL    HW128889   0.053   1.073  11.936 -0.0397  2.5372 -0.2099
 5809SOL    HW228890   0.014   1.096  12.075  0.5701  1.3351 -0.3877
 5810SOL     OW28891   3.622   3.498   5.875  0.0396  0.3991  0.1240
 5810SOL    HW128892   3.580   3.546   5.946  2.3049 -0.2003  1.8527
 5810SOL    HW228893   3.715   3.506   5.897 -0.5241  0.7413  2.3941
 5811SOL     OW28894   2.402   0.341   1.430 -0.2942 -0.0272 -0.0792
 5811SOL    HW128895   2.399   0.256   1.386  2.3332 -0.3635  0.3541
 5811SOL    HW228896   2.415   0.398   1.355 -1.0542  0.2772  0.0224
 5812SOL     OW28897   3.807   2.531   8.880 -0.4220 -0.5314 -0.0799
 5812SOL    HW128898   3.762   2.596   8.825 -0.0180 -1.0565 -1.0216
 5812SOL    HW228899   3.866   2.501   8.811 -0.0981  1.8070 -0.8144
 5813SOL     OW28900   0.086   1.329  17.422  0.2234  0.6714  0.2516
 5813SOL    HW128901   0.101   1.282  17.340 -0.0456  1.0975 -0.0436
 5813SOL    HW228902   0.180   1.330  17.437 -0.1590 -0.7997  2.6252
 5814SOL     OW28903   0.705   3.063  17.431  0.0102  0.5707 -0.0150
 5814SOL    HW128904   0.693   2.969  17.423  0.3847  0.4797  0.5435
 5814SOL    HW228905   0.758   3.078  17.352  1.5839  1.6044  1.2403
 5815SOL     OW28906   3.673   1.444   5.839  0.0437  0.4590 -0.0574
 5815SOL    HW128907   3.650   1.352   5.832  0.6912  0.3483 -0.6987
 5815SOL    HW228908   3.631   1.487   5.764 -1.1768 -0.9300 -0.1645
 5816SOL     OW28909   3.700   3.255   9.509  0.6473  0.2286 -0.4532
 5816SOL    HW128910   3.654   3.297   9.582 -0.3710  1.8485 -2.0337
 5816SOL    HW228911   3.785   3.298   9.505 -0.3313  1.9581 -2.8728
 5817SOL     OW28912   0.186   2.804   5.406 -0.4946 -0.3160 -0.1430
 5817SOL    HW128913   0.114   2.843   5.357  0.1511 -0.6509 -1.3458
 5817SOL    HW228914   0.256   2.808   5.341  0.7018 -2.2350  1.0265
 5818SOL     OW28915   3.158   4.202   5.219  0.2157  0.4117 -0.6323
 5818SOL    HW128916   3.208   4.284   5.218 -1.3498  1.3624 -0.7100
 5818SOL    HW228917   3.229   4.138   5.227  0.0459  0.1740 -1.0462
 5819SOL     OW28918   1.711   0.689   4.121  0.6289 -0.1345 -0.1954
 5819SOL    HW128919   1.679   0.621   4.062 -2.2516 -0.1039  1.3093
 5819SOL    HW228920   1.798   0.665   4.154 -0.2206 -2.5105  0.3161
 5820SOL     OW28921   3.678   4.113  11.512 -0.0355 -0.4912  0.6860
 5820SOL    HW128922   3.688   4.096  11.606 -1.6806 -3.3617  0.3358
 5820SOL    HW228923   3.595   4.073  11.486 -1.0831  2.3027 -0.3227
 5821SOL     OW28924   0.311   3.569   5.371  0.1108  0.5735 -0.0704
 5821SOL    HW128925   0.366   3.490   5.375 -0.9459 -0.0704  1.9338
 5821SOL    HW228926   0.257   3.541   5.298  0.1873  0.5756 -0.1278
 5822SOL     OW28927   4.157   2.229   4.748 -0.6915 -0.1250 -0.3451
 5822SOL    HW128928   4.062   2.235   4.738 -0.7921  0.2300  0.8313
 5822SOL    HW228929   4.183   2.162   4.684  0.1854  1.2284 -1.4279
 5823SOL     OW28930   0.684   0.565   8.630 -0.2103 -0.0784 -0.2388
 5823SOL    HW128931   0.726   0.633   8.578  0.4239  0.9314  1.6126
 5823SOL    HW228932   0.614   0.536   8.571 -0.6316  1.4014 -0.4748
 5824SOL     OW28933   2.456   4.671  13.703  0.1825  0.6994 -0.6923
 5824SOL    HW128934   2.462   4.585  13.745  1.7809  0.8957 -0.5111
 5824SOL    HW228935   2.383   4.649  13.645 -1.8466  0.7919  1.8184
 5825SOL     OW28936   4.170   2.568  12.675  0.7758 -0.7604 -0.2720
 5825SOL    HW128937   4.102   2.621  12.716 -0.7703 -3.5580  0.7716
 5825SOL    HW228938   4.138   2.549  12.587  1.2966  0.9464 -0.8218
 5826SOL     OW28939   0.774   0.210   6.078  0.0843 -0.0012 -0.3622
 5826SOL    HW128940   0.763   0.260   5.997  0.8144  1.3725  0.3979
 5826SOL    HW228941   0.690   0.212   6.124 -0.5538  1.4277 -1.5711
 5827SOL     OW28942   3.536   4.722  12.615 -0.3053 -0.5696  0.2494
 5827SOL    HW128943   3.541   0.024  12.707 -2.6414 -0.3120  0.3215
 5827SOL    HW228944   3.501   0.080  12.581  1.2541  1.7439  4.1963
 5828SOL     OW28945   1.578   0.941   3.285 -0.1357  0.1821 -0.1032
 5828SOL    HW128946   1.489   0.962   3.313  0.5618  0.0825  2.1376
 5828SOL    HW228947   1.565   0.860   3.236 -0.5421  0.8392 -1.1088
 5829SOL     OW28948   4.331   3.546   0.206 -0.4857 -0.7742  0.3849
 5829SOL    HW128949   4.377   3.630   0.203 -1.6835  0.0568  4.4987
 5829SOL    HW228950   4.360   3.506   0.124  0.0281 -0.3902  0.3775
 5830SOL     OW28951   3.607   2.036   5.874 -0.1052 -0.1649 -0.4710
 5830SOL    HW128952   3.667   1.967   5.902 -0.1349  0.3050  0.7514
 5830SOL    HW228953   3.636   2.035   5.782  0.6065  1.6806 -0.2688
 5831SOL     OW28954   4.181   4.480  13.372 -0.5431 -0.3995 -0.1107
 5831SOL    HW128955   4.133   4.436  13.302 -2.1224 -1.6405  1.7605
 5831SOL    HW228956   4.137   4.438  13.446 -0.3298 -1.2417 -0.4624
 5832SOL     OW28957   3.818   2.961   3.850  0.1709  0.3227 -0.2997
 5832SOL    HW128958   3.731   2.937   3.816 -0.0008 -0.1817  0.4928
 5832SOL    HW228959   3.826   3.047   3.808 -0.0635 -0.3321 -1.6958
 5833SOL     OW28960   0.346   1.014   1.827 -0.1520  0.0306 -0.5348
 5833SOL    HW128961   0.266   1.066   1.824  0.7233  1.5250  2.0441
 5833SOL    HW228962   0.308   0.926   1.827 -1.2790  0.5131 -0.4071
 5834SOL     OW28963   2.086   3.186   4.240 -0.4207 -0.1925  0.5434
 5834SOL    HW128964   2.085   3.227   4.327  0.0855  1.0522 -0.0384
 5834SOL    HW228965   1.999   3.211   4.208 -0.7120 -0.9945  0.7004
 5835SOL     OW28966   0.672   3.812   0.056  0.1639  0.5050 -0.6555
 5835SOL    HW128967   0.668   3.716   0.057  0.0857  0.4987 -1.2931
 5835SOL    HW228968   0.746   3.829   0.114  1.0553 -1.8011 -1.1261
 5836SOL     OW28969   0.120   0.326   4.507  0.0741 -0.4374 -0.0009
 5836SOL    HW128970   0.213   0.303   4.504  0.6667  1.8721  0.6956
 5836SOL    HW228971   0.122   0.388   4.433 -2.8298  1.1214  1.2406
 5837SOL     OW28972   3.283   4.708   0.387  0.0873  0.3588 -0.3593
 5837SOL    HW128973   3.199   0.019   0.358 -0.0972  2.0238  2.2265
 5837SOL    HW228974   3.273   4.615   0.406 -0.6578  0.0587 -2.1669
 5838SOL     OW28975   0.031   4.353  17.539 -0.5024  0.2067  0.1253
 5838SOL    HW128976   0.029   4.381  17.448  1.5250 -1.4523 -0.4144
 5838SOL    HW228977   4.670   4.315  17.557  0.1609 -2.0671 -1.5272
 5839SOL     OW28978   2.000   3.376   4.872 -0.6447  0.4012  0.7158
 5839SOL    HW128979   1.924   3.321   4.856 -1.7673  2.3572 -0.7259
 5839SOL    HW228980   1.975   3.468   4.862  1.2114  0.6963 -1.0352
 5840SOL     OW28981   2.077   3.901   7.524 -0.4093 -0.0787 -0.2982
 5840SOL    HW128982   2.147   3.966   7.521 -0.0311 -0.4335  0.7525
 5840SOL    HW228983   2.121   3.838   7.582  1.0476  0.3174 -0.9596
 5841SOL     OW28984   4.467   4.636  12.638  0.1884  0.5317  0.3384
 5841SOL    HW128985   4.432   4.550  12.663  0.6561 -0.5920 -2.9304
 5841SOL    HW228986   4.562   4.623  12.645  0.3117  2.2515  2.0316
 5842SOL     OW28987   3.731   3.705  14.121 -0.0407 -0.2233  0.0417
 5842SOL    HW128988   3.696   3.724  14.034 -1.1341  2.3307  1.0474
 5842SOL    HW228989   3.697   3.774  14.179  2.0233  0.4624  0.4395
 5843SOL     OW28990   2.508   4.445   9.181 -0.4038 -0.3044 -0.0051
 5843SOL    HW128991   2.513   4.356   9.147  1.6685 -0.1115 -0.1935
 5843SOL    HW228992   2.500   4.502   9.105  0.0302 -0.8916 -0.4906
 5844SOL     OW28993   1.981   4.724   5.353 -0.5408 -0.6896  0.1262
 5844SOL    HW128994   1.896   4.683   5.373 -0.0131 -1.7063  0.2793
 5844SOL    HW228995   2.044   4.653   5.363  1.0265  1.0378  2.4876
 5845SOL     OW28996   2.787   0.373   1.838  0.1628  0.4161 -0.3994
 5845SOL    HW128997   2.768   0.355   1.746 -1.4704  0.6859 -0.1094
 5845SOL    HW228998   2.882   0.359   1.843 -0.1117 -0.4305  2.5479
 5846SOL     OW28999   2.215   4.236  11.737 -0.0141 -0.1865  0.3679
 5846SOL    HW129000   2.148   4.299  11.710  1.1950  0.9285 -0.0441
 5846SOL    HW229001   2.168   4.152  11.735  1.2605 -0.8445 -1.3988
 5847SOL     OW29002   0.449   4.619   2.439  0.0778 -0.0090 -0.2048
 5847SOL    HW129003   0.430   4.622   2.346 -0.0402 -0.0913 -0.1836
 5847SOL    HW229004   0.435   4.527   2.461  0.0299 -0.1291 -0.7530
 5848SOL     OW29005   3.119   4.313   3.623  0.0792 -0.0429 -0.0222
 5848SOL    HW129006   3.043   4.324   3.679 -0.7333 -1.5375 -0.8350
 5848SOL    HW229007   3.171   4.253   3.677  0.8756 -0.4853 -1.2687
 5849SOL     OW29008   2.298   0.808   8.381  0.1682 -0.2286  0.0074
 5849SOL    HW129009   2.276   0.737   8.320  1.6323 -1.0012  0.3765
 5849SOL    HW229010   2.386   0.784   8.412  0.0685  0.3978  0.7683
 5850SOL     OW29011   0.377   0.655   4.041 -0.0786  0.2928 -0.3091
 5850SOL    HW129012   0.463   0.695   4.035  0.5595 -1.2525 -1.4066
 5850SOL    HW229013   0.397   0.598   4.115  0.7610  0.7351 -0.1958
 5851SOL     OW29014   2.895   0.859   3.920  0.2033  0.5108  0.2020
 5851SOL    HW129015   2.985   0.832   3.899  0.1129  1.5227 -1.5040
 5851SOL    HW229016   2.853   0.779   3.889 -2.3701  1.2342  1.8644
 5852SOL     OW29017   2.618   4.266   7.372 -0.3920  0.6919 -0.2294
 5852SOL    HW129018   2.659   4.208   7.435  0.8803  3.3852  1.4314
 5852SOL    HW229019   2.685   4.332   7.354 -0.7179  0.6962 -1.4448
 5853SOL     OW29020   3.855   3.429   2.400  0.1729  0.1020  0.2194
 5853SOL    HW129021   3.781   3.402   2.346 -0.0792  0.4356  0.3993
 5853SOL    HW229022   3.897   3.488   2.336  2.9203 -1.0954  0.9229
 5854SOL     OW29023   0.213   3.182   3.822  0.0586 -0.5395  0.0913
 5854SOL    HW129024   0.221   3.225   3.906 -1.5191 -0.9052  0.4389
 5854SOL    HW229025   0.118   3.172   3.815  0.0299 -1.6065  2.1552
 5855SOL     OW29026   0.919   0.221  11.733  0.0475  0.0027  0.2263
 5855SOL    HW129027   0.885   0.135  11.759  0.9344  0.2258  2.0957
 5855SOL    HW229028   0.855   0.241  11.664 -0.0639  0.4422  0.4556
 5856SOL     OW29029   1.562   2.680   6.783 -0.0021 -0.0904 -0.3441
 5856SOL    HW129030   1.565   2.775   6.794 -1.2401 -0.2545  1.3380
 5856SOL    HW229031   1.654   2.654   6.785 -0.4325 -1.7135 -1.1399
 5857SOL     OW29032   0.413   4.363   0.798 -0.3758 -0.1994 -0.1143
 5857SOL    HW129033   0.392   4.435   0.857 -1.5467 -0.0126 -0.7432
 5857SOL    HW229034   0.481   4.319   0.849 -0.3935  0.6112  0.6029
 5858SOL     OW29035   4.013   0.272  11.755  0.2992  0.8228  0.2411
 5858SOL    HW129036   4.085   0.210  11.747 -1.1269 -0.7396 -0.5466
 5858SOL    HW229037   4.012   0.295  11.663  1.1880 -0.5485 -0.1048
 5859SOL     OW29038   3.786   4.544   3.350  0.0980 -0.5044 -0.3058
 5859SOL    HW129039   3.822   4.495   3.276  0.5979  1.8948 -1.6270
 5859SOL    HW229040   3.845   4.619   3.346 -0.5474 -0.1197 -2.5972
 5860SOL     OW29041   3.996   1.966   5.562 -0.0628 -0.0622  0.2530
 5860SOL    HW129042   3.980   1.943   5.471 -1.1152  1.5896  0.0021
 5860SOL    HW229043   4.090   1.954   5.547 -0.2369 -0.0376 -0.8661
 5861SOL     OW29044   4.557   0.427   7.122  0.0933 -0.2570 -0.5171
 5861SOL    HW129045   4.587   0.511   7.157 -0.3622  0.9171 -2.9661
 5861SOL    HW229046   4.638   0.377   7.134 -0.3671 -0.3754  2.1854
 5862SOL     OW29047   1.991   0.663   8.343  0.7570 -0.0525  0.5578
 5862SOL    HW129048   2.081   0.652   8.313  1.4335 -0.3019  2.6152
 5862SOL    HW229049   2.015   0.707   8.425 -1.1082  1.3699  0.3308
 5863SOL     OW29050   0.341   3.785   1.348 -0.6914 -0.4070 -0.1915
 5863SOL    HW129051   0.352   3.697   1.384  0.7663  0.1809  0.7814
 5863SOL    HW229052   0.376   3.837   1.420 -1.2000  0.4413 -0.5609
 5864SOL     OW29053   3.291   3.433  17.089  0.3652 -0.4146 -0.0285
 5864SOL    HW129054   3.319   3.350  17.129  1.7603  0.7308  1.3817
 5864SOL    HW229055   3.308   3.426  16.995 -0.0614  0.8700 -0.1944
 5865SOL     OW29056   0.429   3.651   2.858  0.1461 -0.8041  0.1251
 5865SOL    HW129057   0.369   3.592   2.813  1.1815 -1.4045 -0.4583
 5865SOL    HW229058   0.388   3.641   2.943 -0.8530  0.8239 -0.1572
 5866SOL     OW29059   0.649   3.340   1.349  0.2835 -0.0630  0.3266
 5866SOL    HW129060   0.590   3.280   1.394 -2.0665 -0.1995 -2.9878
 5866SOL    HW229061   0.676   3.402   1.416  0.9659  0.3304 -0.3089
 5867SOL     OW29062   2.813   1.106   5.677 -0.0801 -0.2284  0.2974
 5867SOL    HW129063   2.867   1.184   5.688 -1.6216  0.6852  1.4099
 5867SOL    HW229064   2.734   1.145   5.714 -1.0986 -1.7249 -0.2999
 5868SOL     OW29065   2.165   3.877  12.083  0.1902  0.6559 -0.5995
 5868SOL    HW129066   2.192   3.960  12.044  0.6655  1.0518  0.5798
 5868SOL    HW229067   2.073   3.902  12.092  0.1505 -0.3235  1.6117
 5869SOL     OW29068   1.623   3.795   9.464 -0.2820  0.3890  0.3187
 5869SOL    HW129069   1.632   3.737   9.388 -0.2143 -0.2045  0.7809
 5869SOL    HW229070   1.698   3.853   9.449  0.3045 -0.1724  1.1060
 5870SOL     OW29071   4.565   0.429   3.829 -0.5925 -0.4987  0.7654
 5870SOL    HW129072   4.494   0.372   3.799 -1.8457  0.8674  1.1244
 5870SOL    HW229073   4.546   0.440   3.922 -0.0492 -0.9607  0.9334
 5871SOL     OW29074   2.457   4.122   1.537  0.3152 -0.1835  1.1809
 5871SOL    HW129075   2.510   4.043   1.546  1.0335  0.2024  0.2585
 5871SOL    HW229076   2.527   4.186   1.524 -0.1345  0.2653  0.9796
 5872SOL     OW29077   4.686   0.661   7.158  0.8070 -0.3693 -0.1725
 5872SOL    HW129078   4.641   0.715   7.223  1.3494 -1.7672  1.3706
 5872SOL    HW229079   4.666   0.695   7.071 -1.3474 -0.2744  0.3502
 5873SOL     OW29080   4.515   2.962  10.295  0.4704  0.0023 -0.2321
 5873SOL    HW129081   4.557   3.048  10.297  3.9265 -1.6956  0.1801
 5873SOL    HW229082   4.441   2.975  10.355 -1.1827  0.1977 -2.2948
 5874SOL     OW29083   2.838   1.421   5.436 -0.2626 -0.4637  0.0133
 5874SOL    HW129084   2.893   1.391   5.508 -0.2393  0.2179  0.2760
 5874SOL    HW229085   2.882   1.504   5.419  1.2643 -1.1333  0.7428
 5875SOL     OW29086   4.515   4.361  11.676  0.0933 -0.5645  0.0413
 5875SOL    HW129087   4.457   4.387  11.605  1.8234  1.5167 -0.6120
 5875SOL    HW229088   4.587   4.311  11.639  0.0174 -0.3353 -0.4101
 5876SOL     OW29089   1.417   0.574  13.784  0.0871 -0.4158  0.0964
 5876SOL    HW129090   1.322   0.577  13.773  0.4226 -1.7838 -3.0437
 5876SOL    HW229091   1.416   0.620  13.868  0.2931 -1.8773  0.8931
 5877SOL     OW29092   3.543   0.903   6.912  0.1335 -0.5087 -0.9740
 5877SOL    HW129093   3.471   0.961   6.890  0.9804  0.3060 -1.6085
 5877SOL    HW229094   3.493   0.834   6.956 -1.9770  1.3589 -0.5036
 5878SOL     OW29095   4.298   3.005  10.466 -0.4417 -0.5432  0.0267
 5878SOL    HW129096   4.259   2.963  10.542 -0.9390  0.0401  0.0945
 5878SOL    HW229097   4.229   2.997  10.400 -2.3714  3.5493  1.5021
 5879SOL     OW29098   3.131   1.896  15.734 -0.2636  0.1456  0.1985
 5879SOL    HW129099   3.134   1.883  15.639 -0.6341 -1.9503  0.4803
 5879SOL    HW229100   3.220   1.879  15.763 -0.2595 -2.9395 -1.6127
 5880SOL     OW29101   4.433   1.579   8.079  0.9264 -0.3231 -0.4756
 5880SOL    HW129102   4.444   1.654   8.136 -0.5264 -0.1399 -0.4223
 5880SOL    HW229103   4.369   1.526   8.127  0.4714  1.0416  0.4172
 5881SOL     OW29104   2.276   3.065   5.391 -0.0255 -0.1067  0.9326
 5881SOL    HW129105   2.352   3.024   5.349 -0.2883  0.5822 -0.2268
 5881SOL    HW229106   2.206   3.000   5.385  1.3049 -1.7046  3.2396
 5882SOL     OW29107   1.538   4.650   7.235  0.0629 -0.4387 -0.2492
 5882SOL    HW129108   1.490   4.661   7.154  0.2418  2.3388  0.0130
 5882SOL    HW229109   1.557   0.011   7.275 -1.0793 -0.4144  0.2193
 5883SOL     OW29110   1.644   0.733   0.313 -0.7001 -0.7922  0.0915
 5883SOL    HW129111   1.644   0.653   0.261 -0.9224 -0.5041 -0.3487
 5883SOL    HW229112   1.632   0.691   0.398 -0.0961 -2.9098 -0.8541
 5884SOL     OW29113   1.851   1.844  10.972 -0.0565 -0.0523  0.5276
 5884SOL    HW129114   1.800   1.764  10.959 -1.8523  0.8235  2.1918
 5884SOL    HW229115   1.924   1.813  11.027 -2.4187 -3.3997  1.7348
 5885SOL     OW29116   0.365   3.440   8.090  0.4303  0.6289 -0.0901
 5885SOL    HW129117   0.456   3.430   8.062  0.7264  0.0286  1.0963
 5885SOL    HW229118   0.374   3.383   8.167 -1.4276  1.0090  0.4135
 5886SOL     OW29119   2.017   2.588   2.253 -0.1693 -0.3586 -0.1358
 5886SOL    HW129120   2.015   2.509   2.307  0.1137 -0.6144 -0.4988
 5886SOL    HW229121   2.078   2.643   2.302 -0.3998 -0.0370 -0.2101
 5887SOL     OW29122   0.160   3.445  12.907  0.1583 -0.5375 -0.0648
 5887SOL    HW129123   0.078   3.444  12.956  1.1837  2.0812  1.6823
 5887SOL    HW229124   0.206   3.377  12.956  2.4680  0.9614 -0.1689
 5888SOL     OW29125   3.206   1.574   2.839  0.2602 -0.0954  0.2489
 5888SOL    HW129126   3.290   1.539   2.867  0.2339 -0.1254  0.2898
 5888SOL    HW229127   3.215   1.598   2.746  0.1975  0.7374  0.4601
 5889SOL     OW29128   1.391   4.535  12.566 -0.2330  0.1391 -0.2851
 5889SOL    HW129129   1.333   4.470  12.526 -0.4444  0.6523 -0.8037
 5889SOL    HW229130   1.372   4.612  12.513 -0.1935  0.5556  0.3025
 5890SOL     OW29131   4.103   1.382  11.722  0.1659  0.2670  0.2559
 5890SOL    HW129132   4.149   1.352  11.644  1.6195 -0.7920  1.5129
 5890SOL    HW229133   4.181   1.373  11.777 -0.0899 -1.1636  0.3997
 5891SOL     OW29134   0.895   4.312   2.760 -0.6040 -0.1195 -0.4693
 5891SOL    HW129135   0.984   4.282   2.742  0.2387  1.7630  0.5497
 5891SOL    HW229136   0.923   4.382   2.818 -0.2897 -0.0040 -0.7592
 5892SOL     OW29137   0.964   1.570   4.110  0.5028 -0.3869 -0.4547
 5892SOL    HW129138   1.037   1.603   4.058 -0.2753 -1.9393 -2.5249
 5892SOL    HW229139   0.945   1.651   4.157 -1.3924 -0.8113 -0.4896
 5893SOL     OW29140   3.115   0.978   9.403  0.3875 -0.4580 -0.1754
 5893SOL    HW129141   3.084   0.905   9.349  0.2410 -0.9978  0.6373
 5893SOL    HW229142   3.064   0.953   9.480  0.4091 -1.4414 -0.4831
 5894SOL     OW29143   1.989   0.667  11.194  0.7576 -0.8227  0.0392
 5894SOL    HW129144   1.906   0.696  11.155  1.6425  1.0623 -0.4413
 5894SOL    HW229145   2.046   0.699  11.124  0.0793  0.9369  0.2877
 5895SOL     OW29146   3.956   2.564   4.534  0.3873  0.4705 -0.1746
 5895SOL    HW129147   3.899   2.614   4.593  0.2358  0.4098 -0.2682
 5895SOL    HW229148   3.971   2.484   4.584 -2.7442 -0.4308 -0.6806
 5896SOL     OW29149   0.644   2.292   6.001 -0.1150 -0.3792  0.0927
 5896SOL    HW129150   0.733   2.312   5.970 -0.2173 -0.2128 -0.0911
 5896SOL    HW229151   0.620   2.370   6.052 -2.2865 -1.0940  0.1316
 5897SOL     OW29152   2.719   3.306   8.824 -0.0037  0.1135  0.2450
 5897SOL    HW129153   2.807   3.270   8.834 -0.7146 -1.5159  0.5606
 5897SOL    HW229154   2.667   3.227   8.807 -1.9244  1.3163  0.4655
 5898SOL     OW29155   2.044   1.839   8.178 -0.3295  0.3177  0.5716
 5898SOL    HW129156   2.050   1.912   8.116  0.9606 -0.0045  0.3189
 5898SOL    HW229157   1.951   1.816   8.181 -0.2379 -0.2644 -0.9643
 5899SOL     OW29158   1.072   3.938   8.433 -0.6142  0.1406  0.0510
 5899SOL    HW129159   1.084   4.000   8.505  1.3283 -1.6873  1.3028
 5899SOL    HW229160   0.993   3.886   8.450  1.2204 -2.5515  0.2509
 5900SOL     OW29161   2.600   4.525  13.173  0.0735  0.4645 -0.0616
 5900SOL    HW129162   2.551   4.578  13.110  0.0510 -0.0997 -0.5178
 5900SOL    HW229163   2.536   4.465  13.211  1.6494 -0.2203  1.5230
 5901SOL     OW29164   1.269   2.476   0.787  0.0825 -0.5260 -0.1076
 5901SOL    HW129165   1.186   2.429   0.796  0.2726 -0.7171  0.6637
 5901SOL    HW229166   1.232   2.541   0.727  0.3336 -1.1391 -0.9310
 5902SOL     OW29167   0.449   3.995  17.523  0.3397 -0.3887 -0.4514
 5902SOL    HW129168   0.392   3.919  17.507 -0.5946  0.3414 -0.5902
 5902SOL    HW229169   0.418   4.048  17.450  0.3339  0.4140  0.1389
 5903SOL     OW29170   3.993   4.192   2.721  0.1826 -0.7567  0.2285
 5903SOL    HW129171   3.982   4.284   2.695 -2.3206 -0.5943  1.9100
 5903SOL    HW229172   4.082   4.188   2.686 -0.1931 -1.7259 -0.6289
 5904SOL     OW29173   3.795   2.456  13.156 -0.2929  0.3523 -0.4153
 5904SOL    HW129174   3.879   2.410  13.149 -0.3246 -0.3764  3.6270
 5904SOL    HW229175   3.785   2.504  13.074 -0.0003 -0.9376 -1.2100
 5905SOL     OW29176   3.281   3.536  14.899 -0.0686 -0.1421 -0.2310
 5905SOL    HW129177   3.352   3.476  14.919 -1.8733 -2.7302 -1.4777
 5905SOL    HW229178   3.202   3.481  14.900 -0.8024  0.9213  0.2518
 5906SOL     OW29179   3.204   1.943   2.781  0.3173 -0.0660  0.6491
 5906SOL    HW129180   3.227   2.032   2.756  1.3220 -0.2605  0.8760
 5906SOL    HW229181   3.159   1.907   2.704 -0.5992 -0.7450  1.5012
 5907SOL     OW29182   2.892   4.158   3.225  0.1323  0.1055  0.3521
 5907SOL    HW129183   2.906   4.203   3.308 -1.8517 -1.0390  1.3239
 5907SOL    HW229184   2.842   4.216   3.168 -1.0558 -0.3998  0.8872
 5908SOL     OW29185   2.356   0.923   3.595  0.5748  0.1902 -0.3929
 5908SOL    HW129186   2.397   0.887   3.673  1.1167  1.2622 -0.1862
 5908SOL    HW229187   2.344   0.842   3.545 -2.2533  0.5507 -0.3277
 5909SOL     OW29188   0.446   2.557  12.251 -0.1874 -0.0656 -0.0958
 5909SOL    HW129189   0.537   2.552  12.278 -0.5252  1.1157  1.2801
 5909SOL    HW229190   0.415   2.476  12.292 -2.7395  1.2384  0.5749
 5910SOL     OW29191   0.625   0.019   1.211 -0.6969 -0.0726 -0.5259
 5910SOL    HW129192   0.647   4.651   1.220  1.3390  0.4461 -0.2943
 5910SOL    HW229193   0.700   0.043   1.157 -2.8714 -0.0390 -3.5963
 5911SOL     OW29194   2.981   1.609   7.231 -0.2538 -0.4046 -0.0755
 5911SOL    HW129195   2.923   1.680   7.203 -1.0007 -1.1282 -0.3616
 5911SOL    HW229196   2.972   1.616   7.326 -0.1613 -2.0863  0.0565
 5912SOL     OW29197   1.756   4.162   5.513  0.1825 -0.2832 -0.0631
 5912SOL    HW129198   1.693   4.090   5.519 -0.4875  0.4108  1.0893
 5912SOL    HW229199   1.737   4.206   5.430  1.9030 -1.5812 -1.1581
 5913SOL     OW29200   3.103   2.611   9.581  0.5345 -0.1406 -0.1718
 5913SOL    HW129201   3.182   2.628   9.529  1.0979  0.3341  0.8343
 5913SOL    HW229202   3.133   2.529   9.622  2.1223 -0.7049 -2.4846
 5914SOL     OW29203   2.315   0.852  13.199 -0.3214  0.6376 -0.2505
 5914SOL    HW129204   2.252   0.882  13.264 -2.5837 -0.7438 -1.8390
 5914SOL    HW229205   2.401   0.884  13.227  0.0662 -1.2748  0.7626
 5915SOL     OW29206   0.403   2.984   8.753 -0.1021  0.0904  0.1904
 5915SOL    HW129207   0.399   2.917   8.822 -2.2262 -0.0411 -0.0535
 5915SOL    HW229208   0.331   3.040   8.784  1.2556  1.3177  1.1282
 5916SOL     OW29209   0.017   1.574   5.023  0.2269 -0.0570  0.2625
 5916SOL    HW129210   0.093   1.626   4.999  0.1798  0.2965  0.8729
 5916SOL    HW229211   0.036   1.533   5.107 -0.2592 -0.9339 -0.0588
 5917SOL     OW29212   1.450   4.169   8.825 -0.2218  0.2996  0.3636
 5917SOL    HW129213   1.482   4.231   8.759  1.5340 -2.3824 -1.2762
 5917SOL    HW229214   1.364   4.148   8.791  0.2846  0.2826 -0.8821
 5918SOL     OW29215   1.655   0.979   0.216 -0.0039 -0.1218  0.4700
 5918SOL    HW129216   1.629   0.889   0.236 -0.4823 -0.5615 -2.1747
 5918SOL    HW229217   1.720   0.963   0.148 -0.0500 -2.1744  0.8841
 5919SOL     OW29218   1.766   4.632   4.328  0.6229  0.0535 -0.1225
 5919SOL    HW129219   1.821   4.697   4.372 -0.2307  1.4006 -1.0500
 5919SOL    HW229220   1.684   4.647   4.376  0.2959  0.9361 -0.9684
 5920SOL     OW29221   2.292   4.551  17.644 -0.1649 -0.0886  0.2147
 5920SOL    HW129222   2.230   4.509   0.003  1.4075  0.0392  1.9833
 5920SOL    HW229223   2.369   4.496  17.660 -0.9184 -1.3751 -0.6063
 5921SOL     OW29224   2.422   3.827  14.723 -0.2684 -0.2146 -0.2823
 5921SOL    HW129225   2.484   3.843  14.793  1.1049 -2.7679 -0.9224
 5921SOL    HW229226   2.374   3.907  14.743  0.1068 -0.0437 -0.0808
 5922SOL     OW29227   2.423   1.481   3.483 -0.1947 -0.1378 -0.0175
 5922SOL    HW129228   2.423   1.387   3.503  0.2022 -0.7120 -2.6190
 5922SOL    HW229229   2.484   1.478   3.409  0.5524  0.4205  0.5713
 5923SOL     OW29230   2.687   3.598   8.956  0.1131  0.5834  0.3893
 5923SOL    HW129231   2.722   3.580   9.043  0.1227  0.8434  0.4393
 5923SOL    HW229232   2.631   3.522   8.940 -0.3915  0.2958  3.6687
 5924SOL     OW29233   1.595   0.586   1.973 -0.2583 -0.5094  0.3429
 5924SOL    HW129234   1.573   0.567   1.882  0.9717  0.0688 -0.0694
 5924SOL    HW229235   1.625   0.676   1.978 -1.2939 -0.1902  0.9442
 5925SOL     OW29236   1.339   3.140   2.064  0.3983 -0.4144 -0.3891
 5925SOL    HW129237   1.382   3.127   1.979  0.9684 -0.7808 -0.0383
 5925SOL    HW229238   1.253   3.101   2.051 -0.1933  0.6547  0.3203
 5926SOL     OW29239   3.918   3.123   6.075  0.1346 -0.2541 -0.2839
 5926SOL    HW129240   3.911   3.214   6.105  2.1003  0.0580 -0.7974
 5926SOL    HW229241   3.891   3.078   6.156 -0.1575 -0.5115 -0.5247
 5927SOL     OW29242   3.540   2.096  14.300  0.1445  0.0079  0.1060
 5927SOL    HW129243   3.537   2.173  14.243 -2.4814  0.8691  1.4197
 5927SOL    HW229244   3.553   2.017  14.248 -0.6418 -0.6335  0.8858
 5928SOL     OW29245   1.223   3.200  17.560  0.1704  0.4993 -0.2798
 5928SOL    HW129246   1.178   3.197  17.475  0.9893  0.2379 -0.7035
 5928SOL    HW229247   1.298   3.254  17.539  0.9523  0.4643  2.5004
 5929SOL     OW29248   0.801   2.868   2.634 -0.2004  0.4940  0.7393
 5929SOL    HW129249   0.727   2.875   2.694 -0.0815  0.7977  0.8523
 5929SOL    HW229250   0.744   2.836   2.564  0.2489  1.6573 -0.1423
 5930SOL     OW29251   3.392   1.223   0.705  0.0481  0.2327  0.4266
 5930SOL    HW129252   3.398   1.303   0.653 -1.0760 -0.7090 -1.1658
 5930SOL    HW229253   3.315   1.181   0.665 -0.1995  0.4617  0.6689
 5931SOL     OW29254   2.418   0.691   7.341 -0.2031 -0.0063  0.1821
 5931SOL    HW129255   2.443   0.688   7.434 -0.5882  0.5465  0.3032
 5931SOL    HW229256   2.457   0.615   7.300 -1.1544 -1.3073  1.6783
 5932SOL     OW29257   4.570   0.530   2.591  0.3303 -0.7883  0.8390
 5932SOL    HW129258   4.571   0.623   2.567  0.2849 -0.5386  1.8073
 5932SOL    HW229259   4.520   0.530   2.672  0.8747  1.4792  1.1867
 5933SOL     OW29260   3.282   1.998   0.433  0.5840 -0.5113  0.0724
 5933SOL    HW129261   3.260   1.935   0.365 -1.7063 -0.5690  0.8532
 5933SOL    HW229262   3.376   1.981   0.441  1.1690  1.7484 -1.7260
 5934SOL     OW29263   1.685   4.206  15.696  0.4330  0.0088  0.2567
 5934SOL    HW129264   1.601   4.252  15.686  0.1739 -0.5990 -0.3857
 5934SOL    HW229265   1.725   4.242  15.617 -0.6841  1.0630  0.1682
 5935SOL     OW29266   1.639   0.013  10.054 -0.3233  0.4031 -0.3876
 5935SOL    HW129267   1.647   4.713   9.962 -1.2271 -0.2056 -0.3084
 5935SOL    HW229268   1.673   0.102  10.053 -0.5735  0.4763 -2.7281
 5936SOL     OW29269   0.926   1.208   6.729  0.3487 -0.4372  0.6810
 5936SOL    HW129270   0.952   1.171   6.813 -0.8647 -0.5457  1.0118
 5936SOL    HW229271   0.838   1.239   6.752  0.4835  0.1199  0.4460
 5937SOL     OW29272   0.105   0.438   2.250  0.1978  0.0469 -0.3242
 5937SOL    HW129273   0.101   0.412   2.342 -0.3970  0.7276 -0.1560
 5937SOL    HW229274   0.113   0.533   2.263  2.3300 -0.4782  2.1660
 5938SOL     OW29275   2.507   0.331   9.049  0.4916 -0.3546 -0.1446
 5938SOL    HW129276   2.419   0.299   9.030  0.3805 -0.5390  0.6496
 5938SOL    HW229277   2.488   0.347   9.142 -1.7962 -1.2313 -0.4601
 5939SOL     OW29278   2.482   2.557  16.463  0.1543 -0.6012  0.1461
 5939SOL    HW129279   2.555   2.606  16.501  1.5599 -0.8900 -2.1880
 5939SOL    HW229280   2.406   2.594  16.509  1.1900  1.4721  0.1930
 5940SOL     OW29281   0.257   0.795   8.384  0.3442 -0.1330 -0.1915
 5940SOL    HW129282   0.352   0.798   8.378  0.1585  2.3367 -2.3812
 5940SOL    HW229283   0.235   0.879   8.342  1.1310  0.2352  0.1395
 5941SOL     OW29284   4.423   3.555  16.173 -0.1336  0.3643  0.2941
 5941SOL    HW129285   4.505   3.565  16.220  0.2076  0.1340 -0.2547
 5941SOL    HW229286   4.401   3.462  16.184 -0.3808  0.2367 -1.1675
 5942SOL     OW29287   1.227   4.671   0.825 -0.0094 -0.5058 -0.4730
 5942SOL    HW129288   1.243   0.023   0.880  4.6844 -0.2526 -2.1419
 5942SOL    HW229289   1.228   4.601   0.890 -1.4805  0.6977  0.8276
 5943SOL     OW29290   2.326   0.522   8.554 -0.2161 -0.4593  0.0249
 5943SOL    HW129291   2.244   0.485   8.587  0.4393 -2.3821 -0.5209
 5943SOL    HW229292   2.321   0.595   8.616 -0.5751  0.6279 -1.2977
 5944SOL     OW29293   0.309   1.053   5.786  0.3566 -0.0341  0.7438
 5944SOL    HW129294   0.317   1.143   5.752 -0.6216 -1.4811 -3.3413
 5944SOL    HW229295   0.396   1.046   5.823  1.0415  2.8527 -0.3042
 5945SOL     OW29296   0.211   2.464   2.638 -0.0101 -0.0476 -0.1157
 5945SOL    HW129297   0.204   2.497   2.548 -2.5310 -2.5092 -0.8498
 5945SOL    HW229298   0.298   2.428   2.624  1.0007  2.0588  0.9246
 5946SOL     OW29299   3.979   3.746   3.380 -0.8479 -0.4031 -0.1190
 5946SOL    HW129300   3.895   3.708   3.355  0.3082 -3.7546  1.1273
 5946SOL    HW229301   3.969   3.840   3.362  1.6758  0.2045  1.6124
 5947SOL     OW29302   3.874   2.122   4.289  0.2779  0.1999  0.2301
 5947SOL    HW129303   3.898   2.033   4.266  0.1764  0.3261 -0.3616
 5947SOL    HW229304   3.957   2.163   4.264  0.5235 -0.6130 -0.2748
 5948SOL     OW29305   4.254   1.457   4.281  0.3900 -0.2622  0.0005
 5948SOL    HW129306   4.243   1.386   4.345 -0.4476 -1.8257 -1.8363
 5948SOL    HW229307   4.265   1.534   4.336  1.2385  0.0252 -0.5782
 5949SOL     OW29308   4.167   2.707   2.671 -0.1134  0.4498  0.2937
 5949SOL    HW129309   4.163   2.649   2.594  1.8704 -1.3697  1.5842
 5949SOL    HW229310   4.193   2.647   2.741 -0.9112 -0.8718 -0.5313
 5950SOL     OW29311   4.124   1.998   7.649 -0.2405 -0.4640  0.5004
 5950SOL    HW129312   4.130   2.043   7.733 -2.7591  1.5655 -0.3970
 5950SOL    HW229313   4.198   1.938   7.657  0.2696  0.1060  0.0556
 5951SOL     OW29314   2.554   3.293   6.828  0.3397 -0.0628  0.5577
 5951SOL    HW129315   2.645   3.278   6.853  0.1822 -1.3538  0.3612
 5951SOL    HW229316   2.541   3.380   6.865 -3.9001 -0.2496 -0.5006
 5952SOL     OW29317   2.090   3.725   8.967 -0.3532  0.1500  0.2086
 5952SOL    HW129318   2.049   3.645   8.933 -0.6023 -0.0311  0.9305
 5952SOL    HW229319   2.030   3.797   8.948  0.4635  0.7527 -0.1253
 5953SOL     OW29320   1.932   2.457   2.584 -0.0894 -0.0498  0.2526
 5953SOL    HW129321   1.967   2.386   2.531 -1.6385  0.7613 -1.8635
 5953SOL    HW229322   1.839   2.455   2.564  0.0799  0.5744 -0.6178
 5954SOL     OW29323   4.383   3.689   1.401 -0.1332  0.2966 -0.8171
 5954SOL    HW129324   4.449   3.624   1.377  1.0117  1.4700 -0.8755
 5954SOL    HW229325   4.427   3.734   1.474  1.4316 -2.5388  0.0185
 5955SOL     OW29326   4.086   0.948   8.419  0.1792 -0.3889  0.2495
 5955SOL    HW129327   4.078   0.944   8.514  0.7719 -2.7078  0.2016
 5955SOL    HW229328   4.161   0.889   8.408  0.1445  0.0578 -2.5945
 5956SOL     OW29329   2.962   3.153   8.515  0.7372  0.2228  0.4961
 5956SOL    HW129330   3.005   3.178   8.596  0.7539 -1.5392  1.0416
 5956SOL    HW229331   3.021   3.193   8.452  2.3450 -0.9104  1.3017
 5957SOL     OW29332   0.940   4.135   4.543  0.0776  0.7861 -0.8801
 5957SOL    HW129333   1.030   4.101   4.546 -1.2170 -2.7326 -1.4422
 5957SOL    HW229334   0.942   4.229   4.558 -2.9862  0.3360  2.2757
 5958SOL     OW29335   1.337   1.360  12.605 -0.5980 -0.0779 -0.6310
 5958SOL    HW129336   1.393   1.291  12.640  1.0156  1.8561  0.6576
 5958SOL    HW229337   1.262   1.303  12.591 -1.1516  0.6881 -0.7998
 5959SOL     OW29338   2.635   0.677  11.915  0.1221 -0.1871 -0.0919
 5959SOL    HW129339   2.675   0.606  11.864  1.2630  0.0277  0.5062
 5959SOL    HW229340   2.559   0.626  11.945  0.0877 -0.0144  0.1137
 5960SOL     OW29341   1.072   1.423   0.998  0.0971  0.5441  0.1201
 5960SOL    HW129342   0.999   1.380   1.044  1.7609 -1.2980  1.0543
 5960SOL    HW229343   1.071   1.374   0.916 -0.6289  1.5248 -0.4461
 5961SOL     OW29344   2.325   4.495   8.831  0.1495 -0.3014 -0.0151
 5961SOL    HW129345   2.358   4.416   8.875  2.3379  0.2145 -0.7768
 5961SOL    HW229346   2.242   4.504   8.879  1.3291  0.4438  1.8716
 5962SOL     OW29347   0.699   2.364   3.828 -0.1613 -0.5203  0.6307
 5962SOL    HW129348   0.764   2.406   3.883  0.0634 -0.8808  0.6384
 5962SOL    HW229349   0.744   2.282   3.805  0.0818 -0.2748  0.2380
 5963SOL     OW29350   4.071   4.259   7.671 -0.0010 -0.1977 -0.4467
 5963SOL    HW129351   3.979   4.234   7.666 -0.3685  1.3997 -1.7261
 5963SOL    HW229352   4.103   4.215   7.750  0.5393  0.2065 -0.4440
 5964SOL     OW29353   3.473   3.987   6.498  0.0365 -0.2871 -0.3083
 5964SOL    HW129354   3.480   4.005   6.405 -0.3080  0.6357 -0.1516
 5964SOL    HW229355   3.532   3.913   6.511  1.8374  1.1388 -0.3859
 5965SOL     OW29356   3.308   2.378   4.733 -0.1381 -0.2587 -0.2775
 5965SOL    HW129357   3.248   2.435   4.686 -1.5036 -0.7859  0.8416
 5965SOL    HW229358   3.377   2.362   4.669  1.1465 -0.3125  1.1129
 5966SOL     OW29359   1.488   4.338   3.819 -0.1942 -0.5027  0.0854
 5966SOL    HW129360   1.435   4.272   3.774 -0.4805 -0.0536 -0.2387
 5966SOL    HW229361   1.433   4.413   3.841  1.8850  1.5456 -1.6451
 5967SOL     OW29362   0.483   4.209   4.962  0.0303  0.0857 -0.0466
 5967SOL    HW129363   0.477   4.305   4.966  2.0118  0.2230 -0.6291
 5967SOL    HW229364   0.448   4.183   5.048  1.2902 -0.1091  0.4069
 5968SOL     OW29365   2.407   4.056  15.041  0.1683 -0.3978  0.0515
 5968SOL    HW129366   2.462   4.134  15.040  0.0635 -0.3050  1.6543
 5968SOL    HW229367   2.476   3.992  15.022  0.2083 -0.2901 -0.1698
 5969SOL     OW29368   1.375   4.130   2.066  0.1303 -0.1206  0.0950
 5969SOL    HW129369   1.448   4.070   2.079  0.2728 -0.3835 -1.9069
 5969SOL    HW229370   1.385   4.197   2.133 -0.7263  0.2296 -0.1335
 5970SOL     OW29371   1.430   4.673   9.658  0.1086 -0.2588  0.9190
 5970SOL    HW129372   1.386   4.646   9.578  0.6774  2.1553 -0.2282
 5970SOL    HW229373   1.358   4.692   9.718 -2.3355  0.2838 -2.2018
 5971SOL     OW29374   3.722   0.404   3.949  0.0394  0.3556  0.1908
 5971SOL    HW129375   3.728   0.491   3.989  1.2226 -0.0133  0.8104
 5971SOL    HW229376   3.629   0.383   3.959 -0.0087 -0.4764 -1.9864
 5972SOL     OW29377   2.700   1.457   3.820  0.3252 -0.1051 -0.3066
 5972SOL    HW129378   2.755   1.414   3.754 -1.0592  1.7058 -2.6179
 5972SOL    HW229379   2.774   1.471   3.879 -0.1050  1.7464 -0.2087
 5973SOL     OW29380   4.469   0.236   3.515  0.6897 -0.1686 -0.1507
 5973SOL    HW129381   4.470   0.141   3.501  1.7323 -0.4590  1.8270
 5973SOL    HW229382   4.561   0.257   3.501  0.9618 -0.1359  1.6749
 5974SOL     OW29383   4.505   2.664   4.854  0.4779  0.1215  0.2332
 5974SOL    HW129384   4.507   2.576   4.893  3.4989 -0.9044 -2.1763
 5974SOL    HW229385   4.500   2.637   4.763 -1.9386  1.0285  0.1175
 5975SOL     OW29386   0.002   2.158   7.415 -0.1540  0.6646  0.7845
 5975SOL    HW129387   4.698   2.103   7.341  2.5827  2.0037 -1.2594
 5975SOL    HW229388   4.673   2.234   7.395  0.2354  0.4842 -0.9751
 5976SOL     OW29389   2.225   0.198   5.612 -0.2589  0.4791 -0.2954
 5976SOL    HW129390   2.263   0.286   5.613 -0.3315  0.5173 -2.6902
 5976SOL    HW229391   2.182   0.200   5.527 -0.3915 -1.1531 -0.2704
 5977SOL     OW29392   2.324   4.717   5.744  0.2189 -0.0249  0.0312
 5977SOL    HW129393   2.354   4.668   5.668 -0.1911 -1.2785  0.6845
 5977SOL    HW229394   2.294   0.075   5.704  1.5287  0.5355  0.1857
 5978SOL     OW29395   4.380   0.000  13.729  0.0367 -0.2391 -0.8492
 5978SOL    HW129396   4.301   4.684  13.766  0.1268  0.5380  0.1761
 5978SOL    HW229397   4.376   0.083  13.777  1.8549  0.0184 -1.1480
 5979SOL     OW29398   0.619   3.277   7.545  0.0595 -0.6918 -0.7470
 5979SOL    HW129399   0.588   3.216   7.478 -2.0830 -2.2245  1.6343
 5979SOL    HW229400   0.707   3.291   7.512  0.0971  1.0127  0.0868
 5980SOL     OW29401   3.055   2.306   3.895 -0.3808 -0.6302 -0.0913
 5980SOL    HW129402   3.092   2.383   3.939  0.5737 -0.1250 -1.7804
 5980SOL    HW229403   3.122   2.266   3.840 -0.3054 -0.1974 -0.3155
 5981SOL     OW29404   4.333   0.308   6.091 -0.1252  0.2503 -0.5920
 5981SOL    HW129405   4.357   0.395   6.122  1.7200 -0.6484  0.4725
 5981SOL    HW229406   4.293   0.274   6.172 -0.1467 -1.6536 -1.4139
 5982SOL     OW29407   3.426   4.017   7.618 -0.2379 -0.0658 -0.4345
 5982SOL    HW129408   3.429   4.067   7.699  0.6222  1.0397 -1.1448
 5982SOL    HW229409   3.335   4.027   7.591 -0.5792 -1.0304  0.3468
 5983SOL     OW29410   3.570   1.133   3.757 -0.0933  0.7783  0.2073
 5983SOL    HW129411   3.573   1.072   3.831  1.5680  0.5316 -0.0571
 5983SOL    HW229412   3.661   1.120   3.730 -0.5517 -1.6603 -0.2293
 5984SOL     OW29413   2.109   1.482   3.932 -0.0390 -0.3786 -0.4548
 5984SOL    HW129414   2.117   1.475   3.837  2.2948  2.9552 -0.4972
 5984SOL    HW229415   2.160   1.563   3.935  1.2090 -1.1706 -0.7272
 5985SOL     OW29416   0.927   2.048   1.761  0.2520 -0.1559  0.4720
 5985SOL    HW129417   1.000   2.069   1.703 -1.1404  3.0130 -0.1592
 5985SOL    HW229418   0.936   2.111   1.832 -0.3563 -0.9877  1.2783
 5986SOL     OW29419   3.872   0.231   1.504  0.0701  0.5933  0.2204
 5986SOL    HW129420   3.819   0.255   1.428 -2.2046  0.5348  1.7790
 5986SOL    HW229421   3.961   0.251   1.478 -0.4000  1.1990 -0.8995
 5987SOL     OW29422   2.501   4.538   0.420  0.0379  0.7276 -0.4122
 5987SOL    HW129423   2.556   4.586   0.358  0.9373  2.8493  2.0123
 5987SOL    HW229424   2.427   4.500   0.373 -0.3996 -0.0953  0.9331
 5988SOL     OW29425   0.263   1.556  13.889 -0.2913  0.4001  0.1367
 5988SOL    HW129426   0.279   1.501  13.965 -1.1561  0.8960  0.6786
 5988SOL    HW229427   0.326   1.535  13.820 -0.7584  1.5317 -0.6448
 5989SOL     OW29428   3.611   0.239   5.768 -0.1098 -0.5107  0.5362
 5989SOL    HW129429   3.581   0.185   5.696 -1.0441 -0.4883  0.9067
 5989SOL    HW229430   3.531   0.238   5.819  1.0165 -0.9330  2.3047
 5990SOL     OW29431   2.828   3.289   6.890 -0.1579  0.3068  0.2062
 5990SOL    HW129432   2.871   3.340   6.821  0.6266  1.7979  1.7947
 5990SOL    HW229433   2.886   3.319   6.960  0.3094  0.3373 -0.1921
 5991SOL     OW29434   3.888   0.183   0.972  0.3334 -0.3811 -0.1535
 5991SOL    HW129435   3.850   0.237   0.903 -0.3278  1.7211  1.8561
 5991SOL    HW229436   3.980   0.183   0.947  0.5224  0.5746  0.5481
 5992SOL     OW29437   4.308   2.256  10.738  0.3275  0.7046  0.0287
 5992SOL    HW129438   4.355   2.339  10.746 -1.0978  1.6596 -1.4492
 5992SOL    HW229439   4.382   2.199  10.757 -0.6387 -1.1316 -1.7657
 5993SOL     OW29440   4.187   2.678  17.022  0.1091 -0.3573 -0.1021
 5993SOL    HW129441   4.272   2.680  17.065  0.5975 -3.6032 -0.8939
 5993SOL    HW229442   4.185   2.608  16.955 -0.0091 -0.2629 -0.1976
 5994SOL     OW29443   3.531   0.961  13.896  0.2374  0.4243 -0.0606
 5994SOL    HW129444   3.500   0.889  13.841 -0.6816  1.8447 -1.4416
 5994SOL    HW229445   3.612   0.983  13.849  0.2018 -0.6138 -0.6111
 5995SOL     OW29446   2.342   0.423  14.616 -0.5567  0.1419  0.8353
 5995SOL    HW129447   2.416   0.426  14.677 -0.8107 -0.2816  1.1562
 5995SOL    HW229448   2.347   0.506  14.567  0.1158 -0.8940 -0.8386
 5996SOL     OW29449   2.347   3.636   5.668 -0.1837  0.6310  0.2932
 5996SOL    HW129450   2.356   3.724   5.705 -1.5331  0.6796  0.5190
 5996SOL    HW229451   2.263   3.644   5.623  1.7336  0.0611 -3.4023
 5997SOL     OW29452   0.434   1.911  17.604 -0.3400  0.2484  0.5007
 5997SOL    HW129453   0.395   1.887  17.520  0.2943 -0.4468  0.4108
 5997SOL    HW229454   0.507   1.852  17.623  0.5160  1.3102  0.5085
 5998SOL     OW29455   0.809   0.846   4.335  0.2265  0.0774  0.0238
 5998SOL    HW129456   0.738   0.851   4.399  1.1347  0.8407  0.9738
 5998SOL    HW229457   0.875   0.800   4.387  1.3625  0.7171 -0.8389
 5999SOL     OW29458   0.999   0.653   4.039  0.4422 -0.2867 -0.0219
 5999SOL    HW129459   0.932   0.722   4.033  0.8260  0.1168  0.3593
 5999SOL    HW229460   1.056   0.687   3.969  1.6928  1.4241  1.8444
 6000SOL     OW29461   3.068   1.099   5.435 -0.1445 -0.4309  0.6864
 6000SOL    HW129462   3.011   1.167   5.470 -0.2302 -2.2583  4.1069
 6000SOL    HW229463   3.032   1.097   5.346 -0.7485 -0.3698  0.9308
 6001SOL     OW29464   0.475   2.712   4.069  0.3614  0.3636  0.4951
 6001SOL    HW129465   0.563   2.711   4.031  0.5990  0.7210  1.0420
 6001SOL    HW229466   0.433   2.787   4.029  1.7581  0.6807 -0.3986
 6002SOL     OW29467   1.078   0.384   3.753  0.5744 -0.1411 -0.7923
 6002SOL    HW129468   1.128   0.436   3.690  0.3274  0.4653 -0.4846
 6002SOL    HW229469   0.987   0.398   3.727  0.3720  0.2574  0.1312
 6003SOL     OW29470   0.212   0.957  12.231 -0.0699  0.1703  0.5505
 6003SOL    HW129471   0.124   0.992  12.240 -0.8560 -1.3862 -1.2170
 6003SOL    HW229472   0.197   0.879  12.286  0.3300 -0.2639  0.0433
 6004SOL     OW29473   3.627   0.590   3.381 -0.8774  0.3751 -0.4518
 6004SOL    HW129474   3.548   0.608   3.329 -1.9284 -1.3388  0.5488
 6004SOL    HW229475   3.666   0.524   3.323  1.7300  0.4939  1.1660
 6005SOL     OW29476   2.721   2.466  11.329  0.4939 -0.0793  0.7585
 6005SOL    HW129477   2.734   2.553  11.367 -0.6789  0.5444 -0.2681
 6005SOL    HW229478   2.701   2.481  11.237  3.0098  0.1617  0.2646
 6006SOL     OW29479   1.830   0.499  11.555  0.0638 -0.3456 -0.3472
 6006SOL    HW129480   1.869   0.581  11.524  0.2752 -0.6716 -0.9609
 6006SOL    HW229481   1.782   0.484  11.474 -1.2199 -0.6797  0.4883
 6007SOL     OW29482   0.770   2.972  10.226 -0.2179  0.2216 -0.2917
 6007SOL    HW129483   0.812   2.898  10.271  2.2198  1.1554 -1.0285
 6007SOL    HW229484   0.743   3.019  10.305  0.9026 -0.2643  0.3744
 6008SOL     OW29485   1.873   0.223   8.262 -0.2192  0.8661 -0.5406
 6008SOL    HW129486   1.908   0.209   8.350 -0.9004 -0.3729 -0.4704
 6008SOL    HW229487   1.853   0.133   8.236  1.0384  0.8384 -1.4071
 6009SOL     OW29488   0.672   4.683   4.157 -0.5966  0.0813 -0.1606
 6009SOL    HW129489   0.722   4.609   4.193  2.1132  2.6412  1.3986
 6009SOL    HW229490   0.712   4.704   4.072 -1.5871  0.6543 -0.4867
 6010SOL     OW29491   3.421   2.493   3.991  0.3901  0.0841 -0.9274
 6010SOL    HW129492   3.382   2.580   3.998 -2.0444 -1.4102  4.5654
 6010SOL    HW229493   3.505   2.512   4.033  0.4027  3.0737 -2.2850
 6011SOL     OW29494   0.636   0.013   2.614 -0.3639  0.1922 -0.2989
 6011SOL    HW129495   0.718   4.705   2.652 -1.4296 -0.8647  1.1201
 6011SOL    HW229496   0.599   4.654   2.585  1.0345 -0.6102  0.2555
 6012SOL     OW29497   3.372   4.516   9.710 -0.4779 -0.3877 -0.1127
 6012SOL    HW129498   3.301   4.469   9.666 -0.4848  0.0934 -0.6145
 6012SOL    HW229499   3.437   4.495   9.643 -0.6880 -1.1350 -0.0845
 6013SOL     OW29500   1.568   3.302   2.955 -0.2107  0.1411  0.0532
 6013SOL    HW129501   1.624   3.353   3.013 -0.3513 -1.8251  1.9119
 6013SOL    HW229502   1.560   3.363   2.881  0.4061  1.4628  1.0687
 6014SOL     OW29503   1.734   3.908   2.766  0.1865  0.2527  0.0254
 6014SOL    HW129504   1.754   3.979   2.705  0.0580 -1.4922 -2.0884
 6014SOL    HW229505   1.823   3.890   2.795 -0.8149 -0.9858  2.3147
 6015SOL     OW29506   1.211   2.260  10.490 -0.3067  0.1932  0.4310
 6015SOL    HW129507   1.150   2.307  10.434  0.3323  3.8838  2.8115
 6015SOL    HW229508   1.295   2.270  10.445 -0.3407 -1.0877  0.1082
 6016SOL     OW29509   1.026   0.941  11.065  0.4640  0.2952  0.0868
 6016SOL    HW129510   0.979   0.989  11.133 -1.5757 -0.1049 -1.0639
 6016SOL    HW229511   1.112   0.936  11.107 -0.6319  1.6442  2.4852
 6017SOL     OW29512   1.472   3.707   6.185  0.1304  0.2936  0.0961
 6017SOL    HW129513   1.387   3.674   6.155  0.3308 -1.3487  1.3222
 6017SOL    HW229514   1.463   3.704   6.280 -0.1139  1.7370  0.1211
 6018SOL     OW29515   4.064   4.414   7.266 -0.4413  0.1044 -0.1835
 6018SOL    HW129516   4.081   4.502   7.298  0.2799  0.5625 -1.8579
 6018SOL    HW229517   4.000   4.433   7.197 -0.3189  2.0755  0.2634
 6019SOL     OW29518   4.597   2.460   8.192 -0.3145 -0.1739 -0.1070
 6019SOL    HW129519   4.600   2.474   8.097 -1.0557 -1.5339 -0.3330
 6019SOL    HW229520   4.539   2.385   8.202 -0.2928 -0.1657  0.0767
 6020SOL     OW29521   4.043   2.391   7.562  0.1043  0.1728 -0.0430
 6020SOL    HW129522   4.033   2.301   7.594 -0.8823  0.4084  0.3075
 6020SOL    HW229523   4.111   2.420   7.623 -0.5754  1.0847  0.2758
 6021SOL     OW29524   0.618   2.281   3.547 -0.5524 -0.1777 -0.3521
 6021SOL    HW129525   0.690   2.286   3.483 -1.0869 -0.6399 -0.9911
 6021SOL    HW229526   0.667   2.310   3.624 -0.3570  0.2551 -0.6381
 6022SOL     OW29527   4.227   3.817  13.684 -0.3922 -0.2781 -0.3805
 6022SOL    HW129528   4.159   3.773  13.734  0.1516  1.0990  1.5918
 6022SOL    HW229529   4.181   3.826  13.600  1.1627 -0.9388 -1.2998
 6023SOL     OW29530   3.235   3.859   3.081  0.1139 -0.5095 -0.3458
 6023SOL    HW129531   3.173   3.796   3.045 -0.3888 -0.3144  0.1744
 6023SOL    HW229532   3.295   3.851   3.007 -0.6639 -0.0381 -1.0253
 6024SOL     OW29533   2.975   3.095   9.924  0.0298 -0.0362 -0.0235
 6024SOL    HW129534   2.950   3.018   9.873  2.1244 -0.8963  0.2620
 6024SOL    HW229535   3.070   3.102   9.927 -0.0375  0.7021  0.2920
 6025SOL     OW29536   4.580   0.533   4.457  0.3917 -0.1520 -0.2040
 6025SOL    HW129537   4.495   0.560   4.422 -0.8231 -1.8212  1.4771
 6025SOL    HW229538   4.621   0.616   4.480 -0.0952  0.1507 -0.4334
 6026SOL     OW29539   4.712   3.456   9.980 -0.3214  0.4062 -0.3819
 6026SOL    HW129540   4.693   3.379   9.927 -0.2022 -0.0900  0.2999
 6026SOL    HW229541   4.654   3.524   9.945  1.6970  2.1221 -0.3766
 6027SOL     OW29542   0.555   4.578   9.776 -0.2499 -0.0971 -0.8781
 6027SOL    HW129543   0.643   4.594   9.810  0.2384 -1.0370 -1.6880
 6027SOL    HW229544   0.521   4.665   9.756 -0.2170 -0.1329 -1.0984
 6028SOL     OW29545   1.815   2.872   3.011  0.0277  0.2877 -0.1466
 6028SOL    HW129546   1.737   2.927   3.000  1.7994  2.1719 -3.2138
 6028SOL    HW229547   1.771   2.791   3.036  1.7801 -0.9664 -1.1758
 6029SOL     OW29548   3.307   0.051   9.746 -0.3337 -0.0827 -0.2610
 6029SOL    HW129549   3.309   0.069   9.652  0.3548 -0.3620 -0.2945
 6029SOL    HW229550   3.331   4.683   9.747  2.2033  0.5814  0.4323
 6030SOL     OW29551   1.462   3.864   1.648  0.6423 -0.1647  0.0610
 6030SOL    HW129552   1.506   3.917   1.714  1.5408 -2.5607  1.3748
 6030SOL    HW229553   1.479   3.915   1.569 -1.9703  0.7642  0.0677
 6031SOL     OW29554   4.534   3.860   0.596 -0.0475  0.1934  0.3386
 6031SOL    HW129555   4.503   3.835   0.509  2.4511  0.5243 -0.6594
 6031SOL    HW229556   4.462   3.912   0.631  0.4643  1.6497 -0.7292
 6032SOL     OW29557   2.206   0.680   5.390  0.0868  0.6020 -0.3996
 6032SOL    HW129558   2.195   0.774   5.403 -1.6342  0.3373  0.0468
 6032SOL    HW229559   2.118   0.654   5.362  0.3237 -0.0363 -0.5321
 6033SOL     OW29560   4.479   1.554  12.736 -0.2151  0.2501 -0.5707
 6033SOL    HW129561   4.387   1.532  12.724 -0.2701 -0.4190  0.9960
 6033SOL    HW229562   4.509   1.573  12.647  1.5603  0.3632  0.0513
 6034SOL     OW29563   1.954   2.927   5.021 -0.0001 -0.4272 -0.5887
 6034SOL    HW129564   1.958   3.000   5.083 -1.3875 -0.8404  0.0154
 6034SOL    HW229565   1.943   2.862   5.090 -0.3401 -2.8995 -2.9761
 6035SOL     OW29566   3.478   0.533   6.319  0.5019  0.3364 -0.5285
 6035SOL    HW129567   3.436   0.534   6.405  1.1203  0.7360 -0.2314
 6035SOL    HW229568   3.557   0.479   6.333 -1.0244 -1.5737  0.8007
 6036SOL     OW29569   3.228   0.340  16.290  0.0635  0.1128 -0.1848
 6036SOL    HW129570   3.240   0.394  16.368  0.5600 -2.5236  1.5661
 6036SOL    HW229571   3.156   0.385  16.246 -0.8421  1.2020  2.3783
 6037SOL     OW29572   3.104   4.565   7.136  0.1105  0.4578 -0.4146
 6037SOL    HW129573   3.168   4.542   7.069 -0.4848 -2.4318  0.0027
 6037SOL    HW229574   3.104   4.480   7.179 -1.2886  0.2670 -0.7904
 6038SOL     OW29575   4.620   0.740   6.894 -0.3365  0.6222  0.1205
 6038SOL    HW129576   4.547   0.683   6.917  0.6653 -0.0692  1.6319
 6038SOL    HW229577   4.579   0.802   6.834 -0.8451 -1.4274 -1.6464
 6039SOL     OW29578   4.305   0.553   0.532  0.1451 -0.1058 -0.0293
 6039SOL    HW129579   4.341   0.608   0.602 -1.5823  0.1339  0.6745
 6039SOL    HW229580   4.370   0.546   0.462  0.4937 -1.9303  0.4893
 6040SOL     OW29581   1.792   1.292  11.879  0.5172  0.1539 -0.0790
 6040SOL    HW129582   1.858   1.311  11.946  1.2788 -0.5041 -0.6398
 6040SOL    HW229583   1.818   1.208  11.841  2.7503  1.2245 -0.9524
 6041SOL     OW29584   2.577   0.562   8.897  0.1926  0.5519 -0.1286
 6041SOL    HW129585   2.555   0.480   8.941 -1.4743  0.7661 -0.5674
 6041SOL    HW229586   2.640   0.520   8.838 -0.7530  0.0114 -0.7463
 6042SOL     OW29587   0.917   0.136   0.476 -0.0332  0.3424 -0.0628
 6042SOL    HW129588   0.946   0.182   0.555 -0.0429 -0.1754  0.2374
 6042SOL    HW229589   0.886   0.208   0.421  0.8134  2.2236  1.9305
 6043SOL     OW29590   3.998   4.027   8.862 -0.3645  0.1277  0.4193
 6043SOL    HW129591   3.903   4.042   8.855 -0.1931  1.9063  1.8805
 6043SOL    HW229592   4.004   3.995   8.952  0.7118  0.1871  0.3617
 6044SOL     OW29593   1.641   2.057  17.631  0.4055 -0.7356  0.1002
 6044SOL    HW129594   1.642   1.985  17.568 -2.2416  1.4660 -2.5089
 6044SOL    HW229595   1.572   2.037  17.694 -0.5259 -1.6179 -1.1827
 6045SOL     OW29596   1.040   2.208   1.934  0.0690 -0.2985  0.1396
 6045SOL    HW129597   1.054   2.302   1.950 -0.2097  0.0912 -1.9085
 6045SOL    HW229598   1.124   2.178   1.967 -0.8201 -1.9597  0.8728
 6046SOL     OW29599   3.140   2.893   9.314  0.0738 -0.3511  0.2349
 6046SOL    HW129600   3.094   2.955   9.371 -1.5216 -1.8411  0.5844
 6046SOL    HW229601   3.228   2.928   9.315 -0.6655  1.4479  1.1778
 6047SOL     OW29602   2.854   2.465  17.121 -0.0707  0.6584 -0.2429
 6047SOL    HW129603   2.933   2.439  17.074  0.7098  1.4624  0.6321
 6047SOL    HW229604   2.866   2.559  17.135  1.2593  0.7947 -2.2369
 6048SOL     OW29605   3.624   0.831   7.861 -0.0677 -0.9233 -0.6333
 6048SOL    HW129606   3.595   0.780   7.936 -1.2872 -0.5122 -0.8113
 6048SOL    HW229607   3.706   0.798   7.824 -0.0715 -1.7815  0.1492
 6049SOL     OW29608   0.438   4.251  15.889  0.2448 -0.0290  0.0226
 6049SOL    HW129609   0.353   4.283  15.918  0.8028  0.7777  0.7796
 6049SOL    HW229610   0.497   4.260  15.964 -1.9231 -2.0123  1.9545
 6050SOL     OW29611   0.718   3.665  13.118  0.0787  0.1297 -0.6104
 6050SOL    HW129612   0.692   3.591  13.062 -0.0187  0.3970 -0.9206
 6050SOL    HW229613   0.717   3.735  13.052 -2.4653 -0.4056 -1.1475
 6051SOL     OW29614   3.019   2.164   2.144 -0.1179  0.0442 -0.0389
 6051SOL    HW129615   3.012   2.242   2.199  0.6644 -0.1648  0.3704
 6051SOL    HW229616   2.930   2.129   2.140 -0.2132  0.2141  0.5452
 6052SOL     OW29617   2.112   4.227  14.539  0.1650 -0.0529  0.6910
 6052SOL    HW129618   2.117   4.135  14.514  0.1367  0.3253 -0.7011
 6052SOL    HW229619   2.195   4.264  14.507  1.0163 -0.9695  1.8571
 6053SOL     OW29620   4.587   4.465   4.731 -0.0525  0.4516  0.1731
 6053SOL    HW129621   4.548   4.467   4.644 -2.9516  1.7864  1.5322
 6053SOL    HW229622   4.627   4.378   4.734 -0.4215  0.4228  4.2480
 6054SOL     OW29623   1.134   0.071  14.833  0.3243 -0.6214 -0.0264
 6054SOL    HW129624   1.189   0.142  14.800  0.4948 -0.1490  1.3025
 6054SOL    HW229625   1.148   0.072  14.927  1.0006 -1.0511 -0.1300
 6055SOL     OW29626   2.154   1.583   3.454 -0.0079 -0.5941  0.0284
 6055SOL    HW129627   2.246   1.561   3.438 -0.3203 -2.6788  1.0789
 6055SOL    HW229628   2.111   1.562   3.371 -1.7776  1.0157  0.5396
 6056SOL     OW29629   2.170   0.249   3.735  0.0947  0.3396  0.0711
 6056SOL    HW129630   2.222   0.184   3.783  0.9756  1.2205  0.3217
 6056SOL    HW229631   2.149   0.195   3.660  1.0765  0.9484 -0.6452
 6057SOL     OW29632   1.325   2.977   4.203 -0.4250 -0.1494  0.1347
 6057SOL    HW129633   1.367   2.922   4.269 -1.7187  1.1981  2.0740
 6057SOL    HW229634   1.309   3.044   4.269  4.0856  1.2534 -0.2017
 6058SOL     OW29635   2.981   2.739  12.496 -0.1854  0.4347  0.1222
 6058SOL    HW129636   2.891   2.762  12.517 -0.2592 -0.4220  0.7463
 6058SOL    HW229637   3.030   2.755  12.577  1.3476 -1.2742 -0.4684
 6059SOL     OW29638   2.757   2.985  13.566 -0.3397  0.5410 -0.4060
 6059SOL    HW129639   2.763   2.982  13.471 -0.5929  0.7443 -0.4274
 6059SOL    HW229640   2.844   2.953  13.589 -0.1865  2.0398  1.1097
 6060SOL     OW29641   3.798   3.214   4.033  0.6671  0.5364  0.4605
 6060SOL    HW129642   3.759   3.130   4.009  0.2232  1.0534 -0.6409
 6060SOL    HW229643   3.801   3.209   4.128 -0.6767 -0.4548  0.4545
 6061SOL     OW29644   0.711   2.413   8.745 -0.1727 -0.0415 -0.1372
 6061SOL    HW129645   0.780   2.439   8.805  0.6127 -1.8470 -0.2559
 6061SOL    HW229646   0.748   2.429   8.658  3.3644 -0.3760  1.3478
 6062SOL     OW29647   4.196   2.632  10.527 -0.2196  0.3108 -0.0076
 6062SOL    HW129648   4.206   2.720  10.561  2.8326 -0.4964  1.1850
 6062SOL    HW229649   4.285   2.602  10.546 -0.0660  0.4353 -0.5264
 6063SOL     OW29650   2.732   2.572   8.356 -0.2358 -0.1799  0.0312
 6063SOL    HW129651   2.771   2.500   8.405  2.3276  0.8063 -0.5336
 6063SOL    HW229652   2.666   2.591   8.423 -1.2275 -0.3522 -0.9037
 6064SOL     OW29653   4.568   2.117   0.202  0.5105 -0.1386 -0.1258
 6064SOL    HW129654   4.661   2.127   0.222  1.2889 -2.2289 -2.6888
 6064SOL    HW229655   4.567   2.028   0.168  0.5139 -0.0067 -0.4665
 6065SOL     OW29656   0.820   1.861  10.216  0.0099  0.1282  0.2607
 6065SOL    HW129657   0.750   1.881  10.278  0.5840 -0.2921  1.0511
 6065SOL    HW229658   0.890   1.915  10.254 -0.9682  1.4074  0.2360
 6066SOL     OW29659   1.245   1.835   1.989  0.2229 -0.1481  0.4616
 6066SOL    HW129660   1.223   1.918   2.033 -1.0441  1.3206 -2.9289
 6066SOL    HW229661   1.166   1.804   1.944  1.8062  1.1685 -3.1586
 6067SOL     OW29662   1.049   3.508   1.725 -0.6801  0.0322 -0.0152
 6067SOL    HW129663   1.010   3.531   1.810  2.3781 -1.4631  1.7800
 6067SOL    HW229664   1.032   3.415   1.709  1.4482 -0.6452  1.6009
 6068SOL     OW29665   4.536   3.273   2.152 -0.4910  0.3453  0.4098
 6068SOL    HW129666   4.584   3.346   2.113  2.4676 -0.4590  2.5684
 6068SOL    HW229667   4.525   3.213   2.078 -0.4568  1.0516 -0.1607
 6069SOL     OW29668   2.423   0.991   4.343  0.4864 -0.2340  0.2983
 6069SOL    HW129669   2.336   1.028   4.356  0.2325 -0.6450 -0.2152
 6069SOL    HW229670   2.444   1.026   4.257 -1.7191  0.2144 -0.0734
 6070SOL     OW29671   2.291   3.936   6.280 -0.0494  0.2396  0.2849
 6070SOL    HW129672   2.249   4.012   6.239 -1.6147  0.2964  1.9845
 6070SOL    HW229673   2.261   3.935   6.371 -1.5712  0.8671 -0.2130
 6071SOL     OW29674   0.124   0.477   4.256 -0.2716 -0.0282 -0.4869
 6071SOL    HW129675   0.216   0.463   4.234  0.1511 -0.1082  1.3965
 6071SOL    HW229676   0.127   0.571   4.270 -1.2654 -0.1130  0.3200
 6072SOL     OW29677   0.363   2.852   8.269 -0.2746  0.3202  0.0956
 6072SOL    HW129678   0.270   2.855   8.247 -0.4387 -1.2020  0.5882
 6072SOL    HW229679   0.366   2.884   8.359 -0.2253  3.7245 -1.1096
 6073SOL     OW29680   2.296   1.047  14.701  0.1050  0.6074  0.7193
 6073SOL    HW129681   2.265   1.054  14.610 -0.6642 -0.6648  0.8889
 6073SOL    HW229682   2.330   1.134  14.717 -0.6654  0.7135  1.7425
 6074SOL     OW29683   0.349   3.458   9.104 -0.0573  0.2603 -0.3219
 6074SOL    HW129684   0.281   3.397   9.131 -1.5263  2.3137  0.5589
 6074SOL    HW229685   0.297   3.499   9.034 -2.0327  2.1199  2.2408
 6075SOL     OW29686   2.296   0.056  11.451  0.0747 -0.1480 -0.0368
 6075SOL    HW129687   2.346   0.110  11.512 -2.2304 -1.0835  2.6830
 6075SOL    HW229688   2.319   0.114  11.379 -1.0284  0.4793  0.1276
 6076SOL     OW29689   3.419   2.885  17.387 -0.0370 -0.1216  0.0244
 6076SOL    HW129690   3.325   2.899  17.371 -0.5710 -0.1173  3.1077
 6076SOL    HW229691   3.411   2.810  17.445  1.5522  0.9566  1.6371
 6077SOL     OW29692   0.144   2.833   4.956  0.2497 -0.1481  0.4988
 6077SOL    HW129693   0.063   2.866   4.995  0.2294  0.9083 -0.4282
 6077SOL    HW229694   0.136   2.739   4.972 -2.1280  0.3668  2.4124
 6078SOL     OW29695   0.944   2.361   5.135 -0.2132  0.4069 -0.1179
 6078SOL    HW129696   1.032   2.355   5.098 -0.1744  1.4994 -0.1903
 6078SOL    HW229697   0.915   2.443   5.094 -0.0922 -0.4559 -1.9374
 6079SOL     OW29698   1.382   4.251   2.442  0.0829 -0.0817 -0.1727
 6079SOL    HW129699   1.301   4.258   2.493 -1.8852 -0.1160 -3.2798
 6079SOL    HW229700   1.383   4.157   2.427 -1.7258 -0.3500  1.4651
 6080SOL     OW29701   0.989   0.096   5.438 -0.8416 -0.0554 -0.7632
 6080SOL    HW129702   0.954   0.142   5.362 -0.6708  0.8760 -0.2784
 6080SOL    HW229703   1.021   0.013   5.403  0.9217  0.1709  0.3227
 6081SOL     OW29704   3.230   0.113   7.612  0.3496  0.2957  0.0388
 6081SOL    HW129705   3.302   0.150   7.561  0.7835 -0.0825  0.3879
 6081SOL    HW229706   3.227   0.024   7.576  0.3434 -0.2793  1.4615
 6082SOL     OW29707   1.135   2.997   9.035  0.0903  0.1019  0.7718
 6082SOL    HW129708   1.161   3.045   9.114 -0.8360 -0.2179  1.2686
 6082SOL    HW229709   1.043   2.985   9.058  0.0711 -2.2837 -0.5700
 6083SOL     OW29710   4.513   3.980   1.852 -0.2082 -0.0123  0.3276
 6083SOL    HW129711   4.530   4.000   1.944 -0.6158 -0.8755  0.5884
 6083SOL    HW229712   4.426   4.016   1.834  0.2063  1.2128  0.7298
 6084SOL     OW29713   2.785   0.108  13.465 -0.3020 -0.1854  0.3565
 6084SOL    HW129714   2.700   0.114  13.421 -0.1811  0.1759  0.1757
 6084SOL    HW229715   2.846   0.063  13.408 -0.4717  0.7181 -0.5261
 6085SOL     OW29716   1.718   3.622   6.116  0.4050 -0.1000 -0.4211
 6085SOL    HW129717   1.630   3.645   6.143  1.1233  1.7212  0.3710
 6085SOL    HW229718   1.760   3.708   6.120  0.4487 -0.1649  0.4326
 6086SOL     OW29719   1.789   3.576  17.119  0.1338  0.5333 -0.1780
 6086SOL    HW129720   1.840   3.637  17.066 -1.6938  0.8820 -1.5496
 6086SOL    HW229721   1.757   3.516  17.051 -1.0646 -0.7414  1.5143
 6087SOL     OW29722   2.374   3.030  13.976  0.0226  0.1012 -0.0310
 6087SOL    HW129723   2.372   3.125  13.984  0.6835 -0.0077  1.4416
 6087SOL    HW229724   2.460   3.004  13.943  0.5214 -0.3029  1.5697
 6088SOL     OW29725   0.090   1.479   1.030  0.3025 -0.3542 -0.3067
 6088SOL    HW129726   0.093   1.561   0.981  0.4009 -1.2014 -1.7165
 6088SOL    HW229727   0.002   1.443   1.026 -0.6520  1.7752  1.6229
 6089SOL     OW29728   2.217   4.532  11.934  0.1332 -0.0192  0.2997
 6089SOL    HW129729   2.139   4.477  11.942  0.8240 -0.5279  3.4557
 6089SOL    HW229730   2.275   4.493  11.869 -1.4367  0.6277 -1.5168
 6090SOL     OW29731   0.856   3.332   7.398 -0.6136  0.1094  0.6932
 6090SOL    HW129732   0.843   3.385   7.319  1.6305 -0.3352  0.0243
 6090SOL    HW229733   0.871   3.248   7.355 -0.6210  0.6509 -0.3740
 6091SOL     OW29734   3.256   1.672   1.637 -0.1400  0.6954  0.0183
 6091SOL    HW129735   3.176   1.646   1.682 -0.2653  0.2180 -0.4683
 6091SOL    HW229736   3.219   1.692   1.551  0.8189 -0.8895 -0.7692
 6092SOL     OW29737   3.879   2.497   8.567 -0.0022  0.4728 -0.6088
 6092SOL    HW129738   3.811   2.433   8.546 -0.4390  1.3703 -1.8848
 6092SOL    HW229739   3.951   2.490   8.505  0.9537  1.2523  0.4095
 6093SOL     OW29740   0.302   1.579   2.545 -0.1314 -0.5162  0.5481
 6093SOL    HW129741   0.254   1.651   2.506  1.2930 -0.6046 -1.3484
 6093SOL    HW229742   0.342   1.542   2.466 -0.9843  1.8899 -0.9949
 6094SOL     OW29743   4.131   2.026  13.994  0.0016 -0.7005 -0.4375
 6094SOL    HW129744   4.165   2.049  14.080  0.1380 -1.3841 -0.3102
 6094SOL    HW229745   4.204   2.040  13.933  0.1102  0.5846 -0.0075
 6095SOL     OW29746   4.662   2.414  13.591 -0.2903 -0.2952 -1.0558
 6095SOL    HW129747   4.607   2.485  13.559  1.4396  1.0957 -0.9944
 6095SOL    HW229748   0.024   2.433  13.555 -0.1736  1.8254  0.3029
 6096SOL     OW29749   2.615   2.740   2.847  0.2057 -0.0359  0.5036
 6096SOL    HW129750   2.590   2.682   2.775  2.0383  0.2111 -0.3165
 6096SOL    HW229751   2.709   2.757   2.839  0.2286 -0.1039  0.6407
 6097SOL     OW29752   3.429   4.364   5.973 -0.1627  0.0406 -0.4516
 6097SOL    HW129753   3.494   4.293   5.975  1.1974  1.2458 -1.6456
 6097SOL    HW229754   3.361   4.333   6.033  0.8185 -0.9019  0.1883
 6098SOL     OW29755   1.253   0.173   0.985 -0.0932 -0.4031 -0.3401
 6098SOL    HW129756   1.279   0.190   1.076  1.2613 -2.2468 -0.3670
 6098SOL    HW229757   1.284   0.256   0.951 -1.1106 -0.3638 -1.1496
 6099SOL     OW29758   2.773   0.067   1.474  0.2187 -0.4727 -0.1159
 6099SOL    HW129759   2.699   0.027   1.520  0.0138  1.3796  1.1710
 6099SOL    HW229760   2.788   0.131   1.544  2.1227 -0.0781 -0.9053
 6100SOL     OW29761   3.842   2.008   2.047 -0.5234  1.2563  0.3681
 6100SOL    HW129762   3.872   1.970   2.129 -0.5709 -1.9006 -1.0689
 6100SOL    HW229763   3.764   1.957   2.027  0.4449  0.9526 -2.6694
 6101SOL     OW29764   0.870   3.375   4.671 -0.3320 -0.7062 -0.5250
 6101SOL    HW129765   0.954   3.330   4.671  0.2547  0.4358  1.9313
 6101SOL    HW229766   0.899   3.463   4.650  1.3214 -1.0901  0.2135
 6102SOL     OW29767   4.564   4.481   9.141 -0.2039 -0.4131  0.0301
 6102SOL    HW129768   4.627   4.466   9.212  0.0733  0.0743 -0.1140
 6102SOL    HW229769   4.572   4.397   9.096 -0.7846 -0.1079 -0.6373
 6103SOL     OW29770   4.232   0.680  17.575  0.8535 -0.0877  0.3832
 6103SOL    HW129771   4.313   0.732  17.572  2.0153 -1.9811 -0.8188
 6103SOL    HW229772   4.176   0.737  17.522  0.8260  1.1281  1.7107
 6104SOL     OW29773   0.507   4.424  11.233  0.4598 -0.7519  0.3601
 6104SOL    HW129774   0.473   4.379  11.155 -0.4345  0.3771  0.0933
 6104SOL    HW229775   0.590   4.462  11.205  0.1100 -0.6041 -0.4874
 6105SOL     OW29776   3.303   0.511   4.463  0.2722 -0.2477  0.4737
 6105SOL    HW129777   3.385   0.479   4.502  0.0235  1.4981  2.4318
 6105SOL    HW229778   3.329   0.522   4.372 -0.0941  0.6218  0.4703
 6106SOL     OW29779   2.247   1.812   6.939 -0.4773 -0.1392  0.4334
 6106SOL    HW129780   2.290   1.746   6.884  0.1412  0.2638  0.4314
 6106SOL    HW229781   2.283   1.793   7.025 -1.2950  0.4818  0.9037
 6107SOL     OW29782   2.512   4.675   0.774 -0.1026  0.0694 -0.3699
 6107SOL    HW129783   2.577   4.707   0.711 -0.3601 -0.5465 -0.9573
 6107SOL    HW229784   2.445   4.648   0.711 -0.6930  3.0721 -1.0170
 6108SOL     OW29785   2.613   0.478   4.926  0.2637 -0.1347 -0.4464
 6108SOL    HW129786   2.524   0.511   4.915  0.2650 -0.1026 -0.3635
 6108SOL    HW229787   2.660   0.549   4.970 -0.3751  0.2336 -0.3543
 6109SOL     OW29788   2.955   2.708   6.092 -0.0031  0.0244 -0.1563
 6109SOL    HW129789   3.008   2.718   6.013  1.5242  1.2943  1.0465
 6109SOL    HW229790   2.960   2.791   6.138  0.5471 -0.2316  0.2515
 6110SOL     OW29791   3.493   0.109   5.576 -0.0781  0.0614  0.7406
 6110SOL    HW129792   3.409   0.063   5.564  0.3561 -0.6894  0.5501
 6110SOL    HW229793   3.470   0.188   5.528 -0.5631  0.0182  0.8985
 6111SOL     OW29794   0.071   1.089   0.501 -0.9555 -0.4427  0.0578
 6111SOL    HW129795   0.130   1.130   0.438  0.0725 -2.0401 -0.0040
 6111SOL    HW229796   0.131   1.077   0.574  0.0997 -1.1902 -0.9323
 6112SOL     OW29797   2.991   4.030   8.091 -0.5982  0.3744  0.5455
 6112SOL    HW129798   2.990   4.082   8.171  0.1281 -0.7930  1.3111
 6112SOL    HW229799   3.020   4.102   8.035 -0.8681  1.6548  2.0790
 6113SOL     OW29800   3.806   0.707   6.550 -0.7638 -0.1967 -0.0478
 6113SOL    HW129801   3.881   0.711   6.609  0.1703  1.0990 -1.3124
 6113SOL    HW229802   3.754   0.639   6.593 -0.0734 -0.3859  0.4676
 6114SOL     OW29803   0.463   4.084  14.735  0.7421 -0.3959 -0.2534
 6114SOL    HW129804   0.438   4.019  14.800  0.5895  0.5077  0.5899
 6114SOL    HW229805   0.552   4.103  14.764  0.2950 -0.3189  1.0733
 6115SOL     OW29806   3.462   3.332   5.171  0.1619  0.4559 -0.0789
 6115SOL    HW129807   3.368   3.329   5.189  0.1222  0.4836 -0.2721
 6115SOL    HW229808   3.452   3.384   5.091 -1.4022  0.5110  0.1529
 6116SOL     OW29809   3.187   2.783   4.788 -0.0853  0.1636 -0.0960
 6116SOL    HW129810   3.159   2.751   4.874 -1.7443  0.9612 -0.3327
 6116SOL    HW229811   3.242   2.852   4.825  0.8732 -0.4108 -0.4559
 6117SOL     OW29812   3.292   2.315   8.283  0.4295 -0.2335 -0.4194
 6117SOL    HW129813   3.249   2.233   8.305  0.1311  0.0991  0.2731
 6117SOL    HW229814   3.216   2.371   8.266  0.7441  0.7795  1.5181
 6118SOL     OW29815   0.760   4.652   4.703 -0.2582 -0.4775 -0.2875
 6118SOL    HW129816   0.684   4.675   4.650  0.6933  2.7437 -0.2515
 6118SOL    HW229817   0.793   0.016   4.717 -0.6559 -0.6706  1.8735
 6119SOL     OW29818   1.159   1.340   2.220 -0.2361  0.3143 -0.0239
 6119SOL    HW129819   1.158   1.436   2.218 -1.6619  0.2964 -0.2661
 6119SOL    HW229820   1.074   1.326   2.263 -1.2285 -2.5515 -2.9605
 6120SOL     OW29821   3.760   0.464  10.759 -0.0648 -0.5699  0.5867
 6120SOL    HW129822   3.736   0.397  10.823 -1.3145 -1.4614 -0.8182
 6120SOL    HW229823   3.726   0.430  10.676 -0.0219  0.0840  0.2944
 6121SOL     OW29824   3.906   3.083  12.936  0.3766  0.6920 -0.2401
 6121SOL    HW129825   3.899   3.074  12.841  0.2354  0.9571 -0.2550
 6121SOL    HW229826   3.922   2.995  12.970  1.9593  1.0593 -0.0066
 6122SOL     OW29827   0.480   1.531  16.770  0.5165  0.3535  0.3098
 6122SOL    HW129828   0.419   1.602  16.783 -1.4628 -1.1566 -0.7479
 6122SOL    HW229829   0.484   1.524  16.675 -1.9758  1.3033  0.1394
 6123SOL     OW29830   4.290   1.848   0.323  0.4679 -0.0793  0.0868
 6123SOL    HW129831   4.347   1.887   0.389  0.3966  0.3437 -0.1010
 6123SOL    HW229832   4.353   1.815   0.260 -0.3038  1.3135 -1.4141
 6124SOL     OW29833   4.032   0.206  10.054 -0.0895  0.5644  0.5751
 6124SOL    HW129834   4.078   0.281  10.091  2.2690 -1.0567  0.9483
 6124SOL    HW229835   3.992   0.241   9.975 -1.0345  1.0819  1.2828
 6125SOL     OW29836   1.785   2.892  10.317 -0.0878 -0.1568  0.0007
 6125SOL    HW129837   1.871   2.927  10.293  0.7511 -2.0102  0.3707
 6125SOL    HW229838   1.804   2.802  10.341  1.3333 -0.2783 -1.5802
 6126SOL     OW29839   3.327   1.300  11.820  0.4968  0.3328  0.4534
 6126SOL    HW129840   3.250   1.299  11.764 -0.0438 -1.1176  1.2328
 6126SOL    HW229841   3.388   1.349  11.764 -1.3810  0.7123 -1.2801
 6127SOL     OW29842   0.565   3.199  15.889  0.0487 -0.6704  0.1006
 6127SOL    HW129843   0.481   3.212  15.843  1.5638  0.0906 -2.4684
 6127SOL    HW229844   0.533   3.210  15.978  1.6211 -0.3493  0.6232
 6128SOL     OW29845   2.083   0.713   8.617  0.0120 -0.2344  0.2281
 6128SOL    HW129846   2.085   0.617   8.624 -0.1943 -0.3255 -0.8414
 6128SOL    HW229847   1.994   0.725   8.650  0.0404  3.1742 -1.0021
 6129SOL     OW29848   0.266   1.265   4.099  0.0503 -0.4050 -0.2572
 6129SOL    HW129849   0.206   1.332   4.067  1.1381  1.4662  1.6987
 6129SOL    HW229850   0.220   1.245   4.180 -0.5038  0.1410 -0.4470
 6130SOL     OW29851   3.959   0.015   4.965 -0.0938 -0.7262 -0.2145
 6130SOL    HW129852   4.036   4.723   4.911 -0.8861  2.1321 -2.1695
 6130SOL    HW229853   3.996   0.009   5.053 -0.0850  1.7526 -0.0766
 6131SOL     OW29854   1.070   0.782   7.349 -0.3133 -0.2233 -0.0323
 6131SOL    HW129855   1.083   0.818   7.262  0.1467 -1.6042 -0.5397
 6131SOL    HW229856   1.052   0.688   7.338  1.3293 -0.6025  0.4998
 6132SOL     OW29857   1.771   0.746  14.418  0.2335  0.3728  0.1522
 6132SOL    HW129858   1.809   0.747  14.330  0.7619  2.2479  0.4166
 6132SOL    HW229859   1.697   0.806  14.408  0.6817  0.8203 -0.4988
 6133SOL     OW29860   1.250   0.131   0.057  0.4243  0.0346  0.1612
 6133SOL    HW129861   1.294   0.208   0.023  0.4941  1.0681  2.6319
 6133SOL    HW229862   1.331   0.080   0.064  0.5412  0.1669 -0.2320
 6134SOL     OW29863   4.238   2.767   2.317  0.3648  0.5584 -0.2097
 6134SOL    HW129864   4.285   2.848   2.299 -1.9045  1.2989 -2.7979
 6134SOL    HW229865   4.306   2.704   2.293  0.6867 -0.2425  2.7499
 6135SOL     OW29866   4.153   0.816   4.542  0.4538 -0.0973 -0.0995
 6135SOL    HW129867   4.203   0.820   4.623 -0.9899 -2.4668  0.9135
 6135SOL    HW229868   4.105   0.899   4.546  0.7484  0.0680  0.0189
 6136SOL     OW29869   1.327   4.539   0.257 -0.2925 -0.0776  0.1995
 6136SOL    HW129870   1.360   4.514   0.171 -0.9530  1.5873 -0.5393
 6136SOL    HW229871   1.336   4.634   0.261 -0.1182 -0.1844  2.3965
 6137SOL     OW29872   4.593   3.420   6.274 -0.6811  0.4298  0.2261
 6137SOL    HW129873   4.604   3.410   6.368 -2.6677 -2.2772  0.1473
 6137SOL    HW229874   4.677   3.421   6.228 -0.3331  2.1344  0.8973
 6138SOL     OW29875   0.968   2.382  17.638 -0.1924 -0.2355 -0.2611
 6138SOL    HW129876   0.926   2.430  17.567  0.0804  1.0013  0.4233
 6138SOL    HW229877   1.027   2.444  17.679  0.1421 -0.0975 -0.9508
 6139SOL     OW29878   0.442   0.857  10.622  0.9072  0.6006  0.3587
 6139SOL    HW129879   0.417   0.873  10.713 -0.0344 -0.6306  0.3236
 6139SOL    HW229880   0.400   0.937  10.592 -0.7782 -1.0258 -1.6882
 6140SOL     OW29881   0.654   4.507   3.092  0.6710  0.2048 -0.1122
 6140SOL    HW129882   0.742   4.529   3.121  0.8969 -1.1535  0.2242
 6140SOL    HW229883   0.611   4.591   3.073  1.8816  0.8176 -0.0878
 6141SOL     OW29884   2.261   1.620   4.216  0.6906 -0.0207  0.0809
 6141SOL    HW129885   2.294   1.710   4.215 -0.6506  0.4708 -1.1568
 6141SOL    HW229886   2.194   1.622   4.284 -0.3663  1.9531 -0.9900
 6142SOL     OW29887   0.090   1.324  14.289 -0.5209  0.2136  0.8013
 6142SOL    HW129888   0.160   1.261  14.268 -1.0086 -0.4831  1.2851
 6142SOL    HW229889   0.130   1.383  14.352  1.1933  0.3061 -0.3554
 6143SOL     OW29890   3.273   2.150   0.970  0.3633  0.2932  0.2021
 6143SOL    HW129891   3.222   2.143   0.889  1.0344  1.7991 -0.3566
 6143SOL    HW229892   3.358   2.157   0.926 -0.1258  0.6155 -0.6972
 6144SOL     OW29893   4.712   1.900  14.940 -0.5682  0.4117  0.2709
 6144SOL    HW129894   4.662   1.957  14.998 -0.0443  0.4809  0.6575
 6144SOL    HW229895   4.643   1.836  14.921 -1.2949  0.4780  2.5942
 6145SOL     OW29896   0.331   4.011   6.794 -0.1750 -0.5122 -0.1713
 6145SOL    HW129897   0.389   4.084   6.770 -2.7970  1.6326  0.0498
 6145SOL    HW229898   0.256   4.062   6.825 -0.1013 -0.3706 -0.2240
 6146SOL     OW29899   1.910   0.758   5.317  0.0129 -0.1655  0.2745
 6146SOL    HW129900   1.840   0.696   5.296 -1.7295  1.7414  0.4503
 6146SOL    HW229901   1.953   0.785   5.236  0.6430  0.2265  0.7420
 6147SOL     OW29902   2.476   3.634   4.133 -0.2158 -0.1944 -0.4630
 6147SOL    HW129903   2.490   3.710   4.190 -0.4680  0.0313 -0.6979
 6147SOL    HW229904   2.403   3.669   4.081  0.7832 -0.1081 -1.8250
 6148SOL     OW29905   1.598   4.000  13.805  0.5553 -0.1688 -0.0574
 6148SOL    HW129906   1.627   3.923  13.854 -3.2603 -0.0218  2.3493
 6148SOL    HW229907   1.679   4.034  13.767  1.2435 -1.3981  0.2949
 6149SOL     OW29908   1.507   4.176   5.000 -0.1824 -0.0645 -0.5079
 6149SOL    HW129909   1.547   4.255   4.964  0.2169 -0.6936 -1.4311
 6149SOL    HW229910   1.490   4.124   4.922 -0.2339  0.0481 -0.5715
 6150SOL     OW29911   4.198   3.982   6.686  0.0470  0.0765 -0.0924
 6150SOL    HW129912   4.170   3.927   6.759 -2.5194  2.5166  0.7739
 6150SOL    HW229913   4.117   4.009   6.643 -0.4847  0.1956  0.9848
 6151SOL     OW29914   3.240   1.693   3.357 -0.0784  0.0523  0.0294
 6151SOL    HW129915   3.277   1.675   3.270 -0.2361  1.8327 -0.4110
 6151SOL    HW229916   3.150   1.666   3.343 -0.7483  1.5584  1.4805
 6152SOL     OW29917   0.730   4.195   7.283  0.6993  0.3347  0.1360
 6152SOL    HW129918   0.697   4.283   7.303 -0.4185 -0.2933  1.0270
 6152SOL    HW229919   0.819   4.197   7.318  0.7254  0.5336  0.0579
 6153SOL     OW29920   3.003   4.137   4.197 -0.1384  1.1330  0.3507
 6153SOL    HW129921   3.062   4.168   4.128 -0.3060 -1.0869 -0.7855
 6153SOL    HW229922   2.956   4.063   4.159 -0.1935 -0.3593  3.3646
 6154SOL     OW29923   2.323   0.070   9.260 -0.1477  0.0852 -0.5812
 6154SOL    HW129924   2.343   0.164   9.256 -2.8226  0.7151  0.9089
 6154SOL    HW229925   2.359   0.041   9.176 -0.8709  0.4691 -1.0231
 6155SOL     OW29926   3.443   4.558   7.335  0.2698 -0.2108 -0.4113
 6155SOL    HW129927   3.506   4.617   7.294 -0.5880  1.2222  0.3588
 6155SOL    HW229928   3.459   4.479   7.284  1.1851 -1.3860  1.6691
 6156SOL     OW29929   3.404   4.010  11.552  0.3771  0.3367 -0.0728
 6156SOL    HW129930   3.390   3.933  11.497 -0.3322  1.9016 -2.0864
 6156SOL    HW229931   3.336   4.066  11.515 -0.6669 -0.0704  1.2410
 6157SOL     OW29932   4.430   2.184   0.440  0.2454  0.0994 -0.0520
 6157SOL    HW129933   4.497   2.149   0.498  0.8662  2.5158  0.6675
 6157SOL    HW229934   4.456   2.160   0.351 -2.5842 -0.2867 -0.7662
 6158SOL     OW29935   2.315   0.086  15.455  0.0043 -0.1157  0.0048
 6158SOL    HW129936   2.311   0.166  15.403  0.4168 -0.1174 -0.0289
 6158SOL    HW229937   2.233   0.102  15.502  1.4576 -0.1751  2.5810
 6159SOL     OW29938   1.227   1.376   7.195  0.4219 -0.5911  0.4179
 6159SOL    HW129939   1.298   1.428   7.231 -0.1012  1.1068 -1.0231
 6159SOL    HW229940   1.197   1.331   7.275  0.6735 -2.7081 -0.6750
 6160SOL     OW29941   2.911   3.894   3.167  0.2586  0.0864  0.0876
 6160SOL    HW129942   2.912   3.989   3.178 -2.0664 -0.0499  1.4645
 6160SOL    HW229943   2.889   3.880   3.074 -0.2927  0.4505  0.1611
 6161SOL     OW29944   2.681   0.386   9.594 -0.3016  0.4732 -0.1243
 6161SOL    HW129945   2.770   0.353   9.600 -1.0823 -1.3584  1.6086
 6161SOL    HW229946   2.683   0.438   9.514  2.6416 -0.5610 -0.7190
 6162SOL     OW29947   1.090   2.825   5.972 -0.3802  0.2684  0.1082
 6162SOL    HW129948   1.099   2.902   5.916 -2.0612  0.8469  0.6085
 6162SOL    HW229949   1.180   2.801   5.995 -0.1276  1.0632 -0.0553
 6163SOL     OW29950   3.633   1.723  11.576  0.3910 -0.1608 -0.9055
 6163SOL    HW129951   3.722   1.701  11.548  0.4204 -1.1621 -0.0479
 6163SOL    HW229952   3.634   1.818  11.584 -0.0478 -0.1937 -0.4592
 6164SOL     OW29953   3.639   1.221  17.105  0.5944 -0.2174 -0.5815
 6164SOL    HW129954   3.666   1.310  17.082 -0.5579  0.6961  1.6731
 6164SOL    HW229955   3.622   1.181  17.020 -1.6956 -2.4973  0.9600
 6165SOL     OW29956   2.138   0.548  15.562  0.4448  0.2314 -0.4614
 6165SOL    HW129957   2.213   0.569  15.618 -0.4525 -2.1610  1.6319
 6165SOL    HW229958   2.106   0.627  15.519  1.9967  1.1830  0.1585
 6166SOL     OW29959   0.381   1.181  17.180 -0.5314 -0.4985  0.4257
 6166SOL    HW129960   0.295   1.219  17.160 -0.4099 -1.3159 -1.6799
 6166SOL    HW229961   0.385   1.099  17.130  1.3386 -0.0523 -0.1346
 6167SOL     OW29962   3.382   4.449   9.269 -0.1900 -0.1767 -0.0301
 6167SOL    HW129963   3.288   4.458   9.285 -0.1912  0.1531 -0.2162
 6167SOL    HW229964   3.400   4.535   9.229  0.8874 -0.4549 -0.1616
 6168SOL     OW29965   4.401   3.681   3.236 -0.7646  0.2614 -0.5997
 6168SOL    HW129966   4.329   3.736   3.206 -0.7430  0.4587 -0.2903
 6168SOL    HW229967   4.388   3.675   3.331 -0.8422 -0.4217 -0.6585
 6169SOL     OW29968   4.499   4.339  12.754 -0.1066 -0.1621  0.3386
 6169SOL    HW129969   4.408   4.364  12.735  0.0257 -0.1744 -0.3203
 6169SOL    HW229970   4.496   4.248  12.726 -2.3251  0.3082 -0.9917
 6170SOL     OW29971   0.947   2.569  11.250 -0.1546 -0.4157 -0.2157
 6170SOL    HW129972   0.872   2.524  11.212  0.5270 -1.2972 -0.5271
 6170SOL    HW229973   1.011   2.498  11.254  1.1129  0.5995 -2.5017
 6171SOL     OW29974   3.481   1.831   6.474 -0.3550 -0.6999  0.0478
 6171SOL    HW129975   3.527   1.750   6.494  0.6491  0.4447  2.4077
 6171SOL    HW229976   3.554   1.890   6.492 -0.7612 -0.6014  1.3813
 6172SOL     OW29977   4.180   1.204   8.412 -0.1105 -0.0854 -0.4760
 6172SOL    HW129978   4.148   1.120   8.444  0.1768  0.1195  0.3402
 6172SOL    HW229979   4.106   1.262   8.426 -0.2533 -0.8938  1.9906
 6173SOL     OW29980   2.833   0.276   9.062 -0.4551 -0.2676 -0.0998
 6173SOL    HW129981   2.777   0.330   9.005 -0.5510  1.0312  1.2362
 6173SOL    HW229982   2.766   0.243   9.123  0.5557 -1.1822  0.5110
 6174SOL     OW29983   2.040   0.520   4.684 -0.1175 -0.0943 -0.2457
 6174SOL    HW129984   1.989   0.553   4.610  0.6613 -0.5071 -0.9661
 6174SOL    HW229985   2.104   0.473   4.631  1.8914  1.7910  0.4926
 6175SOL     OW29986   2.825   3.874   2.908 -0.3640 -0.2194 -0.5002
 6175SOL    HW129987   2.835   3.945   2.845 -0.4253 -0.6371 -0.9799
 6175SOL    HW229988   2.779   3.813   2.850 -0.6932 -1.3487  0.9420
 6176SOL     OW29989   2.623   4.643   0.212  0.0544  0.4374  0.0257
 6176SOL    HW129990   2.584   4.683   0.135  1.4679 -1.7395 -1.8051
 6176SOL    HW229991   2.662   4.718   0.257 -0.0720 -1.1197  2.7394
 6177SOL     OW29992   1.441   2.489   3.195  0.0296 -0.0441  0.1585
 6177SOL    HW129993   1.428   2.439   3.275  3.6782 -0.0290  0.7323
 6177SOL    HW229994   1.352   2.520   3.174 -0.9679 -2.1146  1.3812
 6178SOL     OW29995   3.389   4.490  13.824  0.0058 -0.0646 -0.2198
 6178SOL    HW129996   3.341   4.570  13.846  0.7554  0.3080  0.0631
 6178SOL    HW229997   3.397   4.443  13.906 -1.6380  1.5525  0.8770
 6179SOL     OW29998   2.289   2.737   1.993  0.0933 -0.5564  0.4913
 6179SOL    HW129999   2.262   2.811   2.047  0.4678  0.7234 -1.0726
 6179SOL    HW230000   2.210   2.693   1.961  1.1632 -0.5192 -2.2119
 6180SOL     OW30001   0.006   0.253   5.005  0.0893 -0.3852  0.2306
 6180SOL    HW130002   0.058   0.256   5.086  1.2347 -1.3885 -0.4787
 6180SOL    HW230003   4.666   0.197   5.048 -0.0193 -0.5923 -0.2074
 6181SOL     OW30004   2.990   4.489  13.774  0.0969 -0.3236 -0.1533
 6181SOL    HW130005   2.902   4.521  13.792 -0.2381 -1.2851 -0.0743
 6181SOL    HW230006   3.033   4.530  13.849  1.0012 -3.8388  1.2590
 6182SOL     OW30007   0.145   4.653   7.496 -0.2689 -0.3349 -0.0138
 6182SOL    HW130008   0.216   4.592   7.514  1.1470  0.3002 -3.3833
 6182SOL    HW230009   0.183   0.014   7.515 -1.6785 -0.0308  1.4219
 6183SOL     OW30010   2.482   0.670   2.771 -0.2477  0.2817  0.0024
 6183SOL    HW130011   2.514   0.740   2.828 -2.6386  2.2490 -1.0878
 6183SOL    HW230012   2.446   0.625   2.848 -1.4518  1.2861  0.0154
 6184SOL     OW30013   1.713   0.958  14.201 -0.6199  0.3994  0.2900
 6184SOL    HW130014   1.624   0.990  14.209 -0.6799  0.0991  0.8037
 6184SOL    HW230015   1.724   0.941  14.107 -0.8674 -1.7202  0.6597
 6185SOL     OW30016   3.579   4.508   6.207 -0.0333  0.2701  0.2565
 6185SOL    HW130017   3.542   4.445   6.145  1.0980 -0.2333  0.0979
 6185SOL    HW230018   3.506   4.570   6.205 -0.5237 -0.3011  0.3279
 6186SOL     OW30019   1.951   0.450   3.328 -0.2078 -0.0811 -0.0729
 6186SOL    HW130020   1.912   0.492   3.405  1.2536  0.9059  0.1335
 6186SOL    HW230021   1.940   0.357   3.344  0.5996 -0.1412  0.1389
 6187SOL     OW30022   0.167   0.248  13.565 -0.1195  0.1933  0.3015
 6187SOL    HW130023   0.112   0.309  13.615  0.4588 -1.6630  3.2142
 6187SOL    HW230024   0.243   0.244  13.624 -0.4062 -1.2020  0.5749
 6188SOL     OW30025   4.142   0.229   2.931  0.4081 -0.3659  0.1622
 6188SOL    HW130026   4.060   0.199   2.891 -0.1368  0.9001  0.3473
 6188SOL    HW230027   4.197   0.223   2.853 -0.6073 -1.8729 -0.4594
 6189SOL     OW30028   0.886   3.176   7.181 -0.0890 -0.3024 -0.7612
 6189SOL    HW130029   0.826   3.204   7.112 -2.4351  1.8808  2.1482
 6189SOL    HW230030   0.848   3.091   7.206 -0.9204  0.3054  0.0547
 6190SOL     OW30031   4.103   4.203  13.795 -0.1334  0.3028 -0.1174
 6190SOL    HW130032   4.152   4.155  13.862  2.7266  1.6865 -1.2014
 6190SOL    HW230033   4.045   4.250  13.855  0.8926  1.0575  0.2944
 6191SOL     OW30034   2.010   3.228  16.501 -0.5684 -0.6218  0.1413
 6191SOL    HW130035   1.918   3.201  16.500  0.0400 -2.6016 -2.6550
 6191SOL    HW230036   2.056   3.145  16.507  0.3687 -0.1697 -0.7643
 6192SOL     OW30037   1.498   0.568   7.463 -0.3553 -0.3446  0.3513
 6192SOL    HW130038   1.497   0.567   7.559  0.5955  0.1379  0.3616
 6192SOL    HW230039   1.564   0.500   7.449 -0.6605 -0.5428 -0.1206
 6193SOL     OW30040   2.728   1.322  13.855  0.3142  0.1267  0.4189
 6193SOL    HW130041   2.653   1.372  13.887 -0.0085  0.7926 -1.3737
 6193SOL    HW230042   2.765   1.377  13.786 -1.4372 -1.8578 -2.0910
 6194SOL     OW30043   2.616   2.173   5.193  0.2876  0.1669 -0.1022
 6194SOL    HW130044   2.608   2.238   5.123 -1.1613 -0.8419 -0.8684
 6194SOL    HW230045   2.550   2.205   5.255  0.1947 -1.6965  0.7506
 6195SOL     OW30046   4.492   0.401   8.371 -0.1924  0.5529 -0.3258
 6195SOL    HW130047   4.452   0.338   8.431  0.5627 -2.0439 -2.5671
 6195SOL    HW230048   4.568   0.432   8.420 -1.2864 -0.1829  1.8111
 6196SOL     OW30049   2.931   4.158   6.284  0.5505  0.3844 -0.1292
 6196SOL    HW130050   2.891   4.229   6.234 -0.4739 -1.3842 -1.8414
 6196SOL    HW230051   3.015   4.201   6.297  0.0520  1.7513 -1.2866
 6197SOL     OW30052   0.099   3.546   5.180  0.3934  0.1292 -0.8889
 6197SOL    HW130053   0.067   3.461   5.152 -0.4852 -1.0675  3.6696
 6197SOL    HW230054   0.050   3.611   5.130  0.3452  0.5582 -0.2996
 6198SOL     OW30055   1.879   1.320   9.304  0.2910 -0.1792  0.3589
 6198SOL    HW130056   1.805   1.367   9.267  2.0754  1.9477 -0.4875
 6198SOL    HW230057   1.917   1.305   9.218 -0.1650 -0.7979  0.2643
 6199SOL     OW30058   3.813   3.537  12.048 -0.4136 -0.2329 -0.1777
 6199SOL    HW130059   3.778   3.450  12.065  1.9212 -1.0590  0.3714
 6199SOL    HW230060   3.755   3.596  12.097 -0.4204  0.1250 -0.6136
 6200SOL     OW30061   3.296   4.560  10.403  0.0599 -0.2671 -0.0996
 6200SOL    HW130062   3.203   4.584  10.397 -0.3911 -2.7802 -3.0713
 6200SOL    HW230063   3.315   4.515  10.320  0.3717 -1.1647  0.4589
 6201SOL     OW30064   1.127   3.803  11.043 -0.0461  0.1172 -0.4644
 6201SOL    HW130065   1.167   3.792  10.957  1.9035  0.4571  0.4069
 6201SOL    HW230066   1.203   3.790  11.099 -2.4849 -1.7976  2.4385
 6202SOL     OW30067   1.582   4.602   7.757  0.4006  0.1365  0.1424
 6202SOL    HW130068   1.575   4.611   7.662  0.5336 -0.1312  0.1075
 6202SOL    HW230069   1.657   4.659   7.776  0.2203 -0.3881  2.4098
 6203SOL     OW30070   1.813   0.585   1.731 -0.2585  0.0240 -0.1098
 6203SOL    HW130071   1.860   0.504   1.750 -1.0723 -0.6244 -0.8854
 6203SOL    HW230072   1.802   0.559   1.640 -1.1740 -0.5714  0.1720
 6204SOL     OW30073   4.490   4.522   5.668 -0.0207 -0.7615 -0.1214
 6204SOL    HW130074   4.517   4.483   5.751 -0.6899 -1.6966 -0.3425
 6204SOL    HW230075   4.572   4.501   5.623  0.9881  2.0508  0.4197
 6205SOL     OW30076   1.978   3.122  11.188 -0.3195  0.0844  0.9111
 6205SOL    HW130077   1.954   3.209  11.221 -0.0215  0.3530  0.4309
 6205SOL    HW230078   1.948   3.072  11.264  0.5555 -0.2270  1.0509
 6206SOL     OW30079   3.681   1.301   9.016  0.0267 -0.3881 -0.4185
 6206SOL    HW130080   3.719   1.378   9.058 -1.1507 -0.6361  1.0907
 6206SOL    HW230081   3.645   1.250   9.089  0.4540 -1.3618 -0.8819
 6207SOL     OW30082   0.073   4.484  14.765  0.0317  0.6095 -0.0852
 6207SOL    HW130083   4.715   4.484  14.813  0.1447  0.6066  0.1098
 6207SOL    HW230084   0.134   4.436  14.821 -1.0373 -0.7094 -0.0672
 6208SOL     OW30085   3.605   3.093   6.441 -0.1863  0.4250  0.3143
 6208SOL    HW130086   3.594   3.167   6.381  2.0410  2.5704  2.5164
 6208SOL    HW230087   3.520   3.069   6.478 -0.0234 -0.3893  0.1525
 6209SOL     OW30088   3.944   2.154   7.910  0.1007  0.5384 -0.3190
 6209SOL    HW130089   3.943   2.062   7.886  0.2354  0.7256 -1.0280
 6209SOL    HW230090   3.908   2.136   7.997 -0.1154  0.3018 -0.4587
 6210SOL     OW30091   3.462   0.585   4.239  0.2917 -0.2974  0.0281
 6210SOL    HW130092   3.428   0.656   4.185 -0.6609 -0.9134 -0.1856
 6210SOL    HW230093   3.548   0.622   4.256  0.2157  0.1651 -0.5907
 6211SOL     OW30094   1.998   3.084  15.175 -0.0410  0.1101  0.2154
 6211SOL    HW130095   1.930   3.141  15.210 -0.0963  0.0875  0.1438
 6211SOL    HW230096   2.005   3.117  15.085  0.9342  1.9133  0.9553
 6212SOL     OW30097   3.898   3.884   8.403 -0.4594 -0.7258  0.1889
 6212SOL    HW130098   3.935   3.802   8.436  0.1285  0.1429  1.7021
 6212SOL    HW230099   3.925   3.953   8.464 -0.4899  0.7312 -1.4528
 6213SOL     OW30100   3.886   0.307  10.330 -0.1742 -0.4899  0.6643
 6213SOL    HW130101   3.803   0.348  10.355  0.4500  1.2094 -0.0257
 6213SOL    HW230102   3.929   0.391  10.317 -1.1048 -0.3043 -1.2929
 6214SOL     OW30103   2.339   2.696   4.954 -0.1600  0.0271  0.1160
 6214SOL    HW130104   2.323   2.726   4.865 -0.2966 -1.3652 -0.3200
 6214SOL    HW230105   2.348   2.602   4.940  0.9431  0.4350 -1.8846
 6215SOL     OW30106   0.652   1.974   4.778  0.2943 -0.1502  0.5049
 6215SOL    HW130107   0.576   1.928   4.744  0.2743 -0.1319  0.5244
 6215SOL    HW230108   0.611   2.023   4.850 -2.4572  0.1044 -1.2195
 6216SOL     OW30109   0.708   3.723   2.829 -0.0231 -0.0803  0.2517
 6216SOL    HW130110   0.750   3.638   2.828 -0.4224 -0.2700 -0.6251
 6216SOL    HW230111   0.615   3.700   2.820 -0.3191  1.8442 -1.6230
 6217SOL     OW30112   2.567   2.949   3.139  0.1141 -0.2206  0.0047
 6217SOL    HW130113   2.471   2.955   3.134  0.2026 -0.4869 -2.1309
 6217SOL    HW230114   2.577   2.905   3.223 -0.3805 -0.7920 -0.2332
 6218SOL     OW30115   0.737   2.125  17.334 -0.0215 -0.3050  0.0818
 6218SOL    HW130116   0.728   2.031  17.319  0.8067 -0.2959 -0.4946
 6218SOL    HW230117   0.815   2.134  17.388 -0.1571 -0.3661  0.2877
 6219SOL     OW30118   1.778   2.061  12.195 -0.0984 -0.8413  0.0102
 6219SOL    HW130119   1.796   1.992  12.258  0.4964 -2.6188 -2.1109
 6219SOL    HW230120   1.733   2.131  12.242  2.6685  0.9573  0.0149
 6220SOL     OW30121   4.544   2.918   7.514  0.5781 -0.7394 -0.2943
 6220SOL    HW130122   4.474   2.868   7.472 -0.5680  0.4701  0.1811
 6220SOL    HW230123   4.622   2.866   7.494  2.3463  1.2642  1.3207
 6221SOL     OW30124   4.576   2.263   1.991 -1.0673  0.3042 -0.4735
 6221SOL    HW130125   4.634   2.229   2.058  1.4961  0.6000 -2.5581
 6221SOL    HW230126   4.588   2.358   1.988 -0.3157  0.3043  2.1358
 6222SOL     OW30127   1.909   3.228   3.280  0.0871  0.2360 -0.3573
 6222SOL    HW130128   1.921   3.165   3.351  3.0712  1.7213  0.4597
 6222SOL    HW230129   1.928   3.170   3.205 -0.0544  0.7666 -0.7998
 6223SOL     OW30130   3.355   3.687  10.227 -0.0286 -0.1279  0.4593
 6223SOL    HW130131   3.370   3.653  10.315  1.0390 -1.7962 -0.3482
 6223SOL    HW230132   3.339   3.781  10.239 -0.4165 -0.0151 -0.9393
 6224SOL     OW30133   4.275   4.413  12.127 -0.0722  0.1131  0.7123
 6224SOL    HW130134   4.290   4.377  12.039  1.2656  1.2990  0.4584
 6224SOL    HW230135   4.209   4.351  12.158 -0.3171  0.0353  0.0532
 6225SOL     OW30136   2.404   4.392   4.485 -0.0437  0.4190 -0.4093
 6225SOL    HW130137   2.483   4.431   4.446  1.1531 -1.2050  0.4251
 6225SOL    HW230138   2.405   4.422   4.576 -0.0996 -2.5123  0.5494
 6226SOL     OW30139   2.506   1.453   4.154  0.4053 -0.2572  0.5274
 6226SOL    HW130140   2.482   1.379   4.098  1.3181  0.3017 -0.6117
 6226SOL    HW230141   2.422   1.497   4.159  0.4532 -0.2385  1.1538
 6227SOL     OW30142   0.105   3.168  11.192  0.3918  0.4943  0.4160
 6227SOL    HW130143   0.134   3.094  11.139  1.2506 -0.4918  2.2798
 6227SOL    HW230144   0.128   3.246  11.140  4.4640 -1.4154 -0.5972
 6228SOL     OW30145   3.156   1.908   3.559  0.1788  0.1465 -0.1724
 6228SOL    HW130146   3.180   1.840   3.497  1.3174 -0.3361  0.7948
 6228SOL    HW230147   3.243   1.927   3.595 -2.3607  4.8351  3.5471
 6229SOL     OW30148   0.459   4.455  13.647  0.0606 -0.2548 -0.1176
 6229SOL    HW130149   0.369   4.434  13.671 -0.6807  4.0039  0.8672
 6229SOL    HW230150   0.446   4.540  13.606 -2.0131 -0.5887 -0.1587
 6230SOL     OW30151   4.439   4.343   7.683  0.4077  0.2595 -0.2556
 6230SOL    HW130152   4.532   4.365   7.677  0.1628  1.2559 -0.3059
 6230SOL    HW230153   4.431   4.293   7.764  0.7758 -0.3319 -0.5813
 6231SOL     OW30154   0.461   1.523  13.132  0.4912 -0.7701  0.3201
 6231SOL    HW130155   0.466   1.612  13.097 -0.5022 -0.6423  0.5187
 6231SOL    HW230156   0.547   1.492  13.102  1.4650  2.8786 -0.6133
 6232SOL     OW30157   2.359   2.822   6.805  0.1218  0.1666 -0.4089
 6232SOL    HW130158   2.380   2.808   6.898 -0.9074 -1.2239 -0.4011
 6232SOL    HW230159   2.428   2.887   6.788 -0.6640  1.0331 -0.3236
 6233SOL     OW30160   2.006   4.699   6.638  0.0340  0.0946 -0.5562
 6233SOL    HW130161   2.032   4.723   6.727  1.8146 -0.8648 -0.8074
 6233SOL    HW230162   2.032   4.607   6.635 -1.6758 -0.3828 -0.3764
 6234SOL     OW30163   0.340   0.156  13.191  0.1104  0.1345 -0.3038
 6234SOL    HW130164   0.422   0.127  13.230 -0.1614  0.3503  0.4418
 6234SOL    HW230165   0.368   0.184  13.104 -2.0160 -2.2799 -1.7750
 6235SOL     OW30166   1.526   4.474   2.565  0.2010  0.0502  0.3122
 6235SOL    HW130167   1.475   4.399   2.533 -2.1270  1.4087  0.8371
 6235SOL    HW230168   1.614   4.448   2.538 -0.2485 -2.2244  1.0340
 6236SOL     OW30169   4.455   0.910   3.962 -0.0244 -0.2427 -0.0920
 6236SOL    HW130170   4.440   0.837   3.901  1.3319 -2.3235  2.0619
 6236SOL    HW230171   4.517   0.958   3.906  2.0640 -0.0841  2.3652
 6237SOL     OW30172   1.402   1.282   7.006 -0.2160  0.4537  0.2956
 6237SOL    HW130173   1.347   1.323   7.074 -1.1717  0.7852 -0.6747
 6237SOL    HW230174   1.452   1.359   6.981  3.4777 -1.5522  1.5994
 6238SOL     OW30175   0.274   4.328  14.870  0.1803 -0.1421  0.3741
 6238SOL    HW130176   0.213   4.342  14.943  0.9104 -1.7171  1.2746
 6238SOL    HW230177   0.337   4.265  14.903 -0.5274 -1.2642 -0.4194
 6239SOL     OW30178   2.450   0.558  16.164 -0.2789  0.6013 -0.6607
 6239SOL    HW130179   2.364   0.520  16.182 -1.1180  2.1793 -1.3674
 6239SOL    HW230180   2.473   0.602  16.245  0.6682 -0.6537 -0.2559
 6240SOL     OW30181   2.397   2.169  13.168 -0.3477  0.2572  0.1330
 6240SOL    HW130182   2.318   2.157  13.221 -0.6508  0.4524 -0.2786
 6240SOL    HW230183   2.465   2.127  13.221  0.5499  0.5552 -0.7884
 6241SOL     OW30184   4.072   0.264   4.420 -0.3095  0.4129 -0.2782
 6241SOL    HW130185   4.072   0.201   4.492 -0.3877  0.5372 -0.1684
 6241SOL    HW230186   4.063   0.201   4.349 -0.0927 -1.0813  1.0004
 6242SOL     OW30187   1.779   0.302   1.213  0.2053 -0.6840 -0.2947
 6242SOL    HW130188   1.843   0.240   1.176  2.8081  0.8361  1.6183
 6242SOL    HW230189   1.830   0.381   1.198  0.0880 -0.8592 -1.5820
 6243SOL     OW30190   2.948   1.775  11.221  0.8837  0.3647  0.3621
 6243SOL    HW130191   2.984   1.841  11.162  0.7447 -0.2388 -0.4069
 6243SOL    HW230192   2.898   1.835  11.277  0.1222 -0.8497  0.9844
 6244SOL     OW30193   0.180   3.253   8.486 -0.2397 -0.2053 -0.1797
 6244SOL    HW130194   0.118   3.318   8.518  1.2816  0.6099  1.1212
 6244SOL    HW230195   0.133   3.170   8.499 -0.9559 -0.1787 -2.6335
 6245SOL     OW30196   0.621   2.697   7.700  0.8931 -0.3646 -0.3739
 6245SOL    HW130197   0.533   2.690   7.664  1.7995  0.5427 -2.7618
 6245SOL    HW230198   0.657   2.608   7.687 -1.4416 -1.2092 -0.9428
 6246SOL     OW30199   0.775   0.672  11.710 -0.1600  0.0695  0.5961
 6246SOL    HW130200   0.785   0.767  11.714  2.3320 -0.1202 -0.5444
 6246SOL    HW230201   0.691   0.669  11.756 -1.0912  0.2654 -1.0961
 6247SOL     OW30202   0.040   2.569   0.266 -0.0763 -0.5715 -0.0591
 6247SOL    HW130203   4.672   2.545   0.272 -0.2510 -0.1186 -0.9862
 6247SOL    HW230204   0.036   2.613   0.181  1.7230 -0.1218  0.0792
 6248SOL     OW30205   3.667   3.491   9.128  0.2771  0.1349  0.3314
 6248SOL    HW130206   3.622   3.408   9.146  0.8222 -0.2798 -0.2034
 6248SOL    HW230207   3.667   3.498   9.033 -3.2787 -1.8551  0.1719
 6249SOL     OW30208   3.049   4.100  10.508 -0.1975 -0.1528  0.6005
 6249SOL    HW130209   3.140   4.100  10.480 -0.9977  0.1681 -2.0023
 6249SOL    HW230210   3.000   4.049  10.443 -1.4786  1.7568  0.0802
 6250SOL     OW30211   4.539   2.356   7.462  0.2395 -0.6194 -0.1706
 6250SOL    HW130212   4.488   2.315   7.531 -0.4190  0.4714 -0.0067
 6250SOL    HW230213   4.465   2.395   7.416  1.1934  0.0880 -1.1159
 6251SOL     OW30214   2.508   3.147   7.435  0.0913  0.0631  0.2246
 6251SOL    HW130215   2.440   3.173   7.372  0.1736 -1.6789 -0.5743
 6251SOL    HW230216   2.590   3.182   7.402 -0.7867  0.9387 -1.0289
 6252SOL     OW30217   1.510   3.637   7.387  0.5995  0.3024  0.0259
 6252SOL    HW130218   1.513   3.542   7.376 -1.2363 -0.0281  2.4157
 6252SOL    HW230219   1.511   3.637   7.483  0.4859 -2.6522  0.0381
 6253SOL     OW30220   2.870   4.360  14.536  0.1477 -0.0482  0.1215
 6253SOL    HW130221   2.854   4.454  14.522 -1.8913 -0.6495 -1.5640
 6253SOL    HW230222   2.966   4.360  14.531  0.2466 -0.2118  2.0714
 6254SOL     OW30223   4.668   0.279   4.243 -0.1639 -0.4506 -0.0532
 6254SOL    HW130224   0.012   0.346   4.250 -2.1317  1.6256 -0.3854
 6254SOL    HW230225   4.698   0.215   4.179 -1.6325  0.2223 -1.4114
 6255SOL     OW30226   0.216   2.035   7.689  0.4243 -0.1500  0.1164
 6255SOL    HW130227   0.240   1.961   7.745 -0.1168 -0.9192 -0.6747
 6255SOL    HW230228   0.125   2.012   7.667  0.9191 -0.3458 -1.6585
 6256SOL     OW30229   0.714   4.439   8.408  0.2009 -0.2833 -0.2028
 6256SOL    HW130230   0.782   4.380   8.440  1.1674  0.0820 -1.5613
 6256SOL    HW230231   0.719   4.429   8.313 -0.2745  2.2319 -0.4889
 6257SOL     OW30232   0.527   2.444  11.446  0.3695 -0.2735 -0.3777
 6257SOL    HW130233   0.555   2.384  11.516 -0.3106  0.9620  0.9732
 6257SOL    HW230234   0.600   2.505  11.452  0.4304 -0.2482 -1.4376
 6258SOL     OW30235   0.408   1.567  17.329  0.0207  0.2133  0.4166
 6258SOL    HW130236   0.469   1.493  17.327 -1.9755 -1.4088 -0.8333
 6258SOL    HW230237   0.426   1.600  17.241  1.7626  1.4510  1.2457
 6259SOL     OW30238   1.126   3.263   7.031  0.0060 -0.1088 -0.0317
 6259SOL    HW130239   1.045   3.245   7.080 -1.4617  1.1551 -1.9800
 6259SOL    HW230240   1.178   3.322   7.086 -0.2673 -0.1164  0.2358
 6260SOL     OW30241   1.523   1.927   2.179  0.0144 -0.4215  0.0649
 6260SOL    HW130242   1.486   1.974   2.254  2.7434  3.6920 -1.1556
 6260SOL    HW230243   1.609   1.965   2.160 -0.9723  1.4973 -0.5297
 6261SOL     OW30244   2.393   0.584  15.040 -0.1080 -0.4330  0.0447
 6261SOL    HW130245   2.402   0.678  15.022 -0.6934 -0.4833 -0.5295
 6261SOL    HW230246   2.340   0.598  15.119  0.1055  4.1848 -0.6219
 6262SOL     OW30247   4.157   2.210   0.476 -0.4317 -0.0652  0.0968
 6262SOL    HW130248   4.152   2.163   0.393 -2.1344 -2.4443  1.5663
 6262SOL    HW230249   4.253   2.213   0.479 -0.3546 -2.3239 -0.5532
 6263SOL     OW30250   4.498   1.058   6.142 -0.4453 -0.2322 -0.9848
 6263SOL    HW130251   4.485   1.066   6.047 -3.7429 -3.4627 -0.7986
 6263SOL    HW230252   4.464   1.141   6.174 -1.2069 -1.4545  1.3803
 6264SOL     OW30253   4.654   3.739   8.405  0.1309 -0.0184 -0.4884
 6264SOL    HW130254   0.009   3.686   8.414  0.8181  1.1031  0.1778
 6264SOL    HW230255   4.614   3.694   8.331  1.6037 -0.2894 -1.1211
 6265SOL     OW30256   2.843   0.692   7.783 -0.0762 -0.3647 -0.0842
 6265SOL    HW130257   2.846   0.725   7.693 -0.0729 -1.8132 -0.6057
 6265SOL    HW230258   2.919   0.635   7.792 -0.1111 -0.6916 -1.8005
 6266SOL     OW30259   3.867   3.987   3.895 -0.0486  0.3766 -0.1480
 6266SOL    HW130260   3.862   4.059   3.832 -1.1236  0.4098 -0.0204
 6266SOL    HW230261   3.956   4.002   3.928 -0.0740  2.3730 -0.9772
 6267SOL     OW30262   4.407   0.929  14.258 -0.2869 -0.1116  0.2386
 6267SOL    HW130263   4.373   0.840  14.258 -1.7693  0.4416  2.4170
 6267SOL    HW230264   4.347   0.974  14.198  0.8151  0.1112 -0.6837
 6268SOL     OW30265   0.730   1.603   7.922  0.2286 -0.4794 -0.3643
 6268SOL    HW130266   0.781   1.684   7.917 -1.6570  0.8619  1.8800
 6268SOL    HW230267   0.727   1.586   7.828  0.6625 -2.1646 -0.0773
 6269SOL     OW30268   4.258   0.336  15.017  0.2151 -0.4086  0.6652
 6269SOL    HW130269   4.165   0.318  15.029 -0.2196  1.1123 -0.3923
 6269SOL    HW230270   4.284   0.246  14.998  0.3502 -0.3249  0.4464
 6270SOL     OW30271   2.580   1.250   5.366 -0.6465  0.1865 -0.0798
 6270SOL    HW130272   2.607   1.226   5.277  0.9769 -0.2350  0.5143
 6270SOL    HW230273   2.655   1.303   5.393  0.4208 -1.1004 -0.5187
 6271SOL     OW30274   4.042   0.015   5.494 -0.1446  0.1516 -0.6516
 6271SOL    HW130275   3.953   0.035   5.524 -0.0487  0.5696 -0.6461
 6271SOL    HW230276   4.071   4.686   5.568  0.4329  0.6791 -0.4973
 6272SOL     OW30277   3.777   4.715  12.874  0.0692  0.2043  0.7762
 6272SOL    HW130278   3.795   4.692  12.965 -0.1872  1.0579  1.0397
 6272SOL    HW230279   3.686   0.013  12.893 -1.0762 -4.0120  0.2620
 6273SOL     OW30280   2.695   0.326   4.427 -0.3597 -0.3591 -0.0785
 6273SOL    HW130281   2.773   0.373   4.397 -0.5816  0.8584  1.2791
 6273SOL    HW230282   2.667   0.376   4.503 -1.4115 -1.2463  0.1168
 6274SOL     OW30283   0.212   1.531  17.032  0.3121  0.1597  0.3954
 6274SOL    HW130284   0.181   1.604  17.086  1.1830  0.5488  0.3694
 6274SOL    HW230285   0.302   1.557  17.049  0.5698 -0.8323  0.4926
 6275SOL     OW30286   4.557   0.027  12.922 -0.3690  0.2808  0.4836
 6275SOL    HW130287   4.651   0.020  12.936 -0.1918  1.3658 -0.0868
 6275SOL    HW230288   4.526   4.668  12.956  1.6602 -1.7464 -2.6730
 6276SOL     OW30289   3.260   2.649   0.270  0.6409  0.5809 -0.2052
 6276SOL    HW130290   3.297   2.689   0.191  0.0411  0.7079 -0.4276
 6276SOL    HW230291   3.180   2.702   0.273  0.8909  0.9625 -0.1696
 6277SOL     OW30292   3.651   0.513   5.986  0.1251 -0.2644 -0.0643
 6277SOL    HW130293   3.720   0.569   6.020  0.0731 -0.2290 -0.0167
 6277SOL    HW230294   3.704   0.434   5.973  2.1160  0.8024  1.6605
 6278SOL     OW30295   0.581   4.372  12.420  0.3950 -0.4718 -0.2741
 6278SOL    HW130296   0.514   4.438  12.399  1.3279  0.1927 -1.1740
 6278SOL    HW230297   0.531   4.303  12.462  0.6982 -0.0455  0.7788
 6279SOL     OW30298   3.505   4.565   8.604 -0.7913 -0.0089  0.2853
 6279SOL    HW130299   3.564   4.512   8.549 -0.1915  0.5810  0.3606
 6279SOL    HW230300   3.538   4.654   8.588  1.2771 -0.8899 -0.3518
 6280SOL     OW30301   2.830   2.811   6.402  1.1490  0.7070 -0.1602
 6280SOL    HW130302   2.891   2.852   6.340  0.1044  0.9435 -1.0358
 6280SOL    HW230303   2.788   2.882   6.450  0.1943  1.2407 -1.7657
 6281SOL     OW30304   0.989   4.080  13.002  0.1022  0.1183  0.5752
 6281SOL    HW130305   0.914   4.035  12.961  0.9161  0.5853 -1.4455
 6281SOL    HW230306   1.059   4.063  12.939 -0.9402 -1.3032 -0.1951
 6282SOL     OW30307   0.352   3.278   3.097 -0.1460 -0.4777  0.7618
 6282SOL    HW130308   0.296   3.279   3.019  0.0913  0.3470  0.6006
 6282SOL    HW230309   0.441   3.300   3.071 -0.1849 -0.6832  0.4467
 6283SOL     OW30310   3.058   1.785   2.981  0.1548 -0.1634 -0.0714
 6283SOL    HW130311   3.099   1.852   2.926 -2.0639  0.6437 -0.7222
 6283SOL    HW230312   3.130   1.722   2.972  1.9057  1.8830 -0.3680
 6284SOL     OW30313   0.121   4.317   2.898 -0.2439  0.1293  0.0148
 6284SOL    HW130314   0.212   4.293   2.913 -0.3039 -1.0947 -1.5346
 6284SOL    HW230315   0.096   4.257   2.827  0.1516 -2.4154  2.0419
 6285SOL     OW30316   3.934   1.091  13.939 -0.4915  0.6576  0.3789
 6285SOL    HW130317   3.869   1.061  13.876  0.3500 -1.9414  0.7127
 6285SOL    HW230318   4.003   1.135  13.889 -0.7386 -0.3718 -0.8911
 6286SOL     OW30319   0.246   1.786   0.839  0.6399  0.1443 -0.0533
 6286SOL    HW130320   0.278   1.767   0.928 -2.4025 -1.0148  0.7965
 6286SOL    HW230321   0.152   1.801   0.849  0.5735 -0.2321 -0.1255
 6287SOL     OW30322   4.038   4.026   1.046 -0.7790 -0.2810 -0.3221
 6287SOL    HW130323   3.952   4.061   1.067 -0.5527  0.4328 -0.5935
 6287SOL    HW230324   4.061   3.988   1.131  1.7475 -0.4405 -1.0492
 6288SOL     OW30325   3.993   2.670   3.211  0.7852 -0.1924  0.2600
 6288SOL    HW130326   4.004   2.636   3.300 -0.8832  0.5895  0.7602
 6288SOL    HW230327   3.973   2.590   3.163  0.9182 -0.0247 -0.0738
 6289SOL     OW30328   4.361   4.180  11.158 -0.4161  0.4023 -0.0503
 6289SOL    HW130329   4.382   4.206  11.248  0.1982  0.6627 -0.2667
 6289SOL    HW230330   4.393   4.255  11.109 -0.3635 -0.3326 -1.1648
 6290SOL     OW30331   0.393   2.121   4.722  0.2786  0.8605  0.0962
 6290SOL    HW130332   0.319   2.156   4.672 -0.2405 -0.7465 -0.2638
 6290SOL    HW230333   0.464   2.138   4.660 -0.7712 -2.5487 -2.0644
 6291SOL     OW30334   1.821   3.278   1.750 -0.1995  0.0243 -0.0684
 6291SOL    HW130335   1.881   3.344   1.717  0.2230  0.0186  0.6956
 6291SOL    HW230336   1.887   3.214   1.777  0.8354  1.5195  0.9243
 6292SOL     OW30337   1.456   1.480   7.265  0.0272 -0.2161  0.2034
 6292SOL    HW130338   1.489   1.563   7.299 -0.3917 -0.2512  0.6862
 6292SOL    HW230339   1.534   1.424   7.272 -1.2983 -1.9749  0.9345
 6293SOL     OW30340   0.542   0.358   0.609 -0.7339 -0.7388  0.0853
 6293SOL    HW130341   0.575   0.305   0.538 -0.0634  1.2422 -1.0823
 6293SOL    HW230342   0.447   0.344   0.604 -0.6514 -0.0237 -3.0212
 6294SOL     OW30343   2.250   3.945   4.805  0.0396  0.6224 -0.1080
 6294SOL    HW130344   2.198   3.866   4.786  1.2601 -0.3104  0.3883
 6294SOL    HW230345   2.224   3.964   4.895 -1.1113  2.4530 -0.8207
 6295SOL     OW30346   0.979   3.221   4.210 -0.2712 -0.0806 -0.0025
 6295SOL    HW130347   0.908   3.265   4.162 -1.5531  0.4103  2.3539
 6295SOL    HW230348   0.929   3.157   4.260 -0.2560  1.1504  1.5838
 6296SOL     OW30349   1.116   4.127   1.363 -0.0511 -0.3719  0.8868
 6296SOL    HW130350   1.021   4.137   1.365 -0.0130 -0.0253  0.8928
 6296SOL    HW230351   1.128   4.046   1.412  0.3653  1.1184  3.2058
 6297SOL     OW30352   3.862   2.660  16.395 -0.2187 -0.9124  0.6004
 6297SOL    HW130353   3.772   2.631  16.381 -1.4565  2.1341  2.2703
 6297SOL    HW230354   3.858   2.755  16.385 -0.2382 -0.7610  2.0387
 6298SOL     OW30355   4.079   0.852   5.606 -0.3584  0.1474  0.2406
 6298SOL    HW130356   4.152   0.808   5.563 -1.9289 -0.7266 -1.5398
 6298SOL    HW230357   4.103   0.942   5.584 -1.5788  0.4579  0.1812
 6299SOL     OW30358   1.722   1.670   7.698 -0.2488  0.0895 -0.2574
 6299SOL    HW130359   1.744   1.699   7.610 -1.6825 -1.2059 -1.0514
 6299SOL    HW230360   1.771   1.736   7.747 -1.4224  0.5611  0.3024
 6300SOL     OW30361   1.119   4.415   0.404  0.4566  0.0212  0.1808
 6300SOL    HW130362   1.108   4.320   0.397 -0.0728 -0.0128  1.4936
 6300SOL    HW230363   1.197   4.437   0.353 -1.4457  1.6658 -2.0507
 6301SOL     OW30364   3.283   3.760   6.720 -0.0190 -0.2766  0.0599
 6301SOL    HW130365   3.278   3.665   6.710 -0.6103 -0.1550 -0.7509
 6301SOL    HW230366   3.373   3.769   6.751 -0.3819 -1.4636  1.4844
 6302SOL     OW30367   0.951   0.488   3.508  0.2602  0.2294  0.4015
 6302SOL    HW130368   0.893   0.416   3.533 -0.1507  0.6584  0.6864
 6302SOL    HW230369   0.891   0.562   3.497  0.3958  0.4309  1.0251
 6303SOL     OW30370   0.234   2.365  11.966  0.4651  0.4202 -0.2139
 6303SOL    HW130371   0.230   2.460  11.964 -0.1131  0.4628  3.0985
 6303SOL    HW230372   0.194   2.345  12.051 -0.2236 -0.1725 -0.6832
 6304SOL     OW30373   0.306   3.713   8.164  0.3716 -0.7671  0.3665
 6304SOL    HW130374   0.295   3.622   8.135 -2.1477 -0.9265  1.7576
 6304SOL    HW230375   0.381   3.751   8.118 -0.6822  1.2068  0.2571
 6305SOL     OW30376   1.856   1.449  11.261  0.0500 -0.6687 -0.1127
 6305SOL    HW130377   1.843   1.374  11.203 -1.1324  0.6616 -1.5480
 6305SOL    HW230378   1.780   1.501  11.233  0.5744  0.3424  0.3572
 6306SOL     OW30379   0.071   1.770   0.176  0.5838  0.1120  0.0525
 6306SOL    HW130380   0.123   1.729   0.107  1.0238  0.3234  0.2646
 6306SOL    HW230381   0.036   1.692   0.220 -0.0716 -0.5243 -1.6068
 6307SOL     OW30382   0.036   2.490   6.086 -0.0949 -0.1143  0.2204
 6307SOL    HW130383   4.687   2.429   6.086 -0.0805 -0.1517 -1.7653
 6307SOL    HW230384   0.007   2.575   6.051  0.5572 -0.8163 -2.0510
 6308SOL     OW30385   1.783   0.308   7.065  0.8904 -0.1710 -0.5934
 6308SOL    HW130386   1.867   0.308   7.019  0.5977 -1.4350 -1.1162
 6308SOL    HW230387   1.813   0.264   7.145  0.3608 -0.7026 -0.6885
 6309SOL     OW30388   1.515   2.823   7.145  0.4134  0.1536 -0.2618
 6309SOL    HW130389   1.573   2.890   7.182  0.0681  0.6526 -0.6149
 6309SOL    HW230390   1.467   2.871   7.077 -1.8215 -0.9870  0.5254
 6310SOL     OW30391   2.249   4.511   0.340  0.0414  0.3064 -0.4166
 6310SOL    HW130392   2.186   4.488   0.271  1.8661 -3.9732 -0.6444
 6310SOL    HW230393   2.223   4.447   0.406 -1.6320  2.1920  0.7294
 6311SOL     OW30394   3.693   0.861   9.315  0.9701  0.5012 -0.1108
 6311SOL    HW130395   3.630   0.864   9.244  0.1761  0.4393  0.5924
 6311SOL    HW230396   3.776   0.885   9.274 -0.9193  2.7348 -2.5788
 6312SOL     OW30397   4.044   1.212   5.892 -0.3619  0.1675  0.4738
 6312SOL    HW130398   3.986   1.147   5.851  1.6315  0.7028 -3.2005
 6312SOL    HW230399   4.009   1.232   5.979 -0.2936 -2.2309  1.0521
 6313SOL     OW30400   4.635   0.955   1.370  0.4090 -0.4341  0.4095
 6313SOL    HW130401   4.556   0.970   1.319  0.7689 -0.7938 -0.2649
 6313SOL    HW230402   4.697   1.009   1.320 -0.8359 -0.2324 -0.9159
 6314SOL     OW30403   3.331   3.347   9.136  0.1045 -0.5038  0.0865
 6314SOL    HW130404   3.418   3.324   9.168  0.6167  0.0036 -0.9098
 6314SOL    HW230405   3.342   3.442   9.137  1.5357 -0.6529 -0.9929
 6315SOL     OW30406   2.062   2.921   4.062 -0.3160  0.2325  0.0301
 6315SOL    HW130407   2.068   2.829   4.088  0.2821  0.1781 -0.2933
 6315SOL    HW230408   2.130   2.944   4.125 -0.7990  0.7216  0.3690
 6316SOL     OW30409   3.810   4.573   2.489 -0.3052 -0.3629  0.1330
 6316SOL    HW130410   3.817   4.665   2.466  0.3586 -0.1934  0.9969
 6316SOL    HW230411   3.758   4.537   2.417 -1.2588  0.3747  0.4646
 6317SOL     OW30412   4.235   3.069   5.318 -0.5242  0.1277 -0.8497
 6317SOL    HW130413   4.214   2.977   5.330  0.5732  0.0440  0.3178
 6317SOL    HW230414   4.307   3.088   5.378 -0.5895 -0.4965 -0.5849
 6318SOL     OW30415   2.401   2.581   3.904  0.0697  0.5936  0.4152
 6318SOL    HW130416   2.345   2.503   3.908 -1.2028  1.5414  1.1202
 6318SOL    HW230417   2.383   2.599   3.812  0.8250  2.2194  0.5937
 6319SOL     OW30418   0.508   4.230  15.016 -0.1774  0.6838 -0.3725
 6319SOL    HW130419   0.530   4.315  15.053 -0.7228  0.2007  1.0666
 6319SOL    HW230420   0.533   4.171  15.088 -0.4177  2.6773  1.3467
 6320SOL     OW30421   3.939   3.876   5.611 -0.1545 -0.2509 -0.5926
 6320SOL    HW130422   3.944   3.788   5.649  3.2151 -0.0513 -0.5606
 6320SOL    HW230423   4.028   3.898   5.583  0.2179 -0.4711  0.3897
 6321SOL     OW30424   4.258   4.150   8.916 -0.1721 -0.2111  0.0931
 6321SOL    HW130425   4.324   4.088   8.886 -0.1865 -0.4643  0.5843
 6321SOL    HW230426   4.180   4.099   8.894  0.9937 -2.2723  0.7372
 6322SOL     OW30427   2.531   1.459  15.388  0.0717 -0.0167  0.1297
 6322SOL    HW130428   2.555   1.508  15.467  1.2236 -2.2017  1.1382
 6322SOL    HW230429   2.465   1.402  15.427 -0.3207  2.8321  3.6997
 6323SOL     OW30430   2.934   4.163   0.432  0.1740  0.8901 -0.1324
 6323SOL    HW130431   3.026   4.150   0.408  0.3241 -1.1652  1.5231
 6323SOL    HW230432   2.905   4.226   0.366 -3.7728 -0.6163  0.1797
 6324SOL     OW30433   2.446   3.827   3.404  0.4563  0.6274 -0.0668
 6324SOL    HW130434   2.358   3.797   3.380  0.0630  1.2881  0.5664
 6324SOL    HW230435   2.491   3.775   3.337 -1.1090 -2.0235  0.9248
 6325SOL     OW30436   3.883   1.007   1.741 -0.1095 -0.0786  0.1141
 6325SOL    HW130437   3.923   0.930   1.782 -2.5447 -1.5243 -0.2592
 6325SOL    HW230438   3.955   1.058   1.703 -1.5014  2.3484  0.7532
 6326SOL     OW30439   0.369   2.624   7.301 -0.0372 -0.2840 -0.3118
 6326SOL    HW130440   0.379   2.559   7.232 -0.9169  1.5142 -2.1250
 6326SOL    HW230441   0.274   2.635   7.311 -0.1460 -1.2593 -0.2444
 6327SOL     OW30442   0.745   0.111   9.858  0.2214 -0.1985 -0.3769
 6327SOL    HW130443   0.685   0.177   9.823 -1.2054 -1.5784 -0.5542
 6327SOL    HW230444   0.780   0.063   9.782 -0.8349 -1.1842 -0.2385
 6328SOL     OW30445   4.628   0.029   2.418 -0.0346 -0.5172 -0.1834
 6328SOL    HW130446   4.690   4.714   2.479  0.6983  0.7910 -0.0596
 6328SOL    HW230447   4.661   4.712   2.339 -1.4560 -0.8626 -0.5936
 6329SOL     OW30448   4.351   4.314  11.894 -0.2199 -0.7171 -0.5458
 6329SOL    HW130449   4.274   4.284  11.846  0.1457 -1.1181 -0.8825
 6329SOL    HW230450   4.406   4.329  11.817 -0.2010  3.1208  0.1862
 6330SOL     OW30451   3.643   3.719  12.494  0.6807 -0.2906  0.6875
 6330SOL    HW130452   3.576   3.672  12.544  1.1523 -1.9794 -0.2486
 6330SOL    HW230453   3.705   3.745  12.562  0.9544  0.8735 -0.0030
 6331SOL     OW30454   3.252   2.516   5.449  0.6090 -0.2539 -0.1614
 6331SOL    HW130455   3.166   2.475   5.445  0.9214 -0.7156 -2.2384
 6331SOL    HW230456   3.247   2.597   5.397  2.6677  0.5882  0.9498
 6332SOL     OW30457   1.534   0.529  10.454  0.4580  0.4559 -0.4363
 6332SOL    HW130458   1.454   0.565  10.493  1.7034  2.1417  0.5719
 6332SOL    HW230459   1.572   0.484  10.529  1.7801  1.6175 -0.4200
 6333SOL     OW30460   2.151   4.501  12.372  0.6214 -0.2828  0.8773
 6333SOL    HW130461   2.065   4.509  12.329  0.4953 -1.3042  0.9402
 6333SOL    HW230462   2.158   4.594  12.395  0.4185 -0.0505  0.0303
 6334SOL     OW30463   3.116   4.148   9.223  0.4481  0.2623 -0.2497
 6334SOL    HW130464   3.085   4.122   9.137 -4.2890 -0.5884  1.6843
 6334SOL    HW230465   3.202   4.108   9.233  0.0577 -0.6733 -0.5756
 6335SOL     OW30466   3.061   0.308   1.865 -0.4083 -0.2507  0.1357
 6335SOL    HW130467   3.104   0.383   1.823  0.6302 -1.0655 -0.2304
 6335SOL    HW230468   3.100   0.314   1.952 -1.5361 -0.0507  0.6305
 6336SOL     OW30469   0.220   4.035   3.440  0.1176  0.2068  0.1016
 6336SOL    HW130470   0.253   3.946   3.433 -0.3837  0.1718 -1.7420
 6336SOL    HW230471   0.294   4.076   3.486  0.2861 -0.2648  0.2464
 6337SOL     OW30472   3.583   2.505   6.760 -0.0353  0.3616  0.0955
 6337SOL    HW130473   3.522   2.578   6.770  1.2459  1.7341 -2.0427
 6337SOL    HW230474   3.663   2.546   6.792 -0.0877  1.5851 -1.3420
 6338SOL     OW30475   1.143   3.217   3.079  0.7591 -0.2079 -0.1859
 6338SOL    HW130476   1.060   3.208   3.034  1.1763 -0.1179 -0.9712
 6338SOL    HW230477   1.207   3.172   3.023 -1.3439  0.4885 -3.1050
 6339SOL     OW30478   0.385   4.454   4.941 -0.1370 -0.1577 -0.1394
 6339SOL    HW130479   0.468   4.500   4.940 -0.8778  1.2354  2.0701
 6339SOL    HW230480   0.329   4.529   4.960  0.4507 -0.6225  3.3984
 6340SOL     OW30481   4.436   3.744  17.180  0.0544  0.0235 -1.1389
 6340SOL    HW130482   4.416   3.674  17.118  1.0658  0.9765 -2.5281
 6340SOL    HW230483   4.531   3.738  17.191  0.0223 -0.4428 -1.1262
 6341SOL     OW30484   2.275   3.085  11.153 -0.9954 -0.4822 -0.1211
 6341SOL    HW130485   2.323   3.079  11.070 -2.0989 -0.2178 -0.7763
 6341SOL    HW230486   2.182   3.099  11.135 -0.5493  2.0370 -0.4407
 6342SOL     OW30487   0.898   1.271   1.492 -0.5262  0.1732 -0.3105
 6342SOL    HW130488   0.854   1.192   1.522 -0.6976  0.2648 -0.3214
 6342SOL    HW230489   0.988   1.244   1.472 -0.0567  1.0299  0.6671
 6343SOL     OW30490   1.370   4.649   6.409  0.4290 -0.0583  0.0713
 6343SOL    HW130491   1.413   4.714   6.354 -0.4940 -0.0504 -0.6359
 6343SOL    HW230492   1.317   4.705   6.466  0.2658  1.0404 -1.1813
 6344SOL     OW30493   2.523   3.935  17.657  0.9821 -0.0814  0.4117
 6344SOL    HW130494   2.494   3.979  17.576 -0.4343  2.5750  2.3717
 6344SOL    HW230495   2.493   3.990   0.030  0.0897 -0.8737  0.6426
 6345SOL     OW30496   2.918   4.490   1.618  0.1063  0.0464  0.5610
 6345SOL    HW130497   2.924   4.397   1.643 -0.9851  0.4243  2.2226
 6345SOL    HW230498   2.927   4.518   1.709 -0.2549 -0.0920  0.6387
 6346SOL     OW30499   2.774   4.686   4.611  0.2303  0.1115 -0.7326
 6346SOL    HW130500   2.785   4.697   4.705  0.0709 -2.5627 -0.3967
 6346SOL    HW230501   2.685   4.719   4.611  0.1263 -0.1711  0.2545
 6347SOL     OW30502   4.393   2.965  11.799 -0.2317  0.4351 -0.3575
 6347SOL    HW130503   4.330   2.980  11.729  2.9598 -1.1541 -3.5615
 6347SOL    HW230504   4.464   3.029  11.790 -1.4097  1.8027 -0.1005
 6348SOL     OW30505   1.959   4.505   2.027  0.1931  0.1080 -0.2304
 6348SOL    HW130506   1.901   4.450   1.975  0.1490  0.0266 -0.0945
 6348SOL    HW230507   1.988   4.569   1.962  1.4795  0.6214  0.8505
 6349SOL     OW30508   1.042   1.229   5.488 -0.7181 -0.3275  0.4508
 6349SOL    HW130509   1.098   1.214   5.564 -0.1768 -2.1941 -0.3374
 6349SOL    HW230510   1.082   1.169   5.426  1.3597  0.5032  0.9805
 6350SOL     OW30511   1.118   1.504  11.209  0.1389 -0.2922 -0.2849
 6350SOL    HW130512   1.149   1.458  11.286 -1.2155  1.4973  1.3320
 6350SOL    HW230513   1.054   1.557  11.256  1.7552  1.4962 -0.1061
 6351SOL     OW30514   4.003   4.014   5.957  0.6034  0.3609  0.1330
 6351SOL    HW130515   4.015   4.051   5.870 -2.1018  0.5721 -0.1332
 6351SOL    HW230516   3.981   3.925   5.930  2.4753  0.2376 -0.9752
 6352SOL     OW30517   3.382   3.619   5.202  0.0478 -0.0471 -0.0380
 6352SOL    HW130518   3.475   3.616   5.223 -0.0891  1.4488  0.7745
 6352SOL    HW230519   3.345   3.597   5.288 -1.3537  0.9465 -0.3751
 6353SOL     OW30520   0.035   1.570   5.834  0.3369 -0.8086 -0.5591
 6353SOL    HW130521   0.060   1.612   5.751  2.2874  0.6358  0.7559
 6353SOL    HW230522   4.680   1.524   5.807 -0.9153  0.8397  0.3892
 6354SOL     OW30523   4.312   4.205  16.337 -0.2147 -0.0285 -0.8859
 6354SOL    HW130524   4.368   4.197  16.415 -0.7905 -2.6071 -0.7231
 6354SOL    HW230525   4.240   4.161  16.382  2.8524 -2.6016  1.5107
 6355SOL     OW30526   3.689   1.993   5.618 -0.4594  0.5150  0.3134
 6355SOL    HW130527   3.775   2.016   5.583 -0.3806  2.4967  1.7822
 6355SOL    HW230528   3.675   1.901   5.594  1.3780  0.2880  0.1078
 6356SOL     OW30529   2.405   3.464   3.600 -0.4616 -0.3645  0.3007
 6356SOL    HW130530   2.351   3.489   3.675  1.4437  0.8716  1.2470
 6356SOL    HW230531   2.395   3.369   3.597  1.8676 -0.5651 -0.9667
 6357SOL     OW30532   3.436   1.589   6.720 -0.3753 -0.1879  0.1848
 6357SOL    HW130533   3.430   1.517   6.656  1.2262  0.1816 -0.3719
 6357SOL    HW230534   3.527   1.616   6.716 -0.5719  0.4736  0.2517
 6358SOL     OW30535   1.669   1.662   6.214 -0.3791  0.0524 -0.4871
 6358SOL    HW130536   1.728   1.595   6.180 -1.9827 -1.8527  0.4154
 6358SOL    HW230537   1.593   1.608   6.239  0.3755 -0.3563  0.9218
 6359SOL     OW30538   3.793   3.427   9.729  0.0004 -0.4201  0.6383
 6359SOL    HW130539   3.822   3.475   9.806 -2.9967 -0.4920  1.8049
 6359SOL    HW230540   3.859   3.436   9.660  0.3254  1.2674  1.1787
 6360SOL     OW30541   0.352   0.426   2.153 -0.3426  0.5659  0.9528
 6360SOL    HW130542   0.392   0.429   2.240 -0.3688 -1.0025  1.0146
 6360SOL    HW230543   0.261   0.439   2.181 -0.4867  3.0793 -0.7273
 6361SOL     OW30544   1.919   3.109  10.903 -0.3187  0.3613 -0.4060
 6361SOL    HW130545   2.005   3.150  10.892 -1.3657  2.2824 -1.5456
 6361SOL    HW230546   1.911   3.124  10.998  0.3156  0.6913 -0.4072
 6362SOL     OW30547   2.848   3.666   5.983  0.3238 -0.3969 -0.5079
 6362SOL    HW130548   2.763   3.665   5.939 -1.0872 -0.2410  2.2195
 6362SOL    HW230549   2.830   3.745   6.033 -2.1080  0.4817 -2.7440
 6363SOL     OW30550   2.637   0.139   3.686 -0.3276  0.3984  0.0594
 6363SOL    HW130551   2.559   0.170   3.732 -0.7197  0.8354 -0.9094
 6363SOL    HW230552   2.678   0.120   3.771  1.5850 -0.1425 -0.9940
 6364SOL     OW30553   2.173   0.944  13.404  0.2494  0.4056  0.1336
 6364SOL    HW130554   2.096   0.895  13.433  0.0572 -0.5618 -1.9716
 6364SOL    HW230555   2.227   0.938  13.483 -2.9190 -2.0309  2.0918
 6365SOL     OW30556   1.324   0.983  16.404 -0.2385  0.1677 -0.4590
 6365SOL    HW130557   1.363   0.896  16.402  1.7125  1.0644 -0.7876
 6365SOL    HW230558   1.404   1.027  16.376  0.2774 -0.1040  0.5618
 6366SOL     OW30559   4.546   3.044  13.681 -0.4381  0.1648  0.2662
 6366SOL    HW130560   4.584   2.957  13.671 -2.5014 -0.8986  1.8096
 6366SOL    HW230561   4.624   3.092  13.709 -0.1079 -0.7984  0.9549
 6367SOL     OW30562   3.537   0.077   0.364 -0.0873  0.4221 -0.1036
 6367SOL    HW130563   3.523   0.159   0.411  1.1376  0.3355  0.4284
 6367SOL    HW230564   3.452   0.039   0.387  0.1883  0.2524  0.6328
 6368SOL     OW30565   4.554   1.746   7.828  0.3198  0.1775  1.1109
 6368SOL    HW130566   4.540   1.837   7.800  1.1335 -0.3388 -0.9848
 6368SOL    HW230567   4.530   1.757   7.920 -0.4081 -0.5746  1.0117
 6369SOL     OW30568   3.300   2.331   3.779 -0.1842  0.5096  0.8193
 6369SOL    HW130569   3.330   2.407   3.828 -1.3271  2.2305 -1.1361
 6369SOL    HW230570   3.379   2.277   3.776 -0.1685  0.6513 -0.9583
 6370SOL     OW30571   0.186   0.687   2.563  0.1826  0.5723  0.3696
 6370SOL    HW130572   0.125   0.733   2.619  0.0983  1.1992 -0.2379
 6370SOL    HW230573   0.176   0.595   2.587  1.1051 -0.3638 -2.7798
 6371SOL     OW30574   2.392   4.092   9.319 -0.2859 -0.0415 -0.1920
 6371SOL    HW130575   2.404   4.022   9.382 -2.3974 -1.2723 -1.1265
 6371SOL    HW230576   2.330   4.153   9.361  0.9252  0.6584  0.5625
 6372SOL     OW30577   2.068   2.956  13.023  0.9986 -0.2615 -0.4740
 6372SOL    HW130578   2.113   2.873  13.036  0.1665 -0.8963 -1.6625
 6372SOL    HW230579   1.983   2.913  13.013  0.1211  0.7044  3.1155
 6373SOL     OW30580   2.009   2.071   1.164  0.0443 -0.3568  0.0540
 6373SOL    HW130581   1.970   2.014   1.231 -0.9969  1.8341  1.3149
 6373SOL    HW230582   1.944   2.142   1.164  1.7382  1.1810 -1.9854
 6374SOL     OW30583   2.924   0.386   7.536  0.3123 -0.1252 -0.3829
 6374SOL    HW130584   2.840   0.432   7.533  0.7520  0.8347  1.8866
 6374SOL    HW230585   2.979   0.462   7.516 -1.4969  1.7179  1.5796
 6375SOL     OW30586   0.541   0.576   4.519  0.7433 -0.0372  0.4281
 6375SOL    HW130587   0.506   0.519   4.587  0.5159 -1.2716 -0.7213
 6375SOL    HW230588   0.627   0.537   4.509  2.2007  2.9283  1.3513
 6376SOL     OW30589   2.657   3.898  15.461 -0.2333 -0.2096 -0.0724
 6376SOL    HW130590   2.593   3.923  15.527 -2.0649 -2.0732 -1.1401
 6376SOL    HW230591   2.706   3.979  15.451 -0.7281  0.1554  0.4760
 6377SOL     OW30592   2.958   0.618  11.549  0.0111 -0.1771 -0.5819
 6377SOL    HW130593   3.025   0.578  11.603 -0.1430 -1.3620 -1.2627
 6377SOL    HW230594   2.958   0.709  11.576  0.6434  0.3428 -2.3092
 6378SOL     OW30595   0.399   2.720  11.058 -0.4546 -0.1657  0.1321
 6378SOL    HW130596   0.383   2.746  11.149 -3.7771 -0.5638 -0.3493
 6378SOL    HW230597   0.488   2.752  11.044 -0.4846  0.5930  1.6281
 6379SOL     OW30598   4.543   4.007   9.094 -0.1838 -0.0692  0.1961
 6379SOL    HW130599   4.482   4.024   9.166  0.1070 -2.3224  0.9729
 6379SOL    HW230600   4.619   3.991   9.151  0.9371 -0.4984 -1.4263
 6380SOL     OW30601   3.652   0.392   3.559 -0.5786 -0.1373 -0.4000
 6380SOL    HW130602   3.673   0.442   3.638  1.0399 -1.0391 -0.2500
 6380SOL    HW230603   3.618   0.458   3.500 -0.4402  0.6760  0.4376
 6381SOL     OW30604   3.942   0.032   3.452  0.5583 -0.6218  0.7573
 6381SOL    HW130605   3.879   0.064   3.517  0.2645  1.6749 -0.6349
 6381SOL    HW230606   3.944   0.114   3.402  2.9196 -0.4950  1.0962
 6382SOL     OW30607   3.830   0.256   5.953  0.0098  0.1324  0.3576
 6382SOL    HW130608   3.765   0.196   5.917 -1.2891  0.9006  1.3752
 6382SOL    HW230609   3.911   0.254   5.902 -1.9340  1.0198 -2.7201
 6383SOL     OW30610   1.590   0.075   6.662 -0.7186 -0.1076  0.9836
 6383SOL    HW130611   1.588   0.145   6.728 -1.0268  1.5380 -0.7753
 6383SOL    HW230612   1.571   0.119   6.579 -3.6718 -1.0059  1.1976
 6384SOL     OW30613   2.842   3.130   6.351  0.1792  0.3246  0.3838
 6384SOL    HW130614   2.767   3.147   6.294 -0.0265  1.1047  0.8994
 6384SOL    HW230615   2.843   3.207   6.408 -1.8611  0.6661 -0.0293
 6385SOL     OW30616   3.004   1.385   7.887 -0.0197 -0.4058  0.1044
 6385SOL    HW130617   3.046   1.371   7.973 -1.1028  0.5778  0.7814
 6385SOL    HW230618   3.044   1.468   7.860 -0.5775  0.5987  2.3184
 6386SOL     OW30619   1.923   0.756   2.142 -0.4092 -0.3948  0.1906
 6386SOL    HW130620   1.998   0.736   2.197  0.3424  2.9476  0.3758
 6386SOL    HW230621   1.976   0.798   2.075  0.1598 -2.0238 -0.3761
 6387SOL     OW30622   0.101   0.280   9.637  0.2037  0.0791  0.1203
 6387SOL    HW130623   0.186   0.235   9.631  0.8315  1.1885  0.8027
 6387SOL    HW230624   0.134   0.360   9.678  1.4080  0.7552 -2.1529
 6388SOL     OW30625   1.564   0.371  12.339 -0.4769  0.3824  0.1020
 6388SOL    HW130626   1.484   0.371  12.287 -1.0075 -0.0552  0.9177
 6388SOL    HW230627   1.584   0.278  12.330 -1.7426  0.4787 -3.8529
 6389SOL     OW30628   1.198   0.405  14.278  0.3144 -0.0486  0.7383
 6389SOL    HW130629   1.272   0.413  14.217 -2.2454  1.6567 -2.1940
 6389SOL    HW230630   1.180   0.312  14.266  1.0986 -0.1823  0.6140
 6390SOL     OW30631   0.813   4.146   1.069 -0.6990 -0.0091  0.0010
 6390SOL    HW130632   0.763   4.179   1.143 -0.4454  2.2072 -0.8252
 6390SOL    HW230633   0.850   4.062   1.097  1.9952  1.6022  1.2588
 6391SOL     OW30634   3.713   1.617   1.478  0.2824  0.8085 -0.0159
 6391SOL    HW130635   3.658   1.611   1.400  1.0927 -0.3486 -0.4973
 6391SOL    HW230636   3.688   1.534   1.517 -0.1688  0.3093 -1.3658
 6392SOL     OW30637   2.166   4.547   0.812 -0.0636 -0.0048 -0.8580
 6392SOL    HW130638   2.197   4.583   0.729  1.2384 -1.0332 -0.8118
 6392SOL    HW230639   2.077   4.518   0.792 -0.2295  0.2632 -0.5057
 6393SOL     OW30640   0.293   1.909   2.092 -0.2217  0.4796  0.1111
 6393SOL    HW130641   0.337   1.938   2.012 -1.2103  1.5487 -0.0286
 6393SOL    HW230642   0.283   1.814   2.083  0.6358  0.2309  1.6512
 6394SOL     OW30643   0.433   0.430  10.170  0.3536  0.0985  0.2842
 6394SOL    HW130644   0.436   0.525  10.183  0.3648  0.0831  0.3960
 6394SOL    HW230645   0.519   0.418  10.210  0.3045 -0.3777  0.2439
 6395SOL     OW30646   0.481   1.120   7.793  0.1047 -0.0104  0.1347
 6395SOL    HW130647   0.545   1.130   7.723  0.1039  1.2533  0.3176
 6395SOL    HW230648   0.438   1.202   7.770  0.6384  0.2013 -0.0933
 6396SOL     OW30649   2.962   1.341   9.030 -0.2761 -0.3532 -0.1996
 6396SOL    HW130650   2.976   1.264   8.975  2.6852 -1.6609  2.3675
 6396SOL    HW230651   2.869   1.350   9.050  0.2225  1.5086  1.2683
 6397SOL     OW30652   3.607   4.673   2.773 -0.0576 -0.2549 -0.0155
 6397SOL    HW130653   3.556   4.654   2.852  0.4361  1.9368  0.8348
 6397SOL    HW230654   3.537   4.686   2.709  1.0438  2.5926 -0.6468
 6398SOL     OW30655   4.164   4.562   8.561 -0.0236  0.3723 -0.3229
 6398SOL    HW130656   4.185   4.497   8.628  1.1540  0.9107 -0.1726
 6398SOL    HW230657   4.192   4.646   8.596 -0.1264  0.0566  0.5330
 6399SOL     OW30658   1.739   4.352  13.193 -0.9451  0.4366  0.1429
 6399SOL    HW130659   1.671   4.374  13.129  0.6753  1.6692 -1.1446
 6399SOL    HW230660   1.723   4.420  13.258  3.5950  1.4475  0.1884
 6400SOL     OW30661   0.831   3.183   2.650 -0.4101 -0.1323 -0.0234
 6400SOL    HW130662   0.756   3.209   2.703  0.6571  1.1438  0.8439
 6400SOL    HW230663   0.791   3.109   2.604 -1.1062  0.2871 -0.1015
 6401SOL     OW30664   1.600   3.477   2.293  0.6521  0.6374  0.1718
 6401SOL    HW130665   1.588   3.405   2.355  0.4610  2.1576  1.9096
 6401SOL    HW230666   1.684   3.499   2.334  1.0651  0.6030 -0.6578
 6402SOL     OW30667   2.895   3.750  13.298  0.7444  0.0469 -0.4993
 6402SOL    HW130668   2.894   3.845  13.313 -2.7263  0.0269 -0.6500
 6402SOL    HW230669   2.966   3.736  13.235  0.9404 -0.6309 -0.1230
 6403SOL     OW30670   3.535   0.535   8.654 -0.2512  0.1525  0.0186
 6403SOL    HW130671   3.574   0.529   8.566  0.2261 -0.9274  0.2985
 6403SOL    HW230672   3.491   0.450   8.652 -0.7209  0.4104 -0.9553
 6404SOL     OW30673   3.020   3.066   1.334 -0.0384  0.0027  0.3770
 6404SOL    HW130674   2.990   3.097   1.419  0.9708  2.7630 -0.2788
 6404SOL    HW230675   2.942   3.034   1.289  0.1442 -1.3730  1.0156
 6405SOL     OW30676   1.914   1.050  11.531 -0.4722  0.0246  0.3757
 6405SOL    HW130677   1.960   1.119  11.482 -0.5131 -1.8275 -2.2601
 6405SOL    HW230678   1.987   0.999  11.566  0.8481  3.1656  2.2685
 6406SOL     OW30679   0.563   2.272  11.630 -0.0546 -0.0429  0.4101
 6406SOL    HW130680   0.501   2.201  11.611 -2.1960  1.5564  1.4790
 6406SOL    HW230681   0.578   2.270  11.724 -0.0269  1.0746  0.4300
 6407SOL     OW30682   2.882   3.784   7.549 -0.4338  0.1902 -0.0627
 6407SOL    HW130683   2.812   3.720   7.536 -1.5246  0.8221  2.6818
 6407SOL    HW230684   2.959   3.743   7.510 -2.6662 -2.1356 -1.9532
 6408SOL     OW30685   0.306   0.550   7.855  0.1151  0.1095  0.9586
 6408SOL    HW130686   0.233   0.489   7.864 -2.1476  2.6748  0.2011
 6408SOL    HW230687   0.253   0.627   7.833  1.9692  1.6413  1.8722
 6409SOL     OW30688   3.843   1.592   7.204  0.2826 -0.5183 -0.2812
 6409SOL    HW130689   3.791   1.591   7.123  0.8053  2.0199 -0.6458
 6409SOL    HW230690   3.830   1.680   7.239  1.0933 -1.2528  1.8930
 6410SOL     OW30691   1.687   1.916   6.900 -0.1140 -0.2880 -0.7306
 6410SOL    HW130692   1.717   1.853   6.834 -0.8452  1.3336 -2.6191
 6410SOL    HW230693   1.630   1.872   6.963 -1.0296 -1.8314 -2.6290
 6411SOL     OW30694   0.329   3.519   3.273  0.0796  0.0063 -0.3681
 6411SOL    HW130695   0.396   3.498   3.338 -1.7601 -2.2133  0.8306
 6411SOL    HW230696   0.352   3.449   3.213  0.0812  0.8264 -1.3223
 6412SOL     OW30697   0.804   0.889   4.061 -0.7420  0.3431 -0.3131
 6412SOL    HW130698   0.806   0.876   4.156 -0.0315  1.0494 -0.2316
 6412SOL    HW230699   0.839   0.978   4.055  0.9176 -0.4001 -1.6968
 6413SOL     OW30700   4.597   1.756   4.541  0.2462 -0.1243  0.2856
 6413SOL    HW130701   4.535   1.684   4.555  1.3304 -0.4587  3.2596
 6413SOL    HW230702   4.585   1.776   4.448 -1.9280 -1.3724  0.2963
 6414SOL     OW30703   0.104   2.572   5.047 -0.1125 -0.1794 -0.1213
 6414SOL    HW130704   0.196   2.568   5.072  0.3171  0.7538 -1.5462
 6414SOL    HW230705   0.059   2.521   5.114 -0.6223  1.0042  0.4355
 6415SOL     OW30706   3.063   3.365   3.574  0.1065 -0.3825  0.4544
 6415SOL    HW130707   3.131   3.298   3.579  0.9412  0.4928  0.8448
 6415SOL    HW230708   2.981   3.316   3.576 -0.9962  1.4493 -0.0230
 6416SOL     OW30709   0.983   2.191  15.016  0.0346 -0.1628 -0.2561
 6416SOL    HW130710   0.919   2.161  14.951 -1.8319  2.0332  0.5783
 6416SOL    HW230711   1.057   2.179  14.957  0.8039 -3.1008  1.3329
 6417SOL     OW30712   3.209   4.129   1.262 -0.0537  0.2327  0.2009
 6417SOL    HW130713   3.288   4.181   1.271 -0.1072  0.2667  0.4871
 6417SOL    HW230714   3.149   4.179   1.318  0.2860 -0.8412  1.5209
 6418SOL     OW30715   2.796   0.696  15.174 -0.1836 -0.0959 -0.2835
 6418SOL    HW130716   2.751   0.777  15.149 -0.2555 -0.0776 -0.0978
 6418SOL    HW230717   2.725   0.633  15.162  1.3216 -1.4389 -1.9716
 6419SOL     OW30718   0.859   0.557   9.517 -0.1096 -0.0614 -0.1885
 6419SOL    HW130719   0.884   0.578   9.607 -0.3028 -0.2517 -0.0892
 6419SOL    HW230720   0.922   0.610   9.468 -1.6974  1.4703 -0.5904
 6420SOL     OW30721   2.278   4.327   5.649  0.4995  0.1473 -0.2762
 6420SOL    HW130722   2.185   4.352   5.654  0.4215  0.1433 -1.6333
 6420SOL    HW230723   2.282   4.262   5.720  1.2563 -0.5954 -0.9929
 6421SOL     OW30724   2.405   3.308  13.346 -0.6037 -0.1392 -0.3452
 6421SOL    HW130725   2.398   3.220  13.309 -0.3195  0.5477 -2.0680
 6421SOL    HW230726   2.476   3.284  13.405  0.2293  1.2215 -0.7715
 6422SOL     OW30727   3.463   0.155   7.451 -0.1597  0.1940  0.1515
 6422SOL    HW130728   3.504   0.241   7.464  0.2147  0.1290 -0.6253
 6422SOL    HW230729   3.542   0.102   7.439  0.0124  0.4869  0.0019
 6423SOL     OW30730   0.999   4.009   8.186  0.2232 -0.8952 -0.2327
 6423SOL    HW130731   1.033   3.930   8.143  0.5238 -1.9059  1.8579
 6423SOL    HW230732   1.041   3.992   8.270  0.0893  0.5434  0.1210
 6424SOL     OW30733   0.015   2.115   5.486 -0.2433 -0.9768 -0.0935
 6424SOL    HW130734   0.006   2.097   5.579  1.1597  0.1621  0.2616
 6424SOL    HW230735   0.103   2.151   5.480 -0.1125 -0.8614  2.7453
 6425SOL     OW30736   4.598   3.184   3.559 -0.6859 -0.4179  0.0021
 6425SOL    HW130737   4.566   3.095   3.573 -3.5103  0.7630  1.1102
 6425SOL    HW230738   4.615   3.201   3.652  4.0279  0.7487 -1.0954
 6426SOL     OW30739   0.741   2.407   4.714  0.1755  0.3474  0.0671
 6426SOL    HW130740   0.659   2.426   4.760  0.5798 -0.9755  1.3208
 6426SOL    HW230741   0.734   2.449   4.628  1.4643 -0.7887 -0.5788
 6427SOL     OW30742   2.849   0.636   4.348  0.2117  0.6751  0.2609
 6427SOL    HW130743   2.888   0.718   4.318 -1.2086  0.9797 -0.7678
 6427SOL    HW230744   2.925   0.599   4.392  0.3346 -1.3482 -1.6737
 6428SOL     OW30745   3.312   2.894  12.880  0.5778  0.3751  0.2124
 6428SOL    HW130746   3.328   2.803  12.906  1.0427  0.4274  0.0972
 6428SOL    HW230747   3.301   2.933  12.967 -0.8083  1.8790 -0.6287
 6429SOL     OW30748   2.020   4.349  11.939  0.6071 -0.6090 -0.6623
 6429SOL    HW130749   1.925   4.365  11.941  0.4478 -1.4880 -1.1605
 6429SOL    HW230750   2.032   4.255  11.942 -0.4427 -0.7563 -0.8594
 6430SOL     OW30751   3.050   2.949   1.056 -0.1300 -0.4509 -0.0771
 6430SOL    HW130752   3.014   2.904   1.133  0.3716 -0.4652  0.1448
 6430SOL    HW230753   3.082   2.874   1.006 -1.0873 -1.8120  1.3396
 6431SOL     OW30754   1.265   3.150   3.325  0.3285 -0.1386 -0.2202
 6431SOL    HW130755   1.313   3.230   3.346 -0.7005  0.3446  0.3130
 6431SOL    HW230756   1.235   3.150   3.234  0.6313  1.7440 -0.3243
 6432SOL     OW30757   4.113   3.651   1.367  0.6067  0.1198  0.7169
 6432SOL    HW130758   4.119   3.629   1.274  0.4095  0.9856  0.4946
 6432SOL    HW230759   4.204   3.639   1.393  0.6833 -1.6468 -0.3396
 6433SOL     OW30760   2.079   1.781  17.196 -0.9519 -0.2982 -0.8935
 6433SOL    HW130761   2.105   1.797  17.287  0.3255 -2.7729 -0.8102
 6433SOL    HW230762   2.157   1.819  17.154 -1.7861  1.0144 -1.2242
 6434SOL     OW30763   0.775   2.591  12.958  0.2874 -0.0122  0.3667
 6434SOL    HW130764   0.714   2.517  12.949  0.7925 -0.3004 -0.7185
 6434SOL    HW230765   0.800   2.603  12.866  0.9513  0.5317  0.6188
 6435SOL     OW30766   0.562   1.781   6.159 -0.4564  0.1661 -0.5816
 6435SOL    HW130767   0.630   1.841   6.129 -1.4307  1.1992 -0.7513
 6435SOL    HW230768   0.616   1.711   6.195  2.0120  1.9235 -0.8462
 6436SOL     OW30769   3.058   2.165   6.278  0.1876  0.3300  0.4107
 6436SOL    HW130770   3.129   2.225   6.253  0.7359 -1.1099 -1.4957
 6436SOL    HW230771   2.980   2.169   6.223  1.1958  1.2376 -0.9597
 6437SOL     OW30772   3.204   0.789  12.123 -0.1232  0.1476 -0.1747
 6437SOL    HW130773   3.177   0.858  12.064 -0.6512  0.5490  0.5438
 6437SOL    HW230774   3.222   0.842  12.200  0.0657  0.4697 -0.4424
 6438SOL     OW30775   3.760   2.282   6.659  0.2581  0.3768  0.0545
 6438SOL    HW130776   3.821   2.332   6.604  0.6049 -0.8228 -0.6590
 6438SOL    HW230777   3.709   2.359   6.681  1.2630  0.3417  2.4910
 6439SOL     OW30778   2.475   0.284   6.082 -0.5428 -0.5796 -0.3483
 6439SOL    HW130779   2.455   0.198   6.047 -1.7823 -0.2374 -0.4763
 6439SOL    HW230780   2.486   0.338   6.004  0.0035 -1.1547 -0.6647
 6440SOL     OW30781   3.460   1.774   1.070  0.0689  0.2997 -0.6993
 6440SOL    HW130782   3.382   1.718   1.061 -0.0738  0.4412 -0.3278
 6440SOL    HW230783   3.428   1.852   1.116  0.3556  0.5794 -0.9737
 6441SOL     OW30784   0.379   0.963   2.611 -0.2073  0.1869 -0.1494
 6441SOL    HW130785   0.302   0.970   2.555 -0.1248  0.8620 -0.1803
 6441SOL    HW230786   0.342   1.008   2.687 -0.0268  2.5927 -1.4754
 6442SOL     OW30787   2.396   1.029   3.185  0.0222  0.2548  0.3821
 6442SOL    HW130788   2.464   1.016   3.250  0.7066  0.4307 -0.3006
 6442SOL    HW230789   2.322   1.068   3.232 -0.0989 -1.6369  1.7340
 6443SOL     OW30790   2.959   3.296   5.363  0.5076 -0.3447  0.0012
 6443SOL    HW130791   2.990   3.295   5.453 -0.3811 -1.5833  0.2885
 6443SOL    HW230792   3.038   3.311   5.311  0.2397  1.1473  0.0146
 6444SOL     OW30793   0.297   2.659   9.667 -0.0100  0.3426  0.2388
 6444SOL    HW130794   0.341   2.622   9.744  0.4076  1.0457  0.3410
 6444SOL    HW230795   0.310   2.753   9.683 -1.4714  0.7969 -1.2916
 6445SOL     OW30796   1.419   3.958  13.582  0.3823  0.3035 -0.3538
 6445SOL    HW130797   1.492   3.948  13.643  1.2360 -0.9033 -1.5777
 6445SOL    HW230798   1.372   3.880  13.611  2.3314 -1.3063 -1.4978
 6446SOL     OW30799   0.397   4.699  13.559  0.3774  0.0875 -0.4369
 6446SOL    HW130800   0.346   4.704  13.478 -0.5947 -2.3602  0.0315
 6446SOL    HW230801   0.454   0.049  13.540 -0.4024  1.2915  1.9912
 6447SOL     OW30802   3.382   3.550   5.480 -0.5409  0.1628  0.0271
 6447SOL    HW130803   3.323   3.590   5.543 -0.0697 -1.0752  1.2475
 6447SOL    HW230804   3.447   3.512   5.539  1.2740 -0.8784 -2.6308
 6448SOL     OW30805   1.705   2.864   2.555  0.3118  0.3031 -0.0602
 6448SOL    HW130806   1.655   2.902   2.627  0.2553  0.6571 -0.2872
 6448SOL    HW230807   1.793   2.897   2.570  1.5045 -2.4972 -0.9403
 6449SOL     OW30808   2.378   0.643   2.098 -0.1634  0.4044  0.4463
 6449SOL    HW130809   2.398   0.735   2.079  2.8746 -0.3683 -0.1916
 6449SOL    HW230810   2.453   0.598   2.057 -1.1038 -0.2622 -0.5581
 6450SOL     OW30811   3.426   3.370  13.352  0.2373 -0.1112 -0.2119
 6450SOL    HW130812   3.513   3.334  13.333  0.6346  1.4821 -1.4401
 6450SOL    HW230813   3.399   3.379  13.260 -1.7927 -0.0404  0.3911
 6451SOL     OW30814   0.963   1.878  12.060  0.2574 -0.1499  0.1167
 6451SOL    HW130815   0.963   1.821  12.136 -0.1921 -0.5235 -0.1624
 6451SOL    HW230816   1.056   1.900  12.055  0.0687  1.3569  3.1331
 6452SOL     OW30817   1.350   1.306   3.963  0.2403 -0.4022  0.3355
 6452SOL    HW130818   1.422   1.284   3.904 -0.3805  0.1269 -0.6147
 6452SOL    HW230819   1.329   1.395   3.936  1.3278  0.0843  1.0608
 6453SOL     OW30820   2.242   1.173   5.758  0.5947  0.4780  0.4676
 6453SOL    HW130821   2.183   1.118   5.707 -1.3226  1.1935  1.9228
 6453SOL    HW230822   2.292   1.220   5.690  0.2262  1.4098  0.8367
 6454SOL     OW30823   1.133   4.191   2.623  0.2790 -0.1482 -0.2181
 6454SOL    HW130824   1.096   4.210   2.537  1.6752  0.1780 -0.7382
 6454SOL    HW230825   1.088   4.106   2.631  0.5397 -0.1884  0.8342
 6455SOL     OW30826   3.172   2.303  16.448  0.6212 -0.7753 -0.5040
 6455SOL    HW130827   3.203   2.229  16.500 -1.3434 -1.1867  0.1068
 6455SOL    HW230828   3.108   2.341  16.509 -0.0864 -0.6124 -1.3436
 6456SOL     OW30829   0.491   3.001   4.240 -0.1537 -0.2172  0.1846
 6456SOL    HW130830   0.566   2.958   4.198 -0.4875  0.5508 -1.2049
 6456SOL    HW230831   0.533   3.080   4.275 -0.8261  0.2860 -0.1438
 6457SOL     OW30832   1.843   0.221   7.309  0.5244 -0.0106 -0.7780
 6457SOL    HW130833   1.930   0.221   7.349 -0.5624  0.2545  1.6092
 6457SOL    HW230834   1.844   0.133   7.271  1.1670 -0.0748 -0.6071
 6458SOL     OW30835   1.164   3.344   4.707  0.0496 -0.2164  0.1660
 6458SOL    HW130836   1.153   3.356   4.613  1.1233  2.1522  0.3513
 6458SOL    HW230837   1.232   3.411   4.716 -1.2137  0.9398  1.1779
 6459SOL     OW30838   2.173   4.428  14.062  0.2332  0.7181  0.7839
 6459SOL    HW130839   2.185   4.343  14.104  1.2490 -0.3048 -1.5801
 6459SOL    HW230840   2.115   4.465  14.129 -1.9760  0.2139 -0.8627
 6460SOL     OW30841   2.819   2.463   9.655  0.1496  0.3565  0.2923
 6460SOL    HW130842   2.750   2.529   9.662  0.3830  0.6309 -0.0060
 6460SOL    HW230843   2.882   2.507   9.713  1.4619  0.5317 -1.2802
 6461SOL     OW30844   4.531   4.720  11.609  0.4210 -0.5792  0.7030
 6461SOL    HW130845   4.564   4.660  11.542  0.9007  0.6129 -0.1299
 6461SOL    HW230846   4.596   0.065  11.601 -0.8892  0.6715  0.9794
 6462SOL     OW30847   2.783   2.174   3.069 -0.3480  0.1185  0.1143
 6462SOL    HW130848   2.832   2.097   3.097 -0.5800 -0.4077 -0.9574
 6462SOL    HW230849   2.848   2.241   3.092  1.6385 -1.2463 -1.6128
 6463SOL     OW30850   3.837   4.065  13.865 -0.2153 -1.1753 -0.1547
 6463SOL    HW130851   3.806   3.975  13.871 -0.8878 -0.8494  1.1855
 6463SOL    HW230852   3.918   4.047  13.816 -0.2371  1.2251 -1.0745
 6464SOL     OW30853   2.542   4.061  15.850 -0.8580 -0.8681  0.1251
 6464SOL    HW130854   2.522   4.015  15.769  0.5323 -1.8603  0.3473
 6464SOL    HW230855   2.580   3.987  15.898  1.0169  0.1857  0.2622
 6465SOL     OW30856   2.044   1.881   5.834  0.4802 -0.2442  0.7034
 6465SOL    HW130857   1.962   1.895   5.786  1.8566  0.2679 -1.4782
 6465SOL    HW230858   2.046   1.958   5.890 -3.1320 -0.0642  0.5772
 6466SOL     OW30859   2.341   4.587   4.061 -0.1682  0.1629 -0.7778
 6466SOL    HW130860   2.323   4.555   4.149 -2.7552  0.5107 -1.1748
 6466SOL    HW230861   2.435   4.604   4.064  0.3788 -3.4494  1.4925
 6467SOL     OW30862   0.859   2.141  17.027  0.4565  0.2925 -0.3409
 6467SOL    HW130863   0.792   2.124  16.961 -0.2699  2.4500 -0.1461
 6467SOL    HW230864   0.824   2.084  17.095  0.0387  0.7577 -0.1654
 6468SOL     OW30865   0.908   3.791   3.765 -0.0403  0.2186 -0.1307
 6468SOL    HW130866   0.852   3.857   3.805 -0.8644 -1.3280  1.2809
 6468SOL    HW230867   0.850   3.715   3.758  1.1757 -0.7784  0.5900
 6469SOL     OW30868   3.043   0.615   2.830 -0.3330  0.1552  0.1109
 6469SOL    HW130869   2.959   0.594   2.872 -0.6060  2.0618  0.5359
 6469SOL    HW230870   3.043   0.711   2.836  1.5877  0.1016  0.7105
 6470SOL     OW30871   1.603   4.010   7.209 -0.5357 -0.6354  0.2576
 6470SOL    HW130872   1.608   4.106   7.212 -1.6013 -0.5616  0.0019
 6470SOL    HW230873   1.515   3.994   7.244 -0.5325 -1.3859 -0.0760
 6471SOL     OW30874   2.340   2.419   7.620  0.1685  0.1424  0.2621
 6471SOL    HW130875   2.271   2.477   7.587  1.3074  0.8766 -0.8434
 6471SOL    HW230876   2.304   2.394   7.705  2.0402  1.3702  1.4203
 6472SOL     OW30877   2.343   0.471   4.592 -0.2754 -0.2215 -0.1167
 6472SOL    HW130878   2.332   0.548   4.647  0.4522 -0.2212  0.0203
 6472SOL    HW230879   2.411   0.510   4.538 -0.2115  0.7423  0.6662
 6473SOL     OW30880   0.075   0.498  12.551  0.2074  0.0010  0.4540
 6473SOL    HW130881   0.168   0.482  12.570 -0.4345 -3.5022  0.5943
 6473SOL    HW230882   0.049   0.544  12.631 -2.3207  0.7249 -0.7931
 6474SOL     OW30883   3.175   0.612   8.663 -0.7164 -0.4360  0.3809
 6474SOL    HW130884   3.192   0.603   8.757 -1.0149  0.9173  0.5703
 6474SOL    HW230885   3.258   0.582   8.625 -0.4544 -0.1208  0.7086
 6475SOL     OW30886   4.618   3.371   3.255  0.2865 -0.3080  0.1061
 6475SOL    HW130887   4.671   3.448   3.273  1.3594 -1.4512  1.9081
 6475SOL    HW230888   4.584   3.394   3.169  0.4416 -0.6137 -0.0404
 6476SOL     OW30889   0.511   4.276  16.159  0.4249  0.0339 -0.1592
 6476SOL    HW130890   0.543   4.221  16.230  0.6405  0.1063 -0.1991
 6476SOL    HW230891   0.418   4.283  16.178  0.3554 -0.5626 -0.2833
 6477SOL     OW30892   1.944   0.875   1.079  0.1963 -0.3381  0.5475
 6477SOL    HW130893   1.983   0.949   1.125 -0.3082 -0.2069  0.7593
 6477SOL    HW230894   2.014   0.868   1.014 -1.6656 -0.3602 -1.4695
 6478SOL     OW30895   4.387   0.659   6.997 -0.4728 -0.1948  0.1469
 6478SOL    HW130896   4.361   0.631   7.085  0.1733  0.7996  0.6524
 6478SOL    HW230897   4.301   0.692   6.969  0.4724  3.1751  1.2310
 6479SOL     OW30898   2.720   1.726   3.348 -0.0597 -0.1730 -0.5168
 6479SOL    HW130899   2.721   1.729   3.443 -1.3257 -0.6534 -0.4915
 6479SOL    HW230900   2.810   1.701   3.324  0.0607  1.4351 -1.7800
 6480SOL     OW30901   0.655   1.711   9.100 -0.0453 -0.1236 -0.2082
 6480SOL    HW130902   0.738   1.750   9.126 -0.0390  0.2364 -0.7679
 6480SOL    HW230903   0.624   1.696   9.189 -0.5588  0.8009 -0.2370
 6481SOL     OW30904   3.497   2.506   2.651  0.2944 -0.4394 -1.2569
 6481SOL    HW130905   3.481   2.561   2.574  0.1140 -0.1609 -1.0223
 6481SOL    HW230906   3.590   2.525   2.662  0.2636 -0.9083 -0.1552
 6482SOL     OW30907   4.113   2.920   0.824  0.2332  0.0739 -0.0167
 6482SOL    HW130908   4.169   2.844   0.839 -0.1764  0.2162  2.2496
 6482SOL    HW230909   4.064   2.893   0.746 -0.4575 -2.3354  1.2293
 6483SOL     OW30910   1.003   3.437   8.379  0.1501  0.1754 -0.8203
 6483SOL    HW130911   0.996   3.529   8.351 -0.6448  1.0408  2.2295
 6483SOL    HW230912   0.989   3.395   8.295  1.9692 -1.4221 -0.3235
 6484SOL     OW30913   3.209   4.387   5.780  0.1062  0.5420  0.2730
 6484SOL    HW130914   3.263   4.421   5.851  3.8499  0.4022 -2.5483
 6484SOL    HW230915   3.267   4.319   5.748  1.2477  0.8912  1.5910
 6485SOL     OW30916   3.452   4.658   2.999 -0.0978 -0.1403 -0.1142
 6485SOL    HW130917   3.465   4.619   3.086 -1.3070  0.9659  0.5619
 6485SOL    HW230918   3.357   4.671   3.006 -0.4226 -1.7748 -1.5071
 6486SOL     OW30919   2.627   2.269   7.266 -0.4290  1.1675  0.3842
 6486SOL    HW130920   2.591   2.281   7.353 -2.2211 -1.1474 -0.0337
 6486SOL    HW230921   2.702   2.328   7.275 -0.0245  0.4461  1.7395
 6487SOL     OW30922   0.489   3.975   5.813  0.1785 -0.0189 -0.3011
 6487SOL    HW130923   0.582   3.997   5.823  0.2194 -1.0376  1.4323
 6487SOL    HW230924   0.448   4.050   5.856  1.2132  0.5991 -0.3859
 6488SOL     OW30925   1.856   2.744   1.735  0.0923 -0.1085  0.0484
 6488SOL    HW130926   1.915   2.814   1.709  0.6436 -1.2667 -1.8357
 6488SOL    HW230927   1.912   2.676   1.772  0.0975 -0.2343 -0.1907
 6489SOL     OW30928   3.012   3.177  13.734 -0.5020  0.1597  0.2539
 6489SOL    HW130929   3.089   3.120  13.739 -2.5284 -2.5651  0.4540
 6489SOL    HW230930   3.012   3.192  13.640  1.3117 -1.2736  0.0141
 6490SOL     OW30931   3.407   1.507  10.476  0.3277  0.0098 -0.5276
 6490SOL    HW130932   3.469   1.481  10.407  0.9884  0.4428 -0.0952
 6490SOL    HW230933   3.429   1.598  10.493 -2.6550  1.1869 -2.9618
 6491SOL     OW30934   1.109   0.402   5.852  0.7828 -0.7019 -0.5109
 6491SOL    HW130935   1.127   0.315   5.887  0.6181  0.6697  3.0174
 6491SOL    HW230936   1.046   0.438   5.915  1.7549  1.4930 -0.7844
 6492SOL     OW30937   2.899   0.289   1.198 -0.5724  0.4650  0.2549
 6492SOL    HW130938   2.924   0.205   1.235  0.0628  0.9855  1.0227
 6492SOL    HW230939   2.931   0.338   1.274  1.4770 -1.5442  0.6597
 6493SOL     OW30940   2.669   1.616   2.093  0.2353  0.5002  0.3762
 6493SOL    HW130941   2.606   1.666   2.040  0.1242  0.0415  0.0713
 6493SOL    HW230942   2.662   1.653   2.181 -0.8051  2.3457 -0.4706
 6494SOL     OW30943   3.239   2.132   1.893  0.3548  0.2430 -0.1726
 6494SOL    HW130944   3.331   2.108   1.903 -0.1408 -1.4818  0.2176
 6494SOL    HW230945   3.192   2.049   1.882  0.7620  0.0763 -0.6379
 6495SOL     OW30946   0.654   1.176   7.586 -0.3008 -0.6617 -0.5895
 6495SOL    HW130947   0.619   1.261   7.561  0.6005  0.0704  0.6493
 6495SOL    HW230948   0.704   1.150   7.508  0.5983 -1.9463  0.4135
 6496SOL     OW30949   2.727   3.179   4.677  0.3420  0.0751  0.6506
 6496SOL    HW130950   2.687   3.143   4.597  0.9424  1.7275 -0.3821
 6496SOL    HW230951   2.811   3.136   4.691 -0.6075 -1.3132  2.0921
 6497SOL     OW30952   4.352   0.351   5.036  0.3534  0.0648 -0.0098
 6497SOL    HW130953   4.261   0.354   5.065 -0.4734 -1.3355 -2.4004
 6497SOL    HW230954   4.338   0.327   4.944 -0.6128  1.8955 -0.3457
 6498SOL     OW30955   0.645   0.759   9.280  0.3444 -0.0632  0.5028
 6498SOL    HW130956   0.569   0.808   9.308 -0.0563 -0.0485 -0.6075
 6498SOL    HW230957   0.626   0.747   9.187 -2.8590  0.4993  1.0956
 6499SOL     OW30958   0.840   2.907   9.185  0.5833  0.4269  0.5220
 6499SOL    HW130959   0.820   2.883   9.275 -0.6822 -0.8904 -0.1108
 6499SOL    HW230960   0.807   2.997   9.181  0.6773  0.5839  3.1852
 6500SOL     OW30961   1.888   3.686  13.439 -0.0888  0.0433 -0.4672
 6500SOL    HW130962   1.857   3.766  13.481  1.5509  1.0689 -1.2065
 6500SOL    HW230963   1.923   3.636  13.512  0.2942 -0.0292 -0.6977
 6501SOL     OW30964   4.352   3.830  15.312  0.3039  0.6635 -0.0082
 6501SOL    HW130965   4.349   3.896  15.381  0.2808  0.2434  0.3922
 6501SOL    HW230966   4.351   3.879  15.229  0.1322  2.4520  1.0559
 6502SOL     OW30967   3.185   0.824   1.796  0.2241 -0.3767  0.7029
 6502SOL    HW130968   3.123   0.869   1.739 -0.2716 -1.5728  0.2818
 6502SOL    HW230969   3.269   0.821   1.750 -0.0578 -3.0474  0.3230
 6503SOL     OW30970   3.965   2.668   1.341 -0.3311  0.4539  0.2258
 6503SOL    HW130971   3.873   2.654   1.317 -0.7584 -0.6560  2.4604
 6503SOL    HW230972   4.006   2.675   1.256  0.2780 -2.5215  0.2536
 6504SOL     OW30973   1.826   4.276  11.508 -0.1932  0.1362  0.1389
 6504SOL    HW130974   1.899   4.327  11.542  1.2088 -2.4702  1.0270
 6504SOL    HW230975   1.871   4.192  11.508  2.7943  1.7217 -0.1790
 6505SOL     OW30976   3.015   1.166   7.195 -0.2618  0.8508 -0.1969
 6505SOL    HW130977   3.100   1.195   7.229  0.9331 -3.2936  0.3713
 6505SOL    HW230978   2.975   1.147   7.280 -0.1166 -4.3854 -1.2657
 6506SOL     OW30979   3.018   1.602   5.861 -0.0934  0.1500  0.7518
 6506SOL    HW130980   3.044   1.670   5.799  2.6470 -3.4875 -2.1179
 6506SOL    HW230981   2.949   1.645   5.912 -2.3369 -2.4948 -0.0251
 6507SOL     OW30982   0.302   3.752  15.856 -1.1292  0.2402  0.0225
 6507SOL    HW130983   0.386   3.794  15.871 -1.1645 -0.3378  1.7631
 6507SOL    HW230984   0.247   3.793  15.922  0.1503 -0.4269  1.4854
 6508SOL     OW30985   3.463   3.562  12.647 -0.4661 -0.0082 -0.1056
 6508SOL    HW130986   3.385   3.515  12.618 -0.3429 -1.3451  1.7136
 6508SOL    HW230987   3.503   3.505  12.712 -2.1387 -1.4445 -0.3238
 6509SOL     OW30988   1.482   1.509   6.653  0.0115  0.5546 -0.1227
 6509SOL    HW130989   1.523   1.554   6.727  0.0576 -0.1764  0.2928
 6509SOL    HW230990   1.390   1.508   6.680  0.0533  1.7526  0.0591
 6510SOL     OW30991   3.478   3.662   6.081 -0.3168  0.3631  0.3621
 6510SOL    HW130992   3.443   3.622   6.160  0.6923 -1.3512 -0.0561
 6510SOL    HW230993   3.400   3.688   6.030 -0.6960 -1.5069 -0.0301
 6511SOL     OW30994   2.087   1.115  12.426 -0.8094  0.6004 -0.0014
 6511SOL    HW130995   2.020   1.182  12.443 -2.6431 -0.9393 -1.1106
 6511SOL    HW230996   2.166   1.131  12.477  1.1135 -0.8062 -2.5621
 6512SOL     OW30997   3.632   1.866  10.328  0.4509 -0.9213  0.0695
 6512SOL    HW130998   3.691   1.854  10.402  1.1760  2.8751  0.0735
 6512SOL    HW230999   3.672   1.937  10.277 -1.3410 -0.5664 -0.8360
 6513SOL     OW31000   0.996   2.122   2.491  0.3908  0.3790 -0.3709
 6513SOL    HW131001   1.034   2.040   2.460 -2.0270  0.4165 -3.4062
 6513SOL    HW231002   0.913   2.101   2.534  0.0596  0.0479 -1.1746
 6514SOL     OW31003   3.092   1.308   8.139 -0.8217 -0.2900  0.8861
 6514SOL    HW131004   3.160   1.249   8.106  0.4068  3.1095 -2.6563
 6514SOL    HW231005   3.090   1.300   8.235 -1.4105 -0.3296  0.8715
 6515SOL     OW31006   2.875   1.631   2.796 -0.1914 -0.3098 -0.1361
 6515SOL    HW131007   2.932   1.686   2.850  0.4161 -0.2297 -0.8478
 6515SOL    HW231008   2.924   1.599   2.720 -0.1693  2.5837 -1.3321
 6516SOL     OW31009   4.363   1.480   3.946  0.7010  0.1180 -0.2236
 6516SOL    HW131010   4.453   1.470   3.916  0.2705 -1.6097 -0.8932
 6516SOL    HW231011   4.321   1.417   3.888  0.1704 -0.2409  0.5569
 6517SOL     OW31012   2.108   3.564   6.364  0.1658  0.8800 -0.2300
 6517SOL    HW131013   2.076   3.489   6.415  0.6504 -0.7649 -2.3444
 6517SOL    HW231014   2.142   3.529   6.282  3.0691 -1.7154  2.0280
 6518SOL     OW31015   3.856   4.404   1.560  0.6238 -0.2353  0.3265
 6518SOL    HW131016   3.931   4.456   1.590  1.8076 -2.1463  0.6650
 6518SOL    HW231017   3.895   4.350   1.492  2.2871  1.3528 -0.0023
 6519SOL     OW31018   3.840   0.143  11.913  0.2080 -0.3658  0.2433
 6519SOL    HW131019   3.861   0.206  11.982  0.1699  0.2465 -0.2983
 6519SOL    HW231020   3.911   0.172  11.855  0.0529  2.0791  1.2797
 6520SOL     OW31021   0.172   2.891   7.425 -0.0524  0.5122  0.2470
 6520SOL    HW131022   0.163   2.941   7.344 -0.2466 -1.3384 -0.8710
 6520SOL    HW231023   0.256   2.928   7.454 -0.5474  2.2917 -0.6114
 6521SOL     OW31024   3.115   0.498   6.437 -0.2808 -0.0483 -0.8819
 6521SOL    HW131025   3.164   0.432   6.388  0.3818 -1.6281  1.9217
 6521SOL    HW231026   3.041   0.442   6.462 -0.1994  0.8237  1.3321
 6522SOL     OW31027   0.419   4.307   1.443 -0.6580 -0.4598  0.2644
 6522SOL    HW131028   0.416   4.266   1.530 -1.0198 -0.6704  0.1525
 6522SOL    HW231029   0.366   4.384   1.461 -0.5483 -0.5583  1.0405
 6523SOL     OW31030   1.086   3.156   5.580  0.1147 -0.4221 -0.1379
 6523SOL    HW131031   1.181   3.163   5.569  0.0245  1.0320  0.0566
 6523SOL    HW231032   1.068   3.143   5.673 -2.9526  1.4988 -0.4661
 6524SOL     OW31033   3.830   3.018   9.234 -0.3249 -0.3791 -0.1847
 6524SOL    HW131034   3.893   3.078   9.193 -2.3523 -0.7725 -3.8161
 6524SOL    HW231035   3.871   3.010   9.321 -0.2665  0.0875 -0.1683
 6525SOL     OW31036   2.032   2.045   6.168 -0.0407 -0.3187  0.2371
 6525SOL    HW131037   1.968   2.068   6.100  0.2985  0.1179  0.0671
 6525SOL    HW231038   1.976   2.074   6.240 -0.1872 -0.3852  0.1511
 6526SOL     OW31039   0.255   4.320   3.337 -0.3330 -0.1515 -0.7342
 6526SOL    HW131040   0.252   4.228   3.362  2.0649  0.4851  1.9831
 6526SOL    HW231041   0.342   4.332   3.298 -0.6697 -1.2287 -1.8055
 6527SOL     OW31042   1.857   3.651  16.232  0.2775 -0.1311  0.3241
 6527SOL    HW131043   1.782   3.710  16.238  0.2818 -0.1403  0.4537
 6527SOL    HW231044   1.818   3.594  16.166 -2.4691  1.9054  0.1981
 6528SOL     OW31045   3.119   3.045  13.424  0.1362 -0.0165  0.2626
 6528SOL    HW131046   3.180   3.035  13.352 -1.5354  1.4582 -1.3697
 6528SOL    HW231047   3.064   3.123  13.411 -0.8416 -0.8388 -0.4607
 6529SOL     OW31048   3.187   1.805   0.282 -0.4494  0.0367 -0.2054
 6529SOL    HW131049   3.105   1.815   0.232 -0.9993  1.8797  1.0798
 6529SOL    HW231050   3.169   1.713   0.298  0.3469 -0.2069 -0.7219
 6530SOL     OW31051   3.645   4.225   8.566  0.0251  0.0907 -0.2621
 6530SOL    HW131052   3.635   4.184   8.480 -1.4978 -0.7080  0.2856
 6530SOL    HW231053   3.720   4.176   8.598 -0.0505  1.2862  1.8033
 6531SOL     OW31054   3.285   0.890  16.850  0.5320  0.0065  0.1074
 6531SOL    HW131055   3.316   0.980  16.843 -1.6389  0.6875 -0.7915
 6531SOL    HW231056   3.346   0.865  16.920 -0.4473  0.1360  1.0127
 6532SOL     OW31057   1.977   1.810   7.009 -0.0494 -0.4241  0.1644
 6532SOL    HW131058   1.958   1.903   7.020 -0.3497 -0.4968  0.2875
 6532SOL    HW231059   2.071   1.809   6.995 -0.1095 -4.0256 -0.0430
 6533SOL     OW31060   1.650   0.424  13.788 -0.0967  0.1768 -0.2637
 6533SOL    HW131061   1.571   0.473  13.763 -0.5235  0.7552  2.2708
 6533SOL    HW231062   1.625   0.352  13.846  4.1815 -0.2071  1.1264
 6534SOL     OW31063   1.880   0.492   2.030 -0.1821 -0.5055 -0.2460
 6534SOL    HW131064   1.941   0.429   1.991  0.6603  0.7638 -0.9921
 6534SOL    HW231065   1.936   0.568   2.047 -0.6447 -0.3128  0.3976
 6535SOL     OW31066   0.058   0.361   2.524 -0.2496  0.3649  0.2639
 6535SOL    HW131067   0.094   0.404   2.602  0.2754  0.1836  0.1199
 6535SOL    HW231068   4.692   0.394   2.527 -0.5131 -0.3828  0.4073
 6536SOL     OW31069   1.404   1.067   8.427 -0.0864  0.1767 -0.1360
 6536SOL    HW131070   1.319   1.024   8.437  0.7651 -1.3663  0.3892
 6536SOL    HW231071   1.396   1.084   8.333  0.6618  0.4319 -0.1537
 6537SOL     OW31072   2.973   3.465   4.846  0.0426 -0.2164 -0.1712
 6537SOL    HW131073   3.021   3.383   4.860 -0.2211 -0.1794  0.9936
 6537SOL    HW231074   2.917   3.433   4.775 -0.2662  0.2179 -0.1207
 6538SOL     OW31075   4.539   0.645   5.349 -0.8200  0.6439  0.4030
 6538SOL    HW131076   4.583   0.567   5.314 -2.4967  0.0745 -0.4472
 6538SOL    HW231077   4.533   0.630   5.443 -0.2699  0.2068  0.3684
 6539SOL     OW31078   4.613   2.866   4.303 -0.2089 -0.4253 -0.1721
 6539SOL    HW131079   4.677   2.906   4.362  0.3419  3.3183 -3.2445
 6539SOL    HW231080   4.644   2.775   4.301  0.8215 -0.1019  1.0383
 6540SOL     OW31081   3.627   1.843  16.030  0.1144  0.2165  0.3104
 6540SOL    HW131082   3.693   1.834  15.961 -1.4069  0.7414 -1.2265
 6540SOL    HW231083   3.566   1.771  16.012  0.4752  0.0296 -0.1923
 6541SOL     OW31084   0.431   3.674   3.678  1.0032 -0.1109 -0.7360
 6541SOL    HW131085   0.399   3.587   3.656  0.4192 -0.1722  0.3609
 6541SOL    HW231086   0.520   3.654   3.709  0.4654 -1.9257 -0.3492
 6542SOL     OW31087   0.745   0.667   2.717 -0.2996 -0.2025  0.3482
 6542SOL    HW131088   0.758   0.745   2.663  0.4126  0.0585  0.9018
 6542SOL    HW231089   0.811   0.696   2.780  0.3248 -0.9080  0.0170
 6543SOL     OW31090   1.060   2.808   6.753 -0.1371  0.4298  0.0162
 6543SOL    HW131091   1.103   2.803   6.838  0.3233  0.6201 -0.2072
 6543SOL    HW231092   0.988   2.745   6.763  0.1964 -0.4083 -2.7826
 6544SOL     OW31093   3.298   2.695  10.883  0.5645  0.0259  0.2325
 6544SOL    HW131094   3.336   2.608  10.868  2.4411  0.3257  3.2430
 6544SOL    HW231095   3.374   2.740  10.919 -0.2008 -0.1442  2.0511
 6545SOL     OW31096   3.526   3.936   3.510 -0.0753 -0.2038 -0.0630
 6545SOL    HW131097   3.451   3.926   3.569 -0.8749 -1.0094 -1.2090
 6545SOL    HW231098   3.509   4.023   3.475 -0.1773 -0.7628 -1.4239
 6546SOL     OW31099   1.389   4.644  13.327 -0.2173 -0.4188 -0.4812
 6546SOL    HW131100   1.395   4.702  13.251  0.3585 -0.3477 -0.3809
 6546SOL    HW231101   1.347   4.697  13.395  1.9410 -3.3735  3.1452
 6547SOL     OW31102   0.395   4.476   5.938 -0.2186 -0.2475  0.2355
 6547SOL    HW131103   0.441   4.551   5.975  0.7757 -0.4492 -0.5940
 6547SOL    HW231104   0.331   4.518   5.881 -3.1041 -2.1174  2.0881
 6548SOL     OW31105   0.708   4.690   7.416 -0.3776  0.6518  0.2195
 6548SOL    HW131106   0.639   0.021   7.451 -2.0759 -1.5412  0.3523
 6548SOL    HW231107   0.758   4.673   7.496 -3.3527 -0.9179  1.7048
 6549SOL     OW31108   3.379   3.589   3.563 -0.6310  0.0645  0.0255
 6549SOL    HW131109   3.396   3.540   3.643 -0.0567  3.1145  1.7975
 6549SOL    HW231110   3.289   3.620   3.571 -0.4780  0.7111 -0.7360
 6550SOL     OW31111   2.208   3.368   2.714  0.0272  0.8432 -0.5057
 6550SOL    HW131112   2.193   3.443   2.657  0.6809  0.2791 -1.4237
 6550SOL    HW231113   2.258   3.310   2.657  1.9133  0.5250  1.4642
 6551SOL     OW31114   0.980   2.740  10.296 -0.0766  0.2194 -0.3804
 6551SOL    HW131115   0.943   2.673  10.238  1.0760 -1.6511  1.0558
 6551SOL    HW231116   0.928   2.750  10.375  1.6232 -1.5014  0.9673
 6552SOL     OW31117   0.867   2.488  16.306 -0.0438 -0.4269  0.8171
 6552SOL    HW131118   0.959   2.464  16.311  0.2199  0.6986  1.3840
 6552SOL    HW231119   0.887   2.577  16.275 -0.3166 -0.2929  1.0230
 6553SOL     OW31120   4.512   0.792   9.618 -0.0331 -0.0996  0.2119
 6553SOL    HW131121   4.431   0.836   9.591 -1.1184 -1.7148  0.8932
 6553SOL    HW231122   4.513   0.810   9.712  0.6917 -0.7953  0.3326
 6554SOL     OW31123   1.935   0.144   3.306  0.2589 -0.2130 -0.6331
 6554SOL    HW131124   1.844   0.151   3.279  0.3857 -2.5260 -1.6434
 6554SOL    HW231125   1.965   0.066   3.259 -1.6993 -0.4372 -1.5214
 6555SOL     OW31126   3.960   2.007  11.090 -0.0045  0.3920  0.0516
 6555SOL    HW131127   3.909   1.928  11.071  0.3742 -0.2022  1.4552
 6555SOL    HW231128   3.946   2.062  11.013  0.4491  0.4293 -0.0024
 6556SOL     OW31129   1.237   0.293   2.586 -0.3370  0.3926  0.0942
 6556SOL    HW131130   1.160   0.334   2.545 -0.3029 -0.1908 -0.5556
 6556SOL    HW231131   1.230   0.326   2.675  0.4075  0.5122  0.1074
 6557SOL     OW31132   1.931   4.028  11.981  0.1113  0.2900  0.0510
 6557SOL    HW131133   1.899   3.986  11.901 -1.7803  0.5398  0.6862
 6557SOL    HW231134   1.864   3.998  12.043  0.7887  0.6066  0.9373
 6558SOL     OW31135   2.668   1.526  10.562 -0.5274 -0.0416  0.0222
 6558SOL    HW131136   2.707   1.485  10.640  3.2206  1.4689 -1.0461
 6558SOL    HW231137   2.642   1.454  10.504 -1.4047 -1.7642  2.5028
 6559SOL     OW31138   3.910   2.700  10.268  0.3532 -0.0728 -0.7256
 6559SOL    HW131139   3.884   2.693  10.360 -2.7814 -0.8855 -1.6620
 6559SOL    HW231140   3.971   2.773  10.271  0.5897 -0.2611 -0.9221
 6560SOL     OW31141   4.065   1.109  12.781 -0.4435  0.2258  0.3083
 6560SOL    HW131142   4.115   1.146  12.709 -1.6970 -1.4112 -1.3939
 6560SOL    HW231143   3.973   1.118  12.758 -0.7124 -1.5182  0.7311
 6561SOL     OW31144   3.575   3.904   8.738 -0.9310 -0.2110  0.1483
 6561SOL    HW131145   3.599   3.844   8.809  1.6964  0.9951  0.3172
 6561SOL    HW231146   3.611   3.988   8.768  0.5576 -0.5508 -0.6714
 6562SOL     OW31147   1.377   1.235  10.708  0.0133 -0.2023 -0.4282
 6562SOL    HW131148   1.337   1.297  10.647  0.9462  0.9962  0.1976
 6562SOL    HW231149   1.412   1.299  10.769 -1.6500  0.8625 -0.5953
 6563SOL     OW31150   1.464   3.307   8.664  0.1388  0.4597  0.2579
 6563SOL    HW131151   1.409   3.289   8.588 -1.7993  1.9087  1.3203
 6563SOL    HW231152   1.455   3.226   8.714 -0.8889  0.2793 -0.2046
 6564SOL     OW31153   4.326   2.445   8.796  0.1440  0.1464 -0.0023
 6564SOL    HW131154   4.305   2.452   8.890  2.7413  2.0403  0.4302
 6564SOL    HW231155   4.418   2.419   8.800 -0.3558 -1.7984 -1.5017
 6565SOL     OW31156   0.593   2.580  11.987 -0.1244 -0.4633 -0.7490
 6565SOL    HW131157   0.624   2.670  11.981  0.5539 -0.7276 -1.3155
 6565SOL    HW231158   0.564   2.579  12.078 -2.2727  1.3543 -1.4318
 6566SOL     OW31159   2.723   2.763  12.597 -0.1642 -0.4813 -0.1889
 6566SOL    HW131160   2.696   2.760  12.689  1.0097  0.5536  0.1917
 6566SOL    HW231161   2.647   2.723  12.554 -0.9327  1.1205 -0.2993
 6567SOL     OW31162   0.214   1.292   8.399 -0.3980 -0.0717  0.2877
 6567SOL    HW131163   0.259   1.278   8.482 -0.4333  1.1103  0.5040
 6567SOL    HW231164   0.124   1.313   8.424 -0.4640  0.0674 -0.0662
 6568SOL     OW31165   2.136   2.433   4.060 -0.2466 -0.5720  0.1947
 6568SOL    HW131166   2.063   2.448   4.000  1.1629  0.3234 -1.3099
 6568SOL    HW231167   2.181   2.365   4.009 -1.0428 -1.1409  0.2577
 6569SOL     OW31168   4.178   4.642  10.887 -0.1100  0.1913  0.4981
 6569SOL    HW131169   4.150   4.646  10.978  0.5931  0.2103  0.7171
 6569SOL    HW231170   4.146   0.003  10.857 -1.2229 -0.2609  0.4161
 6570SOL     OW31171   2.156   3.603   1.911  0.3887 -0.0451 -0.1266
 6570SOL    HW131172   2.160   3.669   1.841 -1.3327  1.5410  1.2663
 6570SOL    HW231173   2.204   3.530   1.872  0.1260  0.1415 -0.7920
 6571SOL     OW31174   0.499   0.908   5.505 -0.2670  0.0806  0.6488
 6571SOL    HW131175   0.438   0.859   5.451  1.0166 -2.0745  1.1582
 6571SOL    HW231176   0.506   0.985   5.448 -0.3360 -1.1851 -1.0573
 6572SOL     OW31177   2.589   4.461   6.376 -0.3248  0.0094  0.1686
 6572SOL    HW131178   2.606   4.464   6.281  1.4638  3.2437  0.5739
 6572SOL    HW231179   2.661   4.405   6.405 -2.5391 -2.2039  1.3042
 6573SOL     OW31180   2.695   0.151   3.039  0.0023  0.6393  0.3554
 6573SOL    HW131181   2.747   0.185   3.112 -1.0347  2.5405  0.2272
 6573SOL    HW231182   2.654   0.231   3.007  1.9900  1.9672  1.0900
 6574SOL     OW31183   2.812   4.010   5.831  0.8513  0.0483 -0.2453
 6574SOL    HW131184   2.857   4.088   5.865  2.1182 -1.5129  1.6496
 6574SOL    HW231185   2.738   4.054   5.789  0.1127 -0.2491  0.7376
 6575SOL     OW31186   2.965   3.050   0.413  0.3453  0.1219  0.0154
 6575SOL    HW131187   3.034   2.985   0.431  1.7283  1.9647  1.2969
 6575SOL    HW231188   2.888   3.022   0.464  0.4960 -0.8817 -0.2991
 6576SOL     OW31189   3.128   3.340   4.566 -0.3154  0.3067 -0.2220
 6576SOL    HW131190   3.187   3.333   4.492 -0.0995 -0.2982  0.0023
 6576SOL    HW231191   3.108   3.433   4.563  2.2798  0.7945 -2.0433
 6577SOL     OW31192   3.211   4.584   4.500  0.4765 -0.8338 -0.5172
 6577SOL    HW131193   3.129   4.546   4.532  0.1260  0.4552  0.1062
 6577SOL    HW231194   3.230   4.644   4.573 -0.3790 -0.5690 -0.5195
 6578SOL     OW31195   3.699   0.309  11.006  0.7647  0.1649 -0.2837
 6578SOL    HW131196   3.795   0.306  11.004  0.8154  0.8600  1.1025
 6578SOL    HW231197   3.676   0.384  11.060  3.2692  2.8671 -2.9713
 6579SOL     OW31198   0.782   1.974   1.198  1.2681  0.3425 -0.2339
 6579SOL    HW131199   0.781   1.885   1.234 -0.3131  0.7303  0.6692
 6579SOL    HW231200   0.830   1.957   1.117 -0.2442 -2.3077 -0.5713
 6580SOL     OW31201   1.734   4.270   5.809 -0.2511  0.1975  0.4579
 6580SOL    HW131202   1.661   4.222   5.849  1.7888 -1.4978  2.0940
 6580SOL    HW231203   1.722   4.246   5.717 -1.6942 -0.6605  0.8599
 6581SOL     OW31204   4.164   2.661   6.342 -0.1839 -0.6572 -0.4485
 6581SOL    HW131205   4.079   2.664   6.299  1.2590 -2.8783 -3.4029
 6581SOL    HW231206   4.206   2.740   6.307  1.0807 -1.9598 -1.8442
 6582SOL     OW31207   0.996   0.487  10.250 -0.3748  0.5139 -0.8539
 6582SOL    HW131208   1.080   0.443  10.258 -0.9802 -0.3408  0.8859
 6582SOL    HW231209   0.937   0.438  10.307 -0.1652  1.8836  0.5368
 6583SOL     OW31210   2.457   2.981   7.668  0.1897 -0.3333 -0.2820
 6583SOL    HW131211   2.378   3.017   7.709  0.7069 -0.0639  0.4606
 6583SOL    HW231212   2.465   3.041   7.594 -0.0361  2.7131  2.1936
 6584SOL     OW31213   2.882   3.358   7.464  0.0482 -0.6338  0.0083
 6584SOL    HW131214   2.929   3.370   7.382  1.6789  0.8344  1.1357
 6584SOL    HW231215   2.878   3.263   7.477  0.7041 -0.9953 -2.4599
 6585SOL     OW31216   2.572   3.403   5.418 -0.1063 -0.4801 -0.2370
 6585SOL    HW131217   2.488   3.449   5.419  0.1624  0.0100 -0.3916
 6585SOL    HW231218   2.613   3.443   5.495  0.4029 -0.4112 -0.5421
 6586SOL     OW31219   1.227   2.236   8.678 -0.0553 -0.0345  0.0692
 6586SOL    HW131220   1.269   2.223   8.763  0.6236  0.8238 -0.1330
 6586SOL    HW231221   1.231   2.148   8.639  1.5653 -0.4960  1.2610
 6587SOL     OW31222   2.091   2.377   7.822  0.0355  0.2834 -0.7197
 6587SOL    HW131223   2.032   2.395   7.749  1.3402 -2.1470 -2.3780
 6587SOL    HW231224   2.056   2.435   7.889 -1.4634 -0.9670 -0.4205
 6588SOL     OW31225   1.309   3.791   7.289  0.5976 -0.9760  0.7826
 6588SOL    HW131226   1.246   3.780   7.360  1.4093 -1.4102  1.4341
 6588SOL    HW231227   1.387   3.760   7.334  1.7017 -0.4081 -0.7391
 6589SOL     OW31228   2.642   0.819   7.035 -0.1145  0.0116  0.0399
 6589SOL    HW131229   2.724   0.833   6.989  0.3164 -0.3185  0.6998
 6589SOL    HW231230   2.605   0.748   6.982  0.7994 -0.2122 -0.2962
 6590SOL     OW31231   4.688   2.357   3.387 -0.0140  0.2552  0.5473
 6590SOL    HW131232   4.723   2.269   3.398  0.5451  0.6248  1.7541
 6590SOL    HW231233   0.035   2.395   3.337 -0.9389 -0.2560 -1.1542
 6591SOL     OW31234   0.091   2.076   5.741  0.4580 -0.2058  0.2191
 6591SOL    HW131235   0.165   2.023   5.771 -0.1870 -1.3710 -0.2519
 6591SOL    HW231236   0.112   2.168   5.758  0.1882 -0.3898  1.5745
 6592SOL     OW31237   0.705   2.779   3.314  0.0518  0.6601 -0.3292
 6592SOL    HW131238   0.635   2.725   3.349 -0.7517  0.5108 -2.1240
 6592SOL    HW231239   0.767   2.792   3.386  0.6156 -0.0268 -0.6939
 6593SOL     OW31240   1.250   0.975  14.975  0.0331  0.3302  0.3059
 6593SOL    HW131241   1.186   0.972  15.046  0.6216  1.2876  0.8838
 6593SOL    HW231242   1.252   0.882  14.955 -1.1229 -0.3898  3.4811
 6594SOL     OW31243   1.889   1.784   5.459  0.1045  0.1220 -0.7204
 6594SOL    HW131244   1.934   1.718   5.406 -0.4816 -1.2163  0.4504
 6594SOL    HW231245   1.856   1.842   5.390  1.5240 -2.0184 -3.1796
 6595SOL     OW31246   2.434   2.588   2.539 -0.3690  0.1027  0.4264
 6595SOL    HW131247   2.492   2.610   2.466 -0.2851 -2.8724 -0.4272
 6595SOL    HW231248   2.505   2.578   2.603  0.7001  1.7570 -0.5019
 6596SOL     OW31249   0.781   1.674   5.490 -0.0444  0.3794 -0.1666
 6596SOL    HW131250   0.824   1.746   5.536 -0.4281 -1.0206  2.3607
 6596SOL    HW231251   0.823   1.593   5.519 -1.4485  0.1194  1.1130
 6597SOL     OW31252   4.346   3.006   6.655 -0.0885 -0.6743 -0.0435
 6597SOL    HW131253   4.436   3.008   6.626 -0.4979  0.0504 -1.2571
 6597SOL    HW231254   4.336   2.911   6.664 -0.8225 -0.5099  0.9703
 6598SOL     OW31255   1.623   2.847   3.752  0.2576 -0.0131 -0.4823
 6598SOL    HW131256   1.678   2.783   3.707 -0.4412 -0.9662  0.0330
 6598SOL    HW231257   1.578   2.908   3.694  1.4515 -0.2160 -1.6163
 6599SOL     OW31258   0.505   3.069   7.072 -0.2917 -0.6106 -0.7578
 6599SOL    HW131259   0.571   3.015   7.029 -0.5204 -0.8106 -0.8550
 6599SOL    HW231260   0.523   3.146   7.018 -1.0800 -0.3122 -0.5902
 6600SOL     OW31261   1.277   4.170   8.118 -0.4741 -0.1507  0.1534
 6600SOL    HW131262   1.302   4.232   8.187  1.3183  0.1446 -0.7507
 6600SOL    HW231263   1.296   4.086   8.158 -3.9820 -2.0311 -2.1767
 6601SOL     OW31264   3.335   0.908  16.420  0.1188  0.2011 -0.2854
 6601SOL    HW131265   3.328   0.900  16.325  0.2669 -1.6159 -0.1511
 6601SOL    HW231266   3.246   0.937  16.441 -0.7849 -1.2261 -2.1834
 6602SOL     OW31267   3.161   4.016   9.486 -0.0084  0.3612 -0.4025
 6602SOL    HW131268   3.192   4.106   9.502 -0.2792  0.5165 -0.7393
 6602SOL    HW231269   3.068   4.023   9.506 -0.1976  0.4317 -1.2946
 6603SOL     OW31270   3.432   3.953   5.803  0.5200 -0.0365  0.0982
 6603SOL    HW131271   3.357   3.910   5.843 -0.0826  2.9485  2.1221
 6603SOL    HW231272   3.512   3.907   5.829  0.6958  1.5286  2.2548
 6604SOL     OW31273   3.978   0.353   3.417  0.2110  0.5407 -0.1982
 6604SOL    HW131274   3.930   0.328   3.338  0.1590 -2.0523  0.6310
 6604SOL    HW231275   4.059   0.390   3.383  0.7643 -0.7476 -0.2735
 6605SOL     OW31276   4.651   4.304  10.595 -0.2182 -0.2016 -0.2672
 6605SOL    HW131277   4.580   4.241  10.604  0.0413 -0.1345  2.4057
 6605SOL    HW231278   0.003   4.247  10.605  0.7594  0.8945 -1.4262
 6606SOL     OW31279   3.322   4.253   6.362 -0.0208  0.5474 -0.6144
 6606SOL    HW131280   3.305   4.260   6.269 -0.1692 -0.0398 -0.6320
 6606SOL    HW231281   3.244   4.299   6.393 -1.5715 -1.3868 -1.6598
 6607SOL     OW31282   3.446   3.919   4.518 -0.2125 -0.2698 -0.0694
 6607SOL    HW131283   3.420   3.999   4.473 -3.0322 -0.0517  1.9007
 6607SOL    HW231284   3.392   3.932   4.597 -1.8515 -2.1560 -0.8874
 6608SOL     OW31285   2.351   3.138   3.695  0.5711  0.4618 -0.2658
 6608SOL    HW131286   2.430   3.130   3.749  1.2154 -0.8110 -1.3986
 6608SOL    HW231287   2.286   3.139   3.765  0.4623  2.5334 -0.3996
 6609SOL     OW31288   0.016   1.435  10.880 -0.2352 -0.3956 -0.2196
 6609SOL    HW131289   0.057   1.430  10.967 -0.3028 -3.2034 -0.3723
 6609SOL    HW231290   4.677   1.506  10.891 -2.6802 -2.3289 -2.3603
 6610SOL     OW31291   1.051   3.060  17.357  0.6593 -0.4317  0.1262
 6610SOL    HW131292   1.113   3.047  17.286 -1.3137 -0.1061 -1.6563
 6610SOL    HW231293   1.026   2.969  17.375  0.2584 -0.4946 -0.7362
 6611SOL     OW31294   1.448   3.381  16.488  0.6585  0.5468 -0.0858
 6611SOL    HW131295   1.516   3.448  16.494 -0.8247  2.1966 -1.6454
 6611SOL    HW231296   1.372   3.422  16.445  1.8824  2.1727 -0.7074
 6612SOL     OW31297   0.034   4.345   3.191 -0.0828 -0.1701  0.2579
 6612SOL    HW131298   0.088   4.320   3.117 -1.0506  0.0093 -0.5122
 6612SOL    HW231299   0.102   4.349   3.258  2.2683  0.1113 -2.1483
 6613SOL     OW31300   2.119   2.607   8.752  0.4966  0.0877  0.1458
 6613SOL    HW131301   2.147   2.684   8.702 -0.5328 -0.5587 -1.4285
 6613SOL    HW231302   2.193   2.547   8.738  0.9099  1.1356 -2.2619
 6614SOL     OW31303   4.679   0.855   1.617  0.3775  0.0661  0.1446
 6614SOL    HW131304   4.652   0.880   1.528 -0.2586  0.7780  0.5440
 6614SOL    HW231305   4.633   0.927   1.659  3.6256  2.4034 -0.4019
 6615SOL     OW31306   0.398   3.495   6.716 -0.3263  0.3382  0.4785
 6615SOL    HW131307   0.417   3.587   6.733 -0.1902  0.6607 -1.4837
 6615SOL    HW231308   0.304   3.495   6.698 -0.3909  0.1119  0.8153
 6616SOL     OW31309   3.999   1.736  17.371 -0.1444 -0.3496  0.0701
 6616SOL    HW131310   3.906   1.722  17.385 -0.2772  0.8795  0.4399
 6616SOL    HW231311   4.038   1.768  17.453 -1.7351  2.2671 -0.1927
 6617SOL     OW31312   1.095   0.931   4.825 -0.1608  0.6688  0.3340
 6617SOL    HW131313   1.020   0.908   4.770 -0.0246  2.5474 -0.6246
 6617SOL    HW231314   1.097   1.024   4.804 -0.2444  0.2889 -1.3697
 6618SOL     OW31315   0.689   3.279   0.292 -0.2403  0.2379 -0.4379
 6618SOL    HW131316   0.722   3.314   0.375  0.9092 -0.5188 -0.5813
 6618SOL    HW231317   0.605   3.240   0.316  0.8302 -0.1199  2.6744
 6619SOL     OW31318   3.590   3.154   7.290  0.0818 -0.0573 -0.0665
 6619SOL    HW131319   3.579   3.226   7.352  2.9174 -0.9970  1.5211
 6619SOL    HW231320   3.598   3.078   7.347 -1.6554  0.3770  0.7406
 6620SOL     OW31321   4.141   1.337  16.637  0.1523  0.0862 -0.7503
 6620SOL    HW131322   4.214   1.376  16.589  0.1702 -1.0494 -1.6406
 6620SOL    HW231323   4.080   1.409  16.651  2.0154  0.7276  4.1198
 6621SOL     OW31324   0.710   2.865   6.081 -0.3760 -0.0595 -0.2705
 6621SOL    HW131325   0.778   2.815   6.035  0.6085 -0.4765  1.6141
 6621SOL    HW231326   0.682   2.805   6.151 -1.2701  1.0021  0.2825
 6622SOL     OW31327   2.416   4.358  13.285  0.0741  0.1438  0.2513
 6622SOL    HW131328   2.321   4.368  13.288 -0.0202 -1.3798  2.4193
 6622SOL    HW231329   2.421   4.281  13.228  0.3087 -0.6082  1.2828
 6623SOL     OW31330   2.842   0.386   5.237  0.2951 -0.3142  0.0715
 6623SOL    HW131331   2.896   0.461   5.214  0.5927 -0.8354 -0.9614
 6623SOL    HW231332   2.902   0.317   5.208  1.6799  1.3567 -0.9705
 6624SOL     OW31333   3.996   2.529   9.593 -0.0057 -0.0251  0.2912
 6624SOL    HW131334   4.057   2.555   9.523 -2.3824  2.5718 -0.8066
 6624SOL    HW231335   4.055   2.483   9.652 -0.9481 -1.8119 -0.1760
 6625SOL     OW31336   2.953   1.603   1.992  0.1187 -0.4442 -0.0825
 6625SOL    HW131337   2.859   1.621   1.986  0.1296 -0.0962  0.7206
 6625SOL    HW231338   2.955   1.567   2.081 -3.1013 -0.1447  0.1108
 6626SOL     OW31339   0.703   4.677   7.011  0.0649  0.0609 -0.5436
 6626SOL    HW131340   0.669   0.029   7.057  0.7988 -0.3488  0.6855
 6626SOL    HW231341   0.763   4.647   7.079  0.0918 -1.6300 -1.3246
 6627SOL     OW31342   2.638   1.081   1.588 -0.0580  0.5016  0.4519
 6627SOL    HW131343   2.675   0.993   1.575 -3.2795 -0.3885 -2.5104
 6627SOL    HW231344   2.675   1.120   1.509  0.5326 -4.2474 -1.6561
 6628SOL     OW31345   1.619   0.624  17.075  0.4144  0.1963 -0.2447
 6628SOL    HW131346   1.636   0.571  16.998 -2.0747 -1.1153  0.1035
 6628SOL    HW231347   1.524   0.614  17.076  0.2081  2.1223 -0.5989
 6629SOL     OW31348   2.539   3.155   1.782  0.1900  0.0942 -0.2472
 6629SOL    HW131349   2.610   3.097   1.753  0.1959  0.3960 -0.8351
 6629SOL    HW231350   2.520   3.126   1.872 -3.2630 -2.9071 -1.9572
 6630SOL     OW31351   3.194   2.429  11.121 -0.2782  0.3560 -0.0457
 6630SOL    HW131352   3.112   2.404  11.163 -0.5199  1.5832  0.2063
 6630SOL    HW231353   3.171   2.400  11.032  0.4023  0.6553 -0.3173
 6631SOL     OW31354   2.592   1.900   3.144  0.0110 -0.4105  0.4368
 6631SOL    HW131355   2.657   1.881   3.076 -1.5382 -0.5792 -0.9798
 6631SOL    HW231356   2.647   1.880   3.220  0.7333 -2.2834 -0.5855
 6632SOL     OW31357   0.678   2.914   5.363 -0.1198 -0.0998  0.1628
 6632SOL    HW131358   0.678   2.833   5.414 -1.2684 -1.3351 -1.8071
 6632SOL    HW231359   0.732   2.966   5.423 -1.5945  0.3676  1.0749
 6633SOL     OW31360   4.250   0.021  16.537  0.7656  0.4066 -0.3330
 6633SOL    HW131361   4.174   4.696  16.505 -0.8849  1.7247  1.5429
 6633SOL    HW231362   4.245   0.086  16.467  1.6247 -1.9224 -2.5713
 6634SOL     OW31363   3.915   0.918  14.427  0.2341 -0.5814 -0.1934
 6634SOL    HW131364   3.900   0.898  14.335 -1.7479 -1.0852  0.2459
 6634SOL    HW231365   3.997   0.876  14.454 -0.2242 -1.6601 -0.4483
 6635SOL     OW31366   4.510   2.083  11.338 -0.9932 -0.0552  0.2951
 6635SOL    HW131367   4.597   2.121  11.336 -0.6830 -0.5517  3.4068
 6635SOL    HW231368   4.511   2.046  11.250 -1.4469 -1.8795  1.0476
 6636SOL     OW31369   0.372   0.637   5.655 -0.0421 -0.6728  0.8936
 6636SOL    HW131370   0.291   0.687   5.649  0.9634  1.1732  2.8052
 6636SOL    HW231371   0.437   0.707   5.656 -1.0182  0.2178  1.3280
 6637SOL     OW31372   2.263   3.517   8.769 -0.2976 -0.3919 -0.0941
 6637SOL    HW131373   2.258   3.510   8.674 -0.9565 -0.3522 -0.0606
 6637SOL    HW231374   2.253   3.611   8.782 -1.2752 -0.4931 -0.1085
 6638SOL     OW31375   3.625   4.000   5.317 -0.2813 -0.2236  0.2656
 6638SOL    HW131376   3.552   3.962   5.366 -0.6662  0.4437  0.2119
 6638SOL    HW231377   3.662   4.060   5.382  0.1662 -3.2735  2.8569
 6639SOL     OW31378   0.846   3.009   6.774  0.0051 -0.5054 -0.0888
 6639SOL    HW131379   0.916   3.032   6.713  0.1919 -0.6901  0.0524
 6639SOL    HW231380   0.882   2.923   6.796  3.2187  0.8517 -0.0959
 6640SOL     OW31381   4.725   0.259   1.442  0.4956 -0.0855  0.7000
 6640SOL    HW131382   4.717   0.287   1.351  1.6619  2.1237  1.2631
 6640SOL    HW231383   0.089   0.228   1.456  0.1589 -1.7180 -0.8297
 6641SOL     OW31384   4.693   2.854   1.843 -0.2735 -0.0170 -0.2585
 6641SOL    HW131385   4.662   2.764   1.832 -2.3301  0.8976 -1.9070
 6641SOL    HW231386   0.055   2.843   1.803 -0.2697  1.5146 -0.6771
 6642SOL     OW31387   4.627   2.080   0.599 -0.5183  0.8139 -0.2154
 6642SOL    HW131388   4.676   2.129   0.666  0.2110 -0.1030 -0.0756
 6642SOL    HW231389   4.703   2.038   0.558 -2.6896 -1.3998 -2.0073
 6643SOL     OW31390   3.375   1.003  13.304 -0.6731  0.0252  0.2680
 6643SOL    HW131391   3.306   1.069  13.297  0.7820  1.4521 -0.7167
 6643SOL    HW231392   3.422   1.024  13.385  1.1537  2.6486 -1.4460
 6644SOL     OW31393   0.097   4.654   5.262 -0.3080  0.2079 -0.1977
 6644SOL    HW131394   0.085   4.670   5.355  0.8001 -0.7436  0.1105
 6644SOL    HW231395   0.026   4.590   5.263  0.0979 -0.2070  1.4344
 6645SOL     OW31396   3.314   0.354   9.654  0.1478 -0.0438  0.2771
 6645SOL    HW131397   3.249   0.330   9.588  0.1030 -0.4008  0.4480
 6645SOL    HW231398   3.329   0.265   9.687 -0.8545 -0.0682  0.6967
 6646SOL     OW31399   0.972   2.345  14.197  0.3012  0.2428  0.8124
 6646SOL    HW131400   0.902   2.399  14.234 -0.4457 -1.6332  2.1161
 6646SOL    HW231401   1.022   2.414  14.152  0.4194  0.1250  0.7642
 6647SOL     OW31402   3.769   4.401   8.814  0.6910  0.1936  0.0918
 6647SOL    HW131403   3.767   4.410   8.719  1.7101  0.2596  0.0701
 6647SOL    HW231404   3.681   4.435   8.832  0.1946 -1.0714  0.0458
 6648SOL     OW31405   1.937   3.423   4.533 -0.3650  0.5421  0.0370
 6648SOL    HW131406   2.021   3.470   4.542 -1.7278  3.0305 -0.1830
 6648SOL    HW231407   1.961   3.333   4.554  1.6009  1.2512  0.8278
 6649SOL     OW31408   0.147   4.695   9.228  0.0245  0.3516 -0.3032
 6649SOL    HW131409   0.104   4.622   9.272  0.5768 -1.3998 -2.6532
 6649SOL    HW231410   0.151   4.660   9.139 -1.8625 -1.4726  0.3296
 6650SOL     OW31411   2.773   1.012  10.497 -0.6314 -0.3168 -0.2590
 6650SOL    HW131412   2.697   0.995  10.553 -1.0231 -0.3505 -0.8006
 6650SOL    HW231413   2.733   1.077  10.439 -1.9326 -2.7558 -2.0768
 6651SOL     OW31414   3.656   2.532  12.298  0.4006  0.0349 -0.1445
 6651SOL    HW131415   3.630   2.442  12.282  1.3564 -0.4700  1.1891
 6651SOL    HW231416   3.575   2.561  12.339 -0.6331 -0.1570 -2.0265
 6652SOL     OW31417   4.680   4.677   6.296  0.0028  0.3283 -0.8248
 6652SOL    HW131418   0.051   4.678   6.293  0.0153  2.3544  0.4009
 6652SOL    HW231419   4.662   0.046   6.311  2.6306  0.7511 -0.3682
 6653SOL     OW31420   2.108   0.787   1.937 -0.2068 -0.3591  0.4872
 6653SOL    HW131421   2.176   0.849   1.964  1.6375 -1.7635 -0.8256
 6653SOL    HW231422   2.172   0.718   1.919  1.1115  0.1053  3.3941
 6654SOL     OW31423   2.758   0.391   8.016  0.2670 -0.0535  0.1824
 6654SOL    HW131424   2.700   0.467   8.027  0.5968  0.5156 -1.8817
 6654SOL    HW231425   2.834   0.422   8.065 -0.2568 -1.1551  1.6810
 6655SOL     OW31426   4.708   2.760   2.529 -0.4270  0.2566 -0.2168
 6655SOL    HW131427   4.673   2.793   2.446  1.1877 -0.7198 -1.3041
 6655SOL    HW231428   0.074   2.740   2.504 -0.9173 -1.8137 -0.3741
 6656SOL     OW31429   3.693   3.257   5.319 -0.8376 -0.3094 -1.0027
 6656SOL    HW131430   3.611   3.261   5.269 -0.1733 -0.4868 -2.1006
 6656SOL    HW231431   3.670   3.209   5.399 -0.6405  0.3122 -0.5708
 6657SOL     OW31432   2.817   2.199  13.889 -0.6053 -0.3629  0.1881
 6657SOL    HW131433   2.841   2.290  13.870 -1.4555  0.1475  1.5881
 6657SOL    HW231434   2.901   2.161  13.864 -1.6707 -1.8329 -1.2146
 6658SOL     OW31435   0.305   2.932   1.913 -0.0185  0.1712 -0.1424
 6658SOL    HW131436   0.365   2.885   1.971 -1.4977 -4.2118 -2.1265
 6658SOL    HW231437   0.321   2.879   1.834 -1.0199 -2.0889  1.1532
 6659SOL     OW31438   0.593   1.081   0.427  0.8098 -0.4992  0.2784
 6659SOL    HW131439   0.642   1.071   0.509 -1.0655 -0.3817  1.4300
 6659SOL    HW231440   0.620   1.169   0.402  1.1177 -0.2100  1.6326
 6660SOL     OW31441   3.604   3.364   7.026  0.1840  0.7957 -0.2241
 6660SOL    HW131442   3.516   3.396   7.047 -0.4596 -0.8506 -0.4503
 6660SOL    HW231443   3.590   3.276   7.062 -0.6195 -0.1117 -2.7948
 6661SOL     OW31444   1.959   2.970   3.803 -0.2330 -0.0097 -0.4300
 6661SOL    HW131445   1.921   2.882   3.798  0.2288 -0.0917 -2.4866
 6661SOL    HW231446   1.972   2.980   3.897  0.7473  2.4057 -0.8351
 6662SOL     OW31447   3.275   4.467  12.856  0.4801 -0.1303 -0.1570
 6662SOL    HW131448   3.351   4.447  12.910 -0.5415 -1.9799  0.5769
 6662SOL    HW231449   3.317   4.460  12.770  0.8590  2.1628 -0.1402
 6663SOL     OW31450   4.494   2.432   4.994 -0.3227 -0.6130  0.0119
 6663SOL    HW131451   4.408   2.391   4.997 -0.1143 -1.0642 -0.1557
 6663SOL    HW231452   4.490   2.472   5.080 -3.1612  0.0185 -0.4266
 6664SOL     OW31453   1.725   1.263   6.781 -0.0362  0.7457  0.2145
 6664SOL    HW131454   1.670   1.252   6.703  0.6570  0.8988 -0.2876
 6664SOL    HW231455   1.812   1.233   6.758 -1.1790 -2.3340 -0.0803
 6665SOL     OW31456   4.270   1.781  13.872  0.4676 -0.1723 -0.1530
 6665SOL    HW131457   4.225   1.765  13.789 -0.8303 -0.2520  0.5704
 6665SOL    HW231458   4.254   1.874  13.889  0.7073 -0.2121  0.2916
 6666SOL     OW31459   1.620   3.466  12.877 -0.6342  0.3684 -0.5395
 6666SOL    HW131460   1.565   3.508  12.811  0.6840  4.6471  1.0918
 6666SOL    HW231461   1.656   3.542  12.922  0.8330  0.8695 -2.5579
 6667SOL     OW31462   4.048   4.113   1.606  0.3644  0.0032 -0.6842
 6667SOL    HW131463   3.964   4.129   1.563 -0.3642  0.9932  1.0902
 6667SOL    HW231464   4.108   4.124   1.532 -1.3463  0.5375 -1.9804
 6668SOL     OW31465   0.707   2.605  10.049  0.2225  0.1245 -0.3100
 6668SOL    HW131466   0.685   2.694  10.021 -0.8453  0.1285  0.5530
 6668SOL    HW231467   0.802   2.598  10.041  0.2235  1.3071 -1.4541
 6669SOL     OW31468   0.443   1.746   7.604 -0.1256  0.1212  0.0147
 6669SOL    HW131469   0.357   1.744   7.564  0.1667 -1.3568 -0.5364
 6669SOL    HW231470   0.413   1.702   7.683  2.7809  0.6415  1.4297
 6670SOL     OW31471   4.124   0.019   8.174  0.5842  0.0088  0.3478
 6670SOL    HW131472   4.212   0.015   8.212  0.9614 -2.6088 -0.8235
 6670SOL    HW231473   4.103   4.652   8.157 -0.7169  0.2623  0.5995
 6671SOL     OW31474   4.162   1.268   3.564 -0.0344  0.2509  0.1797
 6671SOL    HW131475   4.192   1.332   3.499  1.8987 -0.2689  0.5761
 6671SOL    HW231476   4.234   1.274   3.626 -0.1385 -0.8111  0.3959
 6672SOL     OW31477   1.756   1.336  15.584 -0.0419  0.1100  0.6829
 6672SOL    HW131478   1.772   1.422  15.544 -0.0408  0.1020  0.6660
 6672SOL    HW231479   1.661   1.323  15.583 -0.3115  2.1510 -0.1114
 6673SOL     OW31480   1.164   1.557   8.959 -0.3490  0.2666 -0.1419
 6673SOL    HW131481   1.136   1.647   8.976  0.1945  0.1720  1.2535
 6673SOL    HW231482   1.105   1.533   8.887  1.9697 -0.2378 -1.8818
 6674SOL     OW31483   4.314   0.553   4.599 -0.1643 -0.3034 -0.3883
 6674SOL    HW131484   4.272   0.631   4.564 -2.2429 -1.0467  0.4713
 6674SOL    HW231485   4.250   0.533   4.667  0.8988 -0.5878  0.5334
 6675SOL     OW31486   3.430   0.479   6.844 -0.6605  0.0619 -0.2842
 6675SOL    HW131487   3.387   0.457   6.926 -0.5763 -1.1040 -0.5490
 6675SOL    HW231488   3.429   0.403   6.786  0.3514  0.4541 -0.8190
 6676SOL     OW31489   2.853   4.210   4.812 -0.4672  0.0836 -0.2099
 6676SOL    HW131490   2.888   4.291   4.849 -1.4365  0.5179 -0.2401
 6676SOL    HW231491   2.931   4.161   4.785 -0.9234 -0.3397 -0.7650
 6677SOL     OW31492   0.945   2.700   9.052 -0.1222  0.2022  0.1096
 6677SOL    HW131493   0.921   2.781   9.097 -0.7093 -0.4019  0.8849
 6677SOL    HW231494   0.990   2.644   9.115 -0.0066 -0.4221 -0.5251
 6678SOL     OW31495   0.736   2.836  12.351  0.5988 -0.5253 -1.0811
 6678SOL    HW131496   0.799   2.807  12.418  1.4923  2.9016 -0.4381
 6678SOL    HW231497   0.664   2.789  12.394 -0.9055  1.7289 -1.1725
 6679SOL     OW31498   1.891   1.128  14.316  0.4556 -0.4180 -0.5938
 6679SOL    HW131499   1.828   1.070  14.274 -0.7531  0.1636  0.4221
 6679SOL    HW231500   1.924   1.077  14.389 -2.5900 -2.0650 -0.4183
 6680SOL     OW31501   3.665   3.492   3.730  0.4848 -0.2550 -0.4400
 6680SOL    HW131502   3.680   3.577   3.771 -4.0971  0.3386 -0.0602
 6680SOL    HW231503   3.757   3.481   3.704  0.9471  1.4872  0.4383
 6681SOL     OW31504   1.959   3.331   8.998 -0.9135 -0.0382 -0.3799
 6681SOL    HW131505   1.947   3.421   8.968 -0.0173  0.3193  0.3499
 6681SOL    HW231506   1.871   3.297   9.015 -1.2276  0.4257 -1.0759
 6682SOL     OW31507   2.862   4.651  11.229  0.0876 -0.1321  0.7387
 6682SOL    HW131508   2.837   4.561  11.206 -0.3857  0.7714 -2.2778
 6682SOL    HW231509   2.787   4.678  11.282 -0.4960  0.9970 -0.6558
 6683SOL     OW31510   0.820   2.631  17.225 -0.2773  0.2545  0.6179
 6683SOL    HW131511   0.732   2.666  17.213 -0.5641 -0.4730  0.6089
 6683SOL    HW231512   0.802   2.538  17.237 -0.0591  0.0596 -0.5325
 6684SOL     OW31513   0.734   3.324   5.658  0.3943  0.9723  0.0970
 6684SOL    HW131514   0.803   3.389   5.671  0.2500  1.2711 -0.6322
 6684SOL    HW231515   0.658   3.381   5.655  0.8544  1.6068  0.5862
 6685SOL     OW31516   0.348   4.454   0.294 -0.6784 -0.0552  0.3360
 6685SOL    HW131517   0.368   4.377   0.346  0.6555 -0.0964 -0.2228
 6685SOL    HW231518   0.300   4.404   0.228 -1.5253  1.0190  0.1319
 6686SOL     OW31519   1.353   2.034   0.030  0.3543  0.0877 -0.8468
 6686SOL    HW131520   1.318   2.003   0.114 -0.7999  3.3388 -0.1040
 6686SOL    HW231521   1.291   1.982  17.679  0.6692 -0.8927 -0.2340
 6687SOL     OW31522   1.335   1.249   6.160  0.6143  0.1072 -0.0088
 6687SOL    HW131523   1.240   1.243   6.174  1.0149 -1.6777  2.0347
 6687SOL    HW231524   1.350   1.176   6.100 -0.1338  2.3088 -2.8835
 6688SOL     OW31525   0.592   4.008   7.098 -0.2463 -0.0520 -0.2520
 6688SOL    HW131526   0.616   4.056   7.177 -0.1948 -0.1636 -0.1992
 6688SOL    HW231527   0.562   4.076   7.038 -0.7991  1.3391  1.6145
 6689SOL     OW31528   1.339   4.281  11.109 -0.3610 -0.4805 -0.0361
 6689SOL    HW131529   1.276   4.212  11.088 -0.0013 -0.3389 -1.6022
 6689SOL    HW231530   1.338   4.344  11.038 -1.3151  0.2718  0.6378
 6690SOL     OW31531   4.038   4.451   6.804 -0.4797  0.1040  0.1714
 6690SOL    HW131532   4.115   4.407   6.768 -1.0776 -0.4960 -0.3750
 6690SOL    HW231533   4.043   4.537   6.763 -1.0031  1.4110  2.8418
 6691SOL     OW31534   3.541   0.016   7.176  0.3766  0.1073 -0.4131
 6691SOL    HW131535   3.502   0.094   7.214 -0.8409 -0.6872 -0.0519
 6691SOL    HW231536   3.524   0.034   7.083  2.0381 -0.5469 -0.8486
 6692SOL     OW31537   4.616   0.347   0.468 -0.0769 -0.5000  0.7859
 6692SOL    HW131538   4.671   0.425   0.473 -1.2778  0.5079 -1.7741
 6692SOL    HW231539   4.682   0.288   0.433 -0.0166 -0.0714  0.1779
 6693SOL     OW31540   0.428   4.137   3.589  0.0981  0.7105 -0.0354
 6693SOL    HW131541   0.517   4.123   3.557  0.4191 -2.6501  2.3017
 6693SOL    HW231542   0.444   4.166   3.679 -0.0305 -0.2822  0.3177
 6694SOL     OW31543   0.589   2.753   7.957 -0.2233  0.1879  0.2088
 6694SOL    HW131544   0.598   2.744   7.862  0.8697 -0.4930  0.3790
 6694SOL    HW231545   0.600   2.848   7.958  0.6916  0.1467 -3.1710
 6695SOL     OW31546   1.534   3.291   1.424 -0.0746 -0.2388  0.1749
 6695SOL    HW131547   1.461   3.307   1.364  1.5632 -2.1116 -2.3242
 6695SOL    HW231548   1.601   3.352   1.390 -0.5737  0.5390  0.5971
 6696SOL     OW31549   0.054   4.030  10.054 -0.2393 -0.1442 -0.4318
 6696SOL    HW131550   4.717   4.061  10.120  0.1591  1.3746 -0.7771
 6696SOL    HW231551   0.095   4.107  10.016  2.2848 -0.0329  2.5478
 6697SOL     OW31552   4.377   4.212   0.568  0.1556 -0.2105 -0.5547
 6697SOL    HW131553   4.308   4.257   0.519  1.1238  1.7548 -0.1085
 6697SOL    HW231554   4.353   4.119   0.576 -2.2505  0.6438  2.5176
 6698SOL     OW31555   1.024   0.625   1.228 -0.1895 -0.8762  0.1649
 6698SOL    HW131556   0.943   0.574   1.237 -0.9719  0.5089  0.9985
 6698SOL    HW231557   1.045   0.605   1.137 -1.9493  0.1598 -0.4551
 6699SOL     OW31558   3.290   1.258   3.122  0.7327  0.3459  0.6773
 6699SOL    HW131559   3.345   1.228   3.050 -0.3794 -1.0864  0.4277
 6699SOL    HW231560   3.223   1.311   3.077  1.4365  2.2705  1.8886
 6700SOL     OW31561   3.228   2.177   6.715 -0.2150 -0.4254  0.0308
 6700SOL    HW131562   3.258   2.111   6.653 -0.6985  0.2291 -0.8896
 6700SOL    HW231563   3.291   2.157   6.785 -0.2597 -2.3810 -0.4688
 6701SOL     OW31564   1.233   4.538   1.757 -0.6532  0.1839  0.0226
 6701SOL    HW131565   1.322   4.548   1.792 -0.2667 -1.0368 -0.6116
 6701SOL    HW231566   1.189   4.481   1.821 -1.1748 -0.9530 -1.3408
 6702SOL     OW31567   0.359   1.439   7.128  0.1571  0.3964 -0.8611
 6702SOL    HW131568   0.332   1.422   7.218 -2.3864 -0.4272 -1.7840
 6702SOL    HW231569   0.444   1.395   7.136 -1.7917 -2.5791  3.4973
 6703SOL     OW31570   4.031   3.834   2.550 -0.6877  0.0635 -0.2917
 6703SOL    HW131571   4.122   3.804   2.552 -0.1329  1.8674  1.2025
 6703SOL    HW231572   3.994   3.751   2.580  0.6714 -0.7622 -0.8925
 6704SOL     OW31573   1.015   0.646   4.452  0.1639  0.2171 -0.5129
 6704SOL    HW131574   1.061   0.724   4.423 -1.5504  1.1648 -0.7134
 6704SOL    HW231575   1.057   0.620   4.533  0.6913 -2.6916 -1.7284
 6705SOL     OW31576   1.046   2.073  11.776  0.0521 -0.7088 -0.0224
 6705SOL    HW131577   1.015   2.045  11.862 -0.5406  2.9288  0.9641
 6705SOL    HW231578   1.026   2.167  11.776 -0.1578 -0.7531  0.4737
 6706SOL     OW31579   0.875   0.031   2.292  0.0477  0.1383 -0.4236
 6706SOL    HW131580   0.921   0.057   2.372  1.4976  2.9952 -2.1653
 6706SOL    HW231581   0.803   0.093   2.300 -0.7319 -0.4426 -2.9741
 6707SOL     OW31582   2.044   3.177   4.561 -0.5108 -0.4450  0.5551
 6707SOL    HW131583   2.091   3.102   4.524  0.6082 -0.6068  2.2827
 6707SOL    HW231584   2.054   3.164   4.656  0.9996 -0.0560  0.4546
 6708SOL     OW31585   3.723   2.109  10.144 -0.2982 -0.1012 -0.1452
 6708SOL    HW131586   3.803   2.159  10.159  0.5556 -1.2370 -0.9104
 6708SOL    HW231587   3.671   2.186  10.120 -2.9725 -1.1983  2.1280
 6709SOL     OW31588   3.882   1.870   7.217  0.1269 -0.5490  0.0312
 6709SOL    HW131589   3.963   1.841   7.258  0.7712 -0.4141 -1.1528
 6709SOL    HW231590   3.900   1.928   7.144 -1.5435  2.0546  1.6773
 6710SOL     OW31591   1.210   2.176  15.729 -0.1296 -0.1142  0.3032
 6710SOL    HW131592   1.264   2.119  15.783  2.3414  1.5181 -0.3967
 6710SOL    HW231593   1.152   2.217  15.793  1.6913  0.4162  1.6045
 6711SOL     OW31594   0.914   1.961  12.534  0.3719 -0.1500 -0.0740
 6711SOL    HW131595   0.938   2.045  12.494 -1.8370  0.2865 -0.4924
 6711SOL    HW231596   0.991   1.926  12.579  0.6055  1.0173  0.4358
 6712SOL     OW31597   1.513   2.892  13.705  0.1164  0.9530  0.0753
 6712SOL    HW131598   1.589   2.911  13.649 -1.7584  0.6108 -2.5845
 6712SOL    HW231599   1.536   2.946  13.781 -0.4395 -0.6633  1.3844
 6713SOL     OW31600   1.661   0.231   2.113 -0.3456 -0.1922  0.2198
 6713SOL    HW131601   1.731   0.213   2.177  1.7044  2.3971 -1.2781
 6713SOL    HW231602   1.604   0.173   2.163 -3.3383  2.9988  0.5213
 6714SOL     OW31603   0.534   0.823   8.124 -0.2349  0.0417  0.3279
 6714SOL    HW131604   0.530   0.840   8.218 -0.9368  0.0736  0.2940
 6714SOL    HW231605   0.629   0.834   8.129 -0.1978  0.6136 -1.5581
 6715SOL     OW31606   0.239   2.486   1.226 -0.1557 -0.4053 -0.4960
 6715SOL    HW131607   0.273   2.567   1.263 -0.4202  0.3618 -1.9307
 6715SOL    HW231608   0.324   2.442   1.224 -0.3462 -0.8217  0.9465
 6716SOL     OW31609   2.982   3.638   7.919 -0.8905  0.3859 -0.0733
 6716SOL    HW131610   2.963   3.564   7.861  1.0462 -0.5298  0.4554
 6716SOL    HW231611   3.013   3.700   7.852 -0.7964 -0.1742 -0.5497
 6717SOL     OW31612   0.778   0.775   6.467  0.1118 -0.0709 -0.1953
 6717SOL    HW131613   0.726   0.777   6.547 -0.1842  3.0037 -0.4515
 6717SOL    HW231614   0.815   0.687   6.462  0.3916  0.0704 -0.6618
 6718SOL     OW31615   0.461   0.370  17.360 -0.0170 -0.1987 -0.3117
 6718SOL    HW131616   0.482   0.348  17.269 -0.8918  0.8695 -0.7799
 6718SOL    HW231617   0.398   0.439  17.339  1.8762  1.4101 -0.6954
 6719SOL     OW31618   0.331   3.001  13.939  0.0554  0.1454 -0.7783
 6719SOL    HW131619   0.286   2.997  14.023 -2.1030  1.8881 -1.8774
 6719SOL    HW231620   0.301   2.915  13.909  1.9135 -0.7215 -0.1914
 6720SOL     OW31621   0.083   2.005   4.838 -0.1030 -0.7019  0.0123
 6720SOL    HW131622   0.030   1.980   4.763 -0.1085  1.2331 -0.6267
 6720SOL    HW231623   0.049   2.091   4.863  0.3646 -0.4371 -0.2625
 6721SOL     OW31624   3.282   1.274   0.299  0.4903  0.6065  0.2804
 6721SOL    HW131625   3.297   1.341   0.233 -0.2543  2.3576  1.8898
 6721SOL    HW231626   3.341   1.297   0.370 -1.4208  3.6757  0.8914
 6722SOL     OW31627   0.037   2.205  15.122 -0.1404  0.2598 -0.4572
 6722SOL    HW131628   4.685   2.159  15.087 -0.2774 -0.0206  0.2022
 6722SOL    HW231629   0.013   2.259  15.197 -0.2704 -0.7699  0.2454
 6723SOL     OW31630   1.083   1.698   4.447  0.2904 -0.4658  0.0331
 6723SOL    HW131631   1.113   1.701   4.538  1.5204  0.0694 -0.3991
 6723SOL    HW231632   1.100   1.788   4.421 -0.9221 -0.6149 -1.2796
 6724SOL     OW31633   3.196   1.631   4.329  0.5362  0.2393 -0.3408
 6724SOL    HW131634   3.161   1.607   4.243  0.8125  1.5443 -0.8044
 6724SOL    HW231635   3.244   1.555   4.363  0.7753 -0.1007 -1.4238
 6725SOL     OW31636   2.412   4.128   2.043  0.7207  0.3607 -1.1683
 6725SOL    HW131637   2.334   4.131   1.987  0.7621 -1.8056 -1.3419
 6725SOL    HW231638   2.467   4.063   2.000  0.9826 -0.4675  0.4221
 6726SOL     OW31639   0.480   3.911   1.551 -0.4141  0.2245  0.6184
 6726SOL    HW131640   0.560   3.963   1.543 -0.1458 -0.6984 -2.4447
 6726SOL    HW231641   0.508   3.849   1.618 -0.0126 -0.1869  0.0594
 6727SOL     OW31642   3.091   3.705   2.911  0.1829 -0.7406 -0.1530
 6727SOL    HW131643   3.060   3.735   2.825  1.1803  0.5497 -0.0579
 6727SOL    HW231644   3.100   3.611   2.898  0.1183 -0.4786 -2.1062
 6728SOL     OW31645   2.294   2.700   8.003 -0.3565  0.2689  0.2973
 6728SOL    HW131646   2.366   2.654   7.959 -1.3071 -0.6919 -0.2504
 6728SOL    HW231647   2.279   2.789   7.970  1.2514 -1.2424 -4.5017
 6729SOL     OW31648   1.496   3.586   2.057  0.0765 -0.0811 -0.1676
 6729SOL    HW131649   1.533   3.543   2.134  2.3128 -0.9683 -1.7687
 6729SOL    HW231650   1.538   3.536   1.988 -1.3075 -1.5466  0.0314
 6730SOL     OW31651   1.649   0.823  13.597 -1.2483  0.0334 -0.2076
 6730SOL    HW131652   1.614   0.841  13.684 -1.6986  0.1867 -0.4232
 6730SOL    HW231653   1.713   0.754  13.614  0.1150  0.7039 -2.5994
 6731SOL     OW31654   2.868   2.588   8.671 -0.0685 -0.1042  0.4516
 6731SOL    HW131655   2.892   2.559   8.759 -0.7241 -0.6261  0.4579
 6731SOL    HW231656   2.866   2.500   8.634  2.7968  0.4941 -1.1998
 6732SOL     OW31657   1.214   2.088   2.905  0.5458  0.0198 -0.0287
 6732SOL    HW131658   1.127   2.105   2.870 -0.2860 -1.7812  1.1866
 6732SOL    HW231659   1.265   2.164   2.877 -1.7401  0.9572 -1.6307
 6733SOL     OW31660   4.348   4.212   4.888  0.1918 -0.3809 -0.2822
 6733SOL    HW131661   4.272   4.155   4.877  1.9190 -3.2411  2.7616
 6733SOL    HW231662   4.403   4.184   4.814 -0.4661 -1.1833 -0.4558
 6734SOL     OW31663   0.501   1.833  10.910  0.2514  0.1292  0.5051
 6734SOL    HW131664   0.502   1.739  10.891  0.6292  0.3207 -0.4120
 6734SOL    HW231665   0.515   1.840  11.004  0.2837  0.1771  0.4961
 6735SOL     OW31666   2.919   4.666  17.043  0.3290 -0.4136  0.1966
 6735SOL    HW131667   2.895   4.618  16.964 -1.3417 -1.1080  1.1470
 6735SOL    HW231668   3.014   4.677  17.031  0.4387 -0.0392  1.4369
 6736SOL     OW31669   4.143   3.238   8.036  0.3185  0.3118 -0.6794
 6736SOL    HW131670   4.069   3.177   8.036 -1.0226  1.9415 -2.0623
 6736SOL    HW231671   4.210   3.175   8.009  0.2185 -0.7912  1.6289
 6737SOL     OW31672   1.585   3.947   1.355 -0.6910  0.1151 -0.2366
 6737SOL    HW131673   1.597   3.998   1.274  1.9160  1.5102  1.0202
 6737SOL    HW231674   1.559   4.020   1.411  0.1821  0.1479  0.1145
 6738SOL     OW31675   2.188   2.020   3.786  0.0486 -0.4708  0.3674
 6738SOL    HW131676   2.254   1.969   3.740  0.7100 -0.6225  1.4773
 6738SOL    HW231677   2.102   2.002   3.749  0.2704 -0.2289 -0.2536
 6739SOL     OW31678   2.209   2.398   3.505 -0.1577  0.5159 -0.0868
 6739SOL    HW131679   2.211   2.303   3.496  1.2161  0.4979  0.3771
 6739SOL    HW231680   2.122   2.419   3.537  0.1746 -0.8573  1.6727
 6740SOL     OW31681   0.875   4.722   7.945  0.0305 -0.4045 -0.1999
 6740SOL    HW131682   0.910   0.086   7.931 -0.9619  0.0777  0.3627
 6740SOL    HW231683   0.852   0.001   8.038  3.4282  1.3509  0.6054
 6741SOL     OW31684   3.220   1.729  16.189  0.3435  0.2493  0.4509
 6741SOL    HW131685   3.223   1.824  16.177  1.8116  0.0840 -0.4842
 6741SOL    HW231686   3.130   1.698  16.201  0.6687 -2.1408 -3.3521
 6742SOL     OW31687   4.306   0.845  12.043  0.2728 -0.3043  0.0993
 6742SOL    HW131688   4.306   0.800  11.959 -1.3345  1.3205 -0.7734
 6742SOL    HW231689   4.263   0.927  12.018  0.7994  0.5652  2.0103
 6743SOL     OW31690   0.176   0.138  14.217  0.1964  0.1455  0.2676
 6743SOL    HW131691   0.190   0.081  14.141 -2.7060 -1.2568  0.7856
 6743SOL    HW231692   0.085   0.164  14.206  0.1877  0.8509  2.0088
 6744SOL     OW31693   1.460   0.073  13.103 -0.3557 -0.3708 -0.1675
 6744SOL    HW131694   1.412   0.152  13.078 -0.3545 -0.4292 -0.3586
 6744SOL    HW231695   1.451   0.025  13.021  0.7578 -0.3392 -0.3093
 6745SOL     OW31696   1.140   1.354   8.088  0.2345 -0.2099  0.1668
 6745SOL    HW131697   1.083   1.315   8.154 -2.1149  3.5138  0.3147
 6745SOL    HW231698   1.226   1.361   8.128  1.3386 -3.7815 -1.5153
 6746SOL     OW31699   2.409   1.440  15.933 -0.3339 -0.0341  0.6725
 6746SOL    HW131700   2.316   1.454  15.946 -0.2632  0.8729  0.2464
 6746SOL    HW231701   2.445   1.520  15.972 -1.3217  0.3806  0.7155
 6747SOL     OW31702   0.386   4.571   1.770  0.3497  0.2818 -0.0619
 6747SOL    HW131703   0.338   4.654   1.775 -0.6673 -0.3239  0.3202
 6747SOL    HW231704   0.344   4.531   1.846  1.7330  0.2721  0.6859
 6748SOL     OW31705   2.290   2.537   9.096  0.0103 -0.1022  0.2777
 6748SOL    HW131706   2.261   2.610   9.151 -0.5479 -0.4187  0.3973
 6748SOL    HW231707   2.369   2.576   9.059  0.8215 -2.6230 -0.6136
 6749SOL     OW31708   1.803   1.420   4.811  0.5056 -0.0503  0.8773
 6749SOL    HW131709   1.743   1.444   4.741  2.2593  0.0039 -0.6044
 6749SOL    HW231710   1.756   1.443   4.891 -2.4811 -1.0123 -0.6095
 6750SOL     OW31711   0.844   3.655   4.179 -0.6844 -0.2217  0.3190
 6750SOL    HW131712   0.911   3.720   4.159  0.8162 -1.1653  2.2500
 6750SOL    HW231713   0.784   3.688   4.246 -0.6768 -0.7901  0.6024
 6751SOL     OW31714   0.706   3.117   6.162 -0.1165  0.6666 -0.6396
 6751SOL    HW131715   0.704   3.022   6.152 -0.1563  0.7412 -1.3276
 6751SOL    HW231716   0.781   3.139   6.107  1.1309  0.8570  1.1169
 6752SOL     OW31717   4.542   1.318   7.640 -0.5614  0.1089 -0.0841
 6752SOL    HW131718   4.602   1.355   7.576  1.2212  0.3795  1.7416
 6752SOL    HW231719   4.491   1.393   7.668 -2.1934 -0.3012 -1.9423
 6753SOL     OW31720   1.856   0.712   3.834  0.0531 -0.4782  0.2223
 6753SOL    HW131721   1.945   0.710   3.799  1.2141  3.0043  3.0099
 6753SOL    HW231722   1.844   0.619   3.853 -0.3781 -0.2249  1.1590
 6754SOL     OW31723   0.310   2.778  15.387  0.1061 -0.2540 -0.2381
 6754SOL    HW131724   0.291   2.806  15.297 -2.6267 -0.2067  0.3668
 6754SOL    HW231725   0.388   2.832  15.400 -0.6107  0.8263 -0.4929
 6755SOL     OW31726   2.569   0.173  13.794  0.2856 -0.4339  0.5146
 6755SOL    HW131727   2.594   0.143  13.881  0.3283 -1.8686  0.0148
 6755SOL    HW231728   2.523   0.099  13.755 -0.6087 -0.0535  0.8453
 6756SOL     OW31729   2.392   1.018   8.198 -0.0532 -0.0805  0.1194
 6756SOL    HW131730   2.310   0.984   8.235  0.5735 -2.6527 -0.8709
 6756SOL    HW231731   2.418   1.075   8.270  2.4875 -1.2741  0.1191
 6757SOL     OW31732   2.732   1.027   3.181 -0.5908  0.3576 -0.1545
 6757SOL    HW131733   2.808   1.077   3.212 -0.0069  0.5223 -1.8412
 6757SOL    HW231734   2.683   1.019   3.263 -0.6090 -0.7847 -0.2775
 6758SOL     OW31735   1.780   1.880   5.707 -0.2105 -0.5062  0.0567
 6758SOL    HW131736   1.722   1.804   5.714 -1.3569  0.3056 -0.5892
 6758SOL    HW231737   1.821   1.859   5.623  0.5466 -0.9338  0.5368
 6759SOL     OW31738   1.604   3.368   9.776 -0.0542 -0.1867 -0.3045
 6759SOL    HW131739   1.536   3.395   9.837  0.6212 -0.3807  0.5505
 6759SOL    HW231740   1.607   3.279   9.811 -1.3314 -0.5290 -1.0738
 6760SOL     OW31741   4.263   2.158   6.979 -0.2491 -0.1477  0.3507
 6760SOL    HW131742   4.269   2.249   6.952  1.0711 -0.5532 -0.6892
 6760SOL    HW231743   4.299   2.167   7.067  1.0597  0.2421 -0.2316
 6761SOL     OW31744   3.336   1.327   3.743 -0.3184 -0.4634 -0.0894
 6761SOL    HW131745   3.431   1.317   3.749 -0.7173 -4.1947  0.1618
 6761SOL    HW231746   3.326   1.416   3.709  0.7695  0.0648  0.9779
 6762SOL     OW31747   1.141   4.078  14.065  0.3403 -0.2476  0.0246
 6762SOL    HW131748   1.068   4.057  14.123 -1.4401 -0.1906 -2.2103
 6762SOL    HW231749   1.110   4.037  13.984 -0.7688 -2.6378  1.6391
 6763SOL     OW31750   0.122   3.954  16.797  0.6066  0.3075 -0.3990
 6763SOL    HW131751   0.082   3.921  16.716 -1.4904 -0.3412  0.9086
 6763SOL    HW231752   0.076   3.903  16.863  0.4862  1.5817  0.5059
 6764SOL     OW31753   3.281   4.165   3.747 -0.1429  0.4007 -0.7885
 6764SOL    HW131754   3.292   4.094   3.684 -0.6989 -0.4166  0.0229
 6764SOL    HW231755   3.372   4.193   3.740 -0.8438  2.9459  0.2360
 6765SOL     OW31756   0.568   1.012   1.997  0.3819 -0.7609 -0.1299
 6765SOL    HW131757   0.502   1.026   1.929 -1.2324 -0.9695  1.3909
 6765SOL    HW231758   0.614   1.096   2.002  0.8903 -1.0262 -0.4111
 6766SOL     OW31759   1.675   3.444   1.258 -0.7164 -0.8534  0.2191
 6766SOL    HW131760   1.769   3.444   1.276 -0.5065  0.9926 -0.9011
 6766SOL    HW231761   1.664   3.506   1.186 -0.8665 -0.0827  0.8970
 6767SOL     OW31762   2.301   4.190   5.275 -0.7399 -0.5105 -0.0028
 6767SOL    HW131763   2.317   4.156   5.187  0.2450  0.2389 -0.1152
 6767SOL    HW231764   2.360   4.147   5.337  2.0194  2.2790 -0.6703
 6768SOL     OW31765   2.752   1.968   7.827 -0.6804  0.3198  0.2885
 6768SOL    HW131766   2.675   1.915   7.850 -1.6905  1.4197 -0.6212
 6768SOL    HW231767   2.740   1.977   7.733  0.5209  1.1287  0.2238
 6769SOL     OW31768   2.981   1.384   3.418 -0.2075  0.0831  0.4022
 6769SOL    HW131769   2.936   1.306   3.387  0.8521  0.9860 -3.3312
 6769SOL    HW231770   3.032   1.355   3.494  1.9314  1.2265 -0.6099
 6770SOL     OW31771   3.575   3.407   7.704  0.6787 -0.0735 -0.1835
 6770SOL    HW131772   3.564   3.501   7.718 -1.9341 -0.6807  1.7930
 6770SOL    HW231773   3.612   3.373   7.785 -0.1767  2.0145  1.1091
 6771SOL     OW31774   3.633   3.286   6.192 -0.2497  0.1719  0.6339
 6771SOL    HW131775   3.681   3.278   6.110  0.9804 -1.4746  1.5376
 6771SOL    HW231776   3.695   3.334   6.248  1.1280  0.9756 -1.5961
 6772SOL     OW31777   2.847   0.373  15.121 -0.5119  0.2460  0.7343
 6772SOL    HW131778   2.773   0.425  15.151 -0.3088  0.0590  1.5377
 6772SOL    HW231779   2.817   0.287  15.151  1.6309  0.1218  2.5094
 6773SOL     OW31780   3.970   2.788  17.153  0.5219 -0.3832 -0.5558
 6773SOL    HW131781   4.049   2.754  17.112  0.1079  0.3472 -1.9499
 6773SOL    HW231782   3.950   2.858  17.091 -0.2324 -0.8634 -0.8654
 6774SOL     OW31783   2.325   2.566   0.238 -0.0512 -0.1726 -0.0470
 6774SOL    HW131784   2.296   2.591   0.150  0.3440  1.6251  0.3394
 6774SOL    HW231785   2.300   2.474   0.248  0.5284 -0.5277 -1.8833
 6775SOL     OW31786   0.866   2.693   5.926  0.1323  0.3367  0.4462
 6775SOL    HW131787   0.842   2.753   5.856  0.2273  0.3592  0.4335
 6775SOL    HW231788   0.953   2.730   5.940  0.4719 -0.3360  0.1158
 6776SOL     OW31789   3.294   0.014   4.755  0.7443  0.2365 -0.6270
 6776SOL    HW131790   3.363   0.010   4.820  0.6492 -0.9077 -0.5816
 6776SOL    HW231791   3.334   0.075   4.693 -1.1357  0.0826 -1.9978
 6777SOL     OW31792   1.444   0.404  14.133 -0.7214  0.5231 -0.1470
 6777SOL    HW131793   1.536   0.411  14.157 -1.6157  0.4051  3.2491
 6777SOL    HW231794   1.452   0.349  14.055  0.5335 -1.0708  1.1166
 6778SOL     OW31795   3.443   1.625  16.040  0.0739  0.8439  0.3126
 6778SOL    HW131796   3.367   1.671  16.074 -0.4991  0.1019  0.0317
 6778SOL    HW231797   3.470   1.580  16.119  2.7867  0.8525 -0.6104
 6779SOL     OW31798   2.467   3.958  10.128  0.0679  0.3742 -0.1708
 6779SOL    HW131799   2.538   3.894  10.129 -0.2198  0.0580 -0.1111
 6779SOL    HW231800   2.406   3.899  10.172  1.5219  0.4227  1.9235
 6780SOL     OW31801   0.991   1.908   2.953  0.2345 -0.1277 -0.7152
 6780SOL    HW131802   1.067   1.944   2.999 -0.4947  0.0163  0.3648
 6780SOL    HW231803   0.925   1.930   3.018  1.4184 -0.1381  0.4880
 6781SOL     OW31804   2.426   0.725   9.083  0.5184 -0.2910  0.2113
 6781SOL    HW131805   2.430   0.662   9.011  1.0835 -0.9833  0.8480
 6781SOL    HW231806   2.350   0.699   9.135 -1.7867  3.1031 -1.4141
 6782SOL     OW31807   2.250   4.547   4.303 -0.0932  0.3677  0.3262
 6782SOL    HW131808   2.160   4.527   4.328 -0.9446  1.5716 -1.7424
 6782SOL    HW231809   2.314   4.496   4.353  0.5636  1.4783  0.6285
 6783SOL     OW31810   1.270   3.697  16.449  0.5476 -0.2117  0.2433
 6783SOL    HW131811   1.274   3.628  16.383 -1.7384 -0.9440  0.8731
 6783SOL    HW231812   1.181   3.697  16.485  0.7095  4.2331  0.7579
 6784SOL     OW31813   1.178   0.963   6.195  0.1900  0.2512 -0.7118
 6784SOL    HW131814   1.104   0.922   6.239  0.7863  0.6178  0.6416
 6784SOL    HW231815   1.214   1.015   6.268 -0.1367  0.0546 -0.4107
 6785SOL     OW31816   0.935   3.990  14.204  0.6911  0.4483 -0.2766
 6785SOL    HW131817   0.884   4.037  14.270 -0.2452 -1.0432  0.0564
 6785SOL    HW231818   0.884   3.911  14.188 -0.9688  1.1309  1.6805
 6786SOL     OW31819   4.480   3.491   2.674  0.7315 -0.2803 -0.4198
 6786SOL    HW131820   4.466   3.544   2.753 -0.7087 -0.9062 -0.2551
 6786SOL    HW231821   4.388   3.480   2.652  0.4119 -1.0024  1.2465
 6787SOL     OW31822   1.676   1.203   3.288  0.1241 -0.3799 -0.1012
 6787SOL    HW131823   1.635   1.118   3.270 -1.2727  0.5161 -1.1122
 6787SOL    HW231824   1.696   1.198   3.381 -2.0095 -0.2619  0.3474
 6788SOL     OW31825   3.092   4.159  17.673  0.2386 -0.3415 -0.0341
 6788SOL    HW131826   3.134   4.074  17.661 -1.0208 -1.1445  1.2184
 6788SOL    HW231827   3.169   4.211  17.651 -0.2214  1.7299  3.2260
 6789SOL     OW31828   4.113   1.798   3.747 -0.4037 -0.1051 -0.3557
 6789SOL    HW131829   4.074   1.882   3.724  0.4659  0.3923  0.0133
 6789SOL    HW231830   4.049   1.736   3.711 -1.4873  0.1428  1.1518
 6790SOL     OW31831   0.209   2.693   6.645 -0.3856 -0.0315  0.4225
 6790SOL    HW131832   0.278   2.696   6.711 -1.1690 -0.5540  1.2539
 6790SOL    HW231833   0.206   2.597   6.644 -0.1815 -0.0312 -0.3951
 6791SOL     OW31834   4.403   0.983  14.885  0.2343  0.0261  0.3295
 6791SOL    HW131835   4.461   1.007  14.958 -2.2877  1.4593  1.8456
 6791SOL    HW231836   4.463   0.964  14.813 -1.4072  2.6192 -1.6710
 6792SOL     OW31837   0.973   2.731   2.787  0.6513 -0.8943  0.0835
 6792SOL    HW131838   0.916   2.658   2.811  2.4099 -2.0074  0.8643
 6792SOL    HW231839   0.909   2.780   2.736 -0.0346  0.9492  2.7430
 6793SOL     OW31840   0.335   1.628   6.110  0.1623 -0.1434 -0.0950
 6793SOL    HW131841   0.397   1.698   6.128  1.4843 -1.0131 -1.2891
 6793SOL    HW231842   0.383   1.579   6.043 -1.2092 -1.8312  0.1535
 6794SOL     OW31843   3.945   2.690   0.740 -0.6779 -0.2317  0.3878
 6794SOL    HW131844   3.879   2.733   0.686 -1.9009 -0.2335  1.8751
 6794SOL    HW231845   3.965   2.764   0.797 -2.1338 -0.2099  0.8861
 6795SOL     OW31846   3.000   2.875   9.041 -0.0480  0.2065 -0.0429
 6795SOL    HW131847   3.028   2.920   9.121  2.6817  0.4322 -1.1299
 6795SOL    HW231848   3.081   2.878   8.991  0.2277 -1.4128  0.3042
 6796SOL     OW31849   3.396   3.114   3.867 -0.3343 -0.2015 -0.2130
 6796SOL    HW131850   3.404   3.166   3.947  0.5416 -0.5287 -0.0867
 6796SOL    HW231851   3.468   3.052   3.857 -0.1191  0.2674 -1.5939
 6797SOL     OW31852   4.696   4.228   8.204 -0.0093  0.0953  0.0270
 6797SOL    HW131853   4.697   4.324   8.201  0.8210  0.0885  0.1730
 6797SOL    HW231854   0.066   4.215   8.215 -0.2507 -1.2241  0.5321
 6798SOL     OW31855   2.967   3.480   8.657 -0.1980 -0.0858 -0.0407
 6798SOL    HW131856   2.889   3.494   8.711 -0.7979 -0.6811 -0.7572
 6798SOL    HW231857   2.934   3.519   8.576 -1.2760  1.9634  1.3698
 6799SOL     OW31858   0.854   0.476  11.534 -0.0896  0.3011 -0.0196
 6799SOL    HW131859   0.786   0.408  11.537  0.8859 -0.6191  1.0996
 6799SOL    HW231860   0.815   0.544  11.590 -0.3836 -2.7501  3.5332
 6800SOL     OW31861   4.675   3.750   0.820  0.0400 -0.1064  0.5616
 6800SOL    HW131862   4.669   3.835   0.864  2.5714  1.0567 -1.3668
 6800SOL    HW231863   4.624   3.772   0.742  1.3001  0.8049 -0.0058
 6801SOL     OW31864   0.097   1.328   0.140  0.5359  0.9025  0.0050
 6801SOL    HW131865   0.047   1.395   0.187  0.0428  2.3900 -2.6736
 6801SOL    HW231866   0.157   1.299   0.209  0.2553  1.4780  0.4874
 6802SOL     OW31867   1.714   4.711  13.150 -0.1496 -0.0286 -0.5335
 6802SOL    HW131868   1.632   0.034  13.160  1.1462  1.8630  1.0260
 6802SOL    HW231869   1.707   4.659  13.230  1.9837  0.5256  0.0090
 6803SOL     OW31870   0.704   3.508   1.553  0.6135 -0.4776 -0.2760
 6803SOL    HW131871   0.674   3.569   1.620 -2.9557 -2.6257  0.0844
 6803SOL    HW231872   0.773   3.554   1.505 -0.6523 -1.8434 -3.4256
 6804SOL     OW31873   0.482   0.388   4.702  0.6498 -0.0496 -0.1169
 6804SOL    HW131874   0.527   0.342   4.774  0.9417  2.4380  1.2935
 6804SOL    HW231875   0.440   0.312   4.661  2.3470  0.1622 -2.2315
 6805SOL     OW31876   1.878   4.197   3.929 -0.3829  0.6197  0.9359
 6805SOL    HW131877   1.932   4.214   4.006 -0.2503  1.2134  0.7164
 6805SOL    HW231878   1.844   4.110   3.948  0.4733  0.0120 -0.3034
 6806SOL     OW31879   3.942   1.162  16.590 -0.2829  0.2277  0.3320
 6806SOL    HW131880   4.014   1.225  16.586  2.0395 -2.5955 -3.6270
 6806SOL    HW231881   3.886   1.198  16.658 -1.9102 -0.7402 -0.4830
 6807SOL     OW31882   1.631   4.249   7.476  0.0307 -0.7499 -0.2174
 6807SOL    HW131883   1.671   4.290   7.553  1.2821 -3.0751  0.3563
 6807SOL    HW231884   1.569   4.190   7.520 -1.1988 -1.4504 -2.8478
 6808SOL     OW31885   0.132   2.559  15.304  0.1744  0.0704 -0.4936
 6808SOL    HW131886   0.187   2.637  15.310 -0.1543  0.3063 -0.5312
 6808SOL    HW231887   0.182   2.500  15.248  3.1545  1.5337  0.6347
 6809SOL     OW31888   4.418   3.455   3.071 -0.0693 -0.1023  0.2170
 6809SOL    HW131889   4.399   3.516   3.142  0.4649  1.5061 -1.0217
 6809SOL    HW231890   4.430   3.517   2.999 -0.0627  0.2316  0.5052
 6810SOL     OW31891   4.118   0.243   8.007 -0.1549  0.2990  0.8533
 6810SOL    HW131892   4.026   0.217   7.996  0.4042 -1.1717 -0.4098
 6810SOL    HW231893   4.136   0.190   8.085  0.5033 -2.5796 -1.2512
 6811SOL     OW31894   4.000   2.993  16.932  0.0709 -0.1839  0.1070
 6811SOL    HW131895   4.021   2.923  16.871 -0.8089 -1.2454  1.0291
 6811SOL    HW231896   3.923   3.030  16.890 -1.0540 -1.8441  0.7263
 6812SOL     OW31897   4.544   4.034  11.497  0.0610  0.3000 -0.0928
 6812SOL    HW131898   4.535   3.948  11.538 -0.1874  0.4002  0.0611
 6812SOL    HW231899   4.457   4.072  11.501  0.0750  0.1807  1.3007
 6813SOL     OW31900   1.463   1.276  17.667  0.2265 -0.3833 -0.1187
 6813SOL    HW131901   1.422   1.243   0.047 -1.4727  1.1784 -0.3539
 6813SOL    HW231902   1.543   1.311   0.007  0.2520  1.8763 -2.1628
 6814SOL     OW31903   1.290   3.387   6.443  0.5670 -0.1137  0.0603
 6814SOL    HW131904   1.342   3.349   6.513  0.9167  0.8904  0.3409
 6814SOL    HW231905   1.362   3.430   6.396 -0.6445  2.3868  0.4762
 6815SOL     OW31906   0.931   0.615   3.241 -0.4902  0.2207 -0.0481
 6815SOL    HW131907   0.870   0.649   3.176 -0.5201  0.1249 -0.0696
 6815SOL    HW231908   0.972   0.546   3.189 -1.0732 -1.6975  2.0178
 6816SOL     OW31909   4.694   3.169   1.591 -0.7156  0.0727 -0.3475
 6816SOL    HW131910   4.604   3.155   1.620 -0.4899 -0.0823  0.2755
 6816SOL    HW231911   4.710   3.089   1.540 -1.2257  0.3870 -1.0031
 6817SOL     OW31912   2.867   4.473  13.391  0.1363  0.3495  0.5460
 6817SOL    HW131913   2.773   4.471  13.405 -0.0894  2.5703 -0.5667
 6817SOL    HW231914   2.898   4.474  13.482  1.6187 -0.6357  0.0615
 6818SOL     OW31915   4.037   3.200   0.894 -0.6993 -0.0037 -0.4115
 6818SOL    HW131916   4.041   3.115   0.849  0.6849 -1.1530  1.8484
 6818SOL    HW231917   4.021   3.251   0.814  0.5764 -0.9254 -1.2718
 6819SOL     OW31918   3.620   2.222  13.026 -0.0160 -0.1758 -0.4472
 6819SOL    HW131919   3.603   2.311  13.056  1.5506 -0.1223  0.2885
 6819SOL    HW231920   3.647   2.179  13.107  0.6140 -2.0850 -1.6547
 6820SOL     OW31921   1.097   3.721   2.703  0.2779  0.6801  0.0168
 6820SOL    HW131922   1.102   3.682   2.616  0.4495 -0.3526  0.4899
 6820SOL    HW231923   1.041   3.799   2.701  0.0127  0.4642 -0.6926
 6821SOL     OW31924   1.676   1.079  10.939  0.2764  0.5818  0.1036
 6821SOL    HW131925   1.597   1.050  10.893 -0.0767  0.0531  1.0437
 6821SOL    HW231926   1.718   0.994  10.930 -0.6779  0.1552 -0.3799
 6822SOL     OW31927   3.244   3.055  13.105 -0.3280  0.3425 -0.2426
 6822SOL    HW131928   3.252   3.150  13.096 -2.1929  0.4868 -0.4299
 6822SOL    HW231929   3.151   3.044  13.081  0.2342 -2.8687 -0.9532
 6823SOL     OW31930   4.483   2.261  15.877 -0.0081 -0.1564  0.1086
 6823SOL    HW131931   4.481   2.340  15.824 -1.4763 -0.4348 -0.2450
 6823SOL    HW231932   4.551   2.220  15.823  0.2910 -0.7317  0.9213
 6824SOL     OW31933   0.031   4.108  10.933 -0.0695  0.0862  0.3488
 6824SOL    HW131934   0.087   4.109  10.855  1.1366 -0.7014  1.2044
 6824SOL    HW231935   0.056   4.200  10.946 -1.3107  0.5981 -0.8879
 6825SOL     OW31936   2.245   4.503   9.688 -0.8776  0.5202 -0.2436
 6825SOL    HW131937   2.268   4.486   9.779  0.0170 -0.2997 -0.6244
 6825SOL    HW231938   2.295   4.580   9.661  1.0844 -0.6108  0.1966
 6826SOL     OW31939   4.359   3.587   5.021 -0.1918 -0.3502  0.2735
 6826SOL    HW131940   4.420   3.531   4.973 -1.7643 -1.8871  0.0776
 6826SOL    HW231941   4.302   3.517   5.054 -1.9344  1.9536  2.2151
 6827SOL     OW31942   3.760   1.720   3.293 -0.0381  0.1767 -0.6868
 6827SOL    HW131943   3.728   1.630   3.300 -0.7098  0.6710  2.4872
 6827SOL    HW231944   3.810   1.719   3.211  1.4131 -0.6772  0.2047
 6828SOL     OW31945   0.661   4.498   0.170  0.2511 -0.3677  0.2325
 6828SOL    HW131946   0.696   4.574   0.216  0.9236  0.0244 -0.9471
 6828SOL    HW231947   0.739   4.455   0.136 -1.2198 -1.1031 -2.2520
 6829SOL     OW31948   1.186   4.013  14.434 -0.3020 -0.0834  0.6899
 6829SOL    HW131949   1.265   4.049  14.394  0.0231 -2.0569 -0.4367
 6829SOL    HW231950   1.120   4.073  14.397 -0.9204 -0.1971  1.6164
 6830SOL     OW31951   3.907   4.636   8.543  0.7213 -0.3602  0.5604
 6830SOL    HW131952   3.992   4.598   8.521  0.6716 -0.2066  0.0999
 6830SOL    HW231953   3.912   4.716   8.491  0.4326 -1.1972 -0.7469
 6831SOL     OW31954   3.723   3.122   8.466  0.0775  0.3747 -0.1988
 6831SOL    HW131955   3.763   3.197   8.422  1.6466 -0.7677 -0.7435
 6831SOL    HW231956   3.778   3.110   8.543  0.1115 -0.5168 -0.3592
 6832SOL     OW31957   3.027   2.064   8.067  0.2457 -0.1951  0.4202
 6832SOL    HW131958   2.973   1.985   8.066 -1.9850  1.3749 -3.0506
 6832SOL    HW231959   3.016   2.105   8.153  1.0737 -1.8273  1.2947
 6833SOL     OW31960   3.033   2.960   7.021  0.3188  0.0110  0.1140
 6833SOL    HW131961   2.986   2.906   7.084 -2.9647  0.8662 -1.6239
 6833SOL    HW231962   3.104   2.898   7.006  2.4968  2.6183 -0.5090
 6834SOL     OW31963   2.792   2.854   5.255 -0.1141 -0.3471  0.0315
 6834SOL    HW131964   2.872   2.803   5.265  0.2627  0.0326 -1.0069
 6834SOL    HW231965   2.815   2.906   5.178 -2.4078  0.9565  0.2355
 6835SOL     OW31966   3.217   1.551   0.984  0.1080 -0.3057 -0.3141
 6835SOL    HW131967   3.202   1.508   1.068 -3.5632  2.3361  0.3838
 6835SOL    HW231968   3.310   1.527   0.981  0.6273  1.8709 -1.9177
 6836SOL     OW31969   3.060   1.670   9.545 -0.0847 -0.4522 -0.3207
 6836SOL    HW131970   2.968   1.653   9.566 -0.8642  1.8835 -1.7680
 6836SOL    HW231971   3.059   1.647   9.452 -2.2751  1.4546 -0.7616
 6837SOL     OW31972   4.132   2.846   4.392  0.0737  0.1914  0.3831
 6837SOL    HW131973   4.147   2.820   4.483 -0.3750 -2.2327 -0.2406
 6837SOL    HW231974   4.185   2.787   4.339 -0.3463 -0.9294  1.2102
 6838SOL     OW31975   4.352   4.320   7.322 -0.4346 -1.0018 -0.1958
 6838SOL    HW131976   4.409   4.300   7.396 -2.2113  0.7319  1.6486
 6838SOL    HW231977   4.280   4.359   7.371  0.2552 -0.0186  0.0349
 6839SOL     OW31978   3.758   1.440   1.103 -0.8730 -0.0495 -0.6449
 6839SOL    HW131979   3.831   1.378   1.099  0.7288  1.8612 -0.9226
 6839SOL    HW231980   3.684   1.390   1.139  0.2712  0.6088  2.6678
 6840SOL     OW31981   4.674   0.213   5.685 -0.6675  0.0351 -0.3919
 6840SOL    HW131982   4.599   0.155   5.669  1.4686 -1.8532 -3.5041
 6840SOL    HW231983   4.625   0.294   5.701 -1.0209 -0.3851  0.7037
 6841SOL     OW31984   2.184   3.532   4.573  0.3510 -0.7030 -0.1907
 6841SOL    HW131985   2.277   3.528   4.553  0.3482  0.2101 -0.3709
 6841SOL    HW231986   2.180   3.562   4.664 -0.2915  1.2716 -0.8591
 6842SOL     OW31987   0.099   1.050   5.484 -0.1907 -0.3471  1.0886
 6842SOL    HW131988   0.089   0.960   5.453  0.9475  0.6733 -2.2032
 6842SOL    HW231989   0.145   1.089   5.409 -1.0049 -0.1861  0.6643
 6843SOL     OW31990   2.494   3.470   3.343  0.6063  0.0976 -0.5110
 6843SOL    HW131991   2.544   3.389   3.352 -0.9468 -0.8798 -0.7198
 6843SOL    HW231992   2.461   3.486   3.432  0.9532 -2.6658  0.1248
 6844SOL     OW31993   2.541   0.094   4.369 -0.4156 -0.2050  0.6278
 6844SOL    HW131994   2.554   0.085   4.464  0.2158 -1.6222  0.4163
 6844SOL    HW231995   2.577   0.182   4.360  0.4944 -0.8680 -2.0608
 6845SOL     OW31996   4.498   3.635   7.564 -0.2409 -0.4935  0.6913
 6845SOL    HW131997   4.511   3.719   7.520 -1.0967  0.4027  2.1450
 6845SOL    HW231998   4.552   3.570   7.519  1.8035  2.3002 -0.9041
 6846SOL     OW31999   0.536   2.358  14.139 -0.3214 -0.5130 -0.4521
 6846SOL    HW132000   0.579   2.401  14.065 -2.6000  3.3646  0.4568
 6846SOL    HW232001   0.563   2.401  14.220  0.5524 -2.3063  0.1954
 6847SOL     OW32002   3.689   2.510   0.461 -0.6115 -0.1182 -0.0233
 6847SOL    HW132003   3.660   2.599   0.480 -1.0781 -0.4052  0.6439
 6847SOL    HW232004   3.757   2.527   0.396 -0.5009  1.2255  0.4536
 6848SOL     OW32005   0.614   2.521  15.940 -0.4052 -0.5026  0.0026
 6848SOL    HW132006   0.606   2.491  16.031 -1.7668 -0.2727 -0.0343
 6848SOL    HW232007   0.535   2.575  15.929 -1.0810 -2.1203 -3.1367
 6849SOL     OW32008   1.371   4.391   7.441 -0.6472 -0.0065  0.6141
 6849SOL    HW132009   1.335   4.430   7.521 -3.5328 -0.3154 -0.5405
 6849SOL    HW232010   1.460   4.425   7.447 -0.6786  0.8003 -3.1710
 6850SOL     OW32011   3.716   4.720   7.472  0.1140  0.5256  0.1663
 6850SOL    HW132012   3.810   4.713   7.456 -0.2324  0.9729 -1.9441
 6850SOL    HW232013   3.699   4.628   7.494  3.0056 -0.2148 -0.7838
 6851SOL     OW32014   3.937   2.555   7.203 -0.2804 -0.0497  0.1635
 6851SOL    HW132015   3.843   2.553   7.225 -0.4019 -0.5019 -0.3866
 6851SOL    HW232016   3.954   2.642   7.240 -1.4443  0.0724  0.4159
 6852SOL     OW32017   1.412   2.115   4.212  0.5183  0.2581  0.1834
 6852SOL    HW132018   1.489   2.067   4.184  0.2715  0.2248 -0.4432
 6852SOL    HW232019   1.424   2.110   4.307 -1.0651  0.9823  0.4243
 6853SOL     OW32020   2.238   0.566   1.456  0.2256  1.0176  0.1563
 6853SOL    HW132021   2.300   0.503   1.493 -3.4246 -2.3862  0.4931
 6853SOL    HW232022   2.174   0.526   1.398  2.2247 -0.0263 -1.2855
 6854SOL     OW32023   3.568   3.365  12.822  0.2489 -0.2285  0.0608
 6854SOL    HW132024   3.518   3.284  12.809  1.4609 -1.1839  1.2746
 6854SOL    HW232025   3.646   3.340  12.872  0.3445  1.0344  0.5506
 6855SOL     OW32026   4.634   2.181  16.932 -0.2858  0.2040  0.3367
 6855SOL    HW132027   4.571   2.179  17.004 -0.8761  3.0001 -0.1064
 6855SOL    HW232028   4.584   2.193  16.851  2.5383  0.7458 -1.3472
 6856SOL     OW32029   4.585   1.455   2.442  0.1610 -0.4799 -0.5541
 6856SOL    HW132030   4.580   1.361   2.455  0.3451 -0.1318  2.1686
 6856SOL    HW232031   4.639   1.448   2.364  1.8868  2.4329  0.3575
 6857SOL     OW32032   0.716   0.769   1.111  0.4678  0.4955 -0.1452
 6857SOL    HW132033   0.653   0.792   1.178 -0.8833 -1.3881 -0.7716
 6857SOL    HW232034   0.774   0.709   1.159  2.8737  1.9772 -1.1797
 6858SOL     OW32035   0.928   1.778   6.090  0.4232  0.2460  1.2943
 6858SOL    HW132036   0.953   1.820   6.173 -3.1498  2.9923  0.9566
 6858SOL    HW232037   0.854   1.837   6.084 -0.1569 -0.4531  1.6018
 6859SOL     OW32038   2.545   0.781   5.573 -0.0413  0.0801  0.1544
 6859SOL    HW132039   2.556   0.854   5.512 -2.1682 -0.1722 -0.5310
 6859SOL    HW232040   2.469   0.822   5.615  1.1037 -0.4395  2.7737
 6860SOL     OW32041   4.284   2.314   8.185 -0.5666  0.2070  0.2046
 6860SOL    HW132042   4.289   2.335   8.278 -0.2115 -1.2520  0.5166
 6860SOL    HW232043   4.274   2.220   8.200 -0.9669  0.1882 -0.1854
 6861SOL     OW32044   1.843   0.114   6.468 -0.3054  0.1244  0.4003
 6861SOL    HW132045   1.891   0.053   6.412 -3.5323  2.1420 -4.5903
 6861SOL    HW232046   1.886   0.092   6.550  0.4108  1.3962  0.3683
 6862SOL     OW32047   0.897   1.337  13.753 -0.5107 -0.1762 -0.5740
 6862SOL    HW132048   0.820   1.296  13.713  0.6732 -1.3381 -1.6789
 6862SOL    HW232049   0.940   1.266  13.800 -0.6612 -0.4319 -0.8189
 6863SOL     OW32050   4.470   3.071   5.423  0.1503  0.0037 -0.2077
 6863SOL    HW132051   4.497   3.081   5.515  0.4494 -1.4336 -0.1411
 6863SOL    HW232052   4.556   3.077   5.381 -0.3066  2.7322 -0.7505
 6864SOL     OW32053   1.199   0.422   2.247  0.2138  0.0185  0.0577
 6864SOL    HW132054   1.178   0.338   2.206  0.2381 -0.0709  0.2245
 6864SOL    HW232055   1.134   0.420   2.319  0.0416  3.0882  0.0081
 6865SOL     OW32056   3.365   1.282   5.775  0.8478 -0.6429 -0.4882
 6865SOL    HW132057   3.298   1.229   5.817  0.8958  0.2519  0.7143
 6865SOL    HW232058   3.437   1.246   5.826 -0.8214  0.5356  2.7102
 6866SOL     OW32059   4.628   4.270   8.970 -0.1365 -0.6868  0.0783
 6866SOL    HW132060   4.595   4.180   8.971 -0.7512 -0.4605 -0.2422
 6866SOL    HW232061   4.692   4.251   8.901  0.3192 -1.6859  0.7779
 6867SOL     OW32062   1.992   1.486   6.559 -0.0714  0.4848  0.4891
 6867SOL    HW132063   1.904   1.520   6.542 -0.6754 -2.1372 -1.6173
 6867SOL    HW232064   2.047   1.562   6.580  3.2229 -1.8488  0.2133
 6868SOL     OW32065   3.197   0.754   6.664  0.0143  0.4578 -0.1855
 6868SOL    HW132066   3.144   0.834   6.666  1.2772  1.3384 -1.2208
 6868SOL    HW232067   3.281   0.797   6.646 -0.0349  1.0684  1.0256
 6869SOL     OW32068   2.115   0.496   6.148 -0.2646 -0.2646  0.2585
 6869SOL    HW132069   2.202   0.495   6.108  0.3983 -0.4702  1.7137
 6869SOL    HW232070   2.071   0.419   6.112  0.6542 -0.4005 -0.5923
 6870SOL     OW32071   2.511   1.276  11.989 -0.4747 -0.9588  0.6446
 6870SOL    HW132072   2.492   1.234  11.906  0.8120 -1.7906  0.7675
 6870SOL    HW232073   2.460   1.357  11.990  1.8788  0.5362 -0.9593
 6871SOL     OW32074   4.486   2.588  12.199 -0.4122  0.3095 -0.3915
 6871SOL    HW132075   4.558   2.610  12.257 -1.0373 -2.1124  1.2915
 6871SOL    HW232076   4.479   2.494  12.213  0.8822  0.4276  1.0213
 6872SOL     OW32077   4.561   1.841   8.549 -0.1051  0.1128 -0.6413
 6872SOL    HW132078   4.575   1.936   8.549 -0.7264  0.2057  2.6187
 6872SOL    HW232079   4.652   1.817   8.563 -1.8852 -3.0911  5.3439
 6873SOL     OW32080   1.497   0.354  11.943 -0.0486  0.7988  0.3427
 6873SOL    HW132081   1.469   0.329  12.031 -0.3641  0.5422  0.1693
 6873SOL    HW232082   1.557   0.424  11.969 -0.0143  0.2461  1.7532
 6874SOL     OW32083   1.064   3.665   3.338  0.2699  0.3060 -0.1283
 6874SOL    HW132084   1.125   3.607   3.292  0.1319  0.3312 -0.3425
 6874SOL    HW232085   1.084   3.754   3.310  1.8849 -0.9162 -2.8280
 6875SOL     OW32086   0.354   0.740   7.340 -0.8545 -0.4787  0.3100
 6875SOL    HW132087   0.314   0.816   7.298 -0.0433  0.9165  2.0413
 6875SOL    HW232088   0.360   0.772   7.430  2.0817 -0.5115  0.1429
 6876SOL     OW32089   2.291   0.885   4.041  0.2391  0.2897 -0.1209
 6876SOL    HW132090   2.368   0.831   4.051  1.0044  1.6084  1.1373
 6876SOL    HW232091   2.318   0.973   4.066  0.6182  0.6773 -1.8795
 6877SOL     OW32092   2.513   4.401   5.031 -0.2917 -0.2797 -0.1902
 6877SOL    HW132093   2.605   4.408   5.005 -0.5179 -0.4155 -1.0276
 6877SOL    HW232094   2.499   4.306   5.029  1.8355 -0.6184  1.0325
 6878SOL     OW32095   1.850   4.476   5.951 -0.2034  0.5877  0.5934
 6878SOL    HW132096   1.800   4.544   5.905 -2.2004 -0.0361  1.8440
 6878SOL    HW232097   1.795   4.407   5.914  0.3341  0.2185  0.4819
 6879SOL     OW32098   2.939   2.301   5.212  0.2283  0.0133  0.6312
 6879SOL    HW132099   2.994   2.301   5.133  0.7065  2.2165  0.9700
 6879SOL    HW232100   2.883   2.224   5.202 -0.2083  0.3185  0.7396
 6880SOL     OW32101   2.281   4.554   5.088  0.1132  0.7520 -0.7324
 6880SOL    HW132102   2.323   4.635   5.118 -0.7037  0.9576 -0.1356
 6880SOL    HW232103   2.346   4.486   5.103 -2.5844 -2.2748 -2.8904
 6881SOL     OW32104   2.601   1.706  11.430 -0.5414 -0.6737 -0.5016
 6881SOL    HW132105   2.536   1.669  11.370  0.0951 -2.7303  0.0517
 6881SOL    HW232106   2.581   1.799  11.435  1.9004 -0.0553 -2.0321
 6882SOL     OW32107   2.901   4.302   8.272  0.5064  0.4338  0.1471
 6882SOL    HW132108   2.916   4.380   8.324 -2.3370  0.9682  0.1694
 6882SOL    HW232109   2.979   4.255   8.302 -0.3364 -0.3113  1.1344
 6883SOL     OW32110   0.599   1.336   7.189 -0.0029  0.0136 -0.2187
 6883SOL    HW132111   0.648   1.295   7.260 -1.1505 -0.5664  0.2498
 6883SOL    HW232112   0.658   1.403   7.154 -1.6677  1.3666 -0.4357
 6884SOL     OW32113   3.395   0.433  16.601  0.5741 -0.2953  0.0318
 6884SOL    HW132114   3.406   0.523  16.572  2.4343 -1.2468 -2.1605
 6884SOL    HW232115   3.444   0.437  16.683  2.5409  1.9973 -1.2503
 6885SOL     OW32116   3.718   2.498   5.548  0.2757 -0.5182 -0.2439
 6885SOL    HW132117   3.753   2.496   5.459  0.4321  1.7415 -0.2258
 6885SOL    HW232118   3.656   2.424   5.546 -1.4837  0.9213  0.4739
 6886SOL     OW32119   2.221   3.519   4.904 -0.0996  0.3897 -0.2536
 6886SOL    HW132120   2.304   3.476   4.925  0.0234  1.4830  1.4725
 6886SOL    HW232121   2.161   3.446   4.890 -0.3331  0.5182  0.1136
 6887SOL     OW32122   1.763   2.638  16.744 -0.2291  0.1611  0.8007
 6887SOL    HW132123   1.809   2.583  16.806  0.2541 -0.6394 -0.2772
 6887SOL    HW232124   1.748   2.585  16.666 -0.5404  0.0129  0.9607
 6888SOL     OW32125   0.157   1.782   4.622 -0.4318  0.0601 -0.2474
 6888SOL    HW132126   0.157   1.870   4.582 -3.2748  0.8508  1.5107
 6888SOL    HW232127   0.067   1.754   4.610 -0.2724  0.2358 -2.0046
 6889SOL     OW32128   2.559   2.327   4.302  0.2169 -0.0962  0.6761
 6889SOL    HW132129   2.643   2.300   4.339  0.5287 -0.5922 -0.4132
 6889SOL    HW232130   2.551   2.274   4.223 -2.1285 -0.7141  1.3151
 6890SOL     OW32131   0.362   1.071   8.034 -0.1566 -0.1784 -0.2521
 6890SOL    HW132132   0.431   1.031   8.086  1.6994 -0.5774 -3.0056
 6890SOL    HW232133   0.412   1.093   7.955  0.9864  2.6386  1.2407
 6891SOL     OW32134   1.211   3.982   4.924 -1.1955 -0.7073 -0.0621
 6891SOL    HW132135   1.284   3.979   4.863 -0.8861  0.5383  0.2572
 6891SOL    HW232136   1.213   4.068   4.966  1.9675  0.2898 -2.2811
 6892SOL     OW32137   3.165   2.064   4.136 -0.0249 -0.1622  0.3219
 6892SOL    HW132138   3.111   2.115   4.197  2.3794  0.0882  2.2626
 6892SOL    HW232139   3.235   2.124   4.110  1.2822 -1.2525  1.2472
 6893SOL     OW32140   1.402   3.171   6.667 -0.0124 -0.2252  0.0630
 6893SOL    HW132141   1.470   3.154   6.602 -0.3350  1.4053 -0.6862
 6893SOL    HW232142   1.340   3.105   6.639 -0.6250  0.7769 -0.9376
 6894SOL     OW32143   1.489   0.352   0.527  0.1061  0.2749  0.0242
 6894SOL    HW132144   1.550   0.337   0.455  0.5210 -0.2169  0.4810
 6894SOL    HW232145   1.434   0.415   0.481  0.1438  1.2555  1.3254
 6895SOL     OW32146   1.524   1.098   7.701  0.1495 -0.3421  0.4790
 6895SOL    HW132147   1.619   1.107   7.703  0.1157  0.1260 -0.3316
 6895SOL    HW232148   1.514   1.135   7.614  0.4330 -0.3167  0.4575
 6896SOL     OW32149   2.602   0.088  13.267 -0.1592 -0.2223  0.7390
 6896SOL    HW132150   2.510   0.114  13.276 -0.7697 -2.5173  0.9506
 6896SOL    HW232151   2.599   0.014  13.207 -0.2033 -0.0134  0.4864
 6897SOL     OW32152   1.107   1.727   6.759 -0.0048  0.1817  0.0434
 6897SOL    HW132153   1.124   1.811   6.716 -1.7578  0.6055  0.1748
 6897SOL    HW232154   1.185   1.679   6.785 -1.1736 -1.1226  1.1281
 6898SOL     OW32155   3.088   3.840   7.749  0.0617 -0.1220  0.2279
 6898SOL    HW132156   3.035   3.839   7.669 -1.4459  2.6351  1.2190
 6898SOL    HW232157   3.098   3.933   7.766 -0.9360 -0.0489  0.3721
 6899SOL     OW32158   3.366   1.796  16.470  0.1700 -0.1108 -0.3292
 6899SOL    HW132159   3.362   1.715  16.521  3.9457 -0.8854 -1.2715
 6899SOL    HW232160   3.456   1.792  16.440  1.0380 -0.4167  2.2900
 6900SOL     OW32161   3.227   1.279   7.601 -0.4371 -0.5602  0.5623
 6900SOL    HW132162   3.319   1.303   7.589 -1.7104  3.5937 -0.7331
 6900SOL    HW232163   3.197   1.363   7.567  1.4780 -0.2465 -0.3385
 6901SOL     OW32164   1.434   2.752   1.462 -0.2384 -0.1671 -0.2914
 6901SOL    HW132165   1.406   2.696   1.390  0.8589 -1.5467  0.3692
 6901SOL    HW232166   1.364   2.817   1.453 -0.4156 -0.2219  0.6339
 6902SOL     OW32167   4.229   1.559   7.245  0.1358  0.6375 -0.3139
 6902SOL    HW132168   4.278   1.640   7.230 -0.9186  0.8911 -2.3896
 6902SOL    HW232169   4.299   1.505   7.282 -0.6384  0.9463  1.5925
 6903SOL     OW32170   1.844   4.355   9.706  0.3517  0.5984  0.3365
 6903SOL    HW132171   1.891   4.274   9.687 -2.4123 -1.2242  1.2768
 6903SOL    HW232172   1.760   4.333   9.665 -0.1631 -0.4880  1.9825
 6904SOL     OW32173   1.846   3.773   4.321  0.6575  0.6536  0.1921
 6904SOL    HW132174   1.754   3.801   4.314  0.4673  0.4346  1.8661
 6904SOL    HW232175   1.889   3.846   4.276  1.8329  0.1377  0.4913
 6905SOL     OW32176   3.371   3.692  17.119 -0.4323  0.1587  0.0417
 6905SOL    HW132177   3.347   3.698  17.212  2.4348  0.7215  0.7488
 6905SOL    HW232178   3.314   3.618  17.097  0.0665 -0.6781  1.5380
 6906SOL     OW32179   0.790   1.170   6.261 -0.2254 -0.0407  0.5916
 6906SOL    HW132180   0.795   1.122   6.343  1.1783 -1.0418 -0.0759
 6906SOL    HW232181   0.697   1.193   6.265 -0.5998 -1.0689 -1.8544
 6907SOL     OW32182   4.573   1.392   1.047  0.2180 -0.1716  0.5632
 6907SOL    HW132183   4.519   1.377   0.970 -0.0358  0.6506  0.5882
 6907SOL    HW232184   4.524   1.350   1.118 -0.3647 -2.4658 -1.1984
 6908SOL     OW32185   3.600   4.480   4.909  0.1126  0.1247 -0.2818
 6908SOL    HW132186   3.584   4.574   4.906 -2.1002 -0.2426 -0.2782
 6908SOL    HW232187   3.672   4.464   4.849  0.1513  0.0972 -0.2284
 6909SOL     OW32188   1.896   1.434   1.528  0.0775 -0.1895 -0.2871
 6909SOL    HW132189   1.917   1.345   1.500 -1.9863 -1.1224  1.0708
 6909SOL    HW232190   1.939   1.439   1.614 -0.4636 -0.9959  0.0349
 6910SOL     OW32191   4.290   4.031   1.449  0.0836 -0.2017 -0.3917
 6910SOL    HW132192   4.236   3.972   1.395 -0.3772 -1.4490  1.4258
 6910SOL    HW232193   4.343   3.968   1.496 -0.7377  0.2789  1.1763
 6911SOL     OW32194   2.180   1.187   2.415 -0.1169 -0.0885 -0.0155
 6911SOL    HW132195   2.113   1.208   2.349 -2.6428  0.5178  2.7223
 6911SOL    HW232196   2.162   1.261   2.472 -0.7496  1.1390 -1.7793
 6912SOL     OW32197   0.862   2.169   3.733  0.3898 -0.0832  0.0011
 6912SOL    HW132198   0.884   2.076   3.741 -0.1484 -0.1633  0.5075
 6912SOL    HW232199   0.933   2.198   3.675  1.7853 -0.1978  1.6609
 6913SOL     OW32200   4.194   4.259   2.333  0.0689 -0.2539 -0.3856
 6913SOL    HW132201   4.246   4.311   2.271 -0.2183  1.4535  0.8166
 6913SOL    HW232202   4.153   4.202   2.268 -1.0615 -1.7391  1.6475
 6914SOL     OW32203   2.348   1.331   3.071 -0.4576  0.5811 -0.4740
 6914SOL    HW132204   2.308   1.276   3.003 -0.8559 -1.1446  1.1811
 6914SOL    HW232205   2.438   1.299   3.077  0.4347  2.6394 -2.5274
 6915SOL     OW32206   1.993   1.627   5.913  0.1730  0.4716 -0.0585
 6915SOL    HW132207   1.974   1.581   5.831  1.9829 -1.5618  0.6557
 6915SOL    HW232208   2.026   1.715   5.895  2.5162 -0.3240  0.3405
 6916SOL     OW32209   0.454   1.894   3.941 -0.0430  0.1197  0.0274
 6916SOL    HW132210   0.365   1.874   3.972 -0.1645 -0.0002 -0.4026
 6916SOL    HW232211   0.445   1.989   3.934  2.4443  0.2858 -0.6646
 6917SOL     OW32212   1.423   0.918  11.819 -0.8355 -0.3186 -0.0225
 6917SOL    HW132213   1.484   0.850  11.847  1.9590  2.3409  0.4195
 6917SOL    HW232214   1.468   0.996  11.852 -2.3934  1.3211 -1.7748
 6918SOL     OW32215   3.691   1.449   3.329 -0.2246  0.2303  0.2381
 6918SOL    HW132216   3.598   1.431   3.342 -0.0300  0.1222  1.4803
 6918SOL    HW232217   3.711   1.369   3.279 -1.0989  1.0436 -1.4260
 6919SOL     OW32218   2.210   4.069   5.787 -0.0418  0.2986  0.2321
 6919SOL    HW132219   2.131   4.100   5.743  0.9953  1.2229 -0.9720
 6919SOL    HW232220   2.184   3.994   5.840 -1.1722  0.8398  0.4387
 6920SOL     OW32221   1.159   4.716   7.049  0.1455 -0.5737  0.4599
 6920SOL    HW132222   1.229   4.702   6.985 -0.9670 -0.7810 -0.7211
 6920SOL    HW232223   1.204   0.051   7.109  0.7649  0.4489 -1.0173
 6921SOL     OW32224   0.170   0.770   7.771  0.0849 -0.2059 -0.2340
 6921SOL    HW132225   0.125   0.851   7.747  0.1351  0.5169  2.1244
 6921SOL    HW232226   0.088   0.720   7.773  0.4372 -0.6922  2.8288
 6922SOL     OW32227   0.813   2.022   4.365  0.1393 -0.4210 -0.6450
 6922SOL    HW132228   0.718   2.025   4.355 -0.1536 -1.1487  1.9612
 6922SOL    HW232229   0.839   1.943   4.317  2.1813  0.0453 -0.3379
 6923SOL     OW32230   2.737   1.255   1.787  0.2793 -0.0300  0.6158
 6923SOL    HW132231   2.721   1.190   1.718 -4.8577 -0.8307  2.5363
 6923SOL    HW232232   2.692   1.325   1.739 -1.6454 -0.5012  1.7325
 6924SOL     OW32233   0.217   1.348   2.055 -0.1568  0.7117 -0.2558
 6924SOL    HW132234   0.239   1.283   1.988 -1.6026  1.2985 -1.2904
 6924SOL    HW232235   0.302   1.386   2.074  0.1000 -1.0321  2.1379
 6925SOL     OW32236   4.322   3.436  17.635 -0.1206 -0.4276 -0.1015
 6925SOL    HW132237   4.349   3.371  17.570  0.2327 -1.3963  1.0053
 6925SOL    HW232238   4.330   3.510  17.576  0.3335 -0.9260 -0.6563
 6926SOL     OW32239   0.150   3.304   2.041 -0.5168  0.1053  0.2610
 6926SOL    HW132240   0.167   3.398   2.048 -1.3354  0.2542  0.2860
 6926SOL    HW232241   0.151   3.312   1.946  2.2643 -0.7682  0.2335
 6927SOL     OW32242   2.848   2.577   6.561 -0.2169  0.8461  0.1332
 6927SOL    HW132243   2.840   2.661   6.516 -2.0632  1.7515  2.1282
 6927SOL    HW232244   2.756   2.558   6.577  0.3293 -1.1640  0.8318
 6928SOL     OW32245   3.735   1.911   8.020 -0.0304  0.0576 -0.1459
 6928SOL    HW132246   3.821   1.940   8.052  0.6475 -0.6889 -1.2444
 6928SOL    HW232247   3.714   1.851   8.090  0.1765  0.8080  0.5572
 6929SOL     OW32248   0.653   2.200   8.415 -0.3997  0.2796  0.3692
 6929SOL    HW132249   0.676   2.241   8.331 -0.4592 -0.0525  0.1920
 6929SOL    HW232250   0.595   2.267   8.451  0.5658  0.5225  1.4682
 6930SOL     OW32251   4.307   2.792   3.946  0.3860  0.1088  0.2454
 6930SOL    HW132252   4.232   2.850   3.950 -0.7440 -1.2715 -1.2349
 6930SOL    HW232253   4.292   2.727   4.015 -1.3790 -0.3972 -0.6381
 6931SOL     OW32254   0.932   1.845   0.083 -0.0187 -0.4127 -0.0258
 6931SOL    HW132255   0.890   1.867  17.699  0.9655 -0.0060 -0.4115
 6931SOL    HW232256   0.976   1.926   0.109 -0.5805 -0.2417  0.3818
 6932SOL     OW32257   0.357   0.073   5.931 -0.6745  0.1355  0.3126
 6932SOL    HW132258   0.377   0.161   5.900 -0.3465  0.1256  0.5086
 6932SOL    HW232259   0.395   0.063   6.018  0.3709 -1.3793 -0.3242
 6933SOL     OW32260   4.002   2.126   5.309 -0.5252 -0.3557  0.3741
 6933SOL    HW132261   3.928   2.113   5.249 -0.2903  1.5384 -0.3214
 6933SOL    HW232262   4.079   2.107   5.255 -1.3892  1.0049 -1.3519
 6934SOL     OW32263   3.652   4.369   8.219  0.1483 -0.0602  0.0685
 6934SOL    HW132264   3.682   4.296   8.273 -0.2583  1.3334  2.1924
 6934SOL    HW232265   3.661   4.450   8.270  0.6496  1.4372 -2.3550
 6935SOL     OW32266   0.760   4.025   5.600  0.0807  0.2998 -0.2551
 6935SOL    HW132267   0.717   4.079   5.666  0.2276  0.2599 -0.1279
 6935SOL    HW232268   0.825   4.091   5.574 -0.6062  0.1591 -2.3401
 6936SOL     OW32269   3.917   0.324   2.188 -0.2937 -0.1205  0.0583
 6936SOL    HW132270   3.832   0.356   2.159  0.3887 -2.0926 -4.0527
 6936SOL    HW232271   3.960   0.297   2.107 -2.3868  2.2940 -1.8503
 6937SOL     OW32272   3.509   4.469   9.505 -0.5044  0.8382 -0.1428
 6937SOL    HW132273   3.461   4.477   9.423 -0.0829 -3.1726 -0.8122
 6937SOL    HW232274   3.497   4.374   9.503 -0.1614  0.7833  0.3336
 6938SOL     OW32275   1.618   2.658  12.537 -0.3313 -0.3908  0.2492
 6938SOL    HW132276   1.622   2.669  12.442 -0.6428 -0.1831  0.2600
 6938SOL    HW232277   1.661   2.576  12.561 -0.3311  0.0926  1.9110
 6939SOL     OW32278   0.930   2.162   8.375 -0.1548 -0.4070 -0.7261
 6939SOL    HW132279   0.969   2.077   8.394  0.7598  0.1544 -0.0848
 6939SOL    HW232280   0.838   2.152   8.398 -0.2929  0.5716 -0.8242
 6940SOL     OW32281   4.676   4.206  16.731  0.0896 -0.4786 -0.3626
 6940SOL    HW132282   0.012   4.140  16.765  2.2903  0.7885 -1.8247
 6940SOL    HW232283   4.615   4.226  16.802 -0.3948  0.3119 -0.9962
 6941SOL     OW32284   3.826   1.991  12.964 -0.7532 -0.1735  0.8289
 6941SOL    HW132285   3.890   1.928  12.928  0.0696  0.9049  0.3932
 6941SOL    HW232286   3.871   2.033  13.037 -0.1856  0.1946  0.2797
 6942SOL     OW32287   4.090   1.829   8.565 -0.4046  0.0790 -0.0580
 6942SOL    HW132288   4.175   1.851   8.603 -0.7320 -0.3885  0.9343
 6942SOL    HW232289   4.035   1.871   8.631 -0.3826 -1.9702  1.2385
 6943SOL     OW32290   1.432   0.979  10.838 -0.1189  0.2782  0.2341
 6943SOL    HW132291   1.366   0.917  10.871 -0.5370  1.0084  0.7728
 6943SOL    HW232292   1.382   1.055  10.807 -0.0520  0.9902  1.9008
 6944SOL     OW32293   1.271   0.236   4.863  0.0939  0.7837  0.3092
 6944SOL    HW132294   1.252   0.329   4.878 -0.5033  0.8984 -1.1310
 6944SOL    HW232295   1.258   0.201   4.951  4.1132 -0.3888  0.4283
 6945SOL     OW32296   0.179   4.340   3.619 -0.7174  0.2980  0.6911
 6945SOL    HW132297   0.221   4.346   3.533 -0.6512  1.1747  0.7844
 6945SOL    HW232298   0.220   4.261   3.653 -1.2369 -0.3357 -0.1706
 6946SOL     OW32299   4.229   3.200   2.726 -0.2108 -0.4903  0.0527
 6946SOL    HW132300   4.156   3.147   2.758  1.2374 -0.5769  3.1772
 6946SOL    HW232301   4.300   3.168   2.781 -2.4107 -0.7704  2.7325
 6947SOL     OW32302   2.368   0.811   2.548  0.0298 -0.1897 -0.0976
 6947SOL    HW132303   2.394   0.756   2.622  1.6407  1.6345  0.6977
 6947SOL    HW232304   2.425   0.767   2.485  0.7460  0.5715  0.0139
 6948SOL     OW32305   0.844   2.595   3.158  0.7164  0.1795 -0.4227
 6948SOL    HW132306   0.807   2.656   3.222  0.1006  0.5728 -1.1563
 6948SOL    HW232307   0.766   2.552   3.124 -0.6106  1.4972  0.9834
 6949SOL     OW32308   2.423   1.323   7.784 -0.1656 -0.0809  0.6165
 6949SOL    HW132309   2.346   1.354   7.831 -1.1125  0.2167 -1.1486
 6949SOL    HW232310   2.436   1.233   7.814 -0.6620 -1.2990 -2.9381
 6950SOL     OW32311   4.443   0.783   5.115  0.0092  0.4871  0.4729
 6950SOL    HW132312   4.374   0.759   5.177  1.3189  0.0396  1.7723
 6950SOL    HW232313   4.501   0.708   5.129 -1.1073 -0.6026 -0.7034
 6951SOL     OW32314   3.248   3.464   6.677  0.6696 -0.4316  0.3204
 6951SOL    HW132315   3.224   3.427   6.593  0.4689 -1.5573  0.8794
 6951SOL    HW232316   3.331   3.418   6.694  0.2116 -0.9887  1.0459
 6952SOL     OW32317   3.239   2.025   9.044 -0.5620 -0.2910  0.2267
 6952SOL    HW132318   3.163   2.025   9.102 -1.3919  1.5760 -0.8620
 6952SOL    HW232319   3.300   2.080   9.093  0.1570 -0.3904 -0.5458
 6953SOL     OW32320   4.303   4.052   8.244 -0.5791 -0.0952  0.0926
 6953SOL    HW132321   4.347   3.969   8.259  1.8066  1.0496 -0.5493
 6953SOL    HW232322   4.236   4.030   8.179 -1.9686 -1.9129  2.1774
 6954SOL     OW32323   3.150   2.858   0.470  0.0630  0.4816 -0.0043
 6954SOL    HW132324   3.128   2.875   0.562 -0.2384  1.5232 -0.2722
 6954SOL    HW232325   3.240   2.825   0.474 -0.0630 -0.0562 -1.8073
 6955SOL     OW32326   4.489   0.033   9.079  0.0714  0.1967  0.1884
 6955SOL    HW132327   4.580   0.051   9.057 -0.3210 -0.0519 -1.6669
 6955SOL    HW232328   4.477   0.090   9.156 -1.0612  0.8999 -0.5039
 6956SOL     OW32329   2.864   3.912   0.556  0.1860  0.3603  0.0098
 6956SOL    HW132330   2.782   3.865   0.540 -0.4228  1.0408  1.1267
 6956SOL    HW232331   2.878   3.967   0.480  1.6265 -1.1090 -0.7871
 6957SOL     OW32332   0.911   0.198   3.074 -0.0907 -0.1552  0.4422
 6957SOL    HW132333   0.858   0.196   2.994 -0.8581  0.6732  0.9317
 6957SOL    HW232334   0.841   0.187   3.138  1.0117  0.5443  1.7605
 6958SOL     OW32335   3.986   3.279   9.124 -0.3249  0.6015 -0.3151
 6958SOL    HW132336   4.001   3.343   9.054  1.1637  0.2708 -0.3006
 6958SOL    HW232337   3.929   3.323   9.187 -0.5199 -0.4002  0.2086
 6959SOL     OW32338   1.553   0.160  11.048 -0.9534  0.1252 -1.0597
 6959SOL    HW132339   1.496   0.121  11.114 -0.0317 -0.7289 -0.7555
 6959SOL    HW232340   1.524   0.248  11.024 -0.3919  0.6238  0.0425
 6960SOL     OW32341   1.746   0.530  17.317 -0.1554  0.0508  0.3793
 6960SOL    HW132342   1.694   0.450  17.322 -1.3200  0.8518  1.0719
 6960SOL    HW232343   1.707   0.580  17.245  0.2376 -0.4806 -0.2037
 6961SOL     OW32344   3.960   0.117   8.375  0.5719  0.2009 -0.2961
 6961SOL    HW132345   4.030   0.098   8.312  1.5715  1.4829  0.4133
 6961SOL    HW232346   3.908   0.167   8.312 -0.6268 -1.2188 -0.4257
 6962SOL     OW32347   1.316   2.327   3.436 -0.7998 -0.2122 -0.3878
 6962SOL    HW132348   1.261   2.315   3.358 -1.0914 -1.7712  0.0597
 6962SOL    HW232349   1.397   2.281   3.415  0.3288  1.4433  0.3405
 6963SOL     OW32350   4.375   2.047   6.778  0.2236 -0.4783  0.7644
 6963SOL    HW132351   4.346   2.093   6.857  0.5529 -1.4420  1.4432
 6963SOL    HW232352   4.297   1.995   6.760 -0.5559  0.6270  1.0114
 6964SOL     OW32353   1.730   0.473   1.507 -0.5076  0.1009  0.2709
 6964SOL    HW132354   1.758   0.382   1.491 -3.7843 -0.7450 -0.5818
 6964SOL    HW232355   1.644   0.454   1.544 -0.2230 -2.3587 -0.2948
 6965SOL     OW32356   4.537   0.445   6.416 -0.3538  0.2026 -0.1009
 6965SOL    HW132357   4.450   0.477   6.440 -0.6785 -2.5759  2.5293
 6965SOL    HW232358   4.596   0.501   6.466 -3.7038  3.3472  0.3996
 6966SOL     OW32359   2.805   4.478  12.927  0.1633  0.8695 -0.2139
 6966SOL    HW132360   2.711   4.483  12.911  0.5545  0.5291 -2.5805
 6966SOL    HW232361   2.845   4.483  12.841 -1.8582 -1.8544 -1.2915
 6967SOL     OW32362   1.857   0.288  16.439 -0.1579  0.5229 -0.1012
 6967SOL    HW132363   1.762   0.301  16.445  0.1809  1.2264  3.3083
 6967SOL    HW232364   1.881   0.366  16.389 -0.7297 -0.8987 -2.5978
 6968SOL     OW32365   2.205   4.678   6.424  0.2497 -0.3132  0.2859
 6968SOL    HW132366   2.270   4.623   6.466 -1.0737 -0.9159  1.5333
 6968SOL    HW232367   2.195   0.016   6.496  0.5595  2.0489 -1.7194
 6969SOL     OW32368   2.693   3.739   6.986  0.5701 -0.4877  0.1053
 6969SOL    HW132369   2.686   3.822   6.938  0.2173 -0.8146 -0.3997
 6969SOL    HW232370   2.657   3.759   7.073 -1.6270 -0.6194 -0.7821
 6970SOL     OW32371   3.993   0.786  16.344 -0.2208 -0.1168 -0.2329
 6970SOL    HW132372   4.066   0.844  16.364 -0.6490 -0.5228  2.4285
 6970SOL    HW232373   4.036   0.700  16.346 -0.5311 -0.2742 -0.2234
 6971SOL     OW32374   2.778   4.685  13.725 -0.3666 -0.6334  0.2517
 6971SOL    HW132375   2.696   4.665  13.679 -1.8760 -1.0218  3.0851
 6971SOL    HW232376   2.806   0.016  13.653  1.2477 -1.2635  0.3982
 6972SOL     OW32377   0.775   2.951   5.092  0.5402 -0.2426 -0.1185
 6972SOL    HW132378   0.769   2.921   5.182 -3.3455 -0.1136 -0.3451
 6972SOL    HW232379   0.718   3.028   5.095 -1.4048 -1.7072  0.0767
 6973SOL     OW32380   3.350   1.917  13.218 -0.2654 -0.0119  0.4566
 6973SOL    HW132381   3.431   1.868  13.235  0.3875  0.6340 -0.8403
 6973SOL    HW232382   3.321   1.950  13.303 -0.1707  0.5532  0.2692
 6974SOL     OW32383   4.474   2.664   8.445  0.2290  0.0692  0.4939
 6974SOL    HW132384   4.555   2.645   8.398 -0.1126 -1.7660  0.6614
 6974SOL    HW232385   4.508   2.733   8.502  2.7952  0.8227 -1.9528
 6975SOL     OW32386   2.766   0.935   2.801 -0.6190  0.5263 -0.3355
 6975SOL    HW132387   2.729   0.869   2.743  0.6108 -1.2819  0.9321
 6975SOL    HW232388   2.690   0.948   2.858 -1.2512 -2.2761 -0.5461
 6976SOL     OW32389   1.183   2.677   0.622  0.3403  0.0146  0.6609
 6976SOL    HW132390   1.107   2.708   0.573  0.6071 -0.3174  0.0372
 6976SOL    HW232391   1.255   2.687   0.559  0.0799 -2.6401 -0.0382
 6977SOL     OW32392   2.595   2.905   8.778 -0.0225  0.2850  0.1981
 6977SOL    HW132393   2.526   2.910   8.711  0.6930  0.1640 -0.5541
 6977SOL    HW232394   2.675   2.924   8.730  1.8019 -3.2088  1.8873
 6978SOL     OW32395   0.519   3.417   7.171 -0.3310  0.1103  0.1111
 6978SOL    HW132396   0.612   3.438   7.160 -1.0826  2.7971 -0.9871
 6978SOL    HW232397   0.469   3.498   7.163 -0.6133  0.3246  4.0397
 6979SOL     OW32398   2.175   4.215  14.201  0.0711  0.0454 -0.2173
 6979SOL    HW132399   2.223   4.246  14.278 -0.1038 -1.7261  0.6203
 6979SOL    HW232400   2.170   4.125  14.233  0.1743 -0.2424 -1.0090
 6980SOL     OW32401   4.085   2.994   2.896  0.0230 -0.2591  0.4826
 6980SOL    HW132402   4.032   2.918   2.871  2.6271 -1.8756 -0.1795
 6980SOL    HW232403   4.170   2.955   2.914 -1.2190 -2.5580  1.4285
 6981SOL     OW32404   1.407   0.241  15.009  0.0406  0.0778 -0.7981
 6981SOL    HW132405   1.475   0.191  15.054 -1.3944 -0.1567  1.1644
 6981SOL    HW232406   1.461   0.307  14.966 -0.3748  0.6034 -0.5164
 6982SOL     OW32407   2.266   3.234   1.687 -0.0556 -0.5964  0.1138
 6982SOL    HW132408   2.180   3.201   1.713  0.6563 -0.8431  2.1446
 6982SOL    HW232409   2.317   3.157   1.662 -0.9642 -0.7323 -1.3024
 6983SOL     OW32410   2.370   0.698  15.304  0.4043 -0.1574  0.4481
 6983SOL    HW132411   2.396   0.616  15.346 -0.3626 -0.3177  0.6103
 6983SOL    HW232412   2.412   0.752  15.371  0.9897  2.2429 -1.8451
 6984SOL     OW32413   1.021   0.594   6.395  0.1801 -0.1783  0.2920
 6984SOL    HW132414   1.062   0.681   6.391  1.4593 -0.7786  0.3760
 6984SOL    HW232415   0.997   0.589   6.303  0.6207 -3.6791  0.3802
 6985SOL     OW32416   0.263   3.828   4.961 -0.3597  0.0548  0.1499
 6985SOL    HW132417   0.264   3.920   4.936 -1.1372  0.9012  3.2469
 6985SOL    HW232418   0.172   3.806   4.983 -0.7414  0.3845 -1.0868
 6986SOL     OW32419   3.298   4.290   6.822 -0.4321 -0.2471 -0.1053
 6986SOL    HW132420   3.346   4.280   6.739 -1.0505  0.1601 -0.5144
 6986SOL    HW232421   3.319   4.381   6.844  2.0104 -1.3348  2.0185
 6987SOL     OW32422   0.455   4.682  12.966  0.0746 -0.0317 -0.0173
 6987SOL    HW132423   0.542   4.680  12.924  0.0784 -2.2012  0.1106
 6987SOL    HW232424   0.436   0.051  12.961 -0.8116 -0.0469  3.3310
 6988SOL     OW32425   4.050   3.096  10.801 -0.2001 -0.1927  0.2453
 6988SOL    HW132426   4.043   3.130  10.712 -0.9030  1.0387  0.7663
 6988SOL    HW232427   4.073   3.179  10.842 -1.4424  0.3795 -0.2026
 6989SOL     OW32428   0.649   0.934  15.335  0.3847  0.1914  0.2354
 6989SOL    HW132429   0.705   0.968  15.266  1.4955 -0.5670  0.7743
 6989SOL    HW232430   0.568   0.981  15.316  0.1999 -0.6956 -1.1837
 6990SOL     OW32431   2.535   2.364   3.095 -0.1908  0.7508 -0.0960
 6990SOL    HW132432   2.462   2.389   3.153 -2.3393  0.2280 -2.5844
 6990SOL    HW232433   2.497   2.408   3.019 -0.4701  2.4496  1.0110
 6991SOL     OW32434   4.161   1.308   4.544  0.2648 -0.0144 -0.6611
 6991SOL    HW132435   4.078   1.268   4.520 -0.0775  0.9300 -1.0401
 6991SOL    HW232436   4.211   1.241   4.497  0.7368 -0.1701  0.0484
 6992SOL     OW32437   0.250   2.045   2.852 -0.3727  0.2146  0.0853
 6992SOL    HW132438   0.220   2.087   2.771  0.9389  1.4550  0.2367
 6992SOL    HW232439   0.176   1.991   2.879  0.7591 -0.8536  1.0275
 6993SOL     OW32440   0.262   4.373  16.020 -0.0825 -0.0690 -0.7077
 6993SOL    HW132441   0.226   4.382  16.108 -0.0795 -2.2766 -0.4750
 6993SOL    HW232442   0.228   4.452  15.977  0.7050  0.4830 -0.3062
 6994SOL     OW32443   1.607   0.777   2.868  0.2395  0.5897 -0.1200
 6994SOL    HW132444   1.567   0.760   2.953  0.5058 -1.2474 -0.3659
 6994SOL    HW232445   1.698   0.793   2.895  0.8959 -1.6539 -1.0566
 6995SOL     OW32446   0.566   2.630  17.115 -0.3283 -0.0596  0.3788
 6995SOL    HW132447   0.486   2.681  17.127 -0.9743 -2.0307  4.3378
 6995SOL    HW232448   0.568   2.624  17.019 -2.0491  1.8281  0.2265
 6996SOL     OW32449   0.368   1.182   6.297  0.2938 -0.1010  0.2743
 6996SOL    HW132450   0.305   1.195   6.226 -1.1749 -0.5338  1.5172
 6996SOL    HW232451   0.435   1.246   6.272  0.0592  0.2209  0.4682
 6997SOL     OW32452   0.650   3.921  15.436  0.3715  0.1330 -0.1188
 6997SOL    HW132453   0.713   3.931  15.507  1.3684  0.8100 -1.0972
 6997SOL    HW232454   0.566   3.924  15.483  0.0514 -0.0765 -0.6684
 6998SOL     OW32455   4.289   1.371  14.491 -0.3539 -0.2515  0.0896
 6998SOL    HW132456   4.369   1.381  14.440  0.5961  0.3710  1.7077
 6998SOL    HW232457   4.243   1.312  14.431 -0.3886  0.2415 -0.3652
 6999SOL     OW32458   1.458   2.980   7.618 -0.1289  0.7152  0.4402
 6999SOL    HW132459   1.379   3.032   7.631  0.3015  1.6522 -0.7368
 6999SOL    HW232460   1.466   2.944   7.707 -4.1835 -0.3195  0.4091
 7000SOL     OW32461   2.592   3.750  15.222 -0.6089  0.1848 -0.2213
 7000SOL    HW132462   2.654   3.815  15.257  0.4100 -1.7751  1.6572
 7000SOL    HW232463   2.515   3.780  15.271  0.3328  0.8905  0.8323
 7001SOL     OW32464   0.261   1.072   8.278 -0.2950 -0.4427  0.4817
 7001SOL    HW132465   0.235   1.155   8.317 -2.6872 -1.5699  1.3245
 7001SOL    HW232466   0.291   1.087   8.188 -0.2383  0.0840  0.5933
 7002SOL     OW32467   1.524   1.288  17.080  0.0428  0.7878  0.1623
 7002SOL    HW132468   1.512   1.308  17.173 -0.8671  1.9977 -0.2187
 7002SOL    HW232469   1.602   1.234  17.092 -0.3733 -0.3215 -2.0775
 7003SOL     OW32470   0.934   3.454  17.028  0.6530  0.6605  0.9752
 7003SOL    HW132471   1.005   3.427  17.086  1.1842 -0.3974 -0.1870
 7003SOL    HW232472   0.968   3.434  16.941 -1.8114  1.3374 -0.1618
 7004SOL     OW32473   0.603   1.791   3.742 -0.0404 -0.0700  0.4329
 7004SOL    HW132474   0.552   1.809   3.821 -2.2586  0.6236 -1.1537
 7004SOL    HW232475   0.609   1.879   3.707  1.3852 -0.0798  0.6207
 7005SOL     OW32476   1.657   1.447   5.038  0.2619 -0.3849  0.7521
 7005SOL    HW132477   1.666   1.541   5.054  0.9133 -0.5001  1.0769
 7005SOL    HW232478   1.570   1.434   5.075  0.2136  1.1768  1.1893
 7006SOL     OW32479   2.931   3.173   1.565 -0.3003 -0.1673  0.0831
 7006SOL    HW132480   2.949   3.124   1.645 -1.4655 -0.2847  0.2765
 7006SOL    HW232481   2.904   3.257   1.603  3.2574  0.7993  0.4712
 7007SOL     OW32482   2.935   0.750   9.373 -0.2397  0.4906 -0.7139
 7007SOL    HW132483   2.981   0.706   9.301  1.2305 -0.6443  0.9365
 7007SOL    HW232484   2.849   0.758   9.333 -1.6849  0.4719  2.4115
 7008SOL     OW32485   0.115   4.229   6.535 -0.3070 -0.5471 -0.1079
 7008SOL    HW132486   0.039   4.285   6.525  0.0100  0.0999  1.1676
 7008SOL    HW232487   0.100   4.163   6.467 -0.8818  1.2237 -1.6881
 7009SOL     OW32488   4.708   2.408   5.610 -0.4484  0.2119 -0.2098
 7009SOL    HW132489   0.018   2.442   5.527 -2.1088 -1.8259 -1.7107
 7009SOL    HW232490   0.064   2.375   5.650 -0.4007 -0.9777 -1.2916
 7010SOL     OW32491   3.853   1.196  14.201  0.3017  0.5746  0.4285
 7010SOL    HW132492   3.878   1.173  14.112  1.1577  1.8515  0.3423
 7010SOL    HW232493   3.915   1.145  14.253 -0.1171 -1.0802 -0.6845
 7011SOL     OW32494   3.077   3.592   9.103 -0.0896  0.8834 -0.2255
 7011SOL    HW132495   2.987   3.612   9.126 -0.2688  2.6176 -2.3262
 7011SOL    HW232496   3.132   3.648   9.158  0.2774  1.1995 -0.9048
 7012SOL     OW32497   2.990   4.483   4.603  0.2894 -0.5965  0.0956
 7012SOL    HW132498   2.913   4.532   4.635 -0.0962 -2.1540  1.5617
 7012SOL    HW232499   2.956   4.453   4.519  0.7604 -0.7875 -0.0231
 7013SOL     OW32500   4.044   2.629   5.262 -0.1400  0.5194  0.4822
 7013SOL    HW132501   4.091   2.591   5.188 -2.7991 -1.0098 -0.3761
 7013SOL    HW232502   3.995   2.554   5.295 -2.0502  1.2638 -0.6755
 7014SOL     OW32503   0.108   2.776   6.997 -0.5034 -0.4421 -0.8505
 7014SOL    HW132504   0.096   2.850   7.056 -0.3068 -1.5160  0.5207
 7014SOL    HW232505   0.200   2.798   6.981 -0.7855  0.2449 -1.5460
 7015SOL     OW32506   4.413   0.717   0.724  0.2749  0.0231 -0.2938
 7015SOL    HW132507   4.396   0.709   0.818 -0.6928 -2.8912 -0.7443
 7015SOL    HW232508   4.508   0.720   0.712  0.7808 -2.6349  3.0938
 7016SOL     OW32509   0.795   1.044   4.853  0.0389  0.4276 -0.2315
 7016SOL    HW132510   0.844   1.121   4.879  0.3288  0.5497 -1.1577
 7016SOL    HW232511   0.830   0.973   4.907 -0.6814  0.0035 -0.3251
 7017SOL     OW32512   0.166   3.945   3.069 -0.3187 -0.0971 -0.1526
 7017SOL    HW132513   0.076   3.922   3.091 -0.6935 -0.7448 -2.3637
 7017SOL    HW232514   0.166   3.906   2.981 -1.6965  0.6439 -0.4770
 7018SOL     OW32515   2.610   1.561   6.388  0.2217 -0.0271 -0.5356
 7018SOL    HW132516   2.613   1.474   6.346  2.2932  1.3069 -3.1290
 7018SOL    HW232517   2.525   1.544   6.429  1.3264 -0.3318  1.6440
 7019SOL     OW32518   2.248   3.225   5.044  0.2103  0.2493  0.0960
 7019SOL    HW132519   2.196   3.163   5.097 -1.5516  1.3488 -0.3433
 7019SOL    HW232520   2.328   3.217   5.096 -0.0750  0.8578  0.6235
 7020SOL     OW32521   4.389   2.747   7.373  0.4422 -0.9238 -0.4288
 7020SOL    HW132522   4.362   2.804   7.301 -1.4244 -1.0258  0.1953
 7020SOL    HW232523   4.409   2.663   7.332 -1.1935 -0.5217 -2.0576
 7021SOL     OW32524   1.125   1.458  13.631  0.5825 -0.1191 -0.5054
 7021SOL    HW132525   1.163   1.521  13.692 -1.2435  0.5536 -0.0717
 7021SOL    HW232526   1.039   1.443  13.671  1.8619  0.1953  2.3660
 7022SOL     OW32527   0.288   4.159   3.859 -0.2322 -0.8735 -0.1947
 7022SOL    HW132528   0.304   4.238   3.911 -1.1777  0.6283 -2.2020
 7022SOL    HW232529   0.197   4.140   3.882 -0.4844 -0.3213 -0.7556
 7023SOL     OW32530   3.461   0.162   3.589 -0.2117  0.6569  0.4568
 7023SOL    HW132531   3.523   0.231   3.562  0.1145 -0.8821 -2.7277
 7023SOL    HW232532   3.388   0.223   3.597  1.2922  2.2569  1.9614
 7024SOL     OW32533   0.291   4.380  17.510 -0.0789  1.0317 -0.2242
 7024SOL    HW132534   0.205   4.385  17.551  0.2854  0.2349  0.6434
 7024SOL    HW232535   0.320   4.470  17.525 -1.4536  1.7084 -1.6408
 7025SOL     OW32536   0.462   2.408   6.357 -0.1684  0.4070 -0.2373
 7025SOL    HW132537   0.523   2.473   6.322  0.4302 -0.0953 -0.1322
 7025SOL    HW232538   0.394   2.425   6.292  0.7135 -2.4858 -1.9047
 7026SOL     OW32539   3.432   3.614   6.354 -0.4810  0.1446  0.0116
 7026SOL    HW132540   3.461   3.657   6.434  0.9138  0.5323 -0.6928
 7026SOL    HW232541   3.454   3.523   6.371  0.2620  0.3558  0.1786
 7027SOL     OW32542   0.294   0.138   8.453 -0.0800  0.4941 -0.1104
 7027SOL    HW132543   0.321   0.172   8.539 -1.1133 -1.1342  0.8711
 7027SOL    HW232544   0.235   0.211   8.436 -1.5823 -0.3966  1.1985
 7028SOL     OW32545   0.958   1.835   7.355 -0.6653 -0.1676  0.1216
 7028SOL    HW132546   1.026   1.775   7.385  0.0649  0.4330 -0.3244
 7028SOL    HW232547   0.935   1.875   7.439 -0.4733 -0.0583  0.1234
 7029SOL     OW32548   4.543   3.980   2.658  0.1090  0.0610  0.1444
 7029SOL    HW132549   4.542   3.888   2.633  0.7754 -0.0250  0.4302
 7029SOL    HW232550   4.524   3.957   2.748 -2.4114  1.5688 -0.0131
 7030SOL     OW32551   1.683   1.124   8.169  0.1004 -0.3037 -0.9223
 7030SOL    HW132552   1.589   1.112   8.179  0.3701 -1.0110  0.8111
 7030SOL    HW232553   1.711   1.093   8.083 -0.9027 -1.5823 -0.7890
 7031SOL     OW32554   1.152   2.169   1.264 -0.7749  0.0059  0.0570
 7031SOL    HW132555   1.126   2.138   1.351 -2.8690 -0.5632 -0.7534
 7031SOL    HW232556   1.233   2.119   1.257 -1.3842 -1.0426  0.4318
 7032SOL     OW32557   1.002   0.076   3.487 -0.4473  0.1932 -0.6153
 7032SOL    HW132558   0.912   0.052   3.465 -1.0402  0.5807  1.4547
 7032SOL    HW232559   1.048   0.037   3.412 -1.6118 -0.9772 -0.7278
 7033SOL     OW32560   1.792   0.918  13.943 -0.7877  0.3836 -0.5145
 7033SOL    HW132561   1.707   0.916  13.899 -1.2825 -1.6677  0.5234
 7033SOL    HW232562   1.856   0.911  13.872  0.2335 -1.5813  0.6064
 7034SOL     OW32563   0.157   1.700  14.907  0.3263 -0.1672 -0.3964
 7034SOL    HW132564   0.092   1.630  14.909 -0.5491  0.6298 -0.9209
 7034SOL    HW232565   0.095   1.765  14.939  0.1084  0.9464 -3.0664
 7035SOL     OW32566   1.000   0.702   8.206 -0.0004 -0.4120 -0.8764
 7035SOL    HW132567   1.091   0.676   8.224  0.9147  3.3475 -0.0165
 7035SOL    HW232568   0.966   0.630   8.153 -1.3531  0.5765 -1.3615
 7036SOL     OW32569   4.517   2.319   4.556 -0.2727  0.2191 -0.0564
 7036SOL    HW132570   4.507   2.256   4.627  0.6088 -1.9874 -1.9012
 7036SOL    HW232571   4.562   2.390   4.603 -1.1442  1.6627 -1.3990
 7037SOL     OW32572   0.495   2.077  10.776  0.3868  0.6547 -0.6737
 7037SOL    HW132573   0.501   1.998  10.830 -0.4437  0.7137 -0.4920
 7037SOL    HW232574   0.554   2.056  10.704  2.1617  4.0523 -0.2141
 7038SOL     OW32575   3.929   0.870   5.352 -0.5186 -0.3284 -0.5331
 7038SOL    HW132576   3.959   0.835   5.436  1.6725  2.9294  0.0616
 7038SOL    HW232577   3.899   0.959   5.371  0.9617 -0.3112  1.8073
 7039SOL     OW32578   3.457   2.040   3.390  0.6901 -0.2803  0.5261
 7039SOL    HW132579   3.366   2.069   3.392 -1.0671 -5.8064  1.0937
 7039SOL    HW232580   3.483   2.054   3.299  1.0955 -2.0064  0.3653
 7040SOL     OW32581   4.260   2.138  15.985 -0.2610  0.4134 -0.2759
 7040SOL    HW132582   4.332   2.201  15.981  0.8634 -0.7588  1.5881
 7040SOL    HW232583   4.209   2.175  16.057 -1.6765  1.3973 -1.7717
 7041SOL     OW32584   2.084   2.914   8.182  0.3915  0.4074 -0.4245
 7041SOL    HW132585   2.094   2.821   8.200 -1.1913  0.3089  0.0122
 7041SOL    HW232586   2.132   2.912   8.099 -1.2764  1.4204 -1.4410
 7042SOL     OW32587   0.350   4.498   5.490 -0.2204 -0.0625  0.0125
 7042SOL    HW132588   0.274   4.441   5.493 -1.3479  1.4454  0.2871
 7042SOL    HW232589   0.402   4.446   5.551  0.4953  1.1341  0.4212
 7043SOL     OW32590   4.472   3.984   4.303  0.1170  0.0488  0.7589
 7043SOL    HW132591   4.433   3.899   4.286  0.2870 -0.2730  1.9702
 7043SOL    HW232592   4.394   4.040   4.305  0.5655  0.6801  0.6053
 7044SOL     OW32593   3.844   1.137   3.710  0.3924 -0.0262 -0.0149
 7044SOL    HW132594   3.902   1.098   3.775  1.9665  0.3788 -1.1486
 7044SOL    HW232595   3.890   1.101   3.633 -0.9816 -0.9622 -0.3922
 7045SOL     OW32596   2.113   0.199   7.817 -0.4047  0.4304  0.0206
 7045SOL    HW132597   2.042   0.262   7.802 -1.4662 -0.4763  1.2037
 7045SOL    HW232598   2.105   0.177   7.910  2.8579 -3.8953 -0.7110
 7046SOL     OW32599   2.854   0.472  12.170  0.3918 -0.2814  0.0481
 7046SOL    HW132600   2.800   0.396  12.146  0.5069 -0.0443 -0.9510
 7046SOL    HW232601   2.895   0.440  12.250 -2.8362 -1.0376  1.4032
 7047SOL     OW32602   3.832   2.619   6.776  0.3023  0.0014 -0.2607
 7047SOL    HW132603   3.923   2.647   6.777  0.1445  0.5265 -0.0492
 7047SOL    HW232604   3.785   2.687   6.726  0.7550  1.0533  0.7483
 7048SOL     OW32605   0.664   4.164   7.695 -0.6739 -0.2185  0.5218
 7048SOL    HW132606   0.741   4.207   7.657 -1.4112 -0.3524 -1.1610
 7048SOL    HW232607   0.635   4.227   7.760  1.6518 -0.1708  1.5193
 7049SOL     OW32608   3.556   0.333  12.950  0.6436 -0.8482 -0.8047
 7049SOL    HW132609   3.575   0.327  13.043  2.1856  1.1560 -1.0019
 7049SOL    HW232610   3.517   0.420  12.950 -1.2682 -1.6980 -3.2267
 7050SOL     OW32611   0.167   4.315   5.356  0.3541 -0.4672 -0.2581
 7050SOL    HW132612   0.118   4.283   5.280  1.5195  0.7434 -1.5172
 7050SOL    HW232613   0.196   4.229   5.387  0.2656 -0.9689 -1.5758
 7051SOL     OW32614   0.013   4.700   1.565 -0.1571 -0.1558  0.1669
 7051SOL    HW132615   4.694   0.011   1.487 -1.1106 -1.4074  0.1323
 7051SOL    HW232616   0.008   0.058   1.613  0.0497  0.3779 -0.7278
 7052SOL     OW32617   4.613   1.373   1.898  0.8449 -0.3508 -0.1276
 7052SOL    HW132618   4.706   1.393   1.907  0.7277 -0.6648  1.9346
 7052SOL    HW232619   4.592   1.370   1.805  0.5224 -0.1308 -0.0624
 7053SOL     OW32620   0.722   2.539   2.863  0.2729  0.2829  0.0345
 7053SOL    HW132621   0.718   2.472   2.794 -0.6570 -1.0036  1.3393
 7053SOL    HW232622   0.660   2.510   2.930  0.9196  0.6708  0.7972
 7054SOL     OW32623   0.169   2.423   6.571  0.5093  0.5529 -0.8629
 7054SOL    HW132624   0.253   2.381   6.590  0.4105  1.4347  1.6136
 7054SOL    HW232625   0.133   2.361   6.508 -0.6702  2.1786 -1.7856
 7055SOL     OW32626   0.812   2.991   1.676  0.3930 -0.5264 -0.5013
 7055SOL    HW132627   0.761   3.060   1.718  0.7198 -1.9264  2.1462
 7055SOL    HW232628   0.754   2.929   1.632 -0.0087 -0.3639 -0.1941
 7056SOL     OW32629   2.854   3.003   6.819 -0.0560 -0.1161  0.1376
 7056SOL    HW132630   2.913   2.959   6.881  1.1903  0.5185 -0.5936
 7056SOL    HW232631   2.838   3.080   6.872  0.0569  0.4348 -0.6290
 7057SOL     OW32632   2.217   1.898  12.477 -0.5108  0.5443  1.0208
 7057SOL    HW132633   2.198   1.893  12.383 -0.1076  0.1202  0.9613
 7057SOL    HW232634   2.153   1.833  12.507 -1.0717 -0.2099 -1.7540
 7058SOL     OW32635   0.211   1.285   7.742  0.0678 -0.3235 -0.1081
 7058SOL    HW132636   0.236   1.282   7.650 -1.0998 -0.3840 -0.4220
 7058SOL    HW232637   0.136   1.343   7.736  0.4747 -0.2224 -4.5546
 7059SOL     OW32638   3.106   1.367   2.952 -0.1720 -0.3070  0.6537
 7059SOL    HW132639   3.132   1.453   2.918  1.4428 -1.1781 -0.3056
 7059SOL    HW232640   3.047   1.330   2.886  0.0355  1.2674 -0.4185
 7060SOL     OW32641   3.320   0.731   9.577 -0.4553 -0.4534 -0.2180
 7060SOL    HW132642   3.338   0.822   9.601  2.0004 -1.1349  0.4932
 7060SOL    HW232643   3.327   0.691   9.664  1.3698  1.7455  0.6419
 7061SOL     OW32644   1.948   1.546  17.127 -0.5680  0.6979 -0.2428
 7061SOL    HW132645   1.867   1.596  17.128 -2.0115 -1.6413 -1.5984
 7061SOL    HW232646   2.002   1.616  17.165 -0.3383  0.0826  0.5628
 7062SOL     OW32647   3.474   3.820   9.049 -0.5151 -0.3972  0.5315
 7062SOL    HW132648   3.427   3.739   9.069  0.4356 -1.0497  0.1070
 7062SOL    HW232649   3.407   3.887   9.037 -0.6994 -1.1305 -2.3532
 7063SOL     OW32650   4.059   3.781  13.481 -0.6988  0.4721  0.2070
 7063SOL    HW132651   4.034   3.702  13.432  1.9742 -0.0291 -0.3214
 7063SOL    HW232652   4.083   3.836  13.407  0.0215  1.0976  0.9040
 7064SOL     OW32653   1.903   2.475  16.891 -0.4617 -0.1438 -0.3568
 7064SOL    HW132654   1.964   2.406  16.914  1.1852  0.7761 -1.9226
 7064SOL    HW232655   1.923   2.541  16.957  1.1096  0.2980 -1.2694
 7065SOL     OW32656   2.360   3.810  14.459  0.0594  0.4694 -0.4342
 7065SOL    HW132657   2.390   3.803  14.550  1.0585 -1.7879 -0.9543
 7065SOL    HW232658   2.405   3.892  14.438  0.9299 -0.1847 -1.0733
 7066SOL     OW32659   1.114   1.482   8.687  0.3457  0.2970  0.9219
 7066SOL    HW132660   1.183   1.444   8.632 -2.0759 -1.4594 -0.9085
 7066SOL    HW232661   1.046   1.414   8.683  0.1064  0.4038  2.9135
 7067SOL     OW32662   1.010   2.679   3.807 -0.1741  0.9360 -0.4289
 7067SOL    HW132663   1.061   2.697   3.728  1.2620  1.4287  0.6203
 7067SOL    HW232664   1.051   2.747   3.860 -2.5640  0.0677  2.5646
 7068SOL     OW32665   2.926   0.226   1.642  0.1044  0.5723 -0.4790
 7068SOL    HW132666   2.999   0.244   1.701 -0.3162  1.9682 -0.3907
 7068SOL    HW232667   2.972   0.151   1.605  1.4063  0.7362  0.7975
 7069SOL     OW32668   2.500   3.879   3.945 -0.2613 -0.1433  0.6031
 7069SOL    HW132669   2.470   3.968   3.927 -0.7032  0.2288  3.2437
 7069SOL    HW232670   2.466   3.833   3.868  1.1947  1.3053 -0.9001
 7070SOL     OW32671   1.119   3.676   3.919 -0.5455 -0.5968  0.3443
 7070SOL    HW132672   1.081   3.749   3.968  1.4082 -0.0959  1.1168
 7070SOL    HW232673   1.156   3.730   3.849 -2.7722  1.8116  1.0422
 7071SOL     OW32674   0.807   3.404   4.085  0.8029 -0.2336  0.4205
 7071SOL    HW132675   0.858   3.415   4.005 -0.8435  2.2157 -0.3102
 7071SOL    HW232676   0.794   3.495   4.114  1.5913 -0.2835  0.9217
 7072SOL     OW32677   1.258   2.319  12.712  0.6471  0.0746 -0.1547
 7072SOL    HW132678   1.168   2.294  12.732  0.6162 -2.0017 -2.9143
 7072SOL    HW232679   1.296   2.333  12.799 -2.3934 -0.1360  1.1970
 7073SOL     OW32680   1.330   3.994   4.213 -0.1218  0.2053  0.3693
 7073SOL    HW132681   1.274   4.068   4.192 -1.5968 -0.7777  0.8487
 7073SOL    HW232682   1.403   4.020   4.156 -0.0620 -0.8916 -0.0612
 7074SOL     OW32683   2.820   0.905   3.601  0.5772  0.5686 -0.0041
 7074SOL    HW132684   2.893   0.940   3.551 -0.2750  2.4703  0.1039
 7074SOL    HW232685   2.866   0.919   3.684 -0.5242 -1.5338  0.9713
 7075SOL     OW32686   2.243   1.734   5.044  0.3735  0.2427  0.5375
 7075SOL    HW132687   2.234   1.826   5.066 -1.7166  0.3180 -0.6415
 7075SOL    HW232688   2.153   1.710   5.021  0.5634 -1.3653  1.4660
 7076SOL     OW32689   4.153   0.813   7.370  0.6798  0.2185 -0.0453
 7076SOL    HW132690   4.090   0.847   7.306 -1.1191 -1.5379  0.7838
 7076SOL    HW232691   4.206   0.743   7.330  1.9523  1.5927 -0.7499
 7077SOL     OW32692   1.678   2.998   7.287 -0.2672 -0.5279 -0.5306
 7077SOL    HW132693   1.669   3.087   7.252 -3.7530 -0.1222  1.4895
 7077SOL    HW232694   1.669   3.016   7.380 -0.0511 -0.4596 -0.5213
 7078SOL     OW32695   0.823   3.722   5.633 -0.2226 -0.2868  0.4923
 7078SOL    HW132696   0.805   3.718   5.727  0.2064  0.8156  0.6137
 7078SOL    HW232697   0.873   3.641   5.624  1.6028  1.0240 -0.9242
 7079SOL     OW32698   0.967   1.997  17.516 -0.5392 -0.0039 -0.3261
 7079SOL    HW132699   1.001   2.070  17.567 -2.2073  0.1387  0.6069
 7079SOL    HW232700   1.041   1.979  17.458 -0.6862  1.2559 -0.9088
 7080SOL     OW32701   2.743   4.201   1.012  0.2480 -0.5375  0.2498
 7080SOL    HW132702   2.689   4.142   1.064  1.4338  0.2876  2.3988
 7080SOL    HW232703   2.764   4.272   1.073 -1.6389  0.0710  0.1875
 7081SOL     OW32704   3.250   1.666   7.163 -0.0773 -0.1307  0.1434
 7081SOL    HW132705   3.237   1.752   7.125  1.6608 -0.2272 -0.6829
 7081SOL    HW232706   3.161   1.650   7.192 -0.2675  0.7610  0.0451
 7082SOL     OW32707   4.391   2.402   6.809 -0.5891  0.6012  0.3171
 7082SOL    HW132708   4.320   2.447   6.855 -1.7579 -0.9189 -0.0108
 7082SOL    HW232709   4.367   2.431   6.721 -0.6016 -0.1732  0.0707
 7083SOL     OW32710   2.284   1.740   8.044  0.3263 -0.1914  0.1588
 7083SOL    HW132711   2.236   1.667   8.084  1.5684 -1.1713 -0.1445
 7083SOL    HW232712   2.373   1.707   8.048  0.1463 -0.6345  0.5364
 7084SOL     OW32713   0.638   1.947   3.436  0.0293 -0.3758 -0.1431
 7084SOL    HW132714   0.591   1.976   3.515 -2.1105 -2.2669 -0.7072
 7084SOL    HW232715   0.562   1.945   3.378 -1.5193 -1.2087  1.8936
 7085SOL     OW32716   0.484   1.043   8.533 -0.2842 -0.1728 -0.1126
 7085SOL    HW132717   0.487   0.995   8.616 -0.2119  0.5928  0.3283
 7085SOL    HW232718   0.420   1.109   8.563 -0.5826  0.3706 -1.9398
 7086SOL     OW32719   2.301   4.426   2.346 -0.2207  0.1601 -0.1161
 7086SOL    HW132720   2.375   4.369   2.325 -0.3783 -0.0205 -0.1827
 7086SOL    HW232721   2.339   4.505   2.307  2.8528 -1.1866  0.1297
 7087SOL     OW32722   2.643   1.546   2.541  0.2272  0.3748 -0.2019
 7087SOL    HW132723   2.704   1.593   2.597  0.4675  0.3569 -0.4486
 7087SOL    HW232724   2.693   1.537   2.460 -0.4800 -0.0698 -0.5848
 7088SOL     OW32725   2.357   3.411   4.266  0.2180  0.3081  0.3097
 7088SOL    HW132726   2.277   3.401   4.214 -0.2358 -1.7153  1.4125
 7088SOL    HW232727   2.383   3.500   4.241 -0.2568  0.4265  0.2468
 7089SOL     OW32728   3.220   0.185   8.222  0.0936 -0.2685 -0.1139
 7089SOL    HW132729   3.140   0.133   8.222 -0.7154  0.9712  0.7457
 7089SOL    HW232730   3.274   0.142   8.156  1.2980  0.1207  0.6041
 7090SOL     OW32731   3.891   4.247   1.358 -0.0441  0.0786  0.5600
 7090SOL    HW132732   3.827   4.179   1.336  0.4966  0.0974 -1.1067
 7090SOL    HW232733   3.944   4.256   1.278 -0.5687 -0.8354  0.1014
 7091SOL     OW32734   3.429   3.177   4.652 -1.4573  0.2400 -0.5910
 7091SOL    HW132735   3.457   3.150   4.565  3.6680  1.4843  0.6667
 7091SOL    HW232736   3.435   3.272   4.649  2.9321 -0.0410 -0.8522
 7092SOL     OW32737   3.180   2.057  15.394 -0.6364  0.3538  0.2452
 7092SOL    HW132738   3.245   2.082  15.460 -3.1175  3.0754  1.6751
 7092SOL    HW232739   3.190   1.962  15.391  0.8530  0.5803 -1.5864
 7093SOL     OW32740   2.783   2.711  10.875  0.1112  0.0879 -0.0172
 7093SOL    HW132741   2.783   2.649  10.948 -0.5825 -0.6446 -0.6388
 7093SOL    HW232742   2.870   2.748  10.887  0.0332  0.6480 -1.2284
 7094SOL     OW32743   2.190   0.244  15.934 -0.1785 -0.0483 -0.4191
 7094SOL    HW132744   2.156   0.168  15.981  1.0046 -1.1753 -1.4174
 7094SOL    HW232745   2.249   0.207  15.869  0.8181  3.5667 -1.5716
 7095SOL     OW32746   1.935   2.060   8.031  0.4323  0.2223  0.2380
 7095SOL    HW132747   1.876   2.126   7.995  1.4734  0.9543 -0.1188
 7095SOL    HW232748   1.982   2.120   8.088  0.0837  0.5042  0.2279
 7096SOL     OW32749   3.905   4.656   3.054 -0.5402  0.0634  0.2228
 7096SOL    HW132750   3.967   4.699   3.113  0.1219  0.1588 -0.5562
 7096SOL    HW232751   3.911   0.004   2.992 -0.9546 -0.3071 -0.2494
 7097SOL     OW32752   3.037   3.955   7.198 -0.1629 -0.4374 -0.2977
 7097SOL    HW132753   2.957   4.004   7.182  0.7410  1.0694 -0.2255
 7097SOL    HW232754   3.064   3.946   7.107  0.5520 -0.7928 -0.0495
 7098SOL     OW32755   2.993   3.914   4.975 -0.2922 -0.4577  0.2814
 7098SOL    HW132756   3.038   3.998   4.978  0.3623 -0.8134  0.4378
 7098SOL    HW232757   2.983   3.910   4.880 -1.7570 -3.0907  0.5376
 7099SOL     OW32758   2.151   3.764   5.511 -0.1376 -0.6380  0.6341
 7099SOL    HW132759   2.146   3.841   5.456 -1.4169 -1.3581 -0.2720
 7099SOL    HW232760   2.085   3.779   5.579 -0.4840  0.7750 -0.0327
 7100SOL     OW32761   2.739   0.985  16.710  0.0554  0.0200  0.1030
 7100SOL    HW132762   2.827   0.960  16.737 -0.1917 -0.9061  0.0535
 7100SOL    HW232763   2.750   1.019  16.622 -0.6004 -2.3264 -0.8864
 7101SOL     OW32764   2.296   1.812  16.600 -0.2802 -0.2950  0.0127
 7101SOL    HW132765   2.390   1.806  16.586 -0.0663 -2.3970  2.3471
 7101SOL    HW232766   2.260   1.806  16.511  1.2151  3.6393 -0.8410
 7102SOL     OW32767   3.319   0.097   1.328 -0.2173  0.9114 -0.1805
 7102SOL    HW132768   3.297   0.190   1.335 -2.4975  0.2959  0.7971
 7102SOL    HW232769   3.339   0.087   1.235 -0.4837 -2.2962  0.1048
 7103SOL     OW32770   0.008   1.377   7.448 -0.0391 -0.2936 -0.1772
 7103SOL    HW132771   0.099   1.405   7.448 -0.3455  0.6991  0.2988
 7103SOL    HW232772   4.694   1.464   7.446 -0.7099 -0.6306 -1.7626
 7104SOL     OW32773   1.923   1.459  16.274 -0.3643 -0.6798  0.1485
 7104SOL    HW132774   1.931   1.398  16.347 -0.7859 -1.2621 -0.2948
 7104SOL    HW232775   1.915   1.544  16.318  0.2705 -0.2044 -0.6488
 7105SOL     OW32776   1.924   3.517  12.509  0.2560  0.6243 -0.1005
 7105SOL    HW132777   1.874   3.437  12.529  0.8710  0.2595 -0.0080
 7105SOL    HW232778   1.967   3.469  12.438  0.8236  0.9602  0.0108
 7106SOL     OW32779   4.532   0.618   4.799 -0.3309  0.4689 -0.4422
 7106SOL    HW132780   4.516   0.711   4.786  0.8273  0.8037  0.5019
 7106SOL    HW232781   4.506   0.587   4.712  1.3332  0.3513 -0.8963
 7107SOL     OW32782   3.794   0.387   0.821 -0.3099  0.1537  0.7005
 7107SOL    HW132783   3.855   0.460   0.811  1.1509 -1.2130 -0.4280
 7107SOL    HW232784   3.721   0.415   0.877 -1.9402 -0.9126 -0.9020
 7108SOL     OW32785   0.821   1.063   5.645 -0.4557 -0.2478 -0.1131
 7108SOL    HW132786   0.894   1.117   5.677 -1.2951  1.1923 -0.6231
 7108SOL    HW232787   0.783   1.129   5.587  1.5984  0.6251 -0.4818
 7109SOL     OW32788   3.469   4.045  16.867 -0.1875  0.3692  0.3299
 7109SOL    HW132789   3.495   4.130  16.833 -0.0642  0.3362  0.3437
 7109SOL    HW232790   3.553   4.000  16.874  0.3504  0.8587 -2.7185
 7110SOL     OW32791   3.405   3.138   7.055  0.0403 -0.2450 -0.2876
 7110SOL    HW132792   3.468   3.133   7.126 -2.2726 -0.5546  1.7549
 7110SOL    HW232793   3.359   3.219   7.077  0.6153  0.3183 -1.1515
 7111SOL     OW32794   3.263   0.299   9.303 -0.6450 -0.0827 -0.4964
 7111SOL    HW132795   3.330   0.365   9.287 -1.6888  1.0750 -0.0554
 7111SOL    HW232796   3.205   0.307   9.228 -1.6096  1.3570  0.3986
 7112SOL     OW32797   1.840   3.612   6.991 -0.2065  0.3819  0.0569
 7112SOL    HW132798   1.770   3.645   7.048 -0.4315 -1.0959  0.6443
 7112SOL    HW232799   1.885   3.691   6.961 -0.5276  1.2828  1.9284
 7113SOL     OW32800   0.461   2.191  17.658  0.5099  0.7149  0.1806
 7113SOL    HW132801   0.464   2.097  17.636 -0.3030  0.9934 -1.1367
 7113SOL    HW232802   0.536   2.203   0.016 -0.6876 -0.3419  1.9413
 7114SOL     OW32803   3.221   0.560  11.976  0.4210 -0.3067 -0.5592
 7114SOL    HW132804   3.228   0.484  12.034 -3.1731  0.1380  0.4548
 7114SOL    HW232805   3.213   0.630  12.040  0.4117 -0.7315 -0.0978
 7115SOL     OW32806   4.192   4.481   5.297 -0.0325 -0.6175 -0.2688
 7115SOL    HW132807   4.110   4.441   5.270  0.1893  0.2278 -2.2667
 7115SOL    HW232808   4.207   4.426   5.373  1.5590 -0.7313 -0.6509
 7116SOL     OW32809   4.041   1.174   3.199 -0.5222 -0.6793 -0.0228
 7116SOL    HW132810   4.086   1.257   3.179 -0.1302 -0.0623  3.5092
 7116SOL    HW232811   4.019   1.156   3.107 -0.0390 -0.1473 -0.2481
 7117SOL     OW32812   2.227   3.889   6.600 -0.1027 -0.5578 -0.1219
 7117SOL    HW132813   2.151   3.944   6.581  0.3239  0.2462  0.5176
 7117SOL    HW232814   2.283   3.951   6.646 -1.9407  2.8662 -2.4667
 7118SOL     OW32815   4.339   3.428   8.489 -0.8229 -1.0443  0.0807
 7118SOL    HW132816   4.258   3.430   8.438 -0.1850  1.3757 -0.8801
 7118SOL    HW232817   4.401   3.415   8.417 -0.1808  0.7267  0.3029
 7119SOL     OW32818   3.340   4.289  12.402 -0.2907 -0.1955  0.2105
 7119SOL    HW132819   3.422   4.320  12.439  0.0989 -0.7317 -0.2226
 7119SOL    HW232820   3.293   4.277  12.485  2.4278  2.0361  2.0320
 7120SOL     OW32821   3.134   2.015   7.834  0.2255  0.2771 -0.2452
 7120SOL    HW132822   3.104   2.055   7.915  0.3663 -1.2821  0.5833
 7120SOL    HW232823   3.167   2.092   7.788 -0.5186  0.3490 -0.6531
 7121SOL     OW32824   2.499   0.804  11.719 -0.5195 -0.4207 -0.6513
 7121SOL    HW132825   2.417   0.776  11.759 -0.2959  0.5396  0.4812
 7121SOL    HW232826   2.557   0.793  11.794 -2.2471 -0.7091  0.6216
 7122SOL     OW32827   3.219   3.337  13.101  0.2763  0.2637  0.4039
 7122SOL    HW132828   3.155   3.386  13.049  1.0783  1.4032  0.5186
 7122SOL    HW232829   3.174   3.346  13.184 -0.7486  1.0162 -0.2318
 7123SOL     OW32830   1.600   2.347   3.020  0.0628 -0.5808  0.0632
 7123SOL    HW132831   1.569   2.400   3.094  1.4634 -0.9230  0.8975
 7123SOL    HW232832   1.693   2.331   3.036  0.3218  0.6615 -0.1947
 7124SOL     OW32833   4.422   1.785   7.276  0.0480 -0.1848 -0.3241
 7124SOL    HW132834   4.443   1.827   7.360  1.2992 -1.9369  0.2427
 7124SOL    HW232835   4.466   1.835   7.208 -0.1111  0.8126  0.2968
 7125SOL     OW32836   1.501   1.394   3.700  0.3987 -0.2907 -0.2276
 7125SOL    HW132837   1.578   1.343   3.726 -0.7017 -1.9187 -0.1915
 7125SOL    HW232838   1.457   1.327   3.648 -0.4511  0.8734 -0.9987
 7126SOL     OW32839   0.575   2.463  13.909 -0.3242 -0.1574  0.0069
 7126SOL    HW132840   0.595   2.552  13.881  0.4361  0.0892  1.3497
 7126SOL    HW232841   0.617   2.401  13.849  0.2765 -0.1683  0.4344
 7127SOL     OW32842   2.463   2.426   4.535  0.0772  0.1291 -0.0278
 7127SOL    HW132843   2.495   2.403   4.448 -2.2922 -0.7260 -0.6732
 7127SOL    HW232844   2.372   2.453   4.527 -0.3130 -2.3366 -4.0048
 7128SOL     OW32845   1.481   0.431   2.812 -0.0837 -0.0467  0.1520
 7128SOL    HW132846   1.524   0.372   2.750 -0.3925 -0.0482 -0.0625
 7128SOL    HW232847   1.508   0.518   2.783 -0.7816  0.5378  1.2756
 7129SOL     OW32848   3.854   1.592   0.796  0.2894 -0.5279 -0.4145
 7129SOL    HW132849   3.838   1.535   0.871 -0.7508 -1.1831 -1.1417
 7129SOL    HW232850   3.818   1.676   0.826 -1.4573 -1.1633 -0.7656
 7130SOL     OW32851   2.500   3.735   1.737 -0.1342  0.2193  0.1300
 7130SOL    HW132852   2.549   3.800   1.687 -0.8873  1.0001  0.4162
 7130SOL    HW232853   2.411   3.769   1.726  0.1925  1.2821  0.7951
 7131SOL     OW32854   1.347   3.826  16.769 -0.2022  0.4524  0.0231
 7131SOL    HW132855   1.411   3.856  16.834  0.4786 -0.6400 -0.1500
 7131SOL    HW232856   1.281   3.800  16.832 -0.0712 -1.3933 -0.6214
 7132SOL     OW32857   4.432   0.496  17.584  0.7545 -0.0893 -0.0359
 7132SOL    HW132858   4.357   0.534  17.630 -0.9879 -0.3006 -2.7304
 7132SOL    HW232859   4.484   0.573  17.562 -1.2341  1.3849  0.4596
 7133SOL     OW32860   4.235   3.977   5.301 -0.4865  0.1604 -0.0298
 7133SOL    HW132861   4.286   4.009   5.226  0.1431  0.6762  0.6244
 7133SOL    HW232862   4.145   3.970   5.270 -0.7786 -1.2419  1.1647
 7134SOL     OW32863   4.537   2.923   4.017  0.0033  0.3235  0.1608
 7134SOL    HW132864   4.456   2.876   3.994  0.6242  0.2095 -1.7744
 7134SOL    HW232865   4.565   2.878   4.096 -0.8959 -0.8009 -0.1594
 7135SOL     OW32866   1.368   2.616   3.858 -0.3013  0.3013  0.0119
 7135SOL    HW132867   1.354   2.672   3.782  2.6574  0.0680 -0.6985
 7135SOL    HW232868   1.373   2.536   3.806 -0.3004  0.7394 -0.6614
 7136SOL     OW32869   1.906   2.480   2.869 -0.1098 -0.7066  0.0158
 7136SOL    HW132870   1.952   2.476   2.785  1.4539  0.8121  0.8164
 7136SOL    HW232871   1.839   2.544   2.846  1.0082 -0.1026 -1.5507
 7137SOL     OW32872   4.527   0.250  13.276 -0.1339  0.4440  0.4492
 7137SOL    HW132873   4.483   0.224  13.358  0.7861 -1.7247  0.2523
 7137SOL    HW232874   4.547   0.161  13.246  1.1488  0.8385  0.1869
 7138SOL     OW32875   1.835   0.911   5.523 -0.3110  0.1028  0.5084
 7138SOL    HW132876   1.883   0.848   5.469 -0.2613  0.6140 -0.0442
 7138SOL    HW232877   1.757   0.926   5.470  0.2661 -0.8439 -0.5897
 7139SOL     OW32878   2.396   1.362   0.507  0.3483 -0.2094  0.0743
 7139SOL    HW132879   2.348   1.318   0.577 -0.1078  0.3616  0.1178
 7139SOL    HW232880   2.326   1.361   0.442 -1.1943 -0.8197  1.7436
 7140SOL     OW32881   1.552   4.320  12.724 -0.5823 -0.0615  0.6687
 7140SOL    HW132882   1.529   4.396  12.671 -1.9486 -1.2119 -0.3783
 7140SOL    HW232883   1.471   4.306  12.772 -2.3749  1.3545 -1.9921
 7141SOL     OW32884   3.302   2.626   9.880 -0.1053 -0.4993 -0.6892
 7141SOL    HW132885   3.281   2.550   9.826  0.2830  1.9388 -4.2144
 7141SOL    HW232886   3.396   2.627   9.861  0.1083 -0.4554  0.3749
 7142SOL     OW32887   2.448   3.650   0.984  0.1607 -0.0279  0.1520
 7142SOL    HW132888   2.447   3.705   1.062 -1.5143 -1.1725  0.9512
 7142SOL    HW232889   2.360   3.616   1.000  0.1462  0.6443  1.5187
 7143SOL     OW32890   1.378   2.050  15.919  0.2480  0.7910 -0.6795
 7143SOL    HW132891   1.319   2.006  15.980  2.3293  0.3341  1.0095
 7143SOL    HW232892   1.466   2.024  15.945  0.1856 -0.0547 -1.3009
 7144SOL     OW32893   1.837   3.874   6.597  0.3046  0.0998 -0.9481
 7144SOL    HW132894   1.779   3.940   6.559  0.9748  1.5031  0.5133
 7144SOL    HW232895   1.789   3.791   6.593  0.3895 -0.0297  0.9782
 7145SOL     OW32896   2.412   4.342  15.152  0.0374  0.6095  0.2496
 7145SOL    HW132897   2.444   4.422  15.111 -0.0176  0.3437 -0.3076
 7145SOL    HW232898   2.348   4.318  15.085  0.0608  0.1018  0.4034
 7146SOL     OW32899   4.042   2.013   1.818  0.1631 -0.7373  0.2588
 7146SOL    HW132900   3.964   1.979   1.862  0.0642  1.3916  1.7234
 7146SOL    HW232901   4.020   2.097   1.780 -0.2330 -0.4956  1.0343
 7147SOL     OW32902   2.961   2.754   1.224 -0.3910  0.3344  0.1266
 7147SOL    HW132903   3.025   2.683   1.217  1.5812  2.0522  0.6594
 7147SOL    HW232904   2.882   2.701   1.214 -1.2550  1.8421 -1.0957
 7148SOL     OW32905   4.348   3.078  15.426  0.4830 -0.7210 -0.2459
 7148SOL    HW132906   4.269   3.088  15.373 -1.6092  1.2356  3.2354
 7148SOL    HW232907   4.393   3.004  15.385  0.6897 -0.0173 -1.3004
 7149SOL     OW32908   1.647   3.131  13.353  0.2366 -0.8369 -0.1064
 7149SOL    HW132909   1.566   3.105  13.310 -0.9085 -0.9020  2.0935
 7149SOL    HW232910   1.644   3.225  13.331 -1.0283 -0.8405  0.0733
 7150SOL     OW32911   2.458   2.540   5.656 -0.3585 -0.4761  0.5041
 7150SOL    HW132912   2.372   2.518   5.690 -0.1259 -0.2477  1.2321
 7150SOL    HW232913   2.442   2.600   5.583  3.1314  2.6594  2.2636
 7151SOL     OW32914   4.197   4.677   7.795 -0.8140 -0.0038  0.0222
 7151SOL    HW132915   4.122   4.643   7.843 -0.4798  0.7719  1.1095
 7151SOL    HW232916   4.256   4.604   7.815  0.3011  0.4241 -1.7147
 7152SOL     OW32917   4.399   0.985   8.661 -0.7648  0.3202 -0.7721
 7152SOL    HW132918   4.410   0.897   8.626  0.0690  0.6917 -1.4475
 7152SOL    HW232919   4.431   1.041   8.590  2.4042 -0.5811 -0.0219
 7153SOL     OW32920   2.131   4.437   6.619  0.4681 -0.1090  0.7564
 7153SOL    HW132921   2.209   4.466   6.573  0.0360  0.4247  0.3619
 7153SOL    HW232922   2.163   4.391   6.697  0.2569 -2.4271 -0.5272
 7154SOL     OW32923   0.674   1.842   2.018 -0.1189 -0.3799 -0.2737
 7154SOL    HW132924   0.677   1.890   1.935  0.7225 -1.1453 -0.6960
 7154SOL    HW232925   0.654   1.914   2.077 -1.0881 -0.4072 -0.5734
 7155SOL     OW32926   4.629   0.672   7.751  0.0143  0.3066  0.0371
 7155SOL    HW132927   4.549   0.724   7.760  0.9789  1.8785 -0.5700
 7155SOL    HW232928   4.603   0.586   7.786 -2.0779  1.8847  2.3187
 7156SOL     OW32929   0.632   4.119   8.031 -0.4529  0.2257  0.3334
 7156SOL    HW132930   0.551   4.127   8.081 -1.3388 -1.4985 -0.8413
 7156SOL    HW232931   0.663   4.204   8.064  0.5793  0.9124 -2.4198
 7157SOL     OW32932   4.678   4.460   6.475  0.1559  0.3072 -0.6904
 7157SOL    HW132933   4.648   4.529   6.416  2.7858  3.2975  1.4748
 7157SOL    HW232934   4.595   4.442   6.518  0.5876  1.9625  0.8003
 7158SOL     OW32935   4.202   3.459   3.371 -0.2915 -0.5978 -0.5823
 7158SOL    HW132936   4.237   3.539   3.412 -0.6721 -1.0845  0.6776
 7158SOL    HW232937   4.274   3.398   3.387 -1.6524 -1.6589  1.3863
 7159SOL     OW32938   1.520   4.712   4.924 -0.0515  0.0343  0.8672
 7159SOL    HW132939   1.607   4.673   4.930  0.3523  1.1620  2.3318
 7159SOL    HW232940   1.545   0.066   4.874 -1.4814  0.4755  0.8285
 7160SOL     OW32941   3.147   1.937   2.074 -0.0441 -0.2483  0.4734
 7160SOL    HW132942   3.121   2.029   2.068  2.2870  0.4650  1.2189
 7160SOL    HW232943   3.101   1.898   2.000 -0.7124  1.3045  0.0717
 7161SOL     OW32944   3.730   3.987  10.792  0.7556  0.1117 -0.1798
 7161SOL    HW132945   3.730   4.082  10.791  3.0447  0.1160  2.3658
 7161SOL    HW232946   3.695   3.967  10.878 -0.1797  1.1153 -0.3305
 7162SOL     OW32947   2.778   1.601   7.955 -0.2163 -0.0207 -0.2026
 7162SOL    HW132948   2.824   1.517   7.953 -1.2539 -0.6800  3.6558
 7162SOL    HW232949   2.850   1.654   7.989  0.4159 -1.8053  1.2516
 7163SOL     OW32950   1.624   0.063   8.264  0.2518  0.3150  0.4626
 7163SOL    HW132951   1.656   4.715   8.211  2.1182  0.4853  1.3672
 7163SOL    HW232952   1.670   0.033   8.342  1.6173 -1.9015 -1.2082
 7164SOL     OW32953   4.456   2.952   7.171 -0.1022  0.6196  0.0413
 7164SOL    HW132954   4.511   3.028   7.155 -1.4404  1.8304  1.1747
 7164SOL    HW232955   4.370   2.994   7.167 -0.6002 -0.2659  1.3479
 7165SOL     OW32956   1.009   2.083   6.569  0.0981  0.2845 -0.2479
 7165SOL    HW132957   0.960   2.108   6.647 -1.3481  2.0951 -1.7494
 7165SOL    HW232958   1.089   2.053   6.612  1.8044  1.2556 -2.7608
 7166SOL     OW32959   3.889   3.151   7.244  0.4879  0.5580  0.6901
 7166SOL    HW132960   3.828   3.099   7.192  4.2837 -1.4948 -1.6592
 7166SOL    HW232961   3.814   3.187   7.291 -0.9775 -0.8193 -0.5868
 7167SOL     OW32962   0.019   4.649   2.201  0.1122  0.0465 -0.0705
 7167SOL    HW132963   0.028   0.009   2.157 -2.5899  0.1116 -0.5029
 7167SOL    HW232964   4.678   4.603   2.149 -0.2567 -0.6195  0.9867
 7168SOL     OW32965   3.855   4.516  16.899  0.3693  0.2509 -0.2760
 7168SOL    HW132966   3.798   4.519  16.976  1.2621  0.7252  0.3792
 7168SOL    HW232967   3.916   4.589  16.913 -0.2985  0.6162  0.7792
 7169SOL     OW32968   3.249   4.692   5.577 -0.1871 -0.2812  0.5138
 7169SOL    HW132969   3.234   0.038   5.640  0.6672  0.2824  0.0881
 7169SOL    HW232970   3.190   0.002   5.509 -0.7408  0.8902  1.5963
 7170SOL     OW32971   3.124   3.287   4.080  0.4999 -0.3856 -0.1837
 7170SOL    HW132972   3.116   3.311   3.988  0.5418 -0.4669 -0.2089
 7170SOL    HW232973   3.033   3.305   4.103  0.7996 -0.4209  1.0279
 7171SOL     OW32974   1.799   0.582   5.637 -0.1577  0.3505 -0.1900
 7171SOL    HW132975   1.830   0.670   5.659 -0.2538  0.5363 -0.8128
 7171SOL    HW232976   1.707   0.586   5.660  0.3517  0.1405  1.8954
 7172SOL     OW32977   1.860   3.627   4.933 -0.0683  0.3125 -0.1682
 7172SOL    HW132978   1.771   3.621   4.966  0.7457  2.6135  2.3904
 7172SOL    HW232979   1.845   3.643   4.840 -0.3315 -0.3889 -0.2514
 7173SOL     OW32980   3.056   4.434   5.547  0.2974  0.1551  0.5036
 7173SOL    HW132981   3.096   4.446   5.633  2.2717  0.0770 -0.4149
 7173SOL    HW232982   3.132   4.424   5.491  0.4947  2.0579  0.4338
 7174SOL     OW32983   2.115   2.123   7.034 -0.3319  0.1132  0.6630
 7174SOL    HW132984   2.133   2.217   7.031  1.5287 -0.3126 -1.5389
 7174SOL    HW232985   2.039   2.128   7.092  0.3656  1.3401  1.4648
 7175SOL     OW32986   3.903   3.239  14.298 -0.9708 -0.0604  0.2986
 7175SOL    HW132987   3.832   3.187  14.260 -0.1880 -2.6645  2.4047
 7175SOL    HW232988   3.904   3.324  14.254  0.2728 -0.0924  0.2774
 7176SOL     OW32989   4.528   1.905   6.954  0.1774 -0.0511 -0.0562
 7176SOL    HW132990   4.485   1.953   6.883 -0.7900  0.6397  0.9930
 7176SOL    HW232991   4.458   1.842   6.975  0.7308  0.0744  2.0868
 7177SOL     OW32992   3.072   0.660   3.180 -0.5277  0.0691  0.0958
 7177SOL    HW132993   2.987   0.617   3.170  0.8227 -3.0233  1.9115
 7177SOL    HW232994   3.093   0.647   3.273  2.5061 -0.5110 -0.6832
 7178SOL     OW32995   2.317   4.230  12.251 -0.6938 -0.3335 -0.0555
 7178SOL    HW132996   2.296   4.209  12.159 -0.4140  0.4144 -0.2837
 7178SOL    HW232997   2.249   4.173  12.288  0.0155 -1.2354 -0.1295
 7179SOL     OW32998   0.818   0.999  12.747 -0.1304 -0.1215 -0.0786
 7179SOL    HW132999   0.849   0.912  12.772  0.3750  0.8235  2.5749
 7179SOL    HW233000   0.865   1.012  12.664  0.2417  1.8355  0.4387
 7180SOL     OW33001   0.977   2.171   1.018 -0.5874 -0.4293 -0.2435
 7180SOL    HW133002   0.984   2.076   1.009  1.0663 -0.2110 -1.2198
 7180SOL    HW233003   1.001   2.194   1.108 -0.3436  1.0080 -0.6817
 7181SOL     OW33004   4.419   4.640   3.486  0.1456  0.6152 -0.5745
 7181SOL    HW133005   4.341   4.596   3.452 -0.9370  2.4273 -0.4540
 7181SOL    HW233006   4.485   4.616   3.421 -0.6531 -1.5072 -0.5843
 7182SOL     OW33007   2.683   4.392   0.623 -0.2713  0.3590 -0.9261
 7182SOL    HW133008   2.747   4.387   0.552  0.1007 -0.7994 -0.5080
 7182SOL    HW233009   2.614   4.434   0.571  0.1842 -0.9015 -2.5602
 7183SOL     OW33010   2.440   0.556   5.813  0.1438 -0.1067  0.3529
 7183SOL    HW133011   2.372   0.501   5.852  1.1934 -0.6749  1.3522
 7183SOL    HW233012   2.415   0.543   5.721  1.3156 -2.4868  0.3719
 7184SOL     OW33013   1.403   4.358  17.328 -0.0718  0.1996  0.0604
 7184SOL    HW133014   1.439   4.399  17.249  0.1627 -1.6213 -0.7847
 7184SOL    HW233015   1.474   4.327  17.384 -0.6672 -0.0133  0.7011
 7185SOL     OW33016   4.001   1.532   8.569  0.1771 -0.1598  0.1412
 7185SOL    HW133017   3.946   1.544   8.645 -0.0167 -3.6826  0.5608
 7185SOL    HW233018   4.026   1.624   8.561  1.4135 -0.4768  0.2551
 7186SOL     OW33019   4.200   2.405   6.424  0.4390 -0.3757  0.4162
 7186SOL    HW133020   4.161   2.390   6.510 -1.7018  1.6001 -0.2310
 7186SOL    HW233021   4.193   2.500   6.419  0.1820 -0.5673 -2.6422
 7187SOL     OW33022   4.358   0.131   2.130 -0.2884  0.1925  0.6858
 7187SOL    HW133023   4.277   0.099   2.090 -1.6772  1.7402  2.2792
 7187SOL    HW233024   4.370   0.063   2.196  0.2544 -1.2530 -0.9019
 7188SOL     OW33025   0.950   4.122  17.634 -0.0155  0.1514  0.0113
 7188SOL    HW133026   0.903   4.102   0.015  0.5669 -0.4321  0.1970
 7188SOL    HW233027   0.876   4.124  17.573 -0.8500 -0.7537  0.9996
 7189SOL     OW33028   0.308   0.729   0.812  0.1514  0.0627 -0.8986
 7189SOL    HW133029   0.398   0.698   0.801  0.8366  2.2044 -1.3814
 7189SOL    HW233030   0.290   0.692   0.898  0.4128 -2.5839 -1.9742
 7190SOL     OW33031   3.885   3.675   4.934 -0.0019  0.0523 -0.0599
 7190SOL    HW133032   3.837   3.592   4.932  0.0906  0.0211 -1.1660
 7190SOL    HW233033   3.814   3.739   4.931  1.4204  1.6282  0.3607
 7191SOL     OW33034   0.340   3.826   2.661  0.1657 -0.2756 -0.5701
 7191SOL    HW133035   0.416   3.858   2.613 -1.3943  2.8685 -0.9858
 7191SOL    HW233036   0.378   3.796   2.744 -1.5437  2.1519  1.1042
 7192SOL     OW33037   2.441   2.971   8.163  0.0292  0.0653 -0.4948
 7192SOL    HW133038   2.492   2.899   8.127  1.4395  0.3542  0.9467
 7192SOL    HW233039   2.492   2.986   8.242 -1.9021  2.9544  0.2327
 7193SOL     OW33040   2.589   2.998   8.396 -0.8521 -0.5015  0.2548
 7193SOL    HW133041   2.568   2.982   8.488 -0.9367 -2.2024 -0.0602
 7193SOL    HW233042   2.650   2.927   8.374  0.6921  0.1646  2.3853
 7194SOL     OW33043   2.840   1.086   8.585 -0.1184 -0.0049  0.2460
 7194SOL    HW133044   2.927   1.054   8.607 -0.3187 -1.8442 -1.5957
 7194SOL    HW233045   2.810   1.138   8.659 -4.3332 -1.2806 -0.5338
 7195SOL     OW33046   0.836   3.875   7.026  0.0479  0.5493 -0.6735
 7195SOL    HW133047   0.894   3.945   6.997  1.1078 -0.2713 -0.4985
 7195SOL    HW233048   0.766   3.930   7.062  0.5636 -0.4846  1.8537
 7196SOL     OW33049   2.922   1.157   2.828  0.0166  0.1881 -0.2980
 7196SOL    HW133050   2.888   1.226   2.884 -0.8845  1.7047 -2.6735
 7196SOL    HW233051   2.844   1.103   2.816  0.3494 -0.2961 -0.2539
 7197SOL     OW33052   1.085   4.121  12.013  0.3901 -0.2277 -0.7914
 7197SOL    HW133053   1.004   4.147  12.057  0.3021 -0.8337 -0.5999
 7197SOL    HW233054   1.048   4.094  11.929 -1.9471 -1.5553  0.6485
 7198SOL     OW33055   4.612   4.711   1.892 -0.5132  0.0071  0.1718
 7198SOL    HW133056   4.661   0.058   1.852  1.2073 -1.4868 -0.3527
 7198SOL    HW233057   4.525   0.027   1.894  0.3369  1.7548  1.6595
 7199SOL     OW33058   0.461   2.142   1.728  0.1227 -1.0966 -0.1072
 7199SOL    HW133059   0.550   2.172   1.747 -0.4769  0.8473 -0.3778
 7199SOL    HW233060   0.419   2.222   1.760 -1.2110 -1.2470 -1.5095
 7200SOL     OW33061   4.146   4.134   8.453 -0.3717 -0.3108  0.1593
 7200SOL    HW133062   4.187   4.113   8.369  0.0100 -0.7783  0.4650
 7200SOL    HW233063   4.130   4.228   8.440 -1.6499 -0.6863 -1.0664
 7201SOL     OW33064   1.700   0.496   0.168  0.1342 -0.2659  0.3902
 7201SOL    HW133065   1.794   0.500   0.180  0.1448 -2.9066  1.2130
 7201SOL    HW233066   1.696   0.476   0.075  0.4389  1.6133 -0.0131
 7202SOL     OW33067   2.559   3.051   3.852  0.0025 -0.4950 -0.1689
 7202SOL    HW133068   2.577   2.977   3.910  3.6282 -0.2737 -0.9693
 7202SOL    HW233069   2.642   3.046   3.805 -0.3693 -2.3661 -0.6267
 7203SOL     OW33070   1.550   2.059   9.694 -0.2195 -0.0546 -0.2098
 7203SOL    HW133071   1.616   2.117   9.655  0.9757 -0.0063  1.8839
 7203SOL    HW233072   1.486   2.121   9.729  0.8004  0.7694  0.2008
 7204SOL     OW33073   0.491   3.875   5.548  0.2909  0.2064  0.5749
 7204SOL    HW133074   0.408   3.836   5.574 -0.9441  2.7691  0.4895
 7204SOL    HW233075   0.518   3.919   5.629  0.2743  0.6849  0.3162
 7205SOL     OW33076   2.051   3.856   0.065 -0.2959 -0.1529 -0.3157
 7205SOL    HW133077   2.059   3.776   0.117  1.7584 -1.7819 -3.1013
 7205SOL    HW233078   2.086   3.830  17.680  1.8115  1.4450  0.0782
 7206SOL     OW33079   2.606   0.181   7.084 -0.9440 -0.5694 -0.2508
 7206SOL    HW133080   2.673   0.229   7.132 -1.7146  0.6579 -0.4068
 7206SOL    HW233081   2.570   0.249   7.027 -0.6714 -0.9959 -0.9299
 7207SOL     OW33082   4.089   3.225   3.278  0.0385  0.8372 -0.1052
 7207SOL    HW133083   4.130   3.306   3.311  1.4119  1.0735 -2.4077
 7207SOL    HW233084   4.018   3.220   3.342 -1.9760 -0.7359 -2.4762
 7208SOL     OW33085   2.137   2.229   8.635 -0.0217  0.4354  0.5830
 7208SOL    HW133086   2.202   2.299   8.630  0.2059  0.0617 -1.8335
 7208SOL    HW233087   2.179   2.143   8.630  2.0436  1.4842  0.0932
 7209SOL     OW33088   0.462   2.337   1.257  0.2084 -0.1541 -0.6207
 7209SOL    HW133089   0.439   2.261   1.309 -1.3250 -0.0368 -1.1254
 7209SOL    HW233090   0.524   2.300   1.195  2.4670  1.5643  0.6194
 7210SOL     OW33091   2.176   0.258   2.481  0.6389 -0.4710 -0.0383
 7210SOL    HW133092   2.249   0.307   2.444  1.9665 -3.0603 -0.8862
 7210SOL    HW233093   2.221   0.184   2.523  1.3492 -0.3050 -0.5083
 7211SOL     OW33094   4.571   4.232  13.261  0.8653 -0.3853  0.0691
 7211SOL    HW133095   4.506   4.296  13.230  1.8731  0.6895  0.1971
 7211SOL    HW233096   4.517   4.163  13.300  0.5383  0.0770  0.4450
 7212SOL     OW33097   1.128   4.541   3.288  0.0798 -0.0652  0.4260
 7212SOL    HW133098   1.192   4.477   3.258 -0.8556 -0.6965 -0.2500
 7212SOL    HW233099   1.141   4.539   3.382  0.3542  0.8408  0.4042
 7213SOL     OW33100   0.459   0.187   9.774 -0.3097  0.0667  0.1771
 7213SOL    HW133101   0.468   0.238   9.693  0.1486  1.4338  1.0807
 7213SOL    HW233102   0.428   0.257   9.831  1.2218  0.9165 -0.0245
 7214SOL     OW33103   3.939   1.920   2.275 -0.5216 -0.2301 -0.1532
 7214SOL    HW133104   4.010   1.982   2.260 -0.5341 -0.5741 -1.6805
 7214SOL    HW233105   3.923   1.931   2.368  2.1692 -0.6148  0.3591
 7215SOL     OW33106   1.490   2.662   4.698 -0.1204  0.2117 -0.1454
 7215SOL    HW133107   1.412   2.631   4.651 -0.1785  0.0920  0.0309
 7215SOL    HW233108   1.556   2.648   4.630  0.1754 -0.4645  0.2939
 7216SOL     OW33109   3.492   4.669   5.904 -0.5841 -0.1339  0.3009
 7216SOL    HW133110   3.440   4.664   5.984 -1.4518  0.1554 -0.2401
 7216SOL    HW233111   3.426   4.691   5.837 -0.0277  0.6563  0.0076
 7217SOL     OW33112   4.512   1.749   1.002  0.2972 -0.1798  0.2060
 7217SOL    HW133113   4.457   1.676   1.032  0.0555 -0.9037 -2.0024
 7217SOL    HW233114   4.451   1.819   1.024  1.2434  0.7648 -0.1931
 7218SOL     OW33115   3.974   1.702   6.640  0.4723  0.1499  0.4122
 7218SOL    HW133116   4.020   1.689   6.558  1.8810  0.7766  1.0989
 7218SOL    HW233117   4.010   1.641   6.705 -2.0314  1.1098  2.7296
 7219SOL     OW33118   3.698   0.743   8.132  0.3465  0.2351 -0.0007
 7219SOL    HW133119   3.760   0.742   8.059 -0.0917  0.5860 -0.3812
 7219SOL    HW233120   3.747   0.714   8.209 -0.4906 -0.6595  0.1966
 7220SOL     OW33121   0.933   1.950   7.111 -0.1748  0.1293 -0.0808
 7220SOL    HW133122   0.947   1.876   7.052 -1.8598  0.1126 -0.4446
 7220SOL    HW233123   0.937   1.897   7.191  1.2750 -2.0574 -1.6255
 7221SOL     OW33124   2.102   1.321   9.459 -0.3289 -0.4470  0.1778
 7221SOL    HW133125   2.076   1.330   9.550  2.6604  0.8236  0.8963
 7221SOL    HW233126   2.019   1.308   9.413  0.1913 -0.6720 -0.6905
 7222SOL     OW33127   1.866   4.698   7.213  0.1225  0.0451 -0.4424
 7222SOL    HW133128   1.893   4.619   7.259 -0.4695  0.0329 -0.1133
 7222SOL    HW233129   1.795   4.663   7.159 -1.4369 -0.0956  1.7022
 7223SOL     OW33130   0.894   3.430   3.178 -0.3386 -0.4929  0.2826
 7223SOL    HW133131   0.883   3.500   3.242  0.4889 -0.7097  0.6681
 7223SOL    HW233132   0.948   3.477   3.115 -0.2357  1.1227  1.5759
 7224SOL     OW33133   2.483   4.669  12.989  0.0958  0.0549 -0.4092
 7224SOL    HW133134   2.493   4.601  12.922 -3.8570  0.6563 -1.6115
 7224SOL    HW233135   2.540   0.015  12.957  0.9930 -1.0284 -1.2183
 7225SOL     OW33136   4.053   1.121   1.569 -0.3856 -0.5401 -0.1898
 7225SOL    HW133137   4.130   1.168   1.539 -0.9677 -0.5652 -1.7750
 7225SOL    HW233138   4.002   1.200   1.588  0.6850  0.4686 -1.5085
 7226SOL     OW33139   3.924   1.447   7.747 -0.0525  0.7918  0.3529
 7226SOL    HW133140   3.960   1.467   7.661 -0.8093  0.4535 -0.0507
 7226SOL    HW233141   3.958   1.358   7.761  0.0525  0.6145 -0.9802
 7227SOL     OW33142   0.123   3.328  15.873 -0.0357 -0.0373  0.0157
 7227SOL    HW133143   0.109   3.252  15.930  1.9580 -0.5847 -0.2073
 7227SOL    HW233144   0.039   3.374  15.880  0.5942  1.3409 -1.5580
 7228SOL     OW33145   4.374   3.335   1.773  0.4999 -0.2046 -0.0830
 7228SOL    HW133146   4.281   3.317   1.788  0.4590 -0.9597 -1.2399
 7228SOL    HW233147   4.400   3.245   1.752  1.5929  0.5186 -1.8250
 7229SOL     OW33148   3.621   4.124  12.775 -0.1394 -0.0322  0.2875
 7229SOL    HW133149   3.634   4.208  12.731 -2.4011  0.7019  1.0195
 7229SOL    HW233150   3.642   4.071  12.698  3.7468  1.9023  0.0432
 7230SOL     OW33151   2.190   3.610  14.456 -0.4127  0.1063  0.3435
 7230SOL    HW133152   2.177   3.606  14.551  2.3120 -2.7225  0.5881
 7230SOL    HW233153   2.246   3.687  14.452  1.2274 -1.0894  0.6520
 7231SOL     OW33154   4.656   4.490  16.013 -0.2444 -0.4037  0.2022
 7231SOL    HW133155   4.718   4.550  15.972 -0.4101 -1.6081 -1.8250
 7231SOL    HW233156   4.579   4.545  16.024  0.9428  1.3188 -0.1226
 7232SOL     OW33157   3.937   0.544   4.161  0.1157  0.0853 -0.2198
 7232SOL    HW133158   4.019   0.583   4.192  1.0979 -0.4043 -2.1766
 7232SOL    HW233159   3.978   0.496   4.089 -0.6319 -0.9973  0.0842
 7233SOL     OW33160   1.756   3.472   4.054 -0.1836 -0.3295  0.0013
 7233SOL    HW133161   1.838   3.489   4.101 -0.6456 -0.6204  0.9260
 7233SOL    HW233162   1.761   3.376   4.052  0.2267 -0.2795 -1.5535
 7234SOL     OW33163   1.967   1.145  15.636 -0.0471 -0.1829  0.4077
 7234SOL    HW133164   2.049   1.194  15.629 -1.3931  2.3047  1.6584
 7234SOL    HW233165   1.906   1.202  15.589  0.0669  0.0159  0.4992
 7235SOL     OW33166   3.728   2.158   8.991  0.2170  0.1307 -0.2417
 7235SOL    HW133167   3.744   2.066   9.011 -1.1495  0.4279  2.1601
 7235SOL    HW233168   3.653   2.154   8.932 -0.2127  1.4158  0.2230
 7236SOL     OW33169   1.861   1.790  14.019  0.0030 -0.0342  0.2227
 7236SOL    HW133170   1.791   1.845  13.983 -0.0977  1.9239  3.3483
 7236SOL    HW233171   1.810   1.761  14.094  1.4643  0.8643  1.5556
 7237SOL     OW33172   2.264   1.096  12.110  0.3141  0.0340 -0.1584
 7237SOL    HW133173   2.300   1.092  12.198 -4.0882  3.5695  1.7764
 7237SOL    HW233174   2.330   1.150  12.065 -1.1517  1.4470 -0.5956
 7238SOL     OW33175   2.816   0.901   8.865  0.2875  0.2927  0.3135
 7238SOL    HW133176   2.762   0.895   8.785  2.5425  1.7121 -1.3209
 7238SOL    HW233177   2.761   0.959   8.917  1.1440 -0.3363  1.8930
 7239SOL     OW33178   3.116   4.390   9.367 -0.3516 -0.5680  0.4337
 7239SOL    HW133179   3.028   4.428   9.361  0.3032  1.1399  1.9026
 7239SOL    HW233180   3.106   4.319   9.304  2.2838 -2.2836  1.9670
 7240SOL     OW33181   0.170   0.715  12.399  0.4995 -0.0775  0.1292
 7240SOL    HW133182   0.210   0.630  12.379  1.6886  0.4676  0.1671
 7240SOL    HW233183   0.087   0.683  12.433  0.5746  1.0553  1.3626
 7241SOL     OW33184   0.877   1.878   2.334  0.0526 -0.3995 -0.1940
 7241SOL    HW133185   0.969   1.869   2.359 -0.0865 -1.2587  0.0091
 7241SOL    HW233186   0.880   1.935   2.257  0.2163 -0.4538 -0.2298
 7242SOL     OW33187   0.855   2.187  14.739 -0.0299  0.1494 -0.4514
 7242SOL    HW133188   0.934   2.229  14.707  0.2517  0.6611  0.9538
 7242SOL    HW233189   0.804   2.184  14.657 -1.1135  2.6476  0.1270
 7243SOL     OW33190   2.144   2.571   7.535  0.0306 -0.3440  0.1945
 7243SOL    HW133191   2.136   2.665   7.518  2.1112 -0.7506 -2.9227
 7243SOL    HW233192   2.067   2.550   7.588 -1.1750  2.1809 -0.5339
 7244SOL     OW33193   2.267   2.102   6.367 -0.4741 -0.2479 -0.3180
 7244SOL    HW133194   2.255   2.137   6.455  0.0724 -1.1602  0.1317
 7244SOL    HW233195   2.203   2.157   6.322 -1.7523 -0.3785  1.3281
 7245SOL     OW33196   0.887   1.718   8.890  0.0316 -0.5233 -0.0170
 7245SOL    HW133197   0.966   1.729   8.944  3.0487 -1.4411 -4.2202
 7245SOL    HW233198   0.832   1.775   8.943 -1.3709 -1.7552 -0.1377
 7246SOL     OW33199   3.961   4.355   6.298 -0.1137 -0.5385 -0.1460
 7246SOL    HW133200   4.000   4.271   6.273  2.5063  0.0542  1.8167
 7246SOL    HW233201   3.943   4.390   6.211 -0.3737  2.1846  0.9810
 7247SOL     OW33202   3.430   4.208   8.752  0.4430 -1.3620  0.0549
 7247SOL    HW133203   3.366   4.157   8.703  1.3762  1.1872 -3.8062
 7247SOL    HW233204   3.499   4.217   8.686  0.8403 -2.8584  0.2490
 7248SOL     OW33205   3.254   1.742   7.474 -0.3733  0.5698 -0.1098
 7248SOL    HW133206   3.341   1.774   7.498  0.1201 -0.0754 -1.0316
 7248SOL    HW233207   3.253   1.782   7.387  0.1121 -2.7892 -1.6755
 7249SOL     OW33208   0.774   4.154   2.364  0.8726  0.0675  0.0989
 7249SOL    HW133209   0.857   4.108   2.368  1.1547  0.3594 -2.2354
 7249SOL    HW233210   0.778   4.180   2.271 -1.8682  1.6951  0.4148
 7250SOL     OW33211   3.346   2.802   2.566 -0.2855  0.2848  0.4223
 7250SOL    HW133212   3.420   2.814   2.624 -0.9709 -1.2302  1.5903
 7250SOL    HW233213   3.385   2.848   2.491 -2.1240 -0.3194 -0.9190
 7251SOL     OW33214   0.440   3.884  16.335  0.0659 -0.0021  0.3429
 7251SOL    HW133215   0.403   3.949  16.396 -1.8153 -0.6444 -0.1122
 7251SOL    HW233216   0.415   3.905  16.245 -0.7066  1.0220  0.7928
 7252SOL     OW33217   1.971   3.573  16.549 -0.0805  0.4922 -0.4092
 7252SOL    HW133218   2.016   3.652  16.580  0.6868 -0.0180 -0.2328
 7252SOL    HW233219   2.012   3.548  16.467 -1.8214 -0.2114 -1.0602
 7253SOL     OW33220   2.155   0.226   1.547 -0.0830 -0.0412 -0.3673
 7253SOL    HW133221   2.247   0.254   1.540  0.1076 -0.1046  1.8655
 7253SOL    HW233222   2.124   0.259   1.463 -1.1608  2.6880  1.0846
 7254SOL     OW33223   0.435   0.338   2.656  0.4225  0.1320 -0.8730
 7254SOL    HW133224   0.527   0.347   2.683 -0.5609  3.1645  1.3753
 7254SOL    HW233225   0.408   0.421   2.694  0.6252  0.0411 -0.5237
 7255SOL     OW33226   0.993   3.666  16.388  0.2655  0.6021 -0.6593
 7255SOL    HW133227   0.919   3.701  16.438  1.5403  0.1292  1.5595
 7255SOL    HW233228   1.007   3.581  16.428 -0.1727  0.7543 -0.1847
 7256SOL     OW33229   1.683   1.668   3.891 -0.4176  0.4269  0.0414
 7256SOL    HW133230   1.734   1.602   3.939  1.4982  1.4143 -0.6407
 7256SOL    HW233231   1.736   1.747   3.904  0.1893 -0.0320  0.4077
 7257SOL     OW33232   2.607   3.391  13.117  0.4555  0.1027 -0.6797
 7257SOL    HW133233   2.521   3.368  13.082  0.4260  1.8007 -1.6985
 7257SOL    HW233234   2.591   3.421  13.207  0.5567 -0.7824 -0.3589
 7258SOL     OW33235   1.461   2.556   8.221 -0.0433 -0.3651  0.3095
 7258SOL    HW133236   1.394   2.597   8.275  0.7864  2.0397 -0.4479
 7258SOL    HW233237   1.451   2.472   8.265  0.0185 -0.4416  0.1776
 7259SOL     OW33238   4.082   3.155   5.877 -0.1133 -0.4031 -0.1837
 7259SOL    HW133239   4.137   3.143   5.954 -2.3162  0.1861  1.4673
 7259SOL    HW233240   4.001   3.116   5.911 -0.5321  1.6392  1.1710
 7260SOL     OW33241   0.660   2.008   5.303 -0.0958  0.6717 -0.0140
 7260SOL    HW133242   0.593   2.051   5.250 -0.1790 -2.1499 -2.2584
 7260SOL    HW233243   0.630   1.917   5.299  1.9573  0.0558 -2.2070
 7261SOL     OW33244   3.857   3.626   4.107  0.2904  0.0261  0.2758
 7261SOL    HW133245   3.931   3.682   4.129  1.3898 -1.1497 -0.4261
 7261SOL    HW233246   3.904   3.554   4.065  0.9883 -1.4240  3.5434
 7262SOL     OW33247   0.400   2.409   7.127  0.2189 -0.2145 -0.8752
 7262SOL    HW133248   0.375   2.319   7.149  0.1781  0.0809  0.2636
 7262SOL    HW233249   0.496   2.407   7.118  0.2856  2.8832 -0.8756
 7263SOL     OW33250   2.199   0.627   8.175  0.0839 -0.1517  0.3658
 7263SOL    HW133251   2.258   0.644   8.101 -0.5051  1.7720  0.3518
 7263SOL    HW233252   2.234   0.544   8.208 -1.2579 -1.0535 -0.4958
 7264SOL     OW33253   3.761   1.818   6.817  0.2907  0.2455  0.9950
 7264SOL    HW133254   3.822   1.777   6.756  0.9024  3.8139 -0.8210
 7264SOL    HW233255   3.788   1.910   6.822  0.1978  0.2922  0.6441
 7265SOL     OW33256   0.363   2.306   5.302 -0.4022  0.0809  0.0557
 7265SOL    HW133257   0.421   2.246   5.254 -0.8882 -0.5936  0.3059
 7265SOL    HW233258   0.415   2.386   5.304  1.6383 -1.1850 -1.8925
 7266SOL     OW33259   0.817   0.625  13.342  0.3083 -0.0316 -0.9025
 7266SOL    HW133260   0.863   0.541  13.337  0.3670 -0.1044  0.6366
 7266SOL    HW233261   0.778   0.609  13.428  1.4501 -1.2201 -0.5921
 7267SOL     OW33262   0.069   0.684   2.874  0.0341  0.1371  0.4946
 7267SOL    HW133263   0.031   0.769   2.854  0.3776 -0.0568 -1.0001
 7267SOL    HW233264   0.147   0.710   2.923  1.6588 -0.3071 -1.8491
 7268SOL     OW33265   1.568   0.744   1.384  0.0414  0.6436  0.1421
 7268SOL    HW133266   1.629   0.802   1.428  3.2872 -1.5705 -1.4056
 7268SOL    HW233267   1.591   0.661   1.425 -0.1235 -0.4305 -1.9294
 7269SOL     OW33268   2.670   3.544  15.051  0.3318 -0.6037  0.0038
 7269SOL    HW133269   2.653   3.589  15.133 -0.6513 -2.1436  0.6505
 7269SOL    HW233270   2.758   3.571  15.025  0.4754 -1.8159 -0.7990
 7270SOL     OW33271   1.521   0.591   7.743  0.1601  0.3553  0.1618
 7270SOL    HW133272   1.476   0.516   7.782 -1.4705  1.4006  0.2844
 7270SOL    HW233273   1.585   0.616   7.810  0.4713  0.8677 -0.3345
 7271SOL     OW33274   0.933   1.216   7.044 -0.2083  0.0288  0.2091
 7271SOL    HW133275   0.860   1.274   7.066  0.2575 -0.4364  2.9668
 7271SOL    HW233276   0.989   1.274   6.993 -0.3631  0.4774  0.5512
 7272SOL     OW33277   2.396   0.313   9.315 -0.0839  0.1712  0.0471
 7272SOL    HW133278   2.367   0.383   9.373  1.5593  1.6449 -0.9378
 7272SOL    HW233279   2.456   0.272   9.378  1.0318 -0.7108 -1.6053
 7273SOL     OW33280   1.236   1.610  13.802  0.2027  0.1222  0.0715
 7273SOL    HW133281   1.323   1.619  13.841 -0.4496  0.1817  1.5079
 7273SOL    HW233282   1.182   1.636  13.877 -0.7281 -3.4547  0.6538
 7274SOL     OW33283   0.964   1.921   3.762  0.0478  0.0309  0.3980
 7274SOL    HW133284   0.925   1.836   3.781  1.2108 -0.9180 -1.4306
 7274SOL    HW233285   1.015   1.907   3.682  0.5911 -1.0725  0.9444
 7275SOL     OW33286   3.466   1.312   5.128 -0.1606 -0.1249 -0.4264
 7275SOL    HW133287   3.401   1.288   5.195  1.5643 -0.1447  1.2452
 7275SOL    HW233288   3.541   1.256   5.146 -1.1386 -1.1668  0.4686
 7276SOL     OW33289   1.561   0.728   6.000 -0.0262 -1.0344 -0.0105
 7276SOL    HW133290   1.514   0.646   5.989 -0.4782 -0.8052  0.2315
 7276SOL    HW233291   1.650   0.699   5.982 -0.0138 -1.3267  0.5409
 7277SOL     OW33292   0.198   3.339   1.444 -0.0390 -0.1288 -0.3962
 7277SOL    HW133293   0.130   3.324   1.379  0.1681  0.3910 -0.7318
 7277SOL    HW233294   0.153   3.296   1.517 -2.0929 -0.3074 -1.7814
 7278SOL     OW33295   0.327   4.541   0.979  0.0009 -0.4814  0.7496
 7278SOL    HW133296   0.237   4.572   0.988 -0.0904 -0.8367  1.0474
 7278SOL    HW233297   0.374   4.619   1.007 -0.0527 -0.2787  0.2799
 7279SOL     OW33298   4.072   2.931   3.991 -0.2369 -0.2404  0.5610
 7279SOL    HW133299   4.034   2.885   4.066 -1.7627 -1.2597 -0.8525
 7279SOL    HW233300   3.993   2.929   3.937  2.2083  0.9048 -3.0482
 7280SOL     OW33301   1.553   4.713   0.804 -0.0120  0.1082 -0.1179
 7280SOL    HW133302   1.581   0.080   0.802  0.5760 -0.0708  0.2808
 7280SOL    HW233303   1.498   4.714   0.725 -1.7053 -0.2689  1.0537
 7281SOL     OW33304   0.109   4.615   0.687  0.2435  0.0100  0.3736
 7281SOL    HW133305   0.160   4.541   0.653  1.7050  0.9040  0.6341
 7281SOL    HW233306   0.166   4.686   0.658  0.4825  0.1352  1.1503
 7282SOL     OW33307   1.024   3.896   4.069  0.3512 -0.4576  0.4363
 7282SOL    HW133308   0.938   3.914   4.031  1.1859  0.4340 -1.0579
 7282SOL    HW233309   1.065   3.981   4.051  0.7821 -1.1963 -2.1946
 7283SOL     OW33310   1.928   0.951  13.698  0.4523 -0.5336  0.1425
 7283SOL    HW133311   1.946   1.035  13.655 -0.5733 -0.1718  0.4285
 7283SOL    HW233312   1.938   0.887  13.628 -0.1765 -2.7751  2.1170
 7284SOL     OW33313   0.406   0.478   4.253  0.4866  0.2310 -0.4652
 7284SOL    HW133314   0.486   0.433   4.229 -0.1253 -1.0765 -0.0226
 7284SOL    HW233315   0.443   0.535   4.320  1.4244 -1.4307  0.3961
 7285SOL     OW33316   3.314   4.018   6.108  0.5251 -0.2440  0.0611
 7285SOL    HW133317   3.247   4.030   6.040  0.8513 -1.7378 -0.5149
 7285SOL    HW233318   3.274   3.949   6.162 -1.0792  0.8035  0.2282
 7286SOL     OW33319   1.032   2.411   8.330  0.3145 -0.0622  0.8832
 7286SOL    HW133320   0.991   2.327   8.351 -0.9946  0.3843  0.1337
 7286SOL    HW233321   1.069   2.430   8.416  2.7426  2.6510 -0.7858
 7287SOL     OW33322   3.274   1.000   6.186  0.3648 -0.7026  0.2799
 7287SOL    HW133323   3.328   1.057   6.242  1.1099 -0.3354 -0.8053
 7287SOL    HW233324   3.306   0.911   6.199  2.7374  0.2186  0.8802
 7288SOL     OW33325   3.870   2.286  12.209 -0.0342 -0.9424 -0.3313
 7288SOL    HW133326   3.822   2.222  12.157 -1.9294 -1.0974  1.6080
 7288SOL    HW233327   3.821   2.277  12.291 -1.2444  1.3288 -0.7864
 7289SOL     OW33328   2.147   3.468   8.158  1.4910 -0.8434  0.0699
 7289SOL    HW133329   2.232   3.432   8.134  1.2653 -1.1449 -0.2820
 7289SOL    HW233330   2.159   3.552   8.202 -2.0182  0.0298 -0.6084
 7290SOL     OW33331   0.718   1.126   4.293 -0.2545 -0.1276  0.3085
 7290SOL    HW133332   0.777   1.182   4.241  2.2168 -2.0768  0.9839
 7290SOL    HW233333   0.645   1.092   4.241  0.7729 -1.5941 -0.1900
 7291SOL     OW33334   4.135   3.094  13.244  0.1590  0.4735  0.7634
 7291SOL    HW133335   4.153   3.168  13.302  1.2800  1.0766 -0.3681
 7291SOL    HW233336   4.113   3.018  13.299 -2.0545 -0.1565 -0.9705
 7292SOL     OW33337   3.072   0.403  11.294 -0.2056  0.1078  0.7823
 7292SOL    HW133338   3.085   0.486  11.339 -1.2268  0.6729  0.0312
 7292SOL    HW233339   3.129   0.340  11.339 -0.1820 -1.0141 -0.8141
 7293SOL     OW33340   3.302   1.122   7.088 -0.4656 -0.5312 -0.0236
 7293SOL    HW133341   3.388   1.145   7.122 -0.2678  2.2561 -2.4794
 7293SOL    HW233342   3.243   1.191   7.118 -2.5678 -1.5634 -1.7806
 7294SOL     OW33343   1.804   0.997   7.952 -0.2254 -0.0339 -0.1720
 7294SOL    HW133344   1.894   1.001   7.921 -0.5689  2.0200 -0.8459
 7294SOL    HW233345   1.761   0.976   7.869  1.1185 -1.6972 -0.4547
 7295SOL     OW33346   2.873   0.751  17.343  0.0189  0.5014 -0.2882
 7295SOL    HW133347   2.823   0.693  17.401  2.0655 -1.3779 -0.4175
 7295SOL    HW233348   2.874   0.836  17.388  0.3730  0.1542  0.3575
 7296SOL     OW33349   2.641   1.832   1.507  0.9191  0.4832 -0.2471
 7296SOL    HW133350   2.581   1.788   1.447 -1.4038 -1.6486  3.6226
 7296SOL    HW233351   2.722   1.794   1.476 -0.4077 -0.8011 -2.1289
 7297SOL     OW33352   1.265   2.976  11.176 -0.2463  0.0069  0.6693
 7297SOL    HW133353   1.268   2.881  11.183 -1.7897  0.0307  1.4765
 7297SOL    HW233354   1.332   2.976  11.108  0.5464 -1.0939  1.4354
 7298SOL     OW33355   2.911   2.501   3.733  0.4184  0.2427 -0.0570
 7298SOL    HW133356   2.825   2.491   3.693  0.8530 -0.1452 -0.8815
 7298SOL    HW233357   2.923   2.415   3.772 -1.0735 -0.4064 -1.0163
 7299SOL     OW33358   0.256   3.286  11.472 -0.7016  0.0473 -0.1903
 7299SOL    HW133359   0.161   3.288  11.460 -0.6021  0.6225 -0.8828
 7299SOL    HW233360   0.284   3.232  11.398 -2.3725 -0.0098 -0.7833
 7300SOL     OW33361   1.071   0.735   1.727 -0.1887  0.1290  0.6694
 7300SOL    HW133362   1.069   0.678   1.803  1.2704 -2.7441 -1.4298
 7300SOL    HW233363   1.125   0.684   1.666 -0.3483  0.8185 -0.0450
 7301SOL     OW33364   1.074   4.070   6.472 -0.0967 -0.0246 -0.3549
 7301SOL    HW133365   1.086   3.984   6.512  2.5715 -0.4547 -2.0514
 7301SOL    HW233366   1.162   4.105   6.486 -0.1931  0.5537 -1.1943
 7302SOL     OW33367   0.058   2.008  13.896 -0.2544  0.1572  0.2524
 7302SOL    HW133368   0.127   1.943  13.884  0.1748  0.1820  2.5851
 7302SOL    HW233369   0.013   2.015  13.811  1.9495 -0.5190 -0.9882
 7303SOL     OW33370   2.710   2.676   8.077 -0.2931  0.0629 -0.1144
 7303SOL    HW133371   2.737   2.626   8.155 -2.9023 -1.8835 -0.4864
 7303SOL    HW233372   2.726   2.769   8.095  4.0691 -0.5442 -0.6526
 7304SOL     OW33373   3.253   0.225   6.102  0.2885  0.1233  0.5387
 7304SOL    HW133374   3.299   0.296   6.056  0.2875  0.7096  1.4520
 7304SOL    HW233375   3.214   0.180   6.027  1.7671 -0.4174  0.1029
 7305SOL     OW33376   4.175   2.139  14.883  0.1643 -0.3191  0.1284
 7305SOL    HW133377   4.210   2.055  14.914 -0.7971 -1.6909 -2.5018
 7305SOL    HW233378   4.097   2.102  14.843 -0.5232  2.5415 -1.0990
 7306SOL     OW33379   0.750   3.182   3.481  0.0604  0.4762 -0.1096
 7306SOL    HW133380   0.726   3.210   3.570  0.3329 -0.6202  0.3054
 7306SOL    HW233381   0.676   3.224   3.438 -0.4727  0.3715  0.7058
 7307SOL     OW33382   2.691   2.628   6.249  0.4975 -0.1809 -0.5527
 7307SOL    HW133383   2.723   2.686   6.318  0.2894 -1.3781  0.5624
 7307SOL    HW233384   2.619   2.673   6.205 -1.2755 -2.2594  0.2438
 7308SOL     OW33385   3.384   2.075   6.023  0.4819  0.0269  0.2055
 7308SOL    HW133386   3.388   1.986   6.059  0.2894  0.1072  0.4245
 7308SOL    HW233387   3.464   2.075   5.972  0.0725 -0.3661 -0.4376
 7309SOL     OW33388   1.756   3.792   3.639  0.8814 -0.0694  0.1986
 7309SOL    HW133389   1.744   3.701   3.612 -0.1621  0.1070  0.0726
 7309SOL    HW233390   1.676   3.811   3.688  0.8841 -0.7815  0.4894
 7310SOL     OW33391   1.870   2.754   5.219 -0.0863  0.4256 -0.2493
 7310SOL    HW133392   1.861   2.710   5.303  0.9312  1.5037  0.4245
 7310SOL    HW233393   1.789   2.804   5.215  0.1773  1.0975  2.4829
 7311SOL     OW33394   4.294   1.139   4.369 -0.3126 -0.1929 -0.1595
 7311SOL    HW133395   4.299   1.059   4.317  2.2621 -0.3334  0.2945
 7311SOL    HW233396   4.358   1.198   4.328  0.5897 -2.0433 -1.4386
 7312SOL     OW33397   2.237   1.067   6.661 -0.1262 -0.3449 -0.4233
 7312SOL    HW133398   2.148   1.095   6.638 -0.5438  0.7071  2.4673
 7312SOL    HW233399   2.225   0.977   6.633 -2.3455  0.3484 -1.7152
 7313SOL     OW33400   2.068   0.495   7.913  0.1980  0.1679 -0.0783
 7313SOL    HW133401   2.035   0.573   7.957  0.6630  0.1096  0.3675
 7313SOL    HW233402   2.162   0.498   7.930  0.0548  1.7739  0.4111
 7314SOL     OW33403   0.969   1.285   9.984  0.5883  0.0498  0.2742
 7314SOL    HW133404   0.964   1.360  10.043  1.2770  1.3168 -1.2557
 7314SOL    HW233405   1.020   1.317   9.909  1.1290 -2.1946 -0.3313
 7315SOL     OW33406   4.456   4.328   3.065 -0.7959  0.5467  0.2513
 7315SOL    HW133407   4.431   4.286   2.982 -0.3098  0.5158  0.1146
 7315SOL    HW233408   4.502   4.255   3.107 -1.9684  0.5921  1.5858
 7316SOL     OW33409   0.923   4.227   7.507 -0.4020 -0.1512  0.2435
 7316SOL    HW133410   0.955   4.316   7.490  1.2519 -0.1320  3.5317
 7316SOL    HW233411   0.968   4.215   7.591 -0.0356 -0.5819 -0.0153
 7317SOL     OW33412   2.528   1.873   5.647 -0.2622  0.4249 -0.6171
 7317SOL    HW133413   2.472   1.881   5.570  2.2153  0.4822 -2.3775
 7317SOL    HW233414   2.463   1.823   5.696 -0.0092 -0.9292 -1.6685
 7318SOL     OW33415   0.080   2.309   6.319 -0.1924 -0.1263 -0.0042
 7318SOL    HW133416   4.719   2.327   6.280 -0.2884 -0.0550  0.2406
 7318SOL    HW233417   0.134   2.370   6.270  1.3124 -0.4569  1.2573
 7319SOL     OW33418   1.683   1.110   2.047  0.4239  0.0231  0.4881
 7319SOL    HW133419   1.718   1.118   1.958  1.6247  1.2752  1.0684
 7319SOL    HW233420   1.719   1.186   2.092  0.6837  0.0512  0.2373
 7320SOL     OW33421   2.790   1.638   8.261  0.0767 -0.2888  0.1778
 7320SOL    HW133422   2.784   1.733   8.274 -1.0978 -0.3995  0.3690
 7320SOL    HW233423   2.848   1.626   8.186 -0.6504  1.9117 -0.7268
 7321SOL     OW33424   0.691   2.257   5.001 -0.4229  0.1934  1.4386
 7321SOL    HW133425   0.643   2.327   4.958  1.0561  1.9106  2.6144
 7321SOL    HW233426   0.781   2.288   4.990  0.4891 -2.3808  1.5194
 7322SOL     OW33427   2.977   0.211   5.098  0.3026 -0.0862  0.5222
 7322SOL    HW133428   3.012   0.152   5.031 -3.3243 -1.2403 -0.3612
 7322SOL    HW233429   2.887   0.210   5.065 -0.6030 -0.8822  2.9821
 7323SOL     OW33430   2.182   2.285   1.226 -0.1979 -0.3222 -0.1854
 7323SOL    HW133431   2.268   2.256   1.254 -0.6114 -1.1295  0.2352
 7323SOL    HW233432   2.146   2.200   1.199  1.4569 -1.1696  0.3006
 7324SOL     OW33433   1.685   2.102   2.852 -0.3014  0.0636 -0.0002
 7324SOL    HW133434   1.705   2.151   2.932 -0.7703 -1.7626  1.2165
 7324SOL    HW233435   1.770   2.079   2.816 -0.8487 -1.9277  0.0013
 7325SOL     OW33436   0.552   2.807   7.409 -0.5162 -0.3583 -0.8955
 7325SOL    HW133437   0.642   2.775   7.400 -0.7112 -1.2612  0.3109
 7325SOL    HW233438   0.496   2.731   7.391 -1.2398  0.3477 -1.6316
 7326SOL     OW33439   1.698   4.647   2.035 -0.0759 -0.0315 -0.3491
 7326SOL    HW133440   1.690   0.014   2.062  2.5031  0.2701 -0.5878
 7326SOL    HW233441   1.783   4.647   1.990 -0.0737 -0.7567 -0.3495
 7327SOL     OW33442   4.573   2.597  11.763 -0.3812 -0.3858  0.0581
 7327SOL    HW133443   4.591   2.686  11.735 -1.2179 -0.4659 -0.7471
 7327SOL    HW233444   4.509   2.615  11.832  1.7062  2.1606  1.3292
 7328SOL     OW33445   1.902   2.741  13.299 -0.2002  0.3961  0.0453
 7328SOL    HW133446   1.936   2.817  13.345 -1.2776  1.2379 -0.5524
 7328SOL    HW233447   1.912   2.679  13.372  2.3164 -0.4729 -1.0388
 7329SOL     OW33448   3.002   3.798  16.285 -0.1256 -0.0927  0.2294
 7329SOL    HW133449   3.025   3.829  16.373  0.4871 -0.2815  0.1288
 7329SOL    HW233450   2.911   3.772  16.299  0.1537 -2.1319 -1.8902
 7330SOL     OW33451   1.595   2.975   8.125  0.7264  0.3522 -0.0695
 7330SOL    HW133452   1.679   3.018   8.112  0.3537  0.7468 -1.1123
 7330SOL    HW233453   1.566   3.036   8.192 -0.5196  0.6551 -0.8878
 7331SOL     OW33454   0.113   4.083   7.006 -0.0300 -0.3257 -1.0501
 7331SOL    HW133455   0.073   4.013   6.953 -0.8277 -1.9805  1.7268
 7331SOL    HW233456   0.035   4.120   7.047  0.2325 -0.8269 -0.1075
 7332SOL     OW33457   3.690   4.506   5.840  0.2208 -0.0134  0.4147
 7332SOL    HW133458   3.653   4.418   5.837 -0.0884  0.0180  2.6865
 7332SOL    HW233459   3.621   4.560   5.878  0.3308 -0.6708  1.5614
 7333SOL     OW33460   0.639   0.851   0.240  0.2172  0.5153  0.0054
 7333SOL    HW133461   0.584   0.783   0.280 -1.1064  1.5593 -0.0354
 7333SOL    HW233462   0.619   0.927   0.294 -0.8687  1.4612 -1.7046
 7334SOL     OW33463   2.167   0.825   0.923 -0.0708  0.0883 -0.4345
 7334SOL    HW133464   2.131   0.825   0.834  2.5747 -0.1750 -1.4873
 7334SOL    HW233465   2.250   0.872   0.927  0.3382 -0.5597 -1.5549
 7335SOL     OW33466   2.121   3.864   6.009  0.0734  0.0858 -0.4603
 7335SOL    HW133467   2.198   3.830   6.054  0.6334  2.0140  0.0537
 7335SOL    HW233468   2.056   3.845   6.076 -1.3137  3.5653 -0.8188
 7336SOL     OW33469   0.238   3.161   3.312 -0.0050 -0.4107 -0.0119
 7336SOL    HW133470   0.267   3.214   3.238  0.9908 -2.6990 -1.2587
 7336SOL    HW233471   0.312   3.100   3.311 -0.5946 -1.1116 -0.9925
 7337SOL     OW33472   0.266   4.708   4.384  0.2841  0.0460 -1.2391
 7337SOL    HW133473   0.189   4.655   4.407  0.5155  1.1404  2.0135
 7337SOL    HW233474   0.244   0.066   4.426 -0.2482 -0.9979  0.5619
 7338SOL     OW33475   1.922   4.061   4.863 -0.0331  0.0293  0.0382
 7338SOL    HW133476   1.908   3.995   4.931  1.6446 -0.2886  0.0602
 7338SOL    HW233477   1.927   4.143   4.913  0.3008  1.4419 -2.3121
 7339SOL     OW33478   0.339   1.254  17.456  0.4101 -0.2973 -0.2640
 7339SOL    HW133479   0.376   1.209  17.380 -0.9370  2.5450 -2.6066
 7339SOL    HW233480   0.352   1.190  17.525  0.5074 -0.1563 -0.1504
 7340SOL     OW33481   2.202   4.096   7.215  0.6723 -0.2639  0.3111
 7340SOL    HW133482   2.161   4.153   7.150  3.1823  0.8809 -0.2791
 7340SOL    HW233483   2.237   4.161   7.275 -2.9398  1.0500  0.9553
 7341SOL     OW33484   2.948   3.649   3.278  0.3687  0.0418 -0.1509
 7341SOL    HW133485   2.913   3.737   3.265  2.0919  0.2479 -3.3426
 7341SOL    HW233486   2.895   3.611   3.207  1.6640 -0.6062 -0.7683
 7342SOL     OW33487   4.348   3.766   8.293  0.2545 -0.4050  0.7687
 7342SOL    HW133488   4.274   3.738   8.238 -0.5198  0.5722  1.3114
 7342SOL    HW233489   4.419   3.745   8.233  0.2258 -0.7144  0.8390
 7343SOL     OW33490   1.034   4.382   6.101 -0.0300  0.4332 -0.3438
 7343SOL    HW133491   1.083   4.413   6.176 -1.1341 -0.4481  0.7612
 7343SOL    HW233492   0.946   4.376   6.139 -0.2199 -2.2804 -1.1890
 7344SOL     OW33493   3.493   4.041   2.732  0.2225 -0.2405 -0.2832
 7344SOL    HW133494   3.480   3.996   2.649  3.1281  1.0331 -1.4210
 7344SOL    HW233495   3.582   4.068   2.710  0.0578 -2.2356 -3.3033
 7345SOL     OW33496   4.352   4.385   9.739  0.7388  0.1139 -0.7501
 7345SOL    HW133497   4.275   4.333   9.757 -0.6193  1.9045 -1.4127
 7345SOL    HW233498   4.413   4.346   9.802 -0.8893 -2.1633 -0.6027
 7346SOL     OW33499   0.399   4.192   8.186  0.2804 -0.0892  0.2759
 7346SOL    HW133500   0.331   4.175   8.121 -0.8979 -0.5343  1.6414
 7346SOL    HW233501   0.345   4.230   8.255  1.8793 -1.2508  2.1777
 7347SOL     OW33502   3.092   4.126   7.665  0.3886 -0.0335 -0.2101
 7347SOL    HW133503   3.005   4.140   7.702 -0.0396  0.5265 -1.4477
 7347SOL    HW233504   3.122   4.216   7.650  0.9172 -0.3855 -1.2397
 7348SOL     OW33505   1.407   2.375   5.565  0.4183  0.0305 -0.0428
 7348SOL    HW133506   1.367   2.304   5.614  1.4033 -1.2378 -1.1041
 7348SOL    HW233507   1.335   2.424   5.526  2.8088  1.4713 -2.6382
 7349SOL     OW33508   2.267   0.877   5.663 -0.3519 -0.3903  0.1818
 7349SOL    HW133509   2.214   0.803   5.633  0.8519 -1.5405  0.8785
 7349SOL    HW233510   2.237   0.933   5.591  0.5025 -0.0627  0.0725
 7350SOL     OW33511   1.659   0.146   3.602 -0.2677 -0.1059 -0.0090
 7350SOL    HW133512   1.744   0.133   3.645  0.3062  5.6555  0.6545
 7350SOL    HW233513   1.660   0.085   3.528  3.5255 -2.5681  2.0586
 7351SOL     OW33514   3.913   1.558   5.167  0.1729 -0.1297 -0.1191
 7351SOL    HW133515   3.952   1.551   5.080  0.3828  0.3146 -0.0640
 7351SOL    HW233516   3.943   1.646   5.189 -1.4789  0.4379 -0.1487
 7352SOL     OW33517   1.207   1.659   4.052 -0.3905 -0.0186  0.4857
 7352SOL    HW133518   1.239   1.749   4.048 -3.1512  0.9030 -0.8287
 7352SOL    HW233519   1.256   1.618   3.981 -1.1040 -1.2545  0.7133
 7353SOL     OW33520   1.468   1.517   5.865  0.0919 -0.0044  0.1431
 7353SOL    HW133521   1.499   1.584   5.804  0.9437  2.2717  3.0683
 7353SOL    HW233522   1.547   1.468   5.889  0.1518  0.4145  0.7925
 7354SOL     OW33523   1.095   2.755   5.631 -0.1521  0.3547 -0.1738
 7354SOL    HW133524   1.065   2.732   5.719  3.4713 -1.6156  0.5271
 7354SOL    HW233525   1.180   2.795   5.646  0.6041 -0.9640 -0.9664
 7355SOL     OW33526   3.121   3.021  12.403 -0.2902  0.2885 -0.0462
 7355SOL    HW133527   3.066   3.099  12.399  0.2401  0.8799  3.8279
 7355SOL    HW233528   3.086   2.983  12.484  2.0137 -1.5530  0.0640
 7356SOL     OW33529   2.133   2.186   5.878  0.4228 -0.3200 -0.7063
 7356SOL    HW133530   2.203   2.157   5.937  2.0192  2.7396 -1.0883
 7356SOL    HW233531   2.153   2.280   5.881 -1.3845  0.0098  0.9218
 7357SOL     OW33532   1.793   2.364   8.738 -0.2033  0.0331  0.6904
 7357SOL    HW133533   1.829   2.453   8.729 -0.6431  0.3476  1.9899
 7357SOL    HW233534   1.716   2.363   8.794 -1.0322 -0.5718 -0.4638
 7358SOL     OW33535   0.885   2.661   2.167  0.1487 -0.5546  0.3190
 7358SOL    HW133536   0.904   2.694   2.255 -2.7388 -0.7005  0.9962
 7358SOL    HW233537   0.964   2.692   2.122  0.2677  1.0971  1.6727
 7359SOL     OW33538   1.932   1.772   8.743  0.0060 -0.1986 -0.0656
 7359SOL    HW133539   1.841   1.786   8.719  0.6777 -0.8630 -3.0214
 7359SOL    HW233540   1.971   1.712   8.679  1.8585 -0.2177  1.0790
 7360SOL     OW33541   0.291   1.706  11.819 -0.3436 -0.1766  0.8673
 7360SOL    HW133542   0.313   1.677  11.730 -0.7403  1.0610  0.3637
 7360SOL    HW233543   0.255   1.794  11.804  2.0904  0.6737  0.0180
 7361SOL     OW33544   1.289   0.038   9.861  0.0695 -0.6714  0.1661
 7361SOL    HW133545   1.195   0.024   9.873 -0.3631  1.4383 -0.7422
 7361SOL    HW233546   1.324   0.049   9.949 -0.8738  3.2273  0.0476
 7362SOL     OW33547   3.608   3.007   8.233 -0.0987 -0.2707 -0.5221
 7362SOL    HW133548   3.664   2.946   8.183 -0.3498 -1.8087  1.0912
 7362SOL    HW233549   3.666   3.026   8.306 -0.3397  2.0408 -0.9157
 7363SOL     OW33550   1.603   2.563   7.219  0.6766 -0.1552  0.5057
 7363SOL    HW133551   1.556   2.611   7.151  0.5107  1.2295  1.6022
 7363SOL    HW233552   1.688   2.590   7.184  0.5241 -1.7046 -1.0675
 7364SOL     OW33553   2.842   1.280   2.338 -0.1689 -0.1174  0.3175
 7364SOL    HW133554   2.782   1.231   2.394 -0.0642  0.8874  1.3098
 7364SOL    HW233555   2.838   1.231   2.255 -1.4057 -1.2211  1.0268
 7365SOL     OW33556   1.762   0.072   4.750 -0.5289 -0.0184 -0.0268
 7365SOL    HW133557   1.776   0.097   4.659  3.0925  0.1390  0.5688
 7365SOL    HW233558   1.818   0.136   4.795  1.0231 -0.7384 -0.9199
 7366SOL     OW33559   4.451   2.088   8.758 -0.5007  0.6746 -0.2359
 7366SOL    HW133560   4.479   2.084   8.849 -2.4685  0.7706  0.3840
 7366SOL    HW233561   4.395   2.011   8.748 -1.2463  1.1897 -0.1146
 7367SOL     OW33562   1.498   4.146   0.024  1.1496 -0.5425 -0.3475
 7367SOL    HW133563   1.477   4.180  17.636  1.6345 -0.2263 -0.3417
 7367SOL    HW233564   1.571   4.202   0.051 -0.7862  1.1640  1.3276
 7368SOL     OW33565   4.661   2.370   0.464  0.0357  0.1641  0.3310
 7368SOL    HW133566   4.692   2.311   0.396  0.0687  0.6063 -0.0310
 7368SOL    HW233567   4.596   2.314   0.507 -0.2351 -0.3784 -0.7827
 7369SOL     OW33568   0.929   4.306  17.271  0.7120  0.2502 -0.5089
 7369SOL    HW133569   0.963   4.217  17.265  0.5393 -0.0373  2.8476
 7369SOL    HW233570   0.981   4.332  17.347 -0.0741  1.6938 -0.4576
 7370SOL     OW33571   1.065   4.284   5.695 -0.2750 -0.3820 -0.1331
 7370SOL    HW133572   1.064   4.355   5.759 -1.1274  0.4007 -1.0110
 7370SOL    HW233573   1.062   4.200   5.741 -2.5405 -0.2219  0.0213
 7371SOL     OW33574   4.715   3.590   9.179  0.3842 -0.2283  0.0481
 7371SOL    HW133575   4.678   3.640   9.106  0.5212 -0.5456 -0.2356
 7371SOL    HW233576   0.080   3.605   9.150 -0.4797  3.5967 -0.7013
 7372SOL     OW33577   2.708   4.045   4.393 -0.0852 -0.5497 -0.0622
 7372SOL    HW133578   2.671   4.130   4.416 -1.6615 -0.8169 -1.6148
 7372SOL    HW233579   2.787   4.038   4.446  0.5150  1.5686 -0.6505
 7373SOL     OW33580   0.302   1.425   7.427 -0.1624  0.3103  0.2090
 7373SOL    HW133581   0.392   1.418   7.459 -1.2093  0.8068  3.2436
 7373SOL    HW233582   0.284   1.519   7.430  1.6634  0.7467 -2.4276
 7374SOL     OW33583   1.366   3.119   7.190  0.2704  0.1734  0.5949
 7374SOL    HW133584   1.427   3.166   7.133  0.3138  0.2556  0.7098
 7374SOL    HW233585   1.284   3.121   7.141  0.7476  1.2942 -0.1650
 7375SOL     OW33586   1.561   2.041  10.917  0.6337  0.4332  0.4978
 7375SOL    HW133587   1.554   1.950  10.945 -0.6785  0.0444 -1.0559
 7375SOL    HW233588   1.536   2.086  10.997  1.1822  0.2951  0.7452
 7376SOL     OW33589   1.966   1.361   7.467 -0.7462 -0.8497 -0.1563
 7376SOL    HW133590   1.943   1.307   7.392  0.2590 -1.1799 -0.2281
 7376SOL    HW233591   2.033   1.301   7.499  1.5054  1.6344 -0.1094
 7377SOL     OW33592   1.409   0.718   6.551 -0.6811  0.1678  0.3047
 7377SOL    HW133593   1.473   0.685   6.614  0.5874 -0.1467 -1.1296
 7377SOL    HW233594   1.346   0.647   6.560  1.2315 -1.4775  0.6823
 7378SOL     OW33595   3.299   0.300   6.364  0.2257  0.1668  0.0023
 7378SOL    HW133596   3.267   0.278   6.277  0.2400 -0.3195  0.1168
 7378SOL    HW233597   3.395   0.295   6.354  0.0820 -0.9847 -0.8845
 7379SOL     OW33598   1.525   3.375  10.786  0.6298 -0.0220 -0.3923
 7379SOL    HW133599   1.457   3.383  10.854  0.0516  2.7324 -1.2999
 7379SOL    HW233600   1.567   3.292  10.804 -0.2440 -0.2203  0.7718
 7380SOL     OW33601   4.610   0.742  13.486  0.1431 -0.5651  0.5236
 7380SOL    HW133602   4.633   0.823  13.532 -1.5529 -0.4612  1.1889
 7380SOL    HW233603   4.680   0.752  13.422 -0.5940 -0.7123 -0.2976
 7381SOL     OW33604   1.007   3.992   7.346  0.0924  0.2197  0.3572
 7381SOL    HW133605   1.069   4.035   7.287 -1.9316  0.0519 -1.8846
 7381SOL    HW233606   0.988   4.068   7.401  0.1380  0.5193 -0.0363
 7382SOL     OW33607   4.134   1.833  17.580  0.0044  0.0647 -0.0175
 7382SOL    HW133608   4.205   1.864  17.635  0.9769 -1.2450 -0.5472
 7382SOL    HW233609   4.059   1.841  17.640  0.0616  1.9099 -0.1838
 7383SOL     OW33610   1.257   1.299   3.257  0.1793  0.4278 -0.2953
 7383SOL    HW133611   1.243   1.333   3.168  0.3774 -0.5322 -0.6961
 7383SOL    HW233612   1.285   1.211   3.232  0.0875  0.8176 -1.7746
 7384SOL     OW33613   2.764   1.855   0.017 -0.5290  0.4931 -0.2955
 7384SOL    HW133614   2.815   1.845  17.636  0.5245  0.8181  0.3313
 7384SOL    HW233615   2.831   1.863   0.085 -0.0164  0.4427 -0.7913
 7385SOL     OW33616   0.554   1.429   7.559  0.0710 -0.2849  0.1784
 7385SOL    HW133617   0.524   1.468   7.641 -1.2826  0.2967 -0.6006
 7385SOL    HW233618   0.647   1.450   7.561  0.6135 -2.5611 -0.4570
 7386SOL     OW33619   3.192   2.817   6.415  0.4316  0.5010  0.6891
 7386SOL    HW133620   3.138   2.852   6.344 -0.8692  0.8084  1.8252
 7386SOL    HW233621   3.236   2.744   6.372 -2.6321 -0.9797  0.0537
 7387SOL     OW33622   1.099   1.579  10.044 -0.1018  0.1849  0.3382
 7387SOL    HW133623   1.024   1.633  10.017  0.3261  0.3641 -0.4801
 7387SOL    HW233624   1.174   1.636  10.029 -0.7607  1.2228  1.0250
 7388SOL     OW33625   4.503   0.202   5.219 -0.1095 -0.0658 -0.1939
 7388SOL    HW133626   4.442   0.249   5.162 -0.4104  0.0845  0.2549
 7388SOL    HW233627   4.461   0.118   5.242  2.0762 -1.7988 -2.5925
 7389SOL     OW33628   4.463   1.933   7.484  0.1115 -0.1681 -0.2804
 7389SOL    HW133629   4.495   1.959   7.570  1.2426  0.7299 -0.9578
 7389SOL    HW233630   4.436   2.019   7.452 -0.0418  0.7118  2.1914
 7390SOL     OW33631   0.089   2.186   8.794 -0.0925  0.2746  0.0063
 7390SOL    HW133632   0.110   2.109   8.847 -0.3780 -0.6216 -1.1775
 7390SOL    HW233633   0.163   2.239   8.823 -0.0863 -0.6691  1.7201
 7391SOL     OW33634   1.279   0.756   8.751  0.8929 -0.4360  0.1597
 7391SOL    HW133635   1.206   0.694   8.751 -0.0625  0.7097  0.1437
 7391SOL    HW233636   1.299   0.756   8.657 -0.2348 -1.4590 -0.0756
 7392SOL     OW33637   3.188   4.412   1.710  0.1300 -0.0295  0.1863
 7392SOL    HW133638   3.159   4.423   1.620 -0.2569 -2.0899  0.0741
 7392SOL    HW233639   3.160   4.493   1.754 -0.1703 -1.1010  1.9836
 7393SOL     OW33640   3.036   4.704  14.227  0.5051  0.4354  0.8844
 7393SOL    HW133641   2.955   4.668  14.261  1.4512 -0.5767  2.0648
 7393SOL    HW233642   3.011   4.684  14.136  2.0075  3.0809 -0.1067
 7394SOL     OW33643   0.311   2.732   4.353 -0.6525  0.3622  0.0484
 7394SOL    HW133644   0.250   2.805   4.351 -0.2123  0.7093 -0.4067
 7394SOL    HW233645   0.299   2.708   4.261  1.1673 -1.1537  0.1968
 7395SOL     OW33646   3.852   0.913   6.205 -0.8312 -0.5495  0.4284
 7395SOL    HW133647   3.806   0.829   6.201  0.0461 -1.0431  0.6429
 7395SOL    HW233648   3.826   0.933   6.295  0.0651 -1.0384  0.7878
 7396SOL     OW33649   0.968   3.674   0.506 -0.2493  0.3505 -0.0847
 7396SOL    HW133650   0.901   3.636   0.563  0.4242  0.2493  0.6447
 7396SOL    HW233651   0.923   3.664   0.423 -2.3388  0.3158  1.0543
 7397SOL     OW33652   1.243   4.653  10.109  0.3287 -0.2412 -0.0964
 7397SOL    HW133653   1.309   4.584  10.114  0.8021  0.2668  0.6209
 7397SOL    HW233654   1.172   4.604  10.068  0.3008 -0.0236 -0.3107
 7398SOL     OW33655   1.161   4.157   0.919  0.3435  0.0781 -0.4974
 7398SOL    HW133656   1.193   4.203   0.841  0.0610 -0.0107 -0.6666
 7398SOL    HW233657   1.066   4.168   0.916  0.0279 -2.6886 -0.0284
 7399SOL     OW33658   3.115   0.827   5.544 -0.1607  0.7099  0.0912
 7399SOL    HW133659   3.104   0.919   5.521  2.2711  1.6096  2.4430
 7399SOL    HW233660   3.150   0.784   5.466 -0.5146  2.8047 -1.2265
 7400SOL     OW33661   2.090   1.129   2.686  0.2755 -0.4316 -0.1621
 7400SOL    HW133662   2.068   1.218   2.712  0.2699  0.1969 -2.3279
 7400SOL    HW233663   2.027   1.103   2.619 -0.5495  0.0790  0.4265
 7401SOL     OW33664   0.177   1.046   3.073 -0.1292  0.8981  0.4685
 7401SOL    HW133665   0.160   1.064   3.165 -0.6620 -1.0905  0.7777
 7401SOL    HW233666   0.084   1.056   3.052 -0.1812 -0.2988  0.1063
 7402SOL     OW33667   1.173   0.147  15.116 -0.6506  0.1176 -0.2235
 7402SOL    HW133668   1.189   0.177  15.206  0.8463 -1.4908  0.0384
 7402SOL    HW233669   1.253   0.174  15.071 -0.0443 -0.4378  0.5234
 7403SOL     OW33670   1.823   1.925   3.943 -0.5193  0.7127  0.5419
 7403SOL    HW133671   1.807   1.986   3.870  1.1615 -1.3309 -1.5565
 7403SOL    HW233672   1.903   1.956   3.985 -0.6934 -0.7484  1.9405
 7404SOL     OW33673   2.746   0.113  10.086 -0.5038 -0.1181  0.0859
 7404SOL    HW133674   2.771   0.185  10.029 -0.5113  0.1058  0.3638
 7404SOL    HW233675   2.795   0.038  10.052  0.6228 -0.5775  2.6852
 7405SOL     OW33676   2.950   1.913   7.490  0.4145 -0.1438  0.1139
 7405SOL    HW133677   2.968   1.846   7.557 -1.4173 -0.8754 -0.1450
 7405SOL    HW233678   2.862   1.935   7.520 -0.2202 -2.0810 -0.2869
 7406SOL     OW33679   4.310   0.093   5.434 -0.2699  0.1554 -0.0882
 7406SOL    HW133680   4.363   0.024   5.394 -0.2129  0.5324 -0.6603
 7406SOL    HW233681   4.218   0.070   5.423 -1.2026  3.7655  0.2798
 7407SOL     OW33682   1.960   0.768  13.504 -0.5036  0.1320  0.0561
 7407SOL    HW133683   1.898   0.716  13.453 -1.5581  2.3038 -0.8780
 7407SOL    HW233684   2.031   0.706  13.495 -0.7871 -0.4583  1.8502
 7408SOL     OW33685   0.158   0.180   5.219 -0.1083 -0.6932 -0.2605
 7408SOL    HW133686   0.133   0.088   5.212 -3.5811  0.3502 -1.7684
 7408SOL    HW233687   0.181   0.191   5.311 -1.5452  1.4286 -0.1576
 7409SOL     OW33688   3.062   3.741   1.877  0.2366 -0.2774 -0.4541
 7409SOL    HW133689   3.087   3.649   1.881 -0.3329 -0.4413 -0.5882
 7409SOL    HW233690   3.109   3.762   1.958 -1.3059 -0.2526  0.4552
 7410SOL     OW33691   0.349   3.726   7.067 -0.1948  0.1543  0.0660
 7410SOL    HW133692   0.393   3.717   7.151 -2.0639  3.3875  1.4028
 7410SOL    HW233693   0.306   3.809   7.088  1.4023  0.5153  1.8175
 7411SOL     OW33694   1.491   4.468  17.696 -0.3540  0.1832 -0.7075
 7411SOL    HW133695   1.564   4.422   0.038 -1.9915 -1.1043  0.7483
 7411SOL    HW233696   1.508   4.433  17.609 -0.6144  1.1220 -1.1348
 7412SOL     OW33697   3.024   3.109   2.290  0.7894 -0.0106 -0.3642
 7412SOL    HW133698   3.063   3.031   2.330 -1.0373 -0.7592 -0.0209
 7412SOL    HW233699   2.955   3.124   2.355  0.4151 -0.1658 -0.7271
 7413SOL     OW33700   3.681   4.414   4.536 -0.2371  0.4176 -0.0072
 7413SOL    HW133701   3.682   4.373   4.450  0.0562 -1.1923  0.7571
 7413SOL    HW233702   3.600   4.466   4.534  0.1871  1.0409 -1.0312
 7414SOL     OW33703   0.271   4.185  16.310 -0.0205 -0.5292 -0.4531
 7414SOL    HW133704   0.274   4.260  16.369  1.6070 -1.3279  0.4663
 7414SOL    HW233705   0.182   4.188  16.276 -0.5287 -0.7081  0.8419
 7415SOL     OW33706   2.025   3.429   7.836  0.1547 -0.1225 -0.0257
 7415SOL    HW133707   1.986   3.511   7.804 -0.3285  1.1005  3.7204
 7415SOL    HW233708   1.938   3.392   7.853 -0.2576  1.2281  0.8363
 7416SOL     OW33709   4.108   0.440   6.952 -0.1097  0.0399 -0.1452
 7416SOL    HW133710   4.170   0.410   7.019 -0.0158  0.6218  0.0289
 7416SOL    HW233711   4.028   0.390   6.967  0.6338 -1.0273  0.2900
 7417SOL     OW33712   4.439   3.935   5.708  0.3785 -0.1671 -0.0218
 7417SOL    HW133713   4.370   3.928   5.773  2.0968  0.5616  1.8908
 7417SOL    HW233714   4.512   3.888   5.749  0.7056  1.0610  0.8062
 7418SOL     OW33715   0.667   2.302   1.806  0.3994  0.0482  0.0458
 7418SOL    HW133716   0.690   2.335   1.719 -1.5248 -0.0436 -0.4943
 7418SOL    HW233717   0.727   2.353   1.859 -0.0582 -0.4160  1.0036
 7419SOL     OW33718   4.217   1.440  12.705  0.2243  0.2336 -0.2802
 7419SOL    HW133719   4.244   1.433  12.614  2.3828 -0.3997  0.3959
 7419SOL    HW233720   4.122   1.436  12.692  0.1318  0.0248  0.4689
 7420SOL     OW33721   2.554   3.508   8.641 -0.0628 -0.2042 -0.4523
 7420SOL    HW133722   2.594   3.433   8.596  0.8276  1.0812 -1.8308
 7420SOL    HW233723   2.540   3.465   8.724  0.5922 -1.1858 -0.8488
 7421SOL     OW33724   2.143   1.021   8.438 -0.2369 -0.3165  0.0890
 7421SOL    HW133725   2.193   0.942   8.419  3.2923  1.8031  0.6051
 7421SOL    HW233726   2.058   0.978   8.451  0.6387 -1.4018  2.1028
 7422SOL     OW33727   3.782   3.683   7.046  0.3630 -0.1932 -0.2042
 7422SOL    HW133728   3.846   3.712   7.111 -0.5957 -1.3222  1.2188
 7422SOL    HW233729   3.804   3.590   7.039  0.4341 -0.1000 -1.2709
 7423SOL     OW33730   0.086   2.032   1.966  0.3694  0.1466  0.1121
 7423SOL    HW133731   0.161   1.980   1.996 -1.1653 -1.4168  1.2204
 7423SOL    HW233732   0.118   2.122   1.963 -0.1117  0.3013 -0.5437
 7424SOL     OW33733   2.475   3.522   6.956 -0.2766  1.0194 -0.0725
 7424SOL    HW133734   2.489   3.616   6.958 -1.2620  1.1858 -0.7034
 7424SOL    HW233735   2.424   3.522   7.038  1.3576 -1.2492  0.9387
 7425SOL     OW33736   1.416   0.548   3.512 -0.0970  0.1203 -0.3164
 7425SOL    HW133737   1.498   0.518   3.473 -0.4995 -1.7266  0.2508
 7425SOL    HW233738   1.348   0.522   3.449  0.3611 -3.3040  0.6024
 7426SOL     OW33739   1.165   4.661  13.587 -0.1975  0.2808 -0.3640
 7426SOL    HW133740   1.159   4.698  13.675  0.9521 -0.9517  0.2293
 7426SOL    HW233741   1.231   4.720  13.552  0.9577 -1.5213 -1.1858
 7427SOL     OW33742   2.530   2.760   7.019  0.2598  0.4471 -0.1401
 7427SOL    HW133743   2.578   2.786   7.098 -1.8129  1.4354  0.7933
 7427SOL    HW233744   2.597   2.717   6.966 -0.6621  0.0984 -1.0175
 7428SOL     OW33745   0.344   2.131  11.923  0.2098 -0.4344  0.2220
 7428SOL    HW133746   0.410   2.125  11.992  0.3083 -2.0338 -0.0217
 7428SOL    HW233747   0.311   2.221  11.924  0.9590 -0.1498 -2.5868
 7429SOL     OW33748   1.926   3.194   9.447  0.5994 -0.0261  0.5511
 7429SOL    HW133749   1.849   3.250   9.455  0.4402 -0.0608 -0.7343
 7429SOL    HW233750   1.974   3.235   9.375 -0.9136 -1.3613 -1.1951
 7430SOL     OW33751   3.864   4.364   2.113  0.1030  0.6084  0.1373
 7430SOL    HW133752   3.843   4.420   2.038 -2.5154  0.1562  0.5441
 7430SOL    HW233753   3.863   4.276   2.074  1.6312  0.0623  1.3122
 7431SOL     OW33754   4.070   2.746   6.784 -0.2120  0.2031 -0.0830
 7431SOL    HW133755   4.126   2.756   6.861 -1.6429  0.9425  0.8673
 7431SOL    HW233756   4.138   2.747   6.718  0.1999 -0.3358  0.3270
 7432SOL     OW33757   2.919   0.400  11.909 -0.1183 -0.4081 -0.0172
 7432SOL    HW133758   2.909   0.309  11.937 -0.5809 -1.3590 -3.1959
 7432SOL    HW233759   3.005   0.419  11.945 -0.2576 -0.3971  0.3068
 7433SOL     OW33760   3.499   2.964  16.765  0.0145  0.0497 -0.4749
 7433SOL    HW133761   3.484   3.051  16.729  0.9500  0.5176  0.2588
 7433SOL    HW233762   3.548   2.980  16.846  1.3380  0.4360 -1.3544
 7434SOL     OW33763   1.313   1.219   4.206  0.5307 -0.0157 -0.1108
 7434SOL    HW133764   1.268   1.287   4.256  1.0925  0.4260 -0.2018
 7434SOL    HW233765   1.327   1.255   4.119 -1.3456 -4.0573 -2.0782
 7435SOL     OW33766   3.148   3.419   3.826  0.3658  0.0957  0.1414
 7435SOL    HW133767   3.242   3.412   3.807  0.0201 -0.3355 -1.3770
 7435SOL    HW233768   3.105   3.410   3.741  1.9429 -0.9567 -0.5514
 7436SOL     OW33769   3.737   1.000  17.277 -0.4013 -0.3566 -0.2181
 7436SOL    HW133770   3.732   1.071  17.214 -2.0924 -0.2379  0.0596
 7436SOL    HW233771   3.779   1.043  17.351  2.6141  0.7532 -2.5594
 7437SOL     OW33772   2.071   0.365   1.329  0.3101  0.2382  0.1989
 7437SOL    HW133773   2.013   0.432   1.293  0.7101  0.7195  0.4626
 7437SOL    HW233774   2.097   0.311   1.255 -1.3691 -1.0449  0.5284
 7438SOL     OW33775   2.426   4.110  13.163 -0.3088 -0.4807  0.0435
 7438SOL    HW133776   2.354   4.064  13.120 -0.8007  3.4947 -3.3648
 7438SOL    HW233777   2.493   4.041  13.156  1.5294  1.2349  0.6378
 7439SOL     OW33778   2.801   0.257   6.792  0.2231 -0.4719 -0.5745
 7439SOL    HW133779   2.715   0.269   6.833  0.8959  0.8682  0.4747
 7439SOL    HW233780   2.796   0.316   6.716 -0.4886  1.1728  0.7331
 7440SOL     OW33781   1.008   1.011   0.448 -0.2924 -0.7575  0.0509
 7440SOL    HW133782   1.083   1.060   0.482 -0.7685  0.0171 -0.0118
 7440SOL    HW233783   1.040   0.922   0.436  1.4170 -0.1934  0.4086
 7441SOL     OW33784   4.194   3.790   3.862 -0.7111  0.0090 -0.4003
 7441SOL    HW133785   4.157   3.710   3.899 -1.3308  0.3203 -0.3496
 7441SOL    HW233786   4.149   3.785   3.777 -0.4648  0.3864 -0.5506
 7442SOL     OW33787   1.364   3.837  14.287  0.2251  0.5325  0.6682
 7442SOL    HW133788   1.344   3.787  14.366 -2.9895 -0.0443 -0.4972
 7442SOL    HW233789   1.273   3.851  14.259  0.8796 -0.7641 -2.1120
 7443SOL     OW33790   1.633   4.304   7.214  0.5431 -0.0517  0.0813
 7443SOL    HW133791   1.637   4.278   7.306 -0.2538 -2.1216 -0.4701
 7443SOL    HW233792   1.663   4.395   7.218  0.9887 -0.1469 -1.1378
 7444SOL     OW33793   3.023   0.470  16.159  0.0486  0.3081 -0.6079
 7444SOL    HW133794   2.938   0.425  16.159  0.1133  0.1717  3.0281
 7444SOL    HW233795   3.033   0.487  16.066 -2.8619  1.5220 -0.7174
 7445SOL     OW33796   4.286   3.777  15.673 -0.0402 -0.4016  0.1332
 7445SOL    HW133797   4.311   3.720  15.747 -0.5229 -2.5294 -1.3413
 7445SOL    HW233798   4.233   3.718  15.620  0.8008 -0.0369 -1.1056
 7446SOL     OW33799   2.139   1.313  15.874 -0.2110 -0.4149  0.0104
 7446SOL    HW133800   2.179   1.229  15.899  2.0321  0.5059 -0.5004
 7446SOL    HW233801   2.145   1.297  15.779 -1.1245 -0.1845 -0.0862
 7447SOL     OW33802   3.407   0.719   7.088  0.2856  0.1985 -0.3589
 7447SOL    HW133803   3.326   0.758   7.121 -0.3593  1.6779 -3.7067
 7447SOL    HW233804   3.386   0.628   7.111  1.8549  0.4774  2.1525
 7448SOL     OW33805   3.167   0.528   7.539  0.2315  0.2385  0.1596
 7448SOL    HW133806   3.174   0.461   7.471 -0.6289  1.0887 -0.7667
 7448SOL    HW233807   3.257   0.557   7.553  0.0409  0.6466  0.5857
 7449SOL     OW33808   3.011   1.413   5.086 -0.6263 -0.3200  0.1186
 7449SOL    HW133809   2.929   1.365   5.074 -0.2495 -1.4788  2.1877
 7449SOL    HW233810   2.978   1.503   5.093 -0.1335 -0.2660  1.9039
 7450SOL     OW33811   3.783   2.967   6.260 -0.4286  0.4007  0.3958
 7450SOL    HW133812   3.718   2.922   6.207  0.7905 -3.1830  1.9066
 7450SOL    HW233813   3.720   3.005   6.322  0.0558  0.1249  1.0660
 7451SOL     OW33814   3.815   3.239   3.384  0.7972  0.0367  0.6764
 7451SOL    HW133815   3.813   3.299   3.310 -2.7015 -0.3101  0.4961
 7451SOL    HW233816   3.776   3.161   3.343 -1.1775  2.5326 -2.1639
 7452SOL     OW33817   2.406   0.424   2.348  0.0381 -0.2170  0.1369
 7452SOL    HW133818   2.439   0.382   2.268  3.1552 -2.2492  2.4756
 7452SOL    HW233819   2.444   0.511   2.344  1.7167 -0.9622 -0.3528
 7453SOL     OW33820   2.728   2.181   2.528 -0.0778 -0.1758  0.4462
 7453SOL    HW133821   2.783   2.212   2.600 -0.7344 -1.5249  1.5265
 7453SOL    HW233822   2.706   2.259   2.478  0.8912 -1.2740 -1.6791
 7454SOL     OW33823   3.701   1.832   2.642  0.2632  0.1499  0.6414
 7454SOL    HW133824   3.629   1.894   2.648  0.0701  0.0342 -0.3521
 7454SOL    HW233825   3.772   1.896   2.638  0.5347 -0.0456  2.4662
 7455SOL     OW33826   3.297   3.164  17.166  0.0502 -0.0299 -0.1858
 7455SOL    HW133827   3.218   3.160  17.219 -0.3334 -0.9696 -0.8373
 7455SOL    HW233828   3.267   3.114  17.090  2.0374 -2.0113  0.3488
 7456SOL     OW33829   3.082   0.685   3.443  0.5814  0.8996  0.1873
 7456SOL    HW133830   3.009   0.656   3.497  1.3018  1.6784  1.5786
 7456SOL    HW233831   3.153   0.632   3.480  0.2626  1.5383  1.7116
 7457SOL     OW33832   1.097   2.742   0.884 -0.3098  0.2120  0.1894
 7457SOL    HW133833   1.146   2.825   0.888 -0.8456  0.6613 -2.3901
 7457SOL    HW233834   1.106   2.722   0.791 -1.2413  3.7349 -0.6779
 7458SOL     OW33835   4.243   4.306   5.788 -0.4833  0.3775  0.6558
 7458SOL    HW133836   4.166   4.361   5.777 -0.5829  0.1398  0.1348
 7458SOL    HW233837   4.285   4.346   5.863  2.5416 -0.4467 -0.5815
 7459SOL     OW33838   1.350   2.836   5.708 -0.1342  0.0930 -0.3235
 7459SOL    HW133839   1.385   2.811   5.622  2.6025  0.6403  0.6339
 7459SOL    HW233840   1.399   2.777   5.766 -0.4235  0.3902  0.2277
 7460SOL     OW33841   0.744   3.161  16.391 -0.3940 -0.1543 -0.6264
 7460SOL    HW133842   0.810   3.110  16.437  1.5861  1.9013 -1.1538
 7460SOL    HW233843   0.712   3.220  16.459  1.4816  1.3769 -1.0662
 7461SOL     OW33844   2.567   0.330   2.134  0.6210 -0.4872 -0.0204
 7461SOL    HW133845   2.574   0.256   2.075  1.1150 -0.0396 -0.5204
 7461SOL    HW233846   2.616   0.393   2.081  1.5641  0.1751  1.6094
 7462SOL     OW33847   2.407   2.077   4.071  0.6747 -0.2007  0.2420
 7462SOL    HW133848   2.494   2.116   4.060  1.3755 -2.1490 -1.1925
 7462SOL    HW233849   2.407   2.004   4.009 -3.2724  0.0481 -0.0391
 7463SOL     OW33850   4.393   1.620  11.007  0.0212 -0.7952 -0.0529
 7463SOL    HW133851   4.318   1.575  10.970  0.6196 -2.8863  1.2922
 7463SOL    HW233852   4.448   1.555  11.050 -0.4483 -0.3126  1.2941
 7464SOL     OW33853   0.892   1.286   4.172 -0.8583 -0.4427  0.2365
 7464SOL    HW133854   0.894   1.257   4.080 -1.5281 -0.5699  0.2574
 7464SOL    HW233855   0.918   1.377   4.160 -0.2550 -0.6914 -0.3175
 7465SOL     OW33856   3.944   1.188   8.041  0.3227 -0.8355  0.0792
 7465SOL    HW133857   3.860   1.227   8.018  0.4907  0.2553  1.3531
 7465SOL    HW233858   3.920   1.119   8.103  0.5032 -2.3216 -1.5228
 7466SOL     OW33859   3.647   0.704   2.430  0.5536 -0.0304  0.2872
 7466SOL    HW133860   3.637   0.779   2.489 -0.3618 -1.2853  1.7164
 7466SOL    HW233861   3.701   0.746   2.362 -2.3388  0.2432 -1.8401
 7467SOL     OW33862   0.201   0.066  11.468 -0.5652  0.0080 -0.7239
 7467SOL    HW133863   0.133   0.076  11.535  1.8022 -0.5482  1.7148
 7467SOL    HW233864   0.160   4.723  11.413 -0.5110 -1.4164  0.9885
 7468SOL     OW33865   3.757   3.568   8.757 -0.1805  0.5974 -0.0092
 7468SOL    HW133866   3.716   3.585   8.672  1.4529  0.4759 -0.8232
 7468SOL    HW233867   3.744   3.656   8.793 -1.3816  0.4393 -0.0477
 7469SOL     OW33868   3.709   0.925   7.119 -0.8430 -0.4138  0.0732
 7469SOL    HW133869   3.655   0.901   7.044 -0.0830 -2.4490  0.1677
 7469SOL    HW233870   3.644   0.980   7.163 -1.4576 -2.4304  1.6790
 7470SOL     OW33871   3.553   3.560  16.677 -0.7605 -0.0188  0.4771
 7470SOL    HW133872   3.541   3.611  16.757  0.4906  0.7146  0.2004
 7470SOL    HW233873   3.470   3.517  16.659  0.0096 -1.3800  0.1955
 7471SOL     OW33874   4.578   2.873  13.984 -0.5819  0.0779 -0.5035
 7471SOL    HW133875   4.556   2.834  13.899 -0.8861  3.6330 -2.0616
 7471SOL    HW233876   4.667   2.848  14.007 -1.0609  0.9430  2.3180
 7472SOL     OW33877   4.206   3.964  11.210 -0.3089 -0.2344 -0.4144
 7472SOL    HW133878   4.264   4.039  11.195 -0.4401 -0.0548 -0.0234
 7472SOL    HW233879   4.195   3.974  11.305 -0.3729 -2.2488 -0.2070
 7473SOL     OW33880   0.791   3.605   8.237  0.5669  0.4919  0.1034
 7473SOL    HW133881   0.715   3.601   8.178  0.9993  0.2199 -0.4326
 7473SOL    HW233882   0.747   3.560   8.309 -1.3909  0.4175 -1.1181
 7474SOL     OW33883   1.858   1.775   4.358  0.4566 -0.3228 -0.0484
 7474SOL    HW133884   1.915   1.762   4.433 -0.4994  0.5746  0.8290
 7474SOL    HW233885   1.925   1.761   4.291 -1.5503 -1.9420 -1.7169
 7475SOL     OW33886   1.300   2.224   7.899 -0.2044  0.2091 -0.1937
 7475SOL    HW133887   1.285   2.263   7.985  0.7916  2.2093 -0.9226
 7475SOL    HW233888   1.325   2.137   7.930 -1.7580 -0.1180  0.1267
 7476SOL     OW33889   0.162   0.591   8.532  0.3148 -0.1330  0.4963
 7476SOL    HW133890   0.193   0.665   8.481 -0.7692  0.5156  0.7663
 7476SOL    HW233891   0.070   0.617   8.540 -0.0404 -0.5953 -2.1455
 7477SOL     OW33892   3.374   4.557   6.667  0.4985  0.3425 -0.5164
 7477SOL    HW133893   3.464   4.558   6.634  0.5389  1.3036 -0.3724
 7477SOL    HW233894   3.321   4.589   6.594 -0.1566 -2.5608 -1.3112
 7478SOL     OW33895   3.600   2.755   0.549  0.2040  0.5874  0.4647
 7478SOL    HW133896   3.553   2.743   0.632 -1.2707 -0.9660 -0.6234
 7478SOL    HW233897   3.537   2.802   0.495 -1.1846 -0.9716  0.7663
 7479SOL     OW33898   2.906   2.240   6.065  0.0419 -0.3581  0.1773
 7479SOL    HW133899   2.988   2.221   6.020  1.4311  0.4520  2.3544
 7479SOL    HW233900   2.839   2.183   6.027 -1.5914  0.2186  2.1687
 7480SOL     OW33901   2.084   1.668   8.516  0.1049  0.0105  0.3208
 7480SOL    HW133902   2.036   1.615   8.453 -0.3809  0.2277  0.5092
 7480SOL    HW233903   2.144   1.711   8.455  0.5394 -3.2025 -1.4671
 7481SOL     OW33904   2.210   3.989  13.026 -0.0105 -0.3447 -0.2341
 7481SOL    HW133905   2.265   3.924  12.983 -3.2634 -3.1720 -0.1545
 7481SOL    HW233906   2.124   3.948  13.014  1.1433 -2.7351 -0.4392
 7482SOL     OW33907   2.784   2.951   9.721 -0.2938  0.3075 -0.5353
 7482SOL    HW133908   2.806   2.886   9.788 -0.1444  0.4233 -0.4729
 7482SOL    HW233909   2.847   2.917   9.657  0.9266  0.5572  0.5335
 7483SOL     OW33910   3.579   0.459   7.652  0.4243 -0.0965 -0.5138
 7483SOL    HW133911   3.615   0.449   7.564 -0.0236 -2.8524 -0.3811
 7483SOL    HW233912   3.619   0.384   7.696 -0.0304 -0.2465 -0.3582
 7484SOL     OW33913   4.684   4.505  10.792  0.2593  0.1083  0.0022
 7484SOL    HW133914   4.601   4.550  10.805 -1.5204 -2.7814 -1.4834
 7484SOL    HW233915   4.659   4.428  10.741  0.8855 -0.0162 -0.1168
 7485SOL     OW33916   3.474   1.888  15.693  0.3598 -0.7260 -0.2832
 7485SOL    HW133917   3.516   1.957  15.745  0.6843 -1.3611  0.2988
 7485SOL    HW233918   3.431   1.942  15.627  0.1754 -1.2558 -0.5909
 7486SOL     OW33919   2.702   0.969   2.404 -0.0406 -0.2248  0.3181
 7486SOL    HW133920   2.642   1.035   2.370 -1.2880 -1.3816  0.2591
 7486SOL    HW233921   2.674   0.942   2.491  1.3326 -2.4216  0.0932
 7487SOL     OW33922   2.474   0.114   1.720  0.0991 -0.4851 -0.3428
 7487SOL    HW133923   2.546   0.052   1.732  0.0575 -0.5655 -0.5017
 7487SOL    HW233924   2.422   0.066   1.656 -1.6950 -1.7241  2.0203
 7488SOL     OW33925   3.465   2.740   3.638 -0.0301  0.1700 -0.3933
 7488SOL    HW133926   3.527   2.784   3.579  0.0659  2.1581  1.1849
 7488SOL    HW233927   3.389   2.739   3.579 -0.2111 -0.7139 -0.1365
 7489SOL     OW33928   3.854   4.036   7.138  0.0915  0.3383  0.2461
 7489SOL    HW133929   3.880   3.950   7.106 -1.5710  0.0799 -0.4309
 7489SOL    HW233930   3.913   4.091   7.085 -0.8271  3.2743  2.2676
 7490SOL     OW33931   4.088   4.378   3.856 -0.1522 -0.1648  0.1288
 7490SOL    HW133932   4.067   4.447   3.793  3.9175 -0.9698 -2.1197
 7490SOL    HW233933   4.181   4.399   3.866 -0.5612  1.4504  0.5206
 7491SOL     OW33934   4.328   3.888   5.960 -0.0376  0.5688 -0.3059
 7491SOL    HW133935   4.296   3.975   5.933 -0.9603  0.8484  1.6687
 7491SOL    HW233936   4.292   3.877   6.048 -0.5641 -0.2589 -0.6259
 7492SOL     OW33937   1.556   2.871   9.292 -0.4234 -0.6394  0.0429
 7492SOL    HW133938   1.637   2.916   9.317 -0.5979  1.0584 -2.4757
 7492SOL    HW233939   1.596   2.790   9.261  0.3188 -0.4181  0.3938
 7493SOL     OW33940   3.053   2.886   9.632  0.2435 -0.1890  0.1105
 7493SOL    HW133941   3.062   2.794   9.609 -0.5573  0.0401 -1.1046
 7493SOL    HW233942   3.143   2.919   9.632  0.0142  0.4378  0.4236
 7494SOL     OW33943   0.770   0.973   7.739 -0.3425 -0.3026 -0.9678
 7494SOL    HW133944   0.734   1.056   7.708  0.3779  0.5298  0.4887
 7494SOL    HW233945   0.797   0.935   7.655  0.0110 -0.4527 -0.7825
 7495SOL     OW33946   1.848   1.130   1.827  0.1294 -0.6204  0.0382
 7495SOL    HW133947   1.840   1.221   1.801  2.0860 -0.0903  1.3231
 7495SOL    HW233948   1.865   1.084   1.744  0.1836  0.2308 -0.4166
 7496SOL     OW33949   3.367   4.698   6.164  0.3127  0.3049  0.3166
 7496SOL    HW133950   3.337   4.680   6.253 -2.4984  1.3726 -0.4061
 7496SOL    HW233951   3.336   0.063   6.156  0.0239  0.0928 -0.9259
 7497SOL     OW33952   3.208   3.958  15.743 -0.1872 -0.4550  0.2907
 7497SOL    HW133953   3.169   4.001  15.819  2.2098  0.6330  0.9308
 7497SOL    HW233954   3.167   3.872  15.745 -0.6642 -0.2327  0.0063
 7498SOL     OW33955   4.078   2.522   1.044 -0.5184 -0.2245  0.4611
 7498SOL    HW133956   4.133   2.589   1.004  0.9033 -0.2241  2.4335
 7498SOL    HW233957   4.122   2.448   1.003 -1.9009 -1.3804  1.0451
 7499SOL     OW33958   0.475   2.408   8.467  0.1277  0.4057  0.4091
 7499SOL    HW133959   0.516   2.486   8.431  0.5099 -0.8091 -1.7628
 7499SOL    HW233960   0.388   2.440   8.492  1.7036  1.8040  4.0499
 7500SOL     OW33961   1.747   3.386   8.645 -0.2777  0.3847 -0.6359
 7500SOL    HW133962   1.737   3.414   8.736 -1.7463 -0.0909 -0.6573
 7500SOL    HW233963   1.677   3.320   8.646 -0.6709  0.8066 -0.7809
 7501SOL     OW33964   2.614   3.497  11.776 -0.3249 -0.0597 -0.3730
 7501SOL    HW133965   2.607   3.501  11.871  1.3032 -2.0187 -0.1721
 7501SOL    HW233966   2.576   3.409  11.774  0.7032 -0.5329  0.8984
 7502SOL     OW33967   2.606   1.125   3.669 -0.2434  0.0093 -0.1913
 7502SOL    HW133968   2.597   1.034   3.695  3.6078  0.5596  2.9744
 7502SOL    HW233969   2.676   1.128   3.604 -0.3224 -1.4750 -0.3278
 7503SOL     OW33970   1.992   4.261   7.906 -0.2082 -0.2214  0.5758
 7503SOL    HW133971   2.042   4.314   7.968  1.1056 -0.3979 -0.3293
 7503SOL    HW233972   2.039   4.178   7.906 -0.7755 -0.5401 -1.4832
 7504SOL     OW33973   3.511   1.826   1.553  0.0296  0.1273 -0.1109
 7504SOL    HW133974   3.589   1.774   1.530 -0.6869 -0.7530 -0.5251
 7504SOL    HW233975   3.441   1.766   1.574 -0.4091 -0.2385 -2.5993
 7505SOL     OW33976   1.394   2.797   8.579 -0.1544 -0.1569  0.5546
 7505SOL    HW133977   1.469   2.778   8.634 -1.7764 -1.3698  2.3560
 7505SOL    HW233978   1.316   2.782   8.633 -2.2918 -0.2196 -2.5555
 7506SOL     OW33979   2.646   4.305   8.452  0.1350  0.4445 -0.0383
 7506SOL    HW133980   2.722   4.363   8.459  0.8750 -0.7891  2.4880
 7506SOL    HW233981   2.602   4.314   8.537  1.0305  2.3639  0.2277
 7507SOL     OW33982   3.967   4.379   4.949 -0.0164 -0.0024 -0.0958
 7507SOL    HW133983   3.963   4.415   4.861 -0.2556 -0.2198 -0.1737
 7507SOL    HW233984   3.928   4.293   4.937 -0.7564  0.4345 -0.7933
 7508SOL     OW33985   3.736   0.660  10.400  0.5684 -0.1312 -0.0226
 7508SOL    HW133986   3.830   0.643  10.403  0.4840 -0.4471  1.0716
 7508SOL    HW233987   3.725   0.751  10.374 -0.2755 -0.6257 -1.3688
 7509SOL     OW33988   0.866   2.081   3.386  0.5898 -0.2707 -0.0962
 7509SOL    HW133989   0.858   2.173   3.360 -1.9996 -0.4893 -0.0672
 7509SOL    HW233990   0.775   2.056   3.405  0.4204  2.6102  2.9202
 7510SOL     OW33991   0.753   2.252   3.046 -0.2669  0.0424  0.1345
 7510SOL    HW133992   0.666   2.291   3.057  0.1380  1.6654 -2.4288
 7510SOL    HW233993   0.747   2.166   3.088 -3.1631  0.4295  0.4631
 7511SOL     OW33994   4.390   4.652   7.450  0.1212  0.4480 -0.1691
 7511SOL    HW133995   4.470   4.646   7.503 -0.0051 -0.8034 -0.1082
 7511SOL    HW233996   4.329   4.591   7.491 -1.5315  1.4675 -1.1309
 7512SOL     OW33997   0.010   4.227   5.094 -0.1962 -0.4306  0.0676
 7512SOL    HW133998   4.704   4.151   5.142 -0.0328  0.7186  1.9951
 7512SOL    HW233999   4.700   4.197   5.010  1.8510  0.5459 -1.1338
 7513SOL     OW34000   0.100   0.962   4.836  0.1621  0.0507 -0.3490
 7513SOL    HW134001   0.120   1.051   4.864  2.3271  0.2739 -2.5468
 7513SOL    HW234002   0.075   0.979   4.745 -0.9342 -0.7216 -0.1893
 7514SOL     OW34003   2.830   3.386   3.823 -0.2236 -0.0454  0.1230
 7514SOL    HW134004   2.769   3.381   3.750 -0.8423  2.2926  0.4834
 7514SOL    HW234005   2.891   3.456   3.799  0.3339 -0.2956  0.8248
 7515SOL     OW34006   1.073   4.486   4.975  0.1089  0.6083  0.3634
 7515SOL    HW134007   1.050   4.554   4.912  0.1486  0.3033  0.0191
 7515SOL    HW234008   0.993   4.481   5.027  0.5693  0.2826  1.0449
 7516SOL     OW34009   2.569   2.842  10.770 -0.3010 -1.0850 -0.5547
 7516SOL    HW134010   2.622   2.860  10.693  0.2580  0.0425  0.0924
 7516SOL    HW234011   2.633   2.807  10.832 -1.1995  0.1647  1.0894
 7517SOL     OW34012   3.271   0.378   5.815 -0.1209 -0.6071 -0.1958
 7517SOL    HW134013   3.241   0.452   5.762 -0.2447 -1.6193 -1.5245
 7517SOL    HW234014   3.311   0.425   5.888  0.9810 -0.4679 -0.8888
 7518SOL     OW34015   2.975   3.041   1.803  0.5313  0.1324 -0.1376
 7518SOL    HW134016   2.982   2.951   1.770  0.6287  0.6403 -1.5167
 7518SOL    HW234017   2.972   3.026   1.897 -1.8101 -2.1216 -0.5663
 7519SOL     OW34018   2.166   0.184   8.379  0.6319  0.2972  0.0338
 7519SOL    HW134019   2.201   0.099   8.407  0.8500  0.8258  1.3460
 7519SOL    HW234020   2.135   0.222   8.461 -1.8558  1.4040 -1.4360
 7520SOL     OW34021   0.372   0.917   4.623 -0.1019 -0.1240 -0.3422
 7520SOL    HW134022   0.360   0.857   4.697  1.1128 -0.0472 -0.0839
 7520SOL    HW234023   0.370   1.000   4.670 -0.6607 -0.1479 -0.3256
 7521SOL     OW34024   1.364   2.663  12.945 -0.1030  0.4816 -0.1870
 7521SOL    HW134025   1.326   2.645  12.859  2.3007 -1.0761 -0.9203
 7521SOL    HW234026   1.384   2.571  12.966 -1.7472  0.0648 -0.4269
 7522SOL     OW34027   1.576   3.256  11.197  0.2951  0.3589 -0.2196
 7522SOL    HW134028   1.481   3.267  11.192  0.2756 -0.3455 -1.2809
 7522SOL    HW234029   1.571   3.166  11.165  1.6880 -0.2184  1.1879
 7523SOL     OW34030   1.375   0.183  11.334  0.1907  0.1953  0.1101
 7523SOL    HW134031   1.351   0.116  11.271  2.5734  0.8143 -1.4653
 7523SOL    HW234032   1.340   0.261  11.290  0.6336  0.1782 -0.2735
 7524SOL     OW34033   0.809   3.059   4.412  0.0387  0.1790 -0.0952
 7524SOL    HW134034   0.782   3.023   4.496  0.4506 -1.0552 -0.4844
 7524SOL    HW234035   0.794   2.985   4.353  1.3694  1.0643 -1.5510
 7525SOL     OW34036   0.841   0.356   1.730 -0.2528 -0.3773 -0.3101
 7525SOL    HW134037   0.918   0.347   1.674  0.3785  0.7935  0.3919
 7525SOL    HW234038   0.814   0.443   1.700 -1.3389 -0.4149  0.5597
 7526SOL     OW34039   4.232   4.058   1.825  0.1089 -0.1324  0.4391
 7526SOL    HW134040   4.173   4.068   1.750  2.5116 -0.6774 -1.5350
 7526SOL    HW234041   4.193   3.984   1.871 -2.0748  1.4846  1.1984
 7527SOL     OW34042   1.301   3.891   9.788 -0.0363  0.1144  0.1042
 7527SOL    HW134043   1.208   3.889   9.813  0.6821 -2.4736  2.5968
 7527SOL    HW234044   1.307   3.858   9.698  0.3041 -0.8599  0.4869
 7528SOL     OW34045   0.020   4.372   5.856  0.7517  0.5719 -0.2427
 7528SOL    HW134046   0.058   4.426   5.787 -1.8530  1.1427 -1.2118
 7528SOL    HW234047   0.047   4.282   5.835  0.1602  0.3224  0.0623
 7529SOL     OW34048   0.900   3.755   7.457  0.0888  0.0124  0.5681
 7529SOL    HW134049   0.812   3.791   7.447  1.3544  3.6174  2.7562
 7529SOL    HW234050   0.950   3.836   7.453 -0.6353  0.4457  0.3098
 7530SOL     OW34051   3.212   4.611   7.465 -0.4159 -0.0712 -0.2993
 7530SOL    HW134052   3.185   4.521   7.482 -0.3154  0.1147  0.8237
 7530SOL    HW234053   3.300   4.605   7.427  0.1081 -0.5897  0.9979
 7531SOL     OW34054   0.456   0.594   2.711 -0.2528 -0.2330  0.4332
 7531SOL    HW134055   0.441   0.636   2.626  1.2386 -0.3360  0.1048
 7531SOL    HW234056   0.544   0.630   2.727  0.2149 -0.7945 -0.8287
 7532SOL     OW34057   4.677   3.888   8.866 -0.1904  0.5660  0.3275
 7532SOL    HW134058   4.636   3.813   8.825  1.0736 -0.2219  0.5134
 7532SOL    HW234059   4.624   3.919   8.940 -0.2787 -1.9949  1.3200
 7533SOL     OW34060   2.076   1.164   7.797  0.6245 -0.3091  0.3198
 7533SOL    HW134061   2.122   1.215   7.730  0.0596 -0.7987 -0.4396
 7533SOL    HW234062   2.122   1.082   7.815 -2.3701 -2.0650  0.0576
 7534SOL     OW34063   4.544   4.007  10.390 -0.2802 -0.2998  0.0190
 7534SOL    HW134064   4.567   4.024  10.481  1.6768 -1.4857 -0.2497
 7534SOL    HW234065   4.605   4.065  10.345 -1.3720  0.2073 -0.8068
 7535SOL     OW34066   0.732   3.938  16.976 -0.1966  0.6538 -0.7518
 7535SOL    HW134067   0.816   3.903  16.948 -0.1111 -1.0513  1.6412
 7535SOL    HW234068   0.754   4.031  16.973 -1.4164  0.9037 -1.8716
 7536SOL     OW34069   0.565   0.637   2.060  0.3055  0.2235 -0.2208
 7536SOL    HW134070   0.507   0.563   2.080 -0.1109  0.3722 -0.8889
 7536SOL    HW234071   0.522   0.704   2.114  0.1732 -0.0983  0.0726
 7537SOL     OW34072   2.754   2.105   2.144 -0.0605  0.1678 -0.0241
 7537SOL    HW134073   2.743   2.139   2.055 -0.5343 -1.2422 -0.4937
 7537SOL    HW234074   2.676   2.052   2.157  0.1711  0.4927  2.5803
 7538SOL     OW34075   1.522   1.876   5.937 -0.8825  0.3818  0.6950
 7538SOL    HW134076   1.613   1.860   5.962 -0.2192 -1.4581 -2.8301
 7538SOL    HW234077   1.475   1.852   6.017 -2.2977 -0.3560 -0.3368
 7539SOL     OW34078   1.836   3.681   3.016 -0.0778  0.5284 -0.2891
 7539SOL    HW134079   1.796   3.603   3.054 -0.9857  2.9105  3.6174
 7539SOL    HW234080   1.863   3.652   2.928 -0.6548 -0.9229  0.0133
 7540SOL     OW34081   3.851   4.121   1.993 -0.4434  0.1881  0.1618
 7540SOL    HW134082   3.871   4.028   1.985 -0.1591  0.2618  0.0065
 7540SOL    HW234083   3.769   4.129   1.944 -0.4528 -1.6081 -0.1020
 7541SOL     OW34084   4.417   0.346   4.211 -0.2860 -0.0501  0.5009
 7541SOL    HW134085   4.509   0.318   4.217 -0.6596 -1.2389  0.5745
 7541SOL    HW234086   4.421   0.429   4.163  3.3555 -0.5500 -0.0835
 7542SOL     OW34087   3.729   1.031   4.334  0.1574 -0.0208 -0.2476
 7542SOL    HW134088   3.768   0.960   4.385 -0.4911 -1.3596 -1.6086
 7542SOL    HW234089   3.761   1.015   4.245  0.1254 -1.8811  0.0678
 7543SOL     OW34090   3.464   0.754   3.169  0.0813 -0.4841  0.3553
 7543SOL    HW134091   3.396   0.785   3.230  0.9398 -2.0157  2.0668
 7543SOL    HW234092   3.500   0.838   3.139  0.3013 -0.6714  0.0995
 7544SOL     OW34093   2.112   2.163   5.334 -0.5839 -0.3599  0.7188
 7544SOL    HW134094   2.094   2.180   5.427 -0.9427 -0.4664  0.6678
 7544SOL    HW234095   2.032   2.186   5.287 -1.3290 -0.6205  1.8546
 7545SOL     OW34096   2.284   0.225   4.662  0.2028  0.0813 -0.0725
 7545SOL    HW134097   2.286   0.312   4.620 -4.7066  0.0962 -0.2294
 7545SOL    HW234098   2.306   0.247   4.752 -1.0022  1.9419 -0.2337
 7546SOL     OW34099   2.662   0.342   1.080  0.1303  0.0781  0.0112
 7546SOL    HW134100   2.756   0.322   1.087  0.1055  0.7859  2.4890
 7546SOL    HW234101   2.661   0.359   0.986  1.3668 -0.3015 -0.0697
 7547SOL     OW34102   2.108   3.038   5.695  0.4875 -0.3375  0.0082
 7547SOL    HW134103   2.109   2.991   5.778  0.9701 -0.5317 -0.1039
 7547SOL    HW234104   2.189   3.089   5.704  0.0437  0.4899 -0.7538
 7548SOL     OW34105   4.398   4.363  11.357 -0.3005 -0.1846 -0.2864
 7548SOL    HW134106   4.367   4.453  11.370  1.2867  0.5558 -1.6458
 7548SOL    HW234107   4.347   4.311  11.419  0.6409 -0.7942 -0.0318
 7549SOL     OW34108   1.811   2.315   6.885  0.3381  0.1879  0.2034
 7549SOL    HW134109   1.839   2.232   6.924  0.6070 -1.1333 -2.7511
 7549SOL    HW234110   1.718   2.298   6.873  0.2611 -0.2111  1.4073
 7550SOL     OW34111   2.087   2.614   5.515 -0.0307 -0.0077  0.0893
 7550SOL    HW134112   2.101   2.674   5.442 -0.5800  1.2800  1.0375
 7550SOL    HW234113   2.169   2.633   5.560 -1.1404  1.9025  1.3327
 7551SOL     OW34114   2.864   3.177   2.548 -0.6891 -0.7497 -0.5060
 7551SOL    HW134115   2.828   3.262   2.522 -1.0825 -0.6316  0.3901
 7551SOL    HW234116   2.925   3.196   2.620 -0.7787  1.0929 -0.9059
 7552SOL     OW34117   0.099   1.229  12.931 -0.6037  1.2073  0.2629
 7552SOL    HW134118   0.191   1.236  12.956  0.0219 -0.4103 -1.5769
 7552SOL    HW234119   0.066   1.311  12.967  0.0652  2.0877 -1.1380
 7553SOL     OW34120   2.989   0.081  17.313  0.4499 -0.1145 -0.3409
 7553SOL    HW134121   3.021   0.158  17.266  2.2412 -1.3621 -1.1390
 7553SOL    HW234122   2.915   0.054  17.258  0.6509 -0.4602 -0.4386
 7554SOL     OW34123   2.155   4.323   4.737 -0.0184  0.3878 -0.0578
 7554SOL    HW134124   2.235   4.372   4.755  1.2073 -1.5664 -0.3069
 7554SOL    HW234125   2.198   4.248   4.697 -1.8993 -0.7745  0.1232
 7555SOL     OW34126   4.007   2.960   6.463 -0.3592  0.1093 -0.3349
 7555SOL    HW134127   3.976   2.957   6.372  2.2533  0.5081 -1.2367
 7555SOL    HW234128   3.985   2.869   6.484  1.2098 -0.0561  0.5598
 7556SOL     OW34129   4.080   2.348   6.677  0.7693  0.0206 -0.0485
 7556SOL    HW134130   4.022   2.398   6.619  1.3543  0.4139 -0.2952
 7556SOL    HW234131   4.051   2.377   6.763  0.8852  0.3609 -0.1232
 7557SOL     OW34132   3.758   0.309   8.584  0.0283  0.4325 -0.2900
 7557SOL    HW134133   3.844   0.348   8.595 -0.4008  1.2408  0.2363
 7557SOL    HW234134   3.721   0.360   8.512  0.1617  1.3346  0.2849
 7558SOL     OW34135   2.319   3.631   6.542 -0.4022 -0.5825  0.1682
 7558SOL    HW134136   2.279   3.715   6.562  1.0602 -0.2576  1.7039
 7558SOL    HW234137   2.264   3.601   6.470 -0.0392  1.5422 -0.9876
 7559SOL     OW34138   2.652   4.148  12.975  0.0530  0.2995 -0.6993
 7559SOL    HW134139   2.707   4.209  13.024 -0.7249  1.4599 -1.2842
 7559SOL    HW234140   2.562   4.164  13.003  0.3189  0.0979  0.2824
 7560SOL     OW34141   1.835   0.683   5.985  0.0026  0.0354  0.4927
 7560SOL    HW134142   1.880   0.606   6.020 -1.2659 -0.9637 -0.0815
 7560SOL    HW234143   1.902   0.743   5.950  0.2444 -0.2666  0.4304
 7561SOL     OW34144   3.838   4.207  12.327 -0.1773 -0.3991  0.0162
 7561SOL    HW134145   3.827   4.299  12.352 -2.1604 -0.4013 -0.8652
 7561SOL    HW234146   3.915   4.217  12.272  0.4280 -3.8249  0.2167
 7562SOL     OW34147   4.365   0.554   2.796  0.1630  0.1493 -0.5470
 7562SOL    HW134148   4.293   0.505   2.836  1.3418  0.2016  1.6527
 7562SOL    HW234149   4.412   0.573   2.878  0.9126  1.7587 -1.3548
 7563SOL     OW34150   3.052   3.024   5.631  0.2358  0.0488  0.3670
 7563SOL    HW134151   2.990   2.979   5.689  0.8813  0.0663  1.0680
 7563SOL    HW234152   3.041   3.118   5.644 -0.2116 -0.0642  0.8296
 7564SOL     OW34153   4.594   2.395   8.780  0.1601 -0.3134 -0.6025
 7564SOL    HW134154   4.634   2.480   8.763  2.5335 -1.0472  1.3040
 7564SOL    HW234155   4.672   2.345   8.803  0.7175  0.9897  0.3315
 7565SOL     OW34156   0.596   2.770   4.443 -0.4670  0.5298 -0.2396
 7565SOL    HW134157   0.528   2.784   4.377  0.0079 -2.0406 -1.2877
 7565SOL    HW234158   0.678   2.774   4.394  0.7995  1.3591  1.9461
 7566SOL     OW34159   2.034   1.849  10.728 -0.2517  0.3156  0.5054
 7566SOL    HW134160   1.990   1.806  10.801  1.4090 -0.8008  0.8600
 7566SOL    HW234161   2.015   1.940  10.750  0.9366  0.6243  0.2864
 7567SOL     OW34162   2.733   1.915   4.147 -0.4144 -0.0797  0.3880
 7567SOL    HW134163   2.704   1.824   4.134 -0.6239  0.0761 -0.1958
 7567SOL    HW234164   2.672   1.929   4.220 -0.8694 -1.2672  0.2354
 7568SOL     OW34165   1.093   1.707  12.707 -0.1669 -0.0925  0.0781
 7568SOL    HW134166   1.176   1.754  12.707 -0.3993  0.3159  2.1622
 7568SOL    HW234167   1.101   1.655  12.787  0.7393  0.3576  0.2718
 7569SOL     OW34168   4.118   1.397  14.743  0.5093  0.2682 -0.2429
 7569SOL    HW134169   4.172   1.325  14.774 -0.0548  0.5911  1.4547
 7569SOL    HW234170   4.139   1.396  14.649 -2.5490  1.4410 -0.9190
 7570SOL     OW34171   1.219   3.510  11.325 -0.5586  0.0605  0.2840
 7570SOL    HW134172   1.191   3.476  11.410  0.0306  1.6188  1.1117
 7570SOL    HW234173   1.201   3.433  11.271 -0.7159 -0.7683  1.5283
 7571SOL     OW34174   3.455   2.483  11.117 -0.2454 -0.4465  0.9261
 7571SOL    HW134175   3.361   2.467  11.126 -0.2332 -2.0338 -1.6911
 7571SOL    HW234176   3.464   2.499  11.023  0.2586  0.0523  1.0612
 7572SOL     OW34177   1.601   0.626  10.222 -0.5804  0.4952  0.0231
 7572SOL    HW134178   1.582   0.557  10.158  0.1175  1.0585 -0.8032
 7572SOL    HW234179   1.557   0.594  10.300 -0.0291  0.2404  0.2335
 7573SOL     OW34180   2.858   1.790   4.753 -0.4072  0.4149 -0.1033
 7573SOL    HW134181   2.923   1.721   4.768 -2.7868 -2.5133 -3.2582
 7573SOL    HW234182   2.857   1.835   4.837  1.4740 -0.5213  0.4277
 7574SOL     OW34183   2.267   2.750  13.713  0.6046 -0.5681  0.2693
 7574SOL    HW134184   2.227   2.823  13.666  1.2663  0.4095  1.2288
 7574SOL    HW234185   2.210   2.750  13.790  2.1266  0.2764  1.3992
 7575SOL     OW34186   4.407   0.462   3.369  0.4171  0.7484  0.4532
 7575SOL    HW134187   4.420   0.410   3.289 -1.6248 -1.4039  1.5151
 7575SOL    HW234188   4.421   0.393   3.434 -0.7681 -1.0733 -1.1974
 7576SOL     OW34189   2.882   1.547   7.508  0.1083  0.1534  0.2306
 7576SOL    HW134190   2.842   1.473   7.555 -0.4023  0.8758  0.9292
 7576SOL    HW234191   2.812   1.612   7.509 -0.9647 -0.9930 -0.7702
 7577SOL     OW34192   1.406   1.072   8.152  0.1904  0.4129  0.0044
 7577SOL    HW134193   1.316   1.085   8.178 -0.0926 -0.5671 -0.4499
 7577SOL    HW234194   1.388   1.100   8.062  0.3712  1.2214  0.2270
 7578SOL     OW34195   1.248   4.060  14.974 -0.2686  0.2111  0.0554
 7578SOL    HW134196   1.336   4.094  14.986 -0.9634  2.3663 -0.9855
 7578SOL    HW234197   1.195   4.134  14.945 -0.5742 -0.2080 -0.4667
 7579SOL     OW34198   2.964   1.894   3.992 -0.4953 -0.4370  0.3638
 7579SOL    HW134199   3.032   1.948   4.033 -0.5179 -1.0445  1.2105
 7579SOL    HW234200   2.894   1.896   4.058  0.6851  0.4810  1.6047
 7580SOL     OW34201   0.570   1.990   7.602  0.1016  0.2008 -0.5438
 7580SOL    HW134202   0.530   1.903   7.604  0.7074 -0.0624 -0.0221
 7580SOL    HW234203   0.516   2.023   7.530  1.3605 -1.6621 -2.3447
 7581SOL     OW34204   2.940   0.071   8.373  0.0381  0.2790 -0.9496
 7581SOL    HW134205   2.862   0.107   8.415 -0.9431 -1.1237 -1.5595
 7581SOL    HW234206   3.000   0.127   8.422 -1.4281 -1.3050  2.5914
 7582SOL     OW34207   0.928   1.060   2.904 -0.3553 -0.1920 -0.3605
 7582SOL    HW134208   0.886   1.145   2.890  1.7697  0.9645  0.1562
 7582SOL    HW234209   0.997   1.078   2.840 -0.4975 -0.9494 -0.7231
 7583SOL     OW34210   0.524   0.839   1.297  0.5748 -0.0828  0.0993
 7583SOL    HW134211   0.537   0.931   1.319 -0.6526 -0.3112  1.7178
 7583SOL    HW234212   0.486   0.806   1.378  1.2966 -0.7286  0.1869
 7584SOL     OW34213   1.489   0.997   7.403  0.2981 -0.3248  0.1062
 7584SOL    HW134214   1.534   0.934   7.346  1.8372  2.5712 -1.8538
 7584SOL    HW234215   1.401   0.959   7.412  0.2962 -0.3553 -0.0442
 7585SOL     OW34216   1.355   1.678   6.085  0.3366 -0.2679  0.5110
 7585SOL    HW134217   1.404   1.633   6.015  2.3177  1.4282  0.8138
 7585SOL    HW234218   1.267   1.664   6.052  0.9828  0.6194 -1.6154
 7586SOL     OW34219   1.889   0.560  10.906 -0.2731  0.5317  0.7509
 7586SOL    HW134220   1.937   0.545  10.987 -0.1857 -0.9974  0.4236
 7586SOL    HW234221   1.953   0.531  10.841  1.7327  1.6014  2.2490
 7587SOL     OW34222   1.296   4.356  16.906 -0.1865  0.0498  0.1174
 7587SOL    HW134223   1.323   4.281  16.958 -1.2788 -0.1385  0.4136
 7587SOL    HW234224   1.323   4.320  16.822  2.3748  1.4655  0.3098
 7588SOL     OW34225   2.532   3.171   7.990  0.7750 -0.1391 -0.2656
 7588SOL    HW134226   2.445   3.136   8.006  1.0049 -0.5100  0.2151
 7588SOL    HW234227   2.536   3.226   8.069 -3.7343  3.6072 -2.6684
 7589SOL     OW34228   4.267   0.023   3.263 -0.8560  0.0150  0.4780
 7589SOL    HW134229   4.273   4.700   3.180 -0.4604 -0.2523  0.6595
 7589SOL    HW234230   4.356   0.058   3.268 -0.5392 -0.8215  0.7591
 7590SOL     OW34231   1.229   4.251   4.974 -0.3360  0.2053 -0.1234
 7590SOL    HW134232   1.317   4.261   5.011 -0.3024 -3.0342  0.6892
 7590SOL    HW234233   1.175   4.328   4.987 -0.4269  0.2394 -0.6899
 7591SOL     OW34234   2.462   0.052   0.036  0.6218  0.0186  0.2758
 7591SOL    HW134235   2.368   0.033   0.044  1.0201 -1.8398  0.6312
 7591SOL    HW234236   2.478   0.058  17.641 -1.2357 -0.3268 -0.0680
 7592SOL     OW34237   3.415   0.577   6.584  0.1113 -0.1539  0.3731
 7592SOL    HW134238   3.320   0.587   6.586  0.1364 -0.0006  0.7444
 7592SOL    HW234239   3.433   0.561   6.676 -1.4329 -2.9057  0.2069
 7593SOL     OW34240   2.582   0.131  16.700 -0.0442 -0.2501 -0.6893
 7593SOL    HW134241   2.662   0.081  16.686  0.8214  1.2421 -1.1321
 7593SOL    HW234242   2.583   0.196  16.629 -3.1496  1.6042  0.9202
 7594SOL     OW34243   3.676   2.715   2.570  0.2997  0.2494  0.3330
 7594SOL    HW134244   3.670   2.742   2.478 -0.7354  0.1280  0.3643
 7594SOL    HW234245   3.669   2.796   2.622 -1.6859 -0.9952  2.0013
 7595SOL     OW34246   4.179   4.112   3.978 -0.0631  0.4854  0.1561
 7595SOL    HW134247   4.219   4.157   3.903  1.7209 -0.8655  0.3015
 7595SOL    HW234248   4.151   4.030   3.937 -0.0876  0.8641 -0.5912
 7596SOL     OW34249   0.815   4.709   0.243  0.2590 -0.3537  0.1214
 7596SOL    HW134250   0.814   0.046   0.169  1.0770  0.0376  0.4328
 7596SOL    HW234251   0.780   0.042   0.312  0.9064  0.3795 -0.1575
 7597SOL     OW34252   1.666   3.815  10.761  0.3414 -0.1904  0.1735
 7597SOL    HW134253   1.703   3.743  10.710 -0.2324  1.4139 -2.4766
 7597SOL    HW234254   1.612   3.762  10.820  1.2375 -0.5633  0.6515
 7598SOL     OW34255   3.864   1.219  12.612  0.5128  0.5381  0.3178
 7598SOL    HW134256   3.911   1.296  12.644 -0.9575  1.1757  0.9340
 7598SOL    HW234257   3.836   1.252  12.526  0.3603 -0.0815  0.1261
 7599SOL     OW34258   0.634   3.543   0.090 -0.0092 -0.2938 -0.4302
 7599SOL    HW134259   0.540   3.526   0.086 -0.2153  0.2894  1.6209
 7599SOL    HW234260   0.672   3.456   0.080  4.3850  1.3399  1.8298
 7600SOL     OW34261   4.668   2.132  11.655  0.0722  0.6693 -0.1307
 7600SOL    HW134262   4.624   2.152  11.738 -0.8888 -2.7728  0.2217
 7600SOL    HW234263   4.712   2.214  11.635  0.4531  0.5063  0.0228
 7601SOL     OW34264   0.005   2.773   5.642  0.4904  0.3606 -0.0636
 7601SOL    HW134265   0.064   2.746   5.572  0.0637  1.5350 -0.8969
 7601SOL    HW234266   4.645   2.786   5.598  1.3172  0.6074 -1.5892
 7602SOL     OW34267   1.273   2.876  14.627  0.2178  0.0091 -0.5031
 7602SOL    HW134268   1.324   2.924  14.562  1.5993 -0.7453  0.0443
 7602SOL    HW234269   1.198   2.847  14.574 -0.9425  0.4034  0.8988
 7603SOL     OW34270   0.615   3.006   8.260 -0.3105  0.0042 -0.4279
 7603SOL    HW134271   0.564   2.929   8.235 -2.5753  1.1289  0.7928
 7603SOL    HW234272   0.587   3.011   8.352  0.6725  0.2657 -0.1451
 7604SOL     OW34273   3.214   0.715   5.298 -0.6039 -0.0135 -0.3129
 7604SOL    HW134274   3.306   0.726   5.274 -0.4387  1.3268  0.9431
 7604SOL    HW234275   3.176   0.709   5.211  0.3925 -1.0387 -0.6834
 7605SOL     OW34276   1.290   2.829   6.969  0.1114 -0.1750  0.0105
 7605SOL    HW134277   1.224   2.811   7.035 -0.1141  1.0826  0.1264
 7605SOL    HW234278   1.340   2.749   6.984 -0.5844 -0.3692  1.2756
 7606SOL     OW34279   1.548   4.467  11.860  0.0510 -0.4402  0.0691
 7606SOL    HW134280   1.522   4.375  11.851 -1.9357  0.1076  0.2222
 7606SOL    HW234281   1.599   4.480  11.781 -2.3678 -0.8958 -1.5517
 7607SOL     OW34282   3.181   3.319   7.867  1.0184  0.0442  0.0841
 7607SOL    HW134283   3.093   3.351   7.852  0.1234 -0.5519  4.1250
 7607SOL    HW234284   3.216   3.322   7.777 -1.5652 -2.4577 -0.9981
 7608SOL     OW34285   3.692   3.035  15.098 -0.0806  0.1566  0.2050
 7608SOL    HW134286   3.613   2.989  15.125 -0.9458  0.9519 -0.9888
 7608SOL    HW234287   3.749   2.958  15.092 -0.3419 -0.0168 -0.0480
 7609SOL     OW34288   4.369   0.471  13.635 -0.3170  0.0847 -0.4940
 7609SOL    HW134289   4.329   0.450  13.719 -0.4480  0.4791 -0.4565
 7609SOL    HW234290   4.315   0.418  13.576  0.1896 -1.5780  0.5541
 7610SOL     OW34291   1.534   4.161   3.136  0.2601 -0.2383  0.1813
 7610SOL    HW134292   1.557   4.071   3.111 -1.0933 -0.5332 -0.0009
 7610SOL    HW234293   1.612   4.178   3.189  0.7212  1.1141 -0.9492
 7611SOL     OW34294   2.990   2.967   6.217 -0.9450  0.8033 -0.2711
 7611SOL    HW134295   2.943   3.029   6.273 -1.6614 -0.5132  0.6021
 7611SOL    HW234296   3.038   3.026   6.160 -0.0643  0.8567  0.5225
 7612SOL     OW34297   3.008   1.499   8.637 -0.0862 -0.5634 -0.2895
 7612SOL    HW134298   2.945   1.436   8.673  0.1346 -1.3863 -1.3127
 7612SOL    HW234299   3.082   1.495   8.697 -1.2152  0.5170  1.1859
 7613SOL     OW34300   2.489   0.890  15.490 -0.0148  0.1825  0.1441
 7613SOL    HW134301   2.529   0.976  15.487 -0.4013  0.3342 -0.7866
 7613SOL    HW234302   2.468   0.886  15.583 -3.0927 -0.4706 -0.5842
 7614SOL     OW34303   0.532   2.567   3.421  0.1469  0.2387 -0.1409
 7614SOL    HW134304   0.475   2.637   3.454 -0.3297 -0.8305  1.2507
 7614SOL    HW234305   0.537   2.507   3.495 -0.2208  0.4002  0.0181
 7615SOL     OW34306   4.136   4.075   2.995 -0.5250 -0.2204 -0.0825
 7615SOL    HW134307   4.185   4.106   2.919 -1.0620 -1.7275 -1.0318
 7615SOL    HW234308   4.060   4.037   2.951  0.2715 -0.6390 -1.0828
 7616SOL     OW34309   0.130   3.318   7.536 -0.3025  0.2176 -0.3092
 7616SOL    HW134310   0.159   3.227   7.542  2.1674  1.1427  2.1060
 7616SOL    HW234311   0.174   3.363   7.609 -1.3043  1.3287 -0.4009
 7617SOL     OW34312   0.819   3.779   8.776  0.3646 -0.1497  0.4283
 7617SOL    HW134313   0.779   3.694   8.760  3.2540 -1.3029 -0.6429
 7617SOL    HW234314   0.745   3.835   8.754 -0.7282 -1.2329  1.3384
 7618SOL     OW34315   3.630   3.816  13.895  0.4029  0.1593  0.1149
 7618SOL    HW134316   3.573   3.795  13.820 -1.0397  3.9211  0.1958
 7618SOL    HW234317   3.615   3.908  13.915 -2.2448 -0.1960 -0.1989
 7619SOL     OW34318   0.753   4.652  12.258  0.5584  0.3029 -0.2018
 7619SOL    HW134319   0.690   4.707  12.212 -0.0638  1.5486  2.1474
 7619SOL    HW234320   0.731   4.675  12.348  2.5165  2.6223 -0.2956
 7620SOL     OW34321   1.350   3.550   6.722  0.6068 -0.6520  0.1087
 7620SOL    HW134322   1.286   3.480   6.710  0.5308 -0.9084  2.0578
 7620SOL    HW234323   1.381   3.532   6.810  0.5081  1.1901  0.5253
 7621SOL     OW34324   1.382   0.848   7.725 -0.2674  0.4568 -0.2968
 7621SOL    HW134325   1.442   0.923   7.732  1.4796 -0.9549 -0.3360
 7621SOL    HW234326   1.442   0.776   7.707 -1.1684 -0.3139 -0.1907
 7622SOL     OW34327   0.005   0.630   8.284 -0.1014 -0.3418  0.4633
 7622SOL    HW134328   0.022   0.652   8.375  0.9965 -0.6121  0.3303
 7622SOL    HW234329   4.709   0.718   8.252 -0.8466  0.4215  3.0620
 7623SOL     OW34330   2.065   2.334   4.298  0.0623 -0.2113  0.8274
 7623SOL    HW134331   2.102   2.359   4.214 -1.2966  0.3881  0.4172
 7623SOL    HW234332   1.976   2.365   4.281  0.6139  0.6960 -0.3648
 7624SOL     OW34333   3.975   0.265   1.927  0.2430  0.0966  0.2645
 7624SOL    HW134334   4.028   0.274   1.848  0.3968 -2.4803  0.0948
 7624SOL    HW234335   3.895   0.220   1.898 -1.7382  2.7379  1.5347
 7625SOL     OW34336   2.613   3.833   4.802 -0.3247  0.2282  0.2144
 7625SOL    HW134337   2.651   3.873   4.880  0.3753  0.4412 -0.2323
 7625SOL    HW234338   2.577   3.911   4.759 -0.3591 -0.8345 -1.6915
 7626SOL     OW34339   3.059   0.626   1.972 -0.2992  0.2428  0.0657
 7626SOL    HW134340   3.100   0.669   1.896 -2.3471 -0.4682 -1.4472
 7626SOL    HW234341   3.132   0.601   2.029 -0.2509 -2.4965 -1.2283
 7627SOL     OW34342   0.477   3.072   4.996 -0.4596  0.4267  0.0483
 7627SOL    HW134343   0.426   3.102   5.072 -2.1029  1.1333 -1.3406
 7627SOL    HW234344   0.498   3.149   4.944 -1.7819  1.3137  0.8218
 7628SOL     OW34345   1.796   0.356  12.173 -0.1827 -0.3075  0.3743
 7628SOL    HW134346   1.765   0.436  12.130  0.6595  0.0380  0.3993
 7628SOL    HW234347   1.725   0.339  12.235  0.4099 -2.5617  0.4308
 7629SOL     OW34348   1.239   1.736   7.851  0.6415 -0.7672 -0.0091
 7629SOL    HW134349   1.267   1.645   7.848  0.4312 -0.8747  1.1535
 7629SOL    HW234350   1.150   1.715   7.881  0.7499 -2.6193 -1.0083
 7630SOL     OW34351   1.670   4.343   6.270  0.2005  0.4046 -0.7461
 7630SOL    HW134352   1.758   4.330   6.307 -0.7805  0.6474  1.6916
 7630SOL    HW234353   1.625   4.314   6.349  2.0841 -1.0949 -0.2114
 7631SOL     OW34354   0.983   2.265   4.749  0.2556  0.0395  0.2970
 7631SOL    HW134355   0.932   2.188   4.725 -0.7159 -0.0436  2.6518
 7631SOL    HW234356   0.918   2.335   4.753  2.2628  1.8350  1.8583
 7632SOL     OW34357   0.042   1.713  17.146 -0.4659 -0.3056  0.3280
 7632SOL    HW134358   4.709   1.681  17.077  0.2503 -0.0141 -0.3973
 7632SOL    HW234359   0.001   1.693  17.231 -1.4118 -0.7551 -0.2341
 7633SOL     OW34360   0.100   0.315   7.120 -0.0726  0.4891 -0.0547
 7633SOL    HW134361   0.145   0.283   7.042 -0.2340 -3.6711  1.5619
 7633SOL    HW234362   0.167   0.361   7.169  0.1647  1.6576 -1.4659
 7634SOL     OW34363   2.065   0.103  16.532  0.1758  0.2631  0.2091
 7634SOL    HW134364   1.997   0.151  16.484 -0.8751 -0.9534  0.4629
 7634SOL    HW234365   2.076   0.167  16.602  1.1294 -0.7460  0.9753
 7635SOL     OW34366   1.899   3.680   0.278  0.5276 -0.0162  0.9095
 7635SOL    HW134367   1.888   3.728   0.360 -0.5648  0.8373  0.2635
 7635SOL    HW234368   1.992   3.661   0.290  0.5217  0.1415  1.2047
 7636SOL     OW34369   1.844   3.663   4.639 -0.5129  0.5898 -0.0551
 7636SOL    HW134370   1.860   3.699   4.552 -0.3950 -2.1834 -1.1835
 7636SOL    HW234371   1.840   3.571   4.612  0.8644  0.7940 -0.9432
 7637SOL     OW34372   1.458   2.903   7.897  0.4509 -0.0223  0.3768
 7637SOL    HW134373   1.369   2.923   7.926 -0.2373 -0.7410 -1.2842
 7637SOL    HW234374   1.513   2.922   7.973  0.7910 -0.2897  0.1978
 7638SOL     OW34375   2.777   2.315   2.777  0.1157  0.7065  0.2918
 7638SOL    HW134376   2.840   2.337   2.846 -0.2560 -0.6081  1.0656
 7638SOL    HW234377   2.705   2.274   2.825  1.4990 -0.0717  1.6944
 7639SOL     OW34378   3.508   4.302  10.763  0.0807 -0.4110  0.1266
 7639SOL    HW134379   3.601   4.278  10.764  0.2340  0.2128  1.4789
 7639SOL    HW234380   3.499   4.318  10.669 -0.8080 -1.2503  0.0682
 7640SOL     OW34381   4.718   4.358   9.575  0.5759 -0.0754  0.9024
 7640SOL    HW134382   0.035   4.377   9.659 -0.7937 -0.3270  1.6412
 7640SOL    HW234383   4.679   4.272   9.593  1.1223 -0.4456  0.2872
 7641SOL     OW34384   0.983   2.067   8.875 -0.2466 -0.7529  0.0620
 7641SOL    HW134385   1.051   2.017   8.920  0.5828  0.0860 -0.2770
 7641SOL    HW234386   1.011   2.054   8.784 -1.5453  1.4168 -0.6471
 7642SOL     OW34387   3.691   1.246   6.406  0.2954 -0.1212 -0.0869
 7642SOL    HW134388   3.715   1.175   6.465 -0.9861 -0.7020 -0.2780
 7642SOL    HW234389   3.596   1.238   6.401  0.1527  0.4794  1.6248
 7643SOL     OW34390   4.617   2.827   5.087 -0.0801  0.5474  0.0157
 7643SOL    HW134391   4.579   2.795   5.005 -1.5329  2.0936  0.0761
 7643SOL    HW234392   4.553   2.800   5.153  0.0541 -1.2828 -0.6025
 7644SOL     OW34393   1.755   4.340   2.490  0.0749 -0.3952  0.1589
 7644SOL    HW134394   1.768   4.384   2.407  1.1245  1.2860  1.2265
 7644SOL    HW234395   1.846   4.323   2.513  0.2742  0.7879  0.2435
 7645SOL     OW34396   0.992   2.430   6.875  0.1352  0.2124 -0.1361
 7645SOL    HW134397   1.067   2.425   6.816 -2.7838  0.7429 -3.9319
 7645SOL    HW234398   0.995   2.342   6.913  1.2369 -0.5884 -2.0646
 7646SOL     OW34399   1.334   3.746  14.828 -0.2231  0.6097  0.4038
 7646SOL    HW134400   1.284   3.777  14.752 -0.3496 -2.0650 -0.6084
 7646SOL    HW234401   1.277   3.778  14.898 -1.7536  0.0143 -0.5756
 7647SOL     OW34402   2.178   2.699   4.145  0.9611  0.7977 -0.8409
 7647SOL    HW134403   2.267   2.713   4.177  0.9497 -0.8887 -0.0340
 7647SOL    HW234404   2.182   2.607   4.118  1.5265  0.1329  1.5058
 7648SOL     OW34405   3.722   2.724   7.591  0.8412  0.1186  0.2619
 7648SOL    HW134406   3.770   2.722   7.674  0.3006 -0.2377  0.5604
 7648SOL    HW234407   3.721   2.632   7.564 -1.3199  0.5953 -1.2973
 7649SOL     OW34408   3.588   4.657  16.262  0.3791 -0.1888 -0.3465
 7649SOL    HW134409   3.655   4.672  16.195 -1.2531  0.4379 -1.8205
 7649SOL    HW234410   3.582   0.017  16.307  0.9356 -0.0210 -0.5887
 7650SOL     OW34411   1.285   4.125   7.368 -0.4881 -0.5123  0.0712
 7650SOL    HW134412   1.326   4.097   7.450  1.3218 -1.2498 -1.1013
 7650SOL    HW234413   1.293   4.221   7.372  1.5512 -0.6081 -1.9552
 7651SOL     OW34414   2.332   1.736   5.793 -0.2567  0.5012  0.2476
 7651SOL    HW134415   2.263   1.789   5.753  0.2612  0.5346 -0.6119
 7651SOL    HW234416   2.333   1.776   5.880  3.6485 -1.2163  0.9674
 7652SOL     OW34417   0.285   2.207   5.551  0.1415 -0.6511 -0.3932
 7652SOL    HW134418   0.296   2.293   5.591  0.5045 -0.7442 -0.2950
 7652SOL    HW234419   0.315   2.236   5.465  0.7406 -3.3044 -1.0670
 7653SOL     OW34420   1.713   4.702   6.970 -0.3379  0.2129 -0.4502
 7653SOL    HW134421   1.690   4.616   6.934 -0.3232 -0.9743  2.4013
 7653SOL    HW234422   1.790   0.005   6.921 -0.9408  0.6752 -1.1458
 7654SOL     OW34423   1.153   0.973   5.432 -0.0243  0.8510 -0.0835
 7654SOL    HW134424   1.234   0.923   5.419 -0.6343 -0.2940  0.5970
 7654SOL    HW234425   1.126   0.935   5.515 -1.0450  1.3597 -0.1892
 7655SOL     OW34426   2.525   0.781  10.290  0.9113 -0.4046 -0.2386
 7655SOL    HW134427   2.500   0.745  10.375 -1.3363  1.9473  0.0968
 7655SOL    HW234428   2.543   0.708  10.231 -1.8229 -2.3486  1.3200
 7656SOL     OW34429   3.367   1.219   4.014  0.3604 -0.4627 -1.0502
 7656SOL    HW134430   3.458   1.210   4.040 -0.1247 -2.3756 -0.0344
 7656SOL    HW234431   3.371   1.299   3.961 -0.1120 -0.1583 -0.6271
 7657SOL     OW34432   4.571   3.966   0.932  0.1180  0.1796  0.4546
 7657SOL    HW134433   4.618   4.036   0.978  0.5679 -0.8197  1.5061
 7657SOL    HW234434   4.486   4.006   0.917  0.1043  0.9700  2.5710
 7658SOL     OW34435   2.052   2.059  11.247 -0.0894 -0.8652 -0.1631
 7658SOL    HW134436   2.127   2.117  11.254 -0.4063 -0.7917  2.6652
 7658SOL    HW234437   2.095   1.982  11.283 -0.5442 -0.3539  1.4402
 7659SOL     OW34438   1.758   2.289   2.197 -0.0670  0.1747  0.2422
 7659SOL    HW134439   1.829   2.276   2.260  0.1440  2.7076  0.5274
 7659SOL    HW234440   1.808   2.340   2.133 -0.6961  0.5218  0.0251
 7660SOL     OW34441   4.011   2.164  11.896 -0.0254  0.0739 -0.3011
 7660SOL    HW134442   3.973   2.084  11.931  3.3902 -1.4509 -0.0947
 7660SOL    HW234443   4.012   2.156  11.801 -1.1624  1.1580 -0.3993
 7661SOL     OW34444   3.937   3.407   4.421 -0.1323 -0.1818  0.0372
 7661SOL    HW134445   3.901   3.336   4.474  0.8365 -0.9708 -0.3676
 7661SOL    HW234446   3.855   3.446   4.391  1.5156  1.6614 -2.0233
 7662SOL     OW34447   4.249   2.949  13.485  0.1495  0.3139  0.3166
 7662SOL    HW134448   4.259   2.855  13.503 -0.4505  0.4180  1.1821
 7662SOL    HW234449   4.331   2.956  13.436  0.3341  1.7059  0.8211
 7663SOL     OW34450   0.501   1.050   4.153 -0.7526  0.0821 -0.1069
 7663SOL    HW134451   0.458   1.131   4.181 -1.3266 -0.3746  0.3438
 7663SOL    HW234452   0.431   1.013   4.099  0.1081  4.2933 -4.1200
 7664SOL     OW34453   2.165   0.532   4.247 -0.1004  0.1068  0.5919
 7664SOL    HW134454   2.259   0.543   4.264  0.0386 -2.3943  1.3747
 7664SOL    HW234455   2.160   0.449   4.202 -2.9073  1.1297 -0.9250
 7665SOL     OW34456   0.064   3.244   5.468  0.2759  0.0369  0.7464
 7665SOL    HW134457   0.071   3.166   5.413  0.5612  0.0231  0.8046
 7665SOL    HW234458   4.710   3.221   5.518 -0.5381 -2.1503 -1.5542
 7666SOL     OW34459   4.152   4.089  16.685 -0.4666  0.0256 -0.4948
 7666SOL    HW134460   4.140   3.994  16.683  0.5394 -0.1166  0.1853
 7666SOL    HW234461   4.061   4.114  16.699 -0.5234  1.5984 -3.7094
 7667SOL     OW34462   2.923   2.749   7.152  0.2186  0.3659  0.2128
 7667SOL    HW134463   3.001   2.703   7.182  0.4376  0.4135 -0.2837
 7667SOL    HW234464   2.904   2.696   7.074 -0.4360 -0.9617  1.2826
 7668SOL     OW34465   4.062   3.034   9.404 -0.5078 -0.1252  0.2570
 7668SOL    HW134466   4.128   2.986   9.354 -1.5067 -0.0192 -1.1703
 7668SOL    HW234467   4.113   3.099   9.452  1.3329 -0.3542 -1.3905
 7669SOL     OW34468   2.966   0.813   7.266  0.2078 -0.3152 -0.6304
 7669SOL    HW134469   3.060   0.829   7.273  0.1018 -0.5956  1.5649
 7669SOL    HW234470   2.947   0.855   7.183  0.3004 -0.0176 -0.5014
 7670SOL     OW34471   4.481   1.447   0.468  0.4397  0.2424 -0.1555
 7670SOL    HW134472   4.516   1.472   0.553 -0.1009 -0.2501  0.2182
 7670SOL    HW234473   4.399   1.493   0.450 -0.7929 -1.8313  0.1073
 7671SOL     OW34474   0.786   3.776   6.149 -0.1345 -0.1614 -0.0483
 7671SOL    HW134475   0.811   3.857   6.193 -1.1864  0.7679 -1.1784
 7671SOL    HW234476   0.828   3.709   6.203  1.1271 -0.2112 -1.0955
 7672SOL     OW34477   1.116   0.627  11.139  0.0462 -0.4819 -0.1001
 7672SOL    HW134478   1.054   0.575  11.087  0.2763 -0.3839 -0.4743
 7672SOL    HW234479   1.180   0.558  11.154 -0.1164 -0.4026  0.9110
 7673SOL     OW34480   3.864   3.015   1.861 -0.1607 -0.2744  0.0952
 7673SOL    HW134481   3.911   2.987   1.782 -0.6856 -1.1156  0.0770
 7673SOL    HW234482   3.874   2.933   1.908 -0.6835  0.4867  1.5125
 7674SOL     OW34483   3.067   2.080   9.261  0.3730 -0.3721 -0.0074
 7674SOL    HW134484   3.104   2.093   9.349 -3.3636 -0.7893  1.5958
 7674SOL    HW234485   2.998   2.016   9.279  0.4852 -0.7582 -0.9151
 7675SOL     OW34486   2.217   0.332  15.379 -0.6044  0.4837 -0.4916
 7675SOL    HW134487   2.176   0.396  15.436  0.0990 -1.0317  1.7232
 7675SOL    HW234488   2.172   0.363  15.300 -0.1068 -0.6285 -1.2135
 7676SOL     OW34489   2.157   1.046  17.380 -0.1114 -0.1102  0.2001
 7676SOL    HW134490   2.076   0.995  17.379 -1.0807  1.4341 -0.8281
 7676SOL    HW234491   2.130   1.125  17.427  2.1470 -0.8950  2.8285
 7677SOL     OW34492   0.435   4.606  15.832  0.4328 -0.5139 -0.2273
 7677SOL    HW134493   0.453   4.636  15.743  0.6300  0.7634  0.2471
 7677SOL    HW234494   0.454   4.687  15.879 -0.6058 -0.5780  0.2968
 7678SOL     OW34495   0.555   3.650   1.745 -0.2610 -0.4878  0.4508
 7678SOL    HW134496   0.567   3.600   1.825 -0.2263 -0.7190  0.3004
 7678SOL    HW234497   0.462   3.670   1.749  0.1006  1.4612 -0.5768
 7679SOL     OW34498   3.879   2.499   3.432 -0.5959  0.0816 -0.7816
 7679SOL    HW134499   3.935   2.422   3.424 -3.0047 -1.5815 -1.4195
 7679SOL    HW234500   3.799   2.476   3.385 -0.8573 -1.9532  0.6933
 7680SOL     OW34501   2.658   2.884   7.238  0.2292 -0.1587  0.1387
 7680SOL    HW134502   2.657   2.832   7.319  0.2043 -1.2344 -0.5419
 7680SOL    HW234503   2.751   2.905   7.232  0.2686 -0.3532  0.0707
 7681SOL     OW34504   4.173   1.160  14.344 -0.2142 -0.2235 -0.0761
 7681SOL    HW134505   4.217   1.082  14.380  0.3593 -0.6541 -1.6896
 7681SOL    HW234506   4.143   1.120  14.263 -2.0995  0.2172  0.4137
 7682SOL     OW34507   1.155   3.390  17.174 -0.2980  0.1635  0.6910
 7682SOL    HW134508   1.210   3.431  17.241  0.0899  0.4540  0.1978
 7682SOL    HW234509   1.222   3.372  17.107 -0.5362 -0.3441  0.5876
 7683SOL     OW34510   3.356   3.215   6.378  0.0815  0.0452  0.1493
 7683SOL    HW134511   3.406   3.270   6.437  0.5539 -1.1828  0.8886
 7683SOL    HW234512   3.329   3.144   6.436  1.1338 -0.6418 -0.2039
 7684SOL     OW34513   1.233   3.616   6.109  0.0788  0.1791 -0.2724
 7684SOL    HW134514   1.203   3.700   6.143 -0.7079 -0.1537 -0.1277
 7684SOL    HW234515   1.163   3.558   6.140 -2.4552  3.5433  0.3141
 7685SOL     OW34516   3.119   2.893   2.435  0.0328 -0.0029  0.2652
 7685SOL    HW134517   3.041   2.837   2.439  1.2027 -1.6622 -0.3936
 7685SOL    HW234518   3.181   2.846   2.490  1.5404  0.6073 -0.9274
 7686SOL     OW34519   0.524   3.525   1.998  0.2715  0.2428 -0.4385
 7686SOL    HW134520   0.576   3.582   2.055  0.1575 -1.1864  1.0736
 7686SOL    HW234521   0.478   3.464   2.055  0.6449  0.0882 -0.2990
 7687SOL     OW34522   4.360   3.145   0.438 -0.3127 -0.1461  0.0532
 7687SOL    HW134523   4.344   3.169   0.346 -0.6587 -0.5225  0.0165
 7687SOL    HW234524   4.446   3.105   0.429  0.4114  1.1803  1.0331
 7688SOL     OW34525   4.229   4.255  15.149 -0.8125 -0.0059  0.6396
 7688SOL    HW134526   4.223   4.295  15.236 -2.1541  0.3299  0.4074
 7688SOL    HW234527   4.281   4.311  15.092 -2.3758 -0.5103 -1.2631
 7689SOL     OW34528   1.315   1.159   7.885  0.2325 -0.4367  0.2042
 7689SOL    HW134529   1.392   1.132   7.835  2.0947  2.0399  1.7172
 7689SOL    HW234530   1.259   1.158   7.808  0.2476  0.4587  0.1845
 7690SOL     OW34531   1.510   0.005  11.931  0.5177 -0.0802  0.2216
 7690SOL    HW134532   1.437   0.017  11.991 -0.6923 -2.8720 -0.6834
 7690SOL    HW234533   1.496   4.643  11.892 -1.8858  0.0699  0.7608
 7691SOL     OW34534   2.403   3.340   5.994  0.5009  0.2182  1.0107
 7691SOL    HW134535   2.338   3.287   5.949  3.2777 -0.9004 -1.6923
 7691SOL    HW234536   2.344   3.405   6.032  1.9066  2.4058 -0.5066
 7692SOL     OW34537   3.751   1.013  13.728 -0.2180  0.5883 -0.0394
 7692SOL    HW134538   3.714   0.967  13.653 -0.7856 -1.2268  1.3254
 7692SOL    HW234539   3.725   1.103  13.713 -4.4150 -0.5434  0.4529
 7693SOL     OW34540   1.364   3.156  14.747 -0.1224 -0.0848  0.2579
 7693SOL    HW134541   1.304   3.199  14.808  1.4647  0.1937  1.6319
 7693SOL    HW234542   1.446   3.195  14.777 -0.0577  1.0766 -1.4402
 7694SOL     OW34543   0.165   3.107   8.822  0.4529  0.0532  0.1267
 7694SOL    HW134544   0.083   3.147   8.794  1.0489  0.8974 -0.4380
 7694SOL    HW234545   0.154   3.102   8.916 -1.3273 -0.1364 -0.1016
 7695SOL     OW34546   0.453   1.788   4.713 -0.0542  0.4863 -0.4157
 7695SOL    HW134547   0.371   1.830   4.740 -0.2864 -0.9891  1.1679
 7695SOL    HW234548   0.433   1.760   4.624  1.6689 -1.4051 -0.2096
 7696SOL     OW34549   0.351   3.971   1.833 -0.6015  0.2773  0.2071
 7696SOL    HW134550   0.433   3.964   1.882  0.6345  2.3748 -1.5805
 7696SOL    HW234551   0.285   4.014   1.888 -0.7018  0.4707 -0.0646
 7697SOL     OW34552   3.531   2.459   0.682  0.2060  0.2867  0.0881
 7697SOL    HW134553   3.458   2.516   0.707  0.2915  0.7163 -0.6416
 7697SOL    HW234554   3.546   2.499   0.596 -1.7927  0.2260 -0.2996
 7698SOL     OW34555   0.126   2.636   2.821 -0.6308 -0.3003  0.0880
 7698SOL    HW134556   0.152   2.556   2.774 -2.4843 -1.0338  0.3220
 7698SOL    HW234557   0.198   2.690   2.788 -0.8475 -0.3096 -0.4015
 7699SOL     OW34558   0.462   0.634   3.525 -0.1642  0.1491  0.1415
 7699SOL    HW134559   0.449   0.707   3.465 -0.7710 -0.2779 -0.2437
 7699SOL    HW234560   0.411   0.667   3.598 -0.0972  0.8973 -0.1586
 7700SOL     OW34561   4.402   4.360   8.341 -0.1043 -0.2738  0.1537
 7700SOL    HW134562   4.452   4.411   8.406  0.6314  0.8588 -1.2893
 7700SOL    HW234563   4.308   4.365   8.356  0.1455 -1.5797  2.1464
 7701SOL     OW34564   1.940   3.713  13.800  0.1248  0.3658  0.2758
 7701SOL    HW134565   1.866   3.733  13.857 -0.2722  0.6580 -0.3491
 7701SOL    HW234566   1.904   3.644  13.745  1.0285  0.1951 -0.0958
 7702SOL     OW34567   1.896   2.238   3.961  0.2264  0.1671 -0.8014
 7702SOL    HW134568   1.849   2.285   4.030 -1.2559 -2.5012  0.0120
 7702SOL    HW234569   1.977   2.202   3.996 -1.6044 -1.6091  1.6131
 7703SOL     OW34570   4.070   4.684  11.121  0.7715 -0.2077 -0.0327
 7703SOL    HW134571   3.978   4.693  11.098  0.8202  0.6710  0.1094
 7703SOL    HW234572   4.076   4.676  11.216  1.3588 -1.0694 -0.1462
 7704SOL     OW34573   0.117   2.776  14.026  0.1867 -0.3873  0.0612
 7704SOL    HW134574   0.150   2.742  13.943 -0.5441 -1.4954  0.2221
 7704SOL    HW234575   0.158   2.716  14.089 -1.8718  2.3653  4.0130
 7705SOL     OW34576   4.667   2.275   2.490  0.2161  0.2157 -0.4126
 7705SOL    HW134577   4.597   2.332   2.521  0.7935  0.1033  1.1134
 7705SOL    HW234578   4.616   2.196   2.507  1.7004 -0.7488 -0.4435
 7706SOL     OW34579   1.469   3.371   7.334  0.1839  0.2078 -0.4120
 7706SOL    HW134580   1.408   3.299   7.322 -0.5871  0.9559 -1.0006
 7706SOL    HW234581   1.533   3.339   7.270 -1.6789 -0.2072 -2.0524
 7707SOL     OW34582   1.054   3.490   0.752 -0.2643  0.1283 -0.2646
 7707SOL    HW134583   1.085   3.481   0.842 -1.0229  1.8680  0.1697
 7707SOL    HW234584   1.087   3.571   0.712 -0.8541  1.4146  1.8629
 7708SOL     OW34585   4.595   1.764   8.289  0.2889  0.1488 -0.4839
 7708SOL    HW134586   4.658   1.693   8.300 -0.4588 -0.5500 -0.7820
 7708SOL    HW234587   4.568   1.763   8.381 -2.9417 -0.6700 -1.4487
 7709SOL     OW34588   2.177   3.381   2.295 -0.0174 -0.4261  0.1247
 7709SOL    HW134589   2.103   3.344   2.342 -1.8435  2.6892 -0.2838
 7709SOL    HW234590   2.133   3.433   2.228 -0.5081 -0.3569  0.5046
 7710SOL     OW34591   3.023   4.230  12.414 -0.0494  0.1707 -0.2486
 7710SOL    HW134592   2.992   4.141  12.398 -1.7614  0.6105  0.5692
 7710SOL    HW234593   2.951   4.285  12.382 -0.6861 -0.9887 -0.7788
 7711SOL     OW34594   2.496   4.143  10.857  0.0907 -0.1430  0.7480
 7711SOL    HW134595   2.582   4.130  10.897  1.9905  1.6533 -2.7653
 7711SOL    HW234596   2.463   4.059  10.888  1.3345 -0.9006  0.0192
 7712SOL     OW34597   2.198   2.736   2.381  0.3144  0.1886  0.0686
 7712SOL    HW134598   2.270   2.685   2.420 -1.8947 -0.6021  3.1431
 7712SOL    HW234599   2.194   2.816   2.433  0.5519  0.5709 -0.5102
 7713SOL     OW34600   0.407   0.196   4.522 -0.1743 -0.0072  0.1422
 7713SOL    HW134601   0.493   0.207   4.482  1.1855 -1.4215  2.6674
 7713SOL    HW234602   0.426   0.121   4.578 -2.2665 -0.4392  0.2965
 7714SOL     OW34603   0.842   0.589   1.587 -0.0226 -0.6859 -0.1305
 7714SOL    HW134604   0.900   0.539   1.529  0.5402  0.4456 -0.5318
 7714SOL    HW234605   0.901   0.660   1.612  0.3524 -0.8302 -0.5925
 7715SOL     OW34606   4.336   1.716   7.001 -0.4270 -0.0386  1.0551
 7715SOL    HW134607   4.347   1.689   6.910  0.4797 -0.3070  1.2440
 7715SOL    HW234608   4.240   1.720   7.005 -0.3946  0.8187  1.0392
 7716SOL     OW34609   4.651   2.735  14.782 -0.2932  0.1548  0.4558
 7716SOL    HW134610   4.679   2.663  14.839 -0.8811 -1.0076 -0.7420
 7716SOL    HW234611   4.719   2.802  14.770  0.9641 -1.5500 -1.8328
 7717SOL     OW34612   1.939   3.525   4.275 -0.2854 -0.3027 -0.0669
 7717SOL    HW134613   1.920   3.618   4.293 -0.2135 -0.1999 -0.5366
 7717SOL    HW234614   1.941   3.491   4.365  1.3568  0.4773  0.1859
 7718SOL     OW34615   0.309   3.972   6.494 -0.7005  0.2011 -0.0085
 7718SOL    HW134616   0.291   3.972   6.588 -0.7329 -2.3820 -0.0102
 7718SOL    HW234617   0.404   3.979   6.496 -0.6887 -0.3938  1.5295
 7719SOL     OW34618   1.701   2.526   7.899  0.5216  0.7229 -0.2541
 7719SOL    HW134619   1.612   2.555   7.917 -0.1660 -2.3525  1.3378
 7719SOL    HW234620   1.682   2.432   7.898  3.3600  0.1058  2.1290
 7720SOL     OW34621   3.078   1.812  12.078 -0.4958  0.6072 -0.1973
 7720SOL    HW134622   3.123   1.809  11.994 -2.2696 -1.4389 -1.0905
 7720SOL    HW234623   3.032   1.728  12.087 -0.3974  0.5016 -0.6562
 7721SOL     OW34624   0.646   1.795  16.634  0.1483 -0.0813 -0.2615
 7721SOL    HW134625   0.588   1.766  16.563 -0.1740 -0.9521  0.3608
 7721SOL    HW234626   0.732   1.778  16.596 -0.2538  2.0154 -2.1795
 7722SOL     OW34627   2.530   0.635   7.587  0.2355  0.1678 -0.7932
 7722SOL    HW134628   2.556   0.552   7.628 -0.4260  0.9167  1.1235
 7722SOL    HW234629   2.566   0.697   7.650  3.9405 -0.1679 -2.5919
 7723SOL     OW34630   1.852   2.286   7.567 -0.8194  0.2413  0.3661
 7723SOL    HW134631   1.780   2.337   7.530 -0.0514  1.7369  0.9370
 7723SOL    HW234632   1.853   2.224   7.494  0.1365 -1.4735  1.8184
 7724SOL     OW34633   4.523   0.417  15.082 -0.2521 -0.6008  0.3207
 7724SOL    HW134634   4.435   0.400  15.048 -0.1693 -0.9720  0.2922
 7724SOL    HW234635   4.534   0.327  15.113  4.0979 -0.2342 -0.1593
 7725SOL     OW34636   1.314   0.086  12.120 -0.4828  0.2017 -0.5717
 7725SOL    HW134637   1.328   0.160  12.179  1.3445  0.8475 -1.7982
 7725SOL    HW234638   1.251   0.133  12.067 -1.7151 -2.2738 -1.2820
 7726SOL     OW34639   4.677   3.317   5.136 -0.0632 -0.1503 -0.4122
 7726SOL    HW134640   4.582   3.307   5.141 -0.0106  0.3983  1.7647
 7726SOL    HW234641   4.698   3.233   5.094  0.4055  1.0040 -2.4779
 7727SOL     OW34642   0.136   2.508   3.673 -0.2416 -0.0185 -0.7465
 7727SOL    HW134643   0.120   2.514   3.579 -1.0364  2.3378 -0.4394
 7727SOL    HW234644   0.199   2.575   3.700  1.6480 -1.7435 -0.8665
 7728SOL     OW34645   1.536   0.687   4.814  0.4160  0.1722 -0.2020
 7728SOL    HW134646   1.632   0.680   4.811  0.6070  2.1498  0.8962
 7728SOL    HW234647   1.523   0.753   4.746  1.3100 -0.1333 -0.6756
 7729SOL     OW34648   3.496   2.820   6.283  0.5740 -0.3690 -0.4878
 7729SOL    HW134649   3.464   2.854   6.199  0.9940 -0.9264 -0.8717
 7729SOL    HW234650   3.405   2.826   6.313  0.9333 -1.5977  0.7959
 7730SOL     OW34651   3.423   2.859  13.262 -0.6523  0.5375 -0.2114
 7730SOL    HW134652   3.360   2.907  13.208  0.3668  3.3336  1.1029
 7730SOL    HW234653   3.365   2.786  13.282 -0.7051  0.5976 -0.1485
 7731SOL     OW34654   0.873   3.851   0.268  0.0969 -0.2570 -0.8694
 7731SOL    HW134655   0.851   3.760   0.287 -2.3096  0.1441 -1.6689
 7731SOL    HW234656   0.833   3.903   0.338  1.4873  0.5671 -0.7054
 7732SOL     OW34657   4.483   4.717  14.166  0.0814 -0.1061  0.5058
 7732SOL    HW134658   4.403   0.017  14.212 -0.2340  1.5398 -0.9428
 7732SOL    HW234659   4.455   4.638  14.119 -2.1244  0.4470  0.9287
 7733SOL     OW34660   3.870   0.177   7.901 -0.1629  0.1398 -0.1544
 7733SOL    HW134661   3.824   0.199   7.820  1.0825 -1.1227 -1.1865
 7733SOL    HW234662   3.874   0.081   7.893  1.3706  0.4028 -2.3615
 7734SOL     OW34663   0.033   0.330  14.934 -0.0336 -0.5847 -0.0380
 7734SOL    HW134664   4.685   0.372  14.981  0.0495 -1.1840  0.6270
 7734SOL    HW234665   4.724   0.313  14.846 -0.6142 -1.6990  0.3891
 7735SOL     OW34666   4.642   0.333   4.744  0.1916 -0.3077  0.3667
 7735SOL    HW134667   4.690   0.276   4.804 -1.4826 -0.1630  1.8166
 7735SOL    HW234668   4.677   0.417   4.774  0.5828 -0.1905 -0.3920
 7736SOL     OW34669   3.998   0.474   9.428 -0.1515  0.0725  0.7112
 7736SOL    HW134670   3.937   0.412   9.387  0.0458  0.4062 -0.0904
 7736SOL    HW234671   3.943   0.497   9.503  1.4424  1.5702  1.4160
 7737SOL     OW34672   1.812   2.397   4.226 -0.2756 -0.3198  0.1967
 7737SOL    HW134673   1.782   2.469   4.171  1.4557  1.1123  1.1456
 7737SOL    HW234674   1.733   2.357   4.261 -0.7783 -0.1171 -0.7126
 7738SOL     OW34675   1.792   1.488   0.157 -0.6285  0.1313  0.3767
 7738SOL    HW134676   1.839   1.571   0.143 -0.6455 -0.0553 -0.8177
 7738SOL    HW234677   1.702   1.513   0.136 -0.7777 -0.9780 -0.2770
 7739SOL     OW34678   1.936   1.467   5.700  0.6444  1.0804 -0.6621
 7739SOL    HW134679   1.905   1.412   5.628  1.1373 -0.5919  0.4272
 7739SOL    HW234680   2.030   1.464   5.683  1.1877  0.0355  2.4876
 7740SOL     OW34681   3.328   2.233   4.945 -0.7662 -0.6185  0.6202
 7740SOL    HW134682   3.324   2.277   4.860 -2.4106  0.3542  1.1936
 7740SOL    HW234683   3.279   2.153   4.924  1.5986 -1.6262 -1.0072
 7741SOL     OW34684   0.112   2.959   6.646 -0.1329 -0.5727 -0.2845
 7741SOL    HW134685   0.144   2.873   6.674  1.5257  0.2669  0.3634
 7741SOL    HW234686   0.179   2.975   6.581 -0.7512 -0.6059 -0.9309
 7742SOL     OW34687   1.249   4.576   5.539  0.1941  0.1879 -0.3114
 7742SOL    HW134688   1.173   4.590   5.483 -0.1690  1.3151  0.4521
 7742SOL    HW234689   1.281   4.489   5.517 -0.1738 -0.0104 -0.0506
 7743SOL     OW34690   0.722   3.799   3.445 -0.5656 -0.4762  0.4648
 7743SOL    HW134691   0.636   3.822   3.411  1.3186 -0.0360 -3.9855
 7743SOL    HW234692   0.723   3.705   3.463 -0.2438 -0.8364 -1.4265
 7744SOL     OW34693   4.106   3.035   4.917 -0.3464  0.2651 -0.2047
 7744SOL    HW134694   4.160   2.957   4.932 -2.1487 -1.5292 -3.0292
 7744SOL    HW234695   4.107   3.076   5.004 -0.2713  0.7086 -0.4175
 7745SOL     OW34696   1.394   2.019  16.299  0.0482  0.2317  0.0545
 7745SOL    HW134697   1.460   2.086  16.280 -1.5743  1.0408 -2.6726
 7745SOL    HW234698   1.390   2.012  16.394  0.0764  3.7754  0.2855
 7746SOL     OW34699   3.680   0.774   9.565 -0.5578 -0.0670 -0.0035
 7746SOL    HW134700   3.680   0.796   9.471 -0.7903  0.6949  0.1710
 7746SOL    HW234701   3.631   0.695   9.585  1.3072 -0.7865  1.7596
 7747SOL     OW34702   4.529   4.487   5.999 -0.2871  0.1015 -0.0234
 7747SOL    HW134703   4.594   4.556   5.986  0.6249 -0.4876  1.4290
 7747SOL    HW234704   4.578   4.413   5.962  0.6170  0.3668  0.6627
 7748SOL     OW34705   1.329   3.053   5.892 -0.2026 -0.0438 -0.4998
 7748SOL    HW134706   1.317   2.985   5.959  0.0489  2.0519  1.6951
 7748SOL    HW234707   1.373   3.004   5.823 -0.6677  0.9712 -1.5301
 7749SOL     OW34708   3.371   4.315   4.333  0.2527 -0.0847  0.2794
 7749SOL    HW134709   3.376   4.323   4.238 -0.2019 -2.9999  0.0354
 7749SOL    HW234710   3.466   4.316   4.340  0.3844 -2.0344 -1.5619
 7750SOL     OW34711   2.783   2.106  11.057 -0.3650 -0.3570 -0.2238
 7750SOL    HW134712   2.852   2.048  11.092 -0.5584  1.7763  3.7229
 7750SOL    HW234713   2.734   2.041  11.007 -2.1158  0.1699  0.8208
 7751SOL     OW34714   3.460   1.470   2.964  0.1299  0.3242  0.4965
 7751SOL    HW134715   3.532   1.521   2.929  1.0882 -0.3304  1.5295
 7751SOL    HW234716   3.498   1.385   2.986  2.5544  1.2731 -0.0574
 7752SOL     OW34717   4.072   0.220   2.431  0.0555  0.3612  0.2144
 7752SOL    HW134718   4.038   0.274   2.360 -2.2064  1.2343  1.9432
 7752SOL    HW234719   4.019   0.141   2.421 -1.7453  1.3081  2.2691
 7753SOL     OW34720   1.781   1.416   7.658 -0.1900 -0.1932 -0.7356
 7753SOL    HW134721   1.847   1.410   7.589  0.2086 -2.9118 -0.1231
 7753SOL    HW234722   1.744   1.504   7.661  1.0713  0.3093  0.0633
 7754SOL     OW34723   0.302   2.632   9.375 -0.5776  0.6066  0.2338
 7754SOL    HW134724   0.327   2.656   9.464 -0.3619 -3.0116  1.1492
 7754SOL    HW234725   0.381   2.654   9.326 -0.8753  0.8345 -0.1449
 7755SOL     OW34726   4.283   4.149  11.525  0.4995  0.0860  0.7243
 7755SOL    HW134727   4.235   4.067  11.541  0.5638  0.2706  1.8332
 7755SOL    HW234728   4.230   4.197  11.589 -0.5839 -0.3634  0.1677
 7756SOL     OW34729   2.438   1.152   4.133  0.4290 -0.4218 -0.2591
 7756SOL    HW134730   2.475   1.181   4.049  0.5590 -3.0408 -1.1069
 7756SOL    HW234731   2.390   1.227   4.168  0.0191 -0.6908 -0.2388
 7757SOL     OW34732   3.837   2.079   6.815 -0.1569  0.0206 -0.0650
 7757SOL    HW134733   3.837   2.157   6.760 -1.4480  1.8138  2.4821
 7757SOL    HW234734   3.910   2.099   6.873  0.1755 -1.0817 -0.1036
 7758SOL     OW34735   3.031   4.648   8.160 -0.1848 -0.1333  0.4030
 7758SOL    HW134736   3.067   4.571   8.203 -1.3335 -0.0805  1.4495
 7758SOL    HW234737   2.969   4.686   8.222 -1.2823  0.9992 -1.3826
 7759SOL     OW34738   4.557   2.378   9.875  0.1952  0.2191  0.2851
 7759SOL    HW134739   4.598   2.463   9.889  1.4204 -0.3978  0.4456
 7759SOL    HW234740   4.594   2.329   9.949  1.3349 -0.9454 -1.0644
 7760SOL     OW34741   3.906   2.439   2.296 -0.0819 -0.0611  0.3394
 7760SOL    HW134742   3.817   2.405   2.299  0.0955 -0.3787  2.2163
 7760SOL    HW234743   3.894   2.494   2.219  0.7445 -1.5882 -0.8815
 7761SOL     OW34744   3.390   2.266   7.139 -0.9611 -0.2698  0.1948
 7761SOL    HW134745   3.340   2.288   7.218  2.2397  0.0330  2.1442
 7761SOL    HW234746   3.465   2.232   7.188 -0.3879  0.6574 -0.0329
 7762SOL     OW34747   4.334   4.600   3.049  0.6103  0.5751 -0.0862
 7762SOL    HW134748   4.322   4.596   2.954  1.3287  1.4819 -0.2109
 7762SOL    HW234749   4.400   4.533   3.066 -0.4212 -0.2645  0.6531
 7763SOL     OW34750   4.115   2.363   7.970  0.4931 -0.2934  0.1776
 7763SOL    HW134751   4.179   2.334   8.035  0.0610  0.8120  1.0886
 7763SOL    HW234752   4.065   2.287   7.939  2.6232 -1.5256 -0.2335
 7764SOL     OW34753   3.396   3.794   2.412  0.2628 -0.7602  0.0866
 7764SOL    HW134754   3.487   3.821   2.429 -0.0515 -0.8458  1.8970
 7764SOL    HW234755   3.399   3.786   2.317 -1.4262  0.1533 -0.0309
 7765SOL     OW34756   0.444   0.014   4.718  0.1506  0.6303  0.5335
 7765SOL    HW134757   0.355   0.007   4.683  0.2557 -2.2878  0.8667
 7765SOL    HW234758   0.427   0.006   4.812  0.7730  0.9023  0.6717
 7766SOL     OW34759   4.642   3.790  16.952 -0.3811  0.1987 -0.1346
 7766SOL    HW134760   4.551   3.802  16.923 -0.5962  1.2390  0.9718
 7766SOL    HW234761   4.635   3.736  17.031  0.5459 -0.6984 -0.6642
 7767SOL     OW34762   4.042   0.279   5.766  0.2597 -0.5408  0.4170
 7767SOL    HW134763   4.082   0.192   5.762  3.0935  0.7925  0.2491
 7767SOL    HW234764   4.100   0.335   5.714 -0.4044 -0.4189 -0.2112
 7768SOL     OW34765   2.121   3.982   5.285 -0.4581  0.3923 -0.4789
 7768SOL    HW134766   2.032   4.010   5.302 -0.6382 -1.5461  1.7499
 7768SOL    HW234767   2.159   4.066   5.259  0.2443  0.3332  0.3779
 7769SOL     OW34768   0.672   3.235   4.282 -0.4685  0.5035  0.5656
 7769SOL    HW134769   0.722   3.279   4.214  0.6079 -0.0412  1.0061
 7769SOL    HW234770   0.738   3.186   4.332 -1.7578 -1.6765  0.1374
 7770SOL     OW34771   4.422   2.926  14.921 -0.0281  0.3736 -0.3296
 7770SOL    HW134772   4.438   2.878  14.840 -2.3678  1.5487 -1.4925
 7770SOL    HW234773   4.415   3.018  14.898 -4.4203 -0.0332 -0.6117
 7771SOL     OW34774   0.594   2.247   7.409 -0.2656 -0.7522  0.1519
 7771SOL    HW134775   0.615   2.174   7.351  0.8764  0.2532 -0.7077
 7771SOL    HW234776   0.500   2.237   7.420 -0.1063 -0.3483  1.8977
 7772SOL     OW34777   0.935   4.679   6.259 -0.0048 -0.0804  0.3187
 7772SOL    HW134778   0.928   4.683   6.164  2.8337 -3.5385  0.0033
 7772SOL    HW234779   1.022   4.643   6.274 -0.8736 -2.4839 -0.3466
 7773SOL     OW34780   1.696   0.529   0.864 -0.0434 -0.4148  0.2397
 7773SOL    HW134781   1.733   0.616   0.883  2.9216 -1.3743 -1.1179
 7773SOL    HW234782   1.746   0.476   0.926  0.5403  0.7088  0.7394
 7774SOL     OW34783   3.238   3.112   2.617 -0.1879 -0.0898  0.0142
 7774SOL    HW134784   3.321   3.099   2.572 -0.0357 -0.1535  0.3175
 7774SOL    HW234785   3.194   3.041   2.570 -1.6428  1.6609 -1.2403
 7775SOL     OW34786   4.558   0.835   7.312 -0.8795 -0.4446  0.2867
 7775SOL    HW134787   4.559   0.916   7.364  0.4258 -0.8178  0.8317
 7775SOL    HW234788   4.487   0.790   7.358  0.5816 -0.3869  2.5866
 7776SOL     OW34789   0.657   3.517   2.570  0.2382 -0.4982 -0.0016
 7776SOL    HW134790   0.603   3.444   2.541  1.4696 -0.7610 -1.6374
 7776SOL    HW234791   0.702   3.477   2.645 -0.5400  0.8743  1.1953
 7777SOL     OW34792   2.072   0.270  16.783 -0.1552  0.2095 -0.2279
 7777SOL    HW134793   2.158   0.264  16.823 -0.6910  1.0758  1.0452
 7777SOL    HW234794   2.029   0.310  16.859  2.1994  2.2118  0.0548
 7778SOL     OW34795   2.804   3.207   3.574 -0.3864 -0.0932  0.0331
 7778SOL    HW134796   2.837   3.172   3.656  0.0252  1.3991  0.5021
 7778SOL    HW234797   2.711   3.186   3.581 -0.3677  0.5532  2.1992
 7779SOL     OW34798   2.517   4.616   6.794 -0.2581  0.3020 -0.3050
 7779SOL    HW134799   2.523   4.590   6.702  0.4735 -0.7807  0.0551
 7779SOL    HW234800   2.579   4.562   6.842  0.8903 -0.0819 -2.2476
 7780SOL     OW34801   4.695   4.573   2.893 -0.0686 -0.4753  0.4428
 7780SOL    HW134802   0.002   4.487   2.921 -0.3000 -0.4242  0.8727
 7780SOL    HW234803   0.051   4.612   2.858  0.8764 -1.2310  1.7453
 7781SOL     OW34804   3.963   4.075  12.701  0.7550  0.2937 -0.8061
 7781SOL    HW134805   3.915   4.158  12.694  0.4141  0.0775 -1.0287
 7781SOL    HW234806   3.903   4.024  12.647  1.2100 -2.1839  1.0289
 7782SOL     OW34807   3.456   2.736   6.787  0.1098 -0.1198 -0.1041
 7782SOL    HW134808   3.465   2.831   6.777 -0.2226  0.0425  1.1188
 7782SOL    HW234809   3.361   2.735   6.771 -0.0853  2.3237  0.8734
 7783SOL     OW34810   3.264   2.253  13.102 -0.5182  0.4072  0.0408
 7783SOL    HW134811   3.198   2.307  13.059 -1.5153  0.4855  1.6742
 7783SOL    HW234812   3.280   2.292  13.188  1.4199 -1.0052  0.3165
 7784SOL     OW34813   3.778   0.359  12.073  0.9810 -0.2925 -0.3395
 7784SOL    HW134814   3.829   0.426  12.029  1.3253 -1.4066 -1.6254
 7784SOL    HW234815   3.723   0.421  12.120  0.2790 -2.0506  1.1861
 7785SOL     OW34816   3.115   0.550   1.209 -0.2505  0.3733 -0.1584
 7785SOL    HW134817   3.069   0.578   1.130  1.6879 -0.2031 -1.5090
 7785SOL    HW234818   3.108   0.625   1.269 -2.5047  0.7678 -0.9229
 7786SOL     OW34819   4.710   4.189  10.275  0.3893 -0.3100  0.0348
 7786SOL    HW134820   4.670   4.276  10.284  0.4950 -0.4677  1.9828
 7786SOL    HW234821   0.077   4.206  10.300  0.9387  0.3672 -2.4787
 7787SOL     OW34822   3.714   0.515   6.720  0.5438  0.2312  0.2970
 7787SOL    HW134823   3.792   0.482   6.767  0.4739  2.6429  2.1099
 7787SOL    HW234824   3.658   0.540   6.793 -1.1121 -0.1903 -0.8378
 7788SOL     OW34825   4.572   3.758  10.297  0.0152 -0.6103  0.0003
 7788SOL    HW134826   4.553   3.846  10.329 -0.4797 -1.4345  1.9176
 7788SOL    HW234827   4.623   3.774  10.217 -1.3398 -1.2755 -0.9836
 7789SOL     OW34828   3.276   1.657   2.565  0.0956 -0.1766  0.4083
 7789SOL    HW134829   3.363   1.642   2.528 -0.2892 -1.6952  0.0959
 7789SOL    HW234830   3.253   1.746   2.540 -1.3985 -0.6732  0.0357
 7790SOL     OW34831   1.268   2.246   5.973  0.0479 -0.0158 -0.0036
 7790SOL    HW134832   1.282   2.151   5.975 -1.7387 -0.2753  0.1526
 7790SOL    HW234833   1.269   2.251   5.878 -0.5433 -1.7834 -0.0936
 7791SOL     OW34834   4.288   3.642   6.916  0.4761  0.2722  0.4681
 7791SOL    HW134835   4.362   3.593   6.882  1.9545  1.4206  2.0608
 7791SOL    HW234836   4.297   3.632   7.011 -0.5858  0.5265  0.6007
 7792SOL     OW34837   1.463   0.459   2.207 -0.1331 -0.2535  0.1353
 7792SOL    HW134838   1.371   0.439   2.192 -0.2261  0.3822 -0.1287
 7792SOL    HW234839   1.448   0.514   2.283  2.2160  0.1297  0.3220
 7793SOL     OW34840   3.993   3.329   5.714 -0.4503 -0.0970 -0.2369
 7793SOL    HW134841   4.036   3.268   5.774 -0.8431  0.2746  0.4302
 7793SOL    HW234842   4.029   3.322   5.626 -1.0904 -0.2820 -0.4836
 7794SOL     OW34843   2.460   2.901   5.091 -0.0140  0.0789  0.0522
 7794SOL    HW134844   2.392   2.841   5.060 -1.6328  2.9404 -1.8757
 7794SOL    HW234845   2.426   2.980   5.049  0.2795  0.0935 -0.1562
 7795SOL     OW34846   2.066   1.489   4.689 -0.1390 -0.3326 -0.5232
 7795SOL    HW134847   1.985   1.442   4.709 -0.4147  0.1124 -0.5931
 7795SOL    HW234848   2.109   1.421   4.638 -1.7488 -1.6747 -0.0872
 7796SOL     OW34849   0.840   3.985   7.928  0.4567  0.8717  0.1213
 7796SOL    HW134850   0.752   4.022   7.937  0.4831  0.3810  2.2559
 7796SOL    HW234851   0.877   4.010   8.013 -0.2754  2.9017 -0.1789
 7797SOL     OW34852   3.775   1.881  10.000  0.6310 -0.2624 -0.1962
 7797SOL    HW134853   3.742   1.940  10.068 -1.9286  0.8031 -2.3782
 7797SOL    HW234854   3.798   1.943   9.930 -1.5434  0.6700 -0.0968
 7798SOL     OW34855   3.611   0.616   4.726  0.2659  0.0904  0.1086
 7798SOL    HW134856   3.703   0.622   4.699  0.9993 -2.2814  2.0262
 7798SOL    HW234857   3.580   0.554   4.660  1.6891  0.8813 -1.3074
 7799SOL     OW34858   0.770   2.412  11.158  0.0345  0.1382 -0.2641
 7799SOL    HW134859   0.695   2.403  11.216  0.5854  0.0395  0.4461
 7799SOL    HW234860   0.729   2.390  11.075  0.6617 -0.2632 -0.4733
 7800SOL     OW34861   2.734   4.246  15.899 -0.2438  0.3791  0.3243
 7800SOL    HW134862   2.776   4.177  15.951 -0.7307 -1.4691 -1.7597
 7800SOL    HW234863   2.661   4.199  15.859 -0.0514  0.7643 -0.4741
 7801SOL     OW34864   2.938   4.326   8.583  0.2153 -0.1178  0.5005
 7801SOL    HW134865   2.901   4.414   8.595 -0.6598 -0.4956  0.5755
 7801SOL    HW234866   2.900   4.293   8.664 -0.4504 -2.6679 -0.8531
 7802SOL     OW34867   4.594   4.386   2.578  0.0111 -0.6942 -0.3938
 7802SOL    HW134868   4.654   4.337   2.633  0.5806  0.6936  0.2205
 7802SOL    HW234869   4.642   4.377   2.496 -0.0110 -1.6789 -0.2978
 7803SOL     OW34870   3.943   2.939   3.145  0.3208  0.1027  0.2650
 7803SOL    HW134871   3.968   2.955   3.236  2.3548  0.6477 -0.3706
 7803SOL    HW234872   3.933   2.844   3.144  1.4325  0.0028 -1.0378
 7804SOL     OW34873   0.719   2.939   3.709  0.0993  0.3276  0.0257
 7804SOL    HW134874   0.634   2.983   3.711 -1.2422 -2.3418  2.3710
 7804SOL    HW234875   0.775   3.008   3.744  2.0605 -1.2739  0.0436
 7805SOL     OW34876   2.062   3.391   9.952  0.8012 -0.0688 -0.2620
 7805SOL    HW134877   2.005   3.446   9.899  1.7092  2.5143  1.4761
 7805SOL    HW234878   1.999   3.324   9.979 -0.1482 -0.1399 -2.6340
 7806SOL     OW34879   3.325   1.575   5.426  0.0234 -0.1414 -0.4439
 7806SOL    HW134880   3.312   1.670   5.418 -0.3832 -0.0089  1.6180
 7806SOL    HW234881   3.295   1.566   5.517  0.7667 -0.8965 -0.2720
 7807SOL     OW34882   3.754   2.802  15.235  0.4605  0.4595  0.1224
 7807SOL    HW134883   3.832   2.792  15.181 -0.2835  1.4691 -1.1240
 7807SOL    HW234884   3.795   2.759  15.311 -0.6672 -0.9485 -0.0604
 7808SOL     OW34885   4.239   1.292   1.446 -0.2642  0.5723 -0.0097
 7808SOL    HW134886   4.257   1.380   1.479 -0.5339  0.4777  0.3969
 7808SOL    HW234887   4.167   1.306   1.385  0.4761 -0.4978 -1.1241
 7809SOL     OW34888   1.372   4.165  15.395  0.4498  0.1674  0.1394
 7809SOL    HW134889   1.279   4.147  15.412  0.5180  1.8570  2.3845
 7809SOL    HW234890   1.407   4.078  15.411 -0.1380 -0.1900 -0.5079
 7810SOL     OW34891   1.348   4.530   9.429  0.3126 -0.5448  0.1141
 7810SOL    HW134892   1.390   4.568   9.352 -3.8808 -0.3974 -2.0765
 7810SOL    HW234893   1.348   4.436   9.412 -1.9066 -0.3931 -0.7884
 7811SOL     OW34894   3.046   0.666   3.804 -0.3595 -0.1368  0.4308
 7811SOL    HW134895   3.137   0.678   3.775 -1.2639  2.1028 -1.3967
 7811SOL    HW234896   3.027   0.574   3.788  1.5799 -0.4818  0.0535
 7812SOL     OW34897   0.310   3.223   5.649 -0.2864 -0.6571  0.0545
 7812SOL    HW134898   0.290   3.130   5.662  0.1426 -0.4386  2.1724
 7812SOL    HW234899   0.237   3.236   5.589 -2.2773  1.0041  2.8760
 7813SOL     OW34900   0.782   3.436   6.015 -0.5405 -0.8379 -0.6755
 7813SOL    HW134901   0.692   3.464   6.033 -0.9991 -2.0612 -1.0572
 7813SOL    HW234902   0.811   3.510   5.961  2.3731 -0.7651  0.9610
 7814SOL     OW34903   0.470   0.297   3.589 -0.0992 -0.3440 -0.0189
 7814SOL    HW134904   0.458   0.345   3.671  1.1482  1.0840 -0.6720
 7814SOL    HW234905   0.412   0.340   3.527 -0.7343 -2.2448 -0.7663
 7815SOL     OW34906   3.108   0.925   3.137 -0.2720 -0.6325 -0.2954
 7815SOL    HW134907   3.080   0.834   3.142 -1.3579 -0.1301  3.2557
 7815SOL    HW234908   3.115   0.936   3.042  0.6645  2.7728  0.1485
 7816SOL     OW34909   4.226   3.261   7.386  0.3888  0.4658 -0.3216
 7816SOL    HW134910   4.251   3.325   7.453  0.1595  0.5810 -0.3469
 7816SOL    HW234911   4.156   3.313   7.346  1.0636 -0.4837 -2.6963
 7817SOL     OW34912   2.140   3.479   4.079  0.1595 -0.3759 -0.2276
 7817SOL    HW134913   2.169   3.570   4.074 -2.8350  0.6237  1.0202
 7817SOL    HW234914   2.063   3.485   4.136  0.5344  0.0596  0.2313
 7818SOL     OW34915   1.897   4.510  12.253 -0.4411  0.1690 -0.0490
 7818SOL    HW134916   1.898   4.480  12.162 -0.4556  0.9851 -0.3201
 7818SOL    HW234917   1.824   4.570  12.237  1.4041  2.5842  0.6294
 7819SOL     OW34918   1.598   0.667  11.633  0.2453 -0.1688  0.6232
 7819SOL    HW134919   1.612   0.693  11.724 -0.0279 -1.4978  1.0455
 7819SOL    HW234920   1.687   0.641  11.611  1.4413  2.4470  2.4095
 7820SOL     OW34921   2.877   3.615   8.387  0.3828 -0.0222 -0.6437
 7820SOL    HW134922   2.859   3.697   8.340  1.5739 -0.3995 -1.7499
 7820SOL    HW234923   2.971   3.606   8.398  0.2793 -0.3416  0.0068
 7821SOL     OW34924   2.828   2.835   8.316 -0.6558  0.5278  0.4853
 7821SOL    HW134925   2.840   2.741   8.302 -1.1003  0.6779 -0.9051
 7821SOL    HW234926   2.921   2.856   8.318 -0.5495  0.2827 -2.2617
 7822SOL     OW34927   2.513   1.906   0.067  0.0133 -0.3615 -0.8765
 7822SOL    HW134928   2.528   1.978   0.128 -1.2873 -0.6091 -0.2585
 7822SOL    HW234929   2.594   1.897   0.016 -0.4887 -1.5461 -1.4722
 7823SOL     OW34930   2.196   0.965   5.408 -0.8107  0.7529  0.2410
 7823SOL    HW134931   2.278   0.969   5.359 -0.1209 -1.0712  1.2408
 7823SOL    HW234932   2.140   1.003   5.340  2.4602  3.1113 -1.1135
 7824SOL     OW34933   2.587   3.511   6.334  0.1934 -0.3870 -0.5147
 7824SOL    HW134934   2.505   3.465   6.352  0.5385 -0.4724  0.8013
 7824SOL    HW234935   2.639   3.472   6.404 -2.1589 -1.4780  0.6286
 7825SOL     OW34936   4.596   3.016   6.553 -0.1113  0.3500 -0.4157
 7825SOL    HW134937   4.671   3.011   6.613 -0.6667 -0.0434  0.2442
 7825SOL    HW234938   4.629   3.077   6.487  1.1929  1.0093  0.8331
 7826SOL     OW34939   0.224   2.423   8.558  0.1881  0.3149  0.4476
 7826SOL    HW134940   0.145   2.373   8.578  0.8420  0.1874  2.7000
 7826SOL    HW234941   0.264   2.414   8.645 -0.0967 -2.0884  0.3305
 7827SOL     OW34942   4.080   4.655  13.707  0.3125 -0.0562 -0.2426
 7827SOL    HW134943   4.054   4.659  13.799  0.8109 -1.5081 -0.0307
 7827SOL    HW234944   4.100   4.562  13.699 -1.5576 -0.4652 -0.1847
 7828SOL     OW34945   3.984   3.106   9.677  0.2954 -0.6424  0.3511
 7828SOL    HW134946   4.046   3.171   9.708 -0.0035  0.0623 -0.5190
 7828SOL    HW234947   3.931   3.151   9.611 -0.0872 -0.8815  0.4917
 7829SOL     OW34948   2.178   0.447   3.152  0.3986  0.1092 -0.7281
 7829SOL    HW134949   2.148   0.525   3.199  0.2316 -0.9949  0.9877
 7829SOL    HW234950   2.131   0.369   3.181  1.4605  0.5723  2.2274
 7830SOL     OW34951   0.988   4.493  16.043  0.0352 -0.2600  0.2167
 7830SOL    HW134952   0.904   4.539  16.048 -0.0539 -0.5045  1.0058
 7830SOL    HW234953   0.989   4.449  16.128  0.1750 -1.5417 -0.4586
 7831SOL     OW34954   1.489   3.699   1.341 -0.4726  0.3066  0.1133
 7831SOL    HW134955   1.546   3.644   1.394  0.3842  2.2435  1.2327
 7831SOL    HW234956   1.538   3.782   1.342  2.4108 -1.3777 -0.1633
 7832SOL     OW34957   3.329   1.845   4.202  0.2692  0.4425  0.4151
 7832SOL    HW134958   3.268   1.915   4.175 -0.8674 -0.4338  0.6948
 7832SOL    HW234959   3.267   1.772   4.199  0.7332 -0.0637  3.1456
 7833SOL     OW34960   2.091   3.226   0.809  0.4523 -0.3639 -0.2344
 7833SOL    HW134961   2.007   3.202   0.848  1.0383 -1.3019  0.4629
 7833SOL    HW234962   2.066   3.278   0.733 -3.4894 -1.0423  0.6102
 7834SOL     OW34963   1.886   2.196   6.397  0.3078 -0.4697  0.4132
 7834SOL    HW134964   1.900   2.273   6.452  1.3543  0.9643 -1.8735
 7834SOL    HW234965   1.892   2.125   6.461 -0.5138 -0.1244  0.8717
 7835SOL     OW34966   0.938   2.553   3.470 -0.3448  0.0885 -0.3951
 7835SOL    HW134967   1.007   2.606   3.430  0.0242  1.1554  1.6548
 7835SOL    HW234968   0.877   2.621   3.500 -0.5037 -0.3170  0.1965
 7836SOL     OW34969   2.110   1.834   7.850 -0.4736  0.2915 -0.3228
 7836SOL    HW134970   2.145   1.795   7.930 -1.0204 -1.3296 -0.8576
 7836SOL    HW234971   2.171   1.906   7.840  0.4399 -0.4432 -0.0815
 7837SOL     OW34972   0.351   4.213  12.499  0.0206 -0.3905 -0.4652
 7837SOL    HW134973   0.310   4.180  12.578 -0.0775  1.5339  0.2576
 7837SOL    HW234974   0.272   4.257  12.470  0.7208 -1.2869 -3.8291
 7838SOL     OW34975   1.478   4.431  13.484  0.8044  0.2611  0.6582
 7838SOL    HW134976   1.426   4.466  13.412  1.7345  1.1645  0.4195
 7838SOL    HW234977   1.405   4.422  13.544 -0.4680 -1.1152 -1.0902
 7839SOL     OW34978   4.382   0.686   8.343 -0.1699  0.3102  0.3005
 7839SOL    HW134979   4.407   0.721   8.428 -0.2730  2.3553 -0.5219
 7839SOL    HW234980   4.402   0.593   8.358 -1.3896  0.0190  0.1168
 7840SOL     OW34981   4.307   3.001   3.279  0.1360  0.0531 -0.4777
 7840SOL    HW134982   4.377   3.050   3.321  0.2305 -0.3601 -0.1599
 7840SOL    HW234983   4.236   3.063   3.262  0.6923  0.5299 -1.0791
 7841SOL     OW34984   1.572   3.540  11.210 -0.0836 -0.0146  0.1397
 7841SOL    HW134985   1.623   3.463  11.238 -1.6064 -0.7064  1.0390
 7841SOL    HW234986   1.537   3.570  11.294 -0.2402 -0.3782  0.2060
 7842SOL     OW34987   3.988   4.102   5.138 -0.2078  0.3744 -0.1114
 7842SOL    HW134988   4.041   4.114   5.059 -2.1026  0.1349 -1.4455
 7842SOL    HW234989   3.999   4.186   5.182  0.8095 -0.0423  0.4091
 7843SOL     OW34990   4.704   4.439  17.261  0.0170 -0.4375 -0.2458
 7843SOL    HW134991   4.700   4.406  17.171 -0.3181  0.7245 -0.6479
 7843SOL    HW234992   4.629   4.498  17.265 -0.1162 -0.5879 -0.4794
 7844SOL     OW34993   3.406   1.577   8.598  0.2922  0.0135 -0.4490
 7844SOL    HW134994   3.348   1.575   8.522  2.5034  0.5726 -2.1509
 7844SOL    HW234995   3.411   1.672   8.603  1.0076 -0.0459 -0.0303
 7845SOL     OW34996   2.651   2.383   6.103  0.6946 -0.0194  0.0966
 7845SOL    HW134997   2.642   2.327   6.181  0.3781 -0.2082 -0.0753
 7845SOL    HW234998   2.695   2.320   6.046 -0.4805 -2.2294  1.6099
 7846SOL     OW34999   0.936   0.489   9.120  0.3765 -0.1817 -0.0728
 7846SOL    HW135000   0.914   0.481   9.027  3.1417  2.7135 -0.9778
 7846SOL    HW235001   0.867   0.444   9.169  0.7494 -0.2019  0.4348
 7847SOL     OW35002   1.065   0.713   3.619  0.0092 -0.1130 -0.2700
 7847SOL    HW135003   1.032   0.633   3.580 -1.0998  0.7532 -1.1315
 7847SOL    HW235004   1.104   0.762   3.547  1.5914 -1.0346 -0.0311
 7848SOL     OW35005   2.371   4.022   8.574 -0.1068 -0.2493  0.3763
 7848SOL    HW135006   2.332   3.986   8.654  2.4692  0.0167  1.7425
 7848SOL    HW235007   2.428   3.947   8.558  0.2057 -0.3167  1.7854
 7849SOL     OW35008   3.903   4.675   3.767 -0.6228  0.6244  0.0377
 7849SOL    HW135009   3.846   0.007   3.715 -0.2573  2.2560  1.4113
 7849SOL    HW235010   3.971   4.647   3.706  0.1016 -0.9211  1.5654
 7850SOL     OW35011   2.428   2.483   6.339  0.3418 -0.2508 -0.2928
 7850SOL    HW135012   2.464   2.423   6.404 -0.4680  0.1856  0.5608
 7850SOL    HW235013   2.456   2.569   6.368 -0.3912  0.6569 -2.2791
 7851SOL     OW35014   0.983   4.345   7.245  0.3514  0.3859  0.5016
 7851SOL    HW135015   0.945   4.395   7.173 -0.5649 -0.8788  0.1106
 7851SOL    HW235016   0.985   4.407   7.319 -2.0093  0.4543  0.5126
 7852SOL     OW35017   4.159   3.813  10.156 -0.2579 -0.2941  0.1966
 7852SOL    HW135018   4.073   3.797  10.195 -0.2156 -1.7850 -0.2974
 7852SOL    HW235019   4.201   3.871  10.218  0.3956  0.1675 -0.6760
 7853SOL     OW35020   2.766   2.955  16.779  0.1938  0.6359  0.3285
 7853SOL    HW135021   2.769   3.042  16.737 -0.9273  0.5693  0.1038
 7853SOL    HW235022   2.839   2.962  16.841  0.9907 -0.5430 -0.4736
 7854SOL     OW35023   2.810   1.822   7.233  0.2053  0.6401  0.3984
 7854SOL    HW135024   2.808   1.894   7.170  0.8990  1.3626  1.2160
 7854SOL    HW235025   2.782   1.871   7.310 -1.5326  0.5264 -0.1407
 7855SOL     OW35026   1.632   3.233   7.140 -0.1060 -0.0470  0.7715
 7855SOL    HW135027   1.582   3.243   7.060 -0.4542 -2.5889  0.6854
 7855SOL    HW235028   1.720   3.258   7.112 -0.1751  0.1663  0.7403
 7856SOL     OW35029   0.970   2.356  10.177  0.0088 -0.0903  0.2009
 7856SOL    HW135030   0.955   2.429  10.117  0.4061 -0.5377 -0.4556
 7856SOL    HW235031   1.030   2.397  10.239 -1.3016  0.9655  0.7556
 7857SOL     OW35032   2.072   2.287   3.221 -0.1191 -0.4231 -0.0210
 7857SOL    HW135033   2.084   2.193   3.237  0.5439 -0.5726 -1.3375
 7857SOL    HW235034   2.149   2.323   3.265 -1.0486  1.5710 -0.0341
 7858SOL     OW35035   2.120   3.326   7.031 -1.0327 -0.3046  0.0782
 7858SOL    HW135036   2.115   3.252   7.091 -2.2911  0.0536  0.4361
 7858SOL    HW235037   2.193   3.379   7.064 -0.0362  0.9750 -4.1830
 7859SOL     OW35038   0.038   1.770   6.621 -0.3645 -0.1383 -0.8352
 7859SOL    HW135039   4.699   1.826   6.577  1.8972  2.4445 -0.8236
 7859SOL    HW235040   4.713   1.689   6.626 -0.9206  0.0948 -2.5347
 7860SOL     OW35041   3.189   2.158   8.489 -1.1102  0.1636 -0.6826
 7860SOL    HW135042   3.155   2.072   8.516 -0.0902  0.7059  2.3178
 7860SOL    HW235043   3.200   2.189   8.579 -0.7109 -1.4376 -0.1796
 7861SOL     OW35044   1.896   4.263  14.696  0.3573 -0.0864 -0.0052
 7861SOL    HW135045   1.941   4.222  14.770  0.8314  0.5880  0.0788
 7861SOL    HW235046   1.977   4.268  14.646 -0.0841 -1.4584 -0.8667
 7862SOL     OW35047   1.717   0.814   1.908  0.1630 -0.5006 -0.0466
 7862SOL    HW135048   1.667   0.841   1.832 -0.3007 -1.6016 -0.1266
 7862SOL    HW235049   1.786   0.771   1.859 -0.5889 -0.0288 -1.5109
 7863SOL     OW35050   0.116   1.783   6.927  0.1252  0.2605 -0.0608
 7863SOL    HW135051   0.108   1.764   6.834  0.7915  0.6256 -0.1954
 7863SOL    HW235052   0.070   1.712   6.973  0.7851  0.6096  1.1475
 7864SOL     OW35053   3.251   1.350   5.300 -0.2916  0.2800  0.1770
 7864SOL    HW135054   3.208   1.402   5.232 -0.4512  0.2893  0.2851
 7864SOL    HW235055   3.297   1.418   5.349  0.1299  0.9773 -1.1879
 7865SOL     OW35056   0.205   0.169  12.825 -0.2294 -0.3005 -0.0770
 7865SOL    HW135057   0.284   0.214  12.854 -0.2565  0.4832 -1.2040
 7865SOL    HW235058   0.168   0.144  12.909  0.1600  1.0005  0.4712
 7866SOL     OW35059   0.496   0.802   6.877  0.7556  0.4860  0.1004
 7866SOL    HW135060   0.404   0.793   6.902  0.7743  1.0293  0.3718
 7866SOL    HW235061   0.537   0.746   6.943 -0.0706  1.9174  1.8032
 7867SOL     OW35062   0.312   3.422   6.403  0.0415 -0.5952  0.0736
 7867SOL    HW135063   0.253   3.443   6.475 -0.4130 -1.2749 -0.1036
 7867SOL    HW235064   0.265   3.447   6.323 -0.2898 -0.1585  0.4060
 7868SOL     OW35065   0.345   3.242  15.750  0.4181  0.4589 -0.3925
 7868SOL    HW135066   0.266   3.265  15.798  1.0366  2.2728 -0.2336
 7868SOL    HW235067   0.380   3.331  15.737  1.1650  0.0938 -0.9061
 7869SOL     OW35068   0.321   3.643   4.360 -0.2481 -0.0407 -0.5388
 7869SOL    HW135069   0.303   3.626   4.452  0.5825  0.5213 -0.2661
 7869SOL    HW235070   0.370   3.726   4.358  0.8300 -0.6713 -0.3512
 7870SOL     OW35071   1.882   0.121   2.269  0.1842 -0.2089  0.1406
 7870SOL    HW135072   1.892   0.059   2.341  1.2620 -0.1196  0.0650
 7870SOL    HW235073   1.960   0.169   2.296 -2.9306  3.3229  2.8156
 7871SOL     OW35074   1.606   3.299   5.703 -0.9328 -0.5132  0.2070
 7871SOL    HW135075   1.685   3.252   5.679 -1.3933  0.4126 -3.2000
 7871SOL    HW235076   1.649   3.370   5.750  0.9608 -0.8372 -1.0374
 7872SOL     OW35077   0.022   0.257   3.530 -0.5701 -0.2783  0.4396
 7872SOL    HW135078   0.066   0.266   3.614  1.1656  2.7997 -0.8332
 7872SOL    HW235079   0.017   0.348   3.502 -1.1683  0.0991  1.7731
 7873SOL     OW35080   1.989   3.852   8.398 -0.0805 -0.2793  0.1029
 7873SOL    HW135081   1.970   3.946   8.393  2.3308  0.0815 -2.3046
 7873SOL    HW235082   1.931   3.812   8.333  0.8280  0.1438 -0.9558
 7874SOL     OW35083   0.888   2.482   0.668 -0.3573 -0.4210 -0.0679
 7874SOL    HW135084   0.941   2.411   0.705 -0.5542 -1.8121 -2.4590
 7874SOL    HW235085   0.875   2.532   0.749 -0.3744 -1.8968  0.8447
 7875SOL     OW35086   4.342   1.838   8.681 -0.3553 -0.5890  0.2798
 7875SOL    HW135087   4.336   1.746   8.707  1.5118 -1.2306 -1.5234
 7875SOL    HW235088   4.427   1.848   8.637 -1.2822  0.7234 -1.2401
 7876SOL     OW35089   3.369   4.671   8.999  0.6294  0.7825  0.0349
 7876SOL    HW135090   3.284   4.627   8.995  0.7279  1.1347 -4.9570
 7876SOL    HW235091   3.427   4.611   8.953  0.3979 -0.4553  1.3371
 7877SOL     OW35092   1.150   0.826   6.770  0.0263  0.3194  0.3330
 7877SOL    HW135093   1.174   0.812   6.862 -0.8268  0.7299  0.6131
 7877SOL    HW235094   1.149   0.920   6.753 -0.3356  0.0018 -1.4018
 7878SOL     OW35095   0.636   4.177  16.390 -0.3760  0.3062  0.8806
 7878SOL    HW135096   0.569   4.153  16.454  0.7283 -0.3402  1.8116
 7878SOL    HW235097   0.703   4.208  16.451  1.6688 -0.3191 -1.0496
 7879SOL     OW35098   4.356   4.020  15.123 -0.1413  0.3668  0.4040
 7879SOL    HW135099   4.418   4.031  15.051  0.8401  0.3287  1.2423
 7879SOL    HW235100   4.316   4.107  15.124 -0.0963  0.3705  2.8484
 7880SOL     OW35101   3.082   3.128   6.613 -0.2838 -0.4678  0.4303
 7880SOL    HW135102   3.046   3.116   6.701 -0.6668 -0.4080  0.2837
 7880SOL    HW235103   3.066   3.037   6.590  1.6097 -0.5784 -0.4643
 7881SOL     OW35104   2.645   1.509   5.200  0.0009 -0.0276  0.4927
 7881SOL    HW135105   2.716   1.477   5.254  0.0784  0.1719  0.5104
 7881SOL    HW235106   2.625   1.591   5.246  0.3886 -0.9921  2.3378
 7882SOL     OW35107   0.199   3.681   8.980 -0.0236  0.2020 -0.3026
 7882SOL    HW135108   0.280   3.697   8.932  1.5906 -2.6098  1.4754
 7882SOL    HW235109   0.214   3.743   9.052  0.9283  0.5418 -0.8056
 7883SOL     OW35110   0.214   1.527   1.292  1.0379  0.1435 -0.0035
 7883SOL    HW135111   0.148   1.572   1.344  1.5448  1.6746 -0.6986
 7883SOL    HW235112   0.161   1.510   1.214  1.1498  2.1211 -0.5048
 7884SOL     OW35113   3.382   4.614  13.169 -0.1229  0.1871 -0.0075
 7884SOL    HW135114   3.453   4.570  13.123 -0.4989 -0.3456 -0.0801
 7884SOL    HW235115   3.345   4.546  13.226  1.7515  0.9691  2.1393
 7885SOL     OW35116   4.166   1.639  14.588 -0.1060  0.3557 -0.2143
 7885SOL    HW135117   4.091   1.612  14.534  0.4891  2.0618 -1.8872
 7885SOL    HW235118   4.159   1.734  14.576  1.7836  0.1032 -3.4595
 7886SOL     OW35119   3.086   0.951   3.543  0.2704  0.2287  0.1480
 7886SOL    HW135120   3.171   0.963   3.585 -0.2870  3.3632  0.3785
 7886SOL    HW235121   3.094   0.857   3.522 -0.5443 -0.2996  2.2004
 7887SOL     OW35122   1.814   3.046   1.958 -0.4485 -0.2306 -0.1213
 7887SOL    HW135123   1.806   3.007   1.871  0.6974 -0.5988 -0.0694
 7887SOL    HW235124   1.863   2.972   1.994  0.2312 -0.1191 -0.8044
 7888SOL     OW35125   1.761   2.946   9.087  0.6839 -0.4215 -0.2025
 7888SOL    HW135126   1.716   2.864   9.105  0.4389 -0.0599  0.7915
 7888SOL    HW235127   1.853   2.917   9.083  0.8346  0.3251 -2.1478
 7889SOL     OW35128   3.129   2.775   6.695  0.7617  0.0501 -0.4362
 7889SOL    HW135129   3.042   2.735   6.703  0.6045  0.1965 -1.4233
 7889SOL    HW235130   3.160   2.751   6.607  1.7269 -0.5291  0.0688
 7890SOL     OW35131   4.429   1.415  10.549 -0.0487 -0.1368 -0.3752
 7890SOL    HW135132   4.357   1.379  10.602  0.5578 -0.9290 -0.0791
 7890SOL    HW235133   4.416   1.382  10.460  1.0334  1.3303 -1.0642
 7891SOL     OW35134   4.709   1.907  11.526  0.6551  0.2845  0.6254
 7891SOL    HW135135   4.688   1.929  11.435  1.5416  0.5249  0.4819
 7891SOL    HW235136   4.698   1.991  11.572  0.1315  0.5378  0.0454
 7892SOL     OW35137   0.381   1.133   6.561  0.2997  0.2270  0.2187
 7892SOL    HW135138   0.287   1.116   6.569  0.2642  0.3036 -0.0463
 7892SOL    HW235139   0.375   1.163   6.471 -1.0160  0.1925  0.2989
 7893SOL     OW35140   0.145   3.595   8.512  0.1910 -0.0110  0.5411
 7893SOL    HW135141   0.133   3.589   8.607  0.0953  0.0559  0.5325
 7893SOL    HW235142   0.233   3.630   8.496 -0.5242  0.1980 -2.9144
 7894SOL     OW35143   4.545   3.659   1.071 -0.1151 -0.2771  0.7285
 7894SOL    HW135144   4.464   3.707   1.088 -0.1893  0.1763 -0.8578
 7894SOL    HW235145   4.579   3.700   0.992 -1.7337 -0.7594 -0.2235
 7895SOL     OW35146   1.489   3.669  16.599 -0.2511 -0.0925 -0.2773
 7895SOL    HW135147   1.414   3.674  16.540 -0.5417  0.2664  0.1238
 7895SOL    HW235148   1.448   3.720  16.669  2.3294 -1.2400  2.0439
 7896SOL     OW35149   0.189   4.243   9.944  0.6122  0.5337 -0.2893
 7896SOL    HW135150   0.253   4.274   9.880 -1.3553  0.1095 -2.4802
 7896SOL    HW235151   0.129   4.317   9.947  0.3455  0.1938  2.3571
 7897SOL     OW35152   1.231   1.190   5.691 -0.6047 -0.3109  0.3017
 7897SOL    HW135153   1.232   1.252   5.763  2.0187 -0.8667  0.7628
 7897SOL    HW235154   1.245   1.113   5.746 -3.8310 -1.7168 -0.8652
 7898SOL     OW35155   1.708   0.353  10.903  0.2971  0.5402 -0.0243
 7898SOL    HW135156   1.716   0.274  10.956 -1.1004  0.3525 -0.1094
 7898SOL    HW235157   1.758   0.421  10.949 -0.3830  0.1418  1.2949
 7899SOL     OW35158   0.399   3.516  15.767  0.0454  0.0063  0.1231
 7899SOL    HW135159   0.308   3.536  15.791 -0.3256 -0.0676 -1.1920
 7899SOL    HW235160   0.434   3.573  15.836 -0.5700  1.0655 -0.4288
 7900SOL     OW35161   4.289   0.531   1.781  0.5506  0.3231  0.4014
 7900SOL    HW135162   4.254   0.546   1.869 -0.8131 -0.2281 -0.0530
 7900SOL    HW235163   4.261   0.610   1.735  1.7415 -0.5082 -1.7915
 7901SOL     OW35164   1.072   0.858   3.353 -0.3867 -0.2114  0.6198
 7901SOL    HW135165   1.043   0.782   3.303  2.7692 -1.3102  0.4502
 7901SOL    HW235166   1.027   0.927   3.305 -1.8087 -0.5097  1.5208
 7902SOL     OW35167   1.790   4.291  10.790 -0.4794 -0.0017  0.2376
 7902SOL    HW135168   1.806   4.246  10.873 -1.4521 -1.2894 -0.2650
 7902SOL    HW235169   1.694   4.289  10.795 -0.6023 -1.0205 -2.6225
 7903SOL     OW35170   4.665   2.255   4.934 -0.1200 -0.6088 -0.4799
 7903SOL    HW135171   4.615   2.182   4.969 -2.8357  0.9922 -1.0434
 7903SOL    HW235172   4.606   2.324   4.964  1.8184 -0.0301  2.0433
 7904SOL     OW35173   2.322   3.221   7.257 -0.5659 -0.1860  0.1349
 7904SOL    HW135174   2.362   3.173   7.185 -0.1488 -0.8187  0.7834
 7904SOL    HW235175   2.242   3.173   7.276 -0.7532 -0.7590 -2.1721
 7905SOL     OW35176   4.056   3.267  16.880  0.2462  0.3093  0.3049
 7905SOL    HW135177   3.996   3.282  16.807  0.5010 -0.8999 -0.1503
 7905SOL    HW235178   4.040   3.178  16.911  0.3885  0.4258  0.7153
 7906SOL     OW35179   0.802   0.627   5.767  0.4497 -0.2877  0.3738
 7906SOL    HW135180   0.816   0.675   5.686 -1.3553 -3.3034 -1.7659
 7906SOL    HW235181   0.766   0.699   5.818  0.0752  0.2343 -0.6247
 7907SOL     OW35182   0.462   0.220   5.051 -0.1110 -0.0717 -0.2982
 7907SOL    HW135183   0.511   0.285   5.001  0.3734 -0.7392 -0.6822
 7907SOL    HW235184   0.418   0.278   5.114  2.1410  1.6781 -0.3261
 7908SOL     OW35185   3.026   3.009   5.107 -0.0019  0.1100  0.4453
 7908SOL    HW135186   3.077   3.011   5.188  0.3495  3.2522  0.1211
 7908SOL    HW235187   3.064   3.071   5.045 -2.0322  2.0178  1.1022
 7909SOL     OW35188   2.597   1.719   9.314  0.2413  0.6613 -0.2798
 7909SOL    HW135189   2.576   1.730   9.407  0.1185  2.2915 -0.5130
 7909SOL    HW235190   2.592   1.810   9.285  3.7089  0.3246 -1.8524
 7910SOL     OW35191   2.527   2.906   5.402  0.5058 -0.0565 -0.0653
 7910SOL    HW135192   2.586   2.954   5.460 -0.2680  1.7236 -0.7692
 7910SOL    HW235193   2.568   2.910   5.315 -2.5529 -1.3863 -1.5609
 7911SOL     OW35194   1.580   3.248  15.409 -0.8144 -0.0514 -0.2319
 7911SOL    HW135195   1.534   3.166  15.393  0.6391 -0.6315 -1.4292
 7911SOL    HW235196   1.672   3.225  15.395 -0.3533  2.0858 -0.7257
 7912SOL     OW35197   3.265   4.722  16.378  0.3265  0.3675 -0.0491
 7912SOL    HW135198   3.282   4.628  16.370 -1.3993 -0.0754  1.5161
 7912SOL    HW235199   3.340   0.036  16.333  1.2154 -0.3784  0.7990
 7913SOL     OW35200   2.242   0.097   2.130 -0.5633  0.4071  0.6088
 7913SOL    HW135201   2.314   0.052   2.086 -2.4892 -0.4639 -1.6473
 7913SOL    HW235202   2.181   0.029   2.157  0.0396 -0.9487 -1.3671
 7914SOL     OW35203   2.748   0.594   1.313 -0.4146  0.0609 -0.3185
 7914SOL    HW135204   2.816   0.548   1.362 -0.6299  0.4350  0.3137
 7914SOL    HW235205   2.800   0.617   1.235  0.2962 -0.3988  0.0159
 7915SOL     OW35206   0.273   2.827   1.656 -0.6134 -0.3429 -0.3879
 7915SOL    HW135207   0.241   2.753   1.605  1.3498  0.0614 -2.2029
 7915SOL    HW235208   0.226   2.902   1.618 -1.0413 -0.0899  0.6520
 7916SOL     OW35209   2.736   4.401   3.584  0.1952 -0.1430 -0.5823
 7916SOL    HW135210   2.781   4.400   3.668  2.9877 -0.2937 -2.0823
 7916SOL    HW235211   2.740   4.309   3.559  0.1580 -0.1471 -0.5728
 7917SOL     OW35212   2.428   1.736   8.981 -0.4325  0.1814  0.3408
 7917SOL    HW135213   2.422   1.814   9.037 -0.9362 -0.2398  0.8673
 7917SOL    HW235214   2.419   1.779   8.896  1.6996  0.9708  0.5331
 7918SOL     OW35215   1.036   1.708   3.536 -0.0707 -0.2301  0.5024
 7918SOL    HW135216   1.050   1.614   3.521  1.1997 -0.0064  0.3041
 7918SOL    HW235217   0.942   1.700   3.519 -0.0347 -0.0968  0.2275
 7919SOL     OW35218   2.861   2.421   0.925  0.6747  0.4485 -0.4761
 7919SOL    HW135219   2.935   2.409   0.985 -1.1078  2.6923  2.1969
 7919SOL    HW235220   2.824   2.333   0.922 -0.7069  1.0859 -2.2836
 7920SOL     OW35221   2.918   1.388   1.400  0.0129 -0.4060 -0.6142
 7920SOL    HW135222   2.887   1.297   1.401 -0.1201 -0.3607 -0.8241
 7920SOL    HW235223   3.007   1.374   1.435 -1.0309 -3.3559  0.9184
 7921SOL     OW35224   2.323   0.794   5.929  0.1932  0.4394  0.6102
 7921SOL    HW135225   2.301   0.831   5.843  0.2307 -0.4460  0.2190
 7921SOL    HW235226   2.384   0.723   5.911 -2.3594 -1.8348  1.0650
 7922SOL     OW35227   3.333   4.392  16.048  0.0366  0.1894  0.0276
 7922SOL    HW135228   3.256   4.448  16.041 -0.0216  0.4227  2.6280
 7922SOL    HW235229   3.407   4.444  16.018 -0.1787  1.2807  1.3881
 7923SOL     OW35230   1.689   0.915   6.840  0.0478  0.2869 -0.4792
 7923SOL    HW135231   1.630   0.990   6.839 -1.8402 -1.1958 -0.2005
 7923SOL    HW235232   1.632   0.839   6.827  1.0713 -0.3835 -1.0403
 7924SOL     OW35233   2.207   0.974   1.387  0.3616 -0.0528 -0.6521
 7924SOL    HW135234   2.113   0.973   1.402  0.2217 -0.1746 -1.5341
 7924SOL    HW235235   2.236   1.065   1.391  2.3037 -0.6194 -1.6857
 7925SOL     OW35236   1.677   0.701   1.146 -0.2769  0.1619  0.0953
 7925SOL    HW135237   1.742   0.769   1.126  0.2651 -0.4340 -0.1840
 7925SOL    HW235238   1.630   0.726   1.225 -2.0016 -0.2152 -0.8056
 7926SOL     OW35239   1.931   4.647   2.444  0.2977 -0.1533  0.5016
 7926SOL    HW135240   1.867   4.590   2.402  0.2685 -1.6567  2.5660
 7926SOL    HW235241   2.005   4.605   2.400 -2.0476  0.9863 -4.4793
 7927SOL     OW35242   2.371   4.502   6.527  0.2167  0.1808 -0.1989
 7927SOL    HW135243   2.412   4.444   6.591  0.5021 -0.2805 -0.7889
 7927SOL    HW235244   2.430   4.489   6.453  2.1187 -4.1349  2.0500
 7928SOL     OW35245   4.312   4.306  13.087 -0.3151  0.6056 -0.1911
 7928SOL    HW135246   4.273   4.256  13.015  2.1436 -0.0170 -1.1118
 7928SOL    HW235247   4.225   4.334  13.114 -0.2065 -1.4262  2.2371
 7929SOL     OW35248   3.130   2.326   7.023  0.7403  0.1345 -0.1346
 7929SOL    HW135249   3.214   2.283   7.007 -0.1229 -1.6644  0.1426
 7929SOL    HW235250   3.085   2.245   7.046  0.8811 -0.1354 -0.8293
 7930SOL     OW35251   2.341   3.324  16.653  0.4068  0.7353  0.6241
 7930SOL    HW135252   2.349   3.412  16.688 -0.0481  0.9676  0.1416
 7930SOL    HW235253   2.307   3.349  16.567  0.9349 -0.6090  0.0203
 7931SOL     OW35254   3.816   4.301  12.663  0.8310 -0.0262 -0.4641
 7931SOL    HW135255   3.866   4.382  12.669 -0.9616  0.9353  2.0118
 7931SOL    HW235256   3.782   4.322  12.576 -3.0024 -1.8744  0.5634
 7932SOL     OW35257   1.833   1.129   4.274  0.4411 -0.4368 -0.2650
 7932SOL    HW135258   1.855   1.073   4.348  1.6381  0.8421  0.3441
 7932SOL    HW235259   1.741   1.105   4.260  0.2281 -1.0995  2.3507
 7933SOL     OW35260   0.524   2.555   3.800  0.6499  0.3190  0.1639
 7933SOL    HW135261   0.578   2.477   3.787  0.3863 -0.2334  2.3736
 7933SOL    HW235262   0.582   2.620   3.840  0.7347 -0.5733  1.5150
 7934SOL     OW35263   2.870   4.131   2.794 -0.7576 -0.5373 -0.6391
 7934SOL    HW135264   2.954   4.142   2.750 -0.0770  0.7546  0.9737
 7934SOL    HW235265   2.806   4.123   2.723 -0.0308  2.6234 -1.6505
 7935SOL     OW35266   1.459   3.084   8.805 -0.2160  0.2630 -0.0478
 7935SOL    HW135267   1.540   3.065   8.757  0.8644  0.2002  1.8017
 7935SOL    HW235268   1.429   3.000   8.839  0.8114  0.4369  1.2734
 7936SOL     OW35269   3.961   2.892  15.495 -0.2296 -0.4617  0.2006
 7936SOL    HW135270   3.914   2.810  15.510  1.0106 -1.7478 -3.0550
 7936SOL    HW235271   4.035   2.861  15.443  1.0692  3.2133 -0.1966
 7937SOL     OW35272   2.273   2.067   7.797 -0.1792  0.5566  0.1179
 7937SOL    HW135273   2.203   2.122   7.761 -1.4368 -1.8701 -1.1633
 7937SOL    HW235274   2.316   2.137   7.845 -2.7880  0.8111  2.0655
 7938SOL     OW35275   2.263   4.112   9.723 -0.2830 -0.1678 -0.4606
 7938SOL    HW135276   2.315   4.169   9.780 -1.5120  1.8437 -1.3731
 7938SOL    HW235277   2.276   4.026   9.764 -3.1364 -0.8006 -0.8636
 7939SOL     OW35278   2.382   3.773   6.929 -0.6194 -0.1077  0.0172
 7939SOL    HW135279   2.379   3.863   6.962  2.6416  0.3548 -0.9538
 7939SOL    HW235280   2.291   3.750   6.951 -1.0928  0.6764 -1.0942
 7940SOL     OW35281   1.763   1.041   2.946 -0.4580  0.0313  0.2782
 7940SOL    HW135282   1.805   1.118   2.983  1.0592 -0.5719 -0.1961
 7940SOL    HW235283   1.829   0.972   2.941 -1.5981 -1.2228  2.1657
 7941SOL     OW35284   1.704   4.277   5.281  0.3789 -0.1743 -0.1628
 7941SOL    HW135285   1.695   4.255   5.188  0.4386 -4.1226  0.7598
 7941SOL    HW235286   1.631   4.337   5.297  1.5471  1.1779  0.0927
 7942SOL     OW35287   2.117   0.104   3.502 -0.3350  0.1569 -0.0866
 7942SOL    HW135288   2.189   0.104   3.440  1.5379 -0.8936  2.0879
 7942SOL    HW235289   2.043   0.116   3.442  0.8524  1.6102 -1.2740
 7943SOL     OW35290   2.714   0.723   5.029  0.2723 -0.1844 -0.7639
 7943SOL    HW135291   2.688   0.799   5.082 -0.6298  0.4897 -2.1779
 7943SOL    HW235292   2.807   0.702   5.041  0.3188 -0.6252 -1.8742
 7944SOL     OW35293   0.670   1.326   8.167 -0.4718  0.1819  0.1972
 7944SOL    HW135294   0.660   1.306   8.261 -1.7796 -0.0950  0.0037
 7944SOL    HW235295   0.664   1.421   8.178  1.5607  0.1415  1.6591
 7945SOL     OW35296   1.984   2.290   2.357  0.0927 -0.2030 -0.5319
 7945SOL    HW135297   2.071   2.283   2.316 -0.5966 -0.4854 -1.9440
 7945SOL    HW235298   1.977   2.200   2.388 -1.2890  0.3340  0.7114
 7946SOL     OW35299   1.481   4.348   2.197 -0.0049 -0.1091  0.4081
 7946SOL    HW135300   1.402   4.401   2.187 -0.2856 -0.4763  0.6828
 7946SOL    HW235301   1.479   4.314   2.286 -0.1489  1.0141  0.8340
 7947SOL     OW35302   4.147   0.670   3.173 -0.4662 -0.4559  0.1023
 7947SOL    HW135303   4.163   0.576   3.172 -1.2271 -0.5841  0.2302
 7947SOL    HW235304   4.229   0.711   3.144  0.8768 -3.0263  0.2328
 7948SOL     OW35305   1.293   1.494   4.984  0.3607 -0.2864 -0.5826
 7948SOL    HW135306   1.322   1.472   5.073  0.0309  0.4198 -0.2922
 7948SOL    HW235307   1.206   1.530   5.004 -0.1839 -3.2386  2.2767
 7949SOL     OW35308   1.538   2.076   6.637 -0.5757  0.0241 -0.1100
 7949SOL    HW135309   1.614   2.022   6.615  0.2404  0.9778  0.4164
 7949SOL    HW235310   1.555   2.099   6.728  1.2140 -1.5501 -0.0524
 7950SOL     OW35311   0.562   4.297   6.496  0.5919  0.1169  0.3202
 7950SOL    HW135312   0.565   4.203   6.476  3.0353 -0.1247  1.7703
 7950SOL    HW235313   0.543   4.337   6.411 -1.5564  0.0409  0.7681
 7951SOL     OW35314   2.745   4.585  10.278  0.3378  0.9888  0.0168
 7951SOL    HW135315   2.688   4.592  10.355  0.7375  2.2733  0.1948
 7951SOL    HW235316   2.718   4.656  10.221 -0.0485 -0.1261 -1.1817
 7952SOL     OW35317   0.998   1.714   8.589 -0.5335 -0.3934 -0.0279
 7952SOL    HW135318   1.031   1.631   8.622  2.2861  0.0327 -1.7735
 7952SOL    HW235319   0.937   1.732   8.661  1.7230 -1.2626  2.0992
 7953SOL     OW35320   1.312   3.847   5.628  0.1852  0.5200  0.0719
 7953SOL    HW135321   1.315   3.773   5.689  2.4636 -0.4765 -1.2429
 7953SOL    HW235322   1.328   3.812   5.540  1.9677  0.8239  0.2678
 7954SOL     OW35323   0.740   4.486   1.288 -0.2814  0.7470 -0.2834
 7954SOL    HW135324   0.801   4.473   1.360  0.0100  2.4649 -0.2221
 7954SOL    HW235325   0.734   4.400   1.247 -1.0272  0.8967 -0.4943
 7955SOL     OW35326   2.054   0.810  10.964 -0.4896  0.0039  0.0711
 7955SOL    HW135327   2.069   0.898  10.997 -0.5478  0.3972 -0.9491
 7955SOL    HW235328   2.039   0.848  10.877 -4.0695 -1.2620  0.1512
 7956SOL     OW35329   0.957   4.145   7.755 -0.2406 -0.1176 -0.4704
 7956SOL    HW135330   1.047   4.129   7.784 -1.2622 -2.8309  1.2359
 7956SOL    HW235331   0.918   4.073   7.805 -0.8825  0.1299 -0.6160
 7957SOL     OW35332   0.452   3.722   5.908  0.1086 -0.7310  1.1119
 7957SOL    HW135333   0.480   3.787   5.843 -1.7349 -1.2718 -0.2352
 7957SOL    HW235334   0.455   3.758   5.996 -1.2507  1.8215  0.1135
 7958SOL     OW35335   1.802   0.937   3.475 -0.0044 -0.1082 -0.9902
 7958SOL    HW135336   1.751   0.915   3.397  0.8845  1.0054 -1.8908
 7958SOL    HW235337   1.891   0.917   3.447  1.1316  1.7548  1.2469
 7959SOL     OW35338   3.972   2.693   9.002  0.4824 -0.5031  0.3418
 7959SOL    HW135339   4.006   2.646   9.077  0.9365  0.5605  0.8094
 7959SOL    HW235340   3.895   2.643   8.975 -1.0943  2.2317 -0.2337
 7960SOL     OW35341   0.366   3.764   4.694  0.6200 -0.3001  0.4974
 7960SOL    HW135342   0.450   3.724   4.718  0.5249  0.3439  1.9409
 7960SOL    HW235343   0.324   3.765   4.780 -0.3809  0.3739 -0.0043
 7961SOL     OW35344   3.274   3.942  10.267  0.1148  0.1702 -0.1652
 7961SOL    HW135345   3.321   4.017  10.303 -1.0275  0.3171  1.0013
 7961SOL    HW235346   3.181   3.963  10.268  0.5233  2.1665 -2.4896
 7962SOL     OW35347   4.382   2.344   2.446  0.0828 -0.1560  0.5022
 7962SOL    HW135348   4.337   2.422   2.476  0.5018  0.0898  0.4985
 7962SOL    HW235349   4.368   2.337   2.352 -1.2113  0.9500  0.6231
 7963SOL     OW35350   0.881   1.898   4.962 -0.3477 -0.4161  0.0594
 7963SOL    HW135351   0.815   1.917   4.895  0.2078 -0.3889 -0.4814
 7963SOL    HW235352   0.950   1.958   4.935 -1.5155  1.6935  1.8315
 7964SOL     OW35353   0.983   3.447   3.883 -0.2895 -0.6743 -0.1113
 7964SOL    HW135354   0.983   3.438   3.787  0.7506 -1.0497 -0.0752
 7964SOL    HW235355   1.014   3.537   3.898 -1.3022 -0.7126  2.0767
 7965SOL     OW35356   3.829   1.429  16.653 -0.6462  0.1289  0.4838
 7965SOL    HW135357   3.747   1.476  16.669 -2.2006 -3.0111  1.7637
 7965SOL    HW235358   3.889   1.471  16.715 -1.0574 -1.4350  1.9718
 7966SOL     OW35359   3.588   0.436   4.495 -0.0133  0.3587 -0.0894
 7966SOL    HW135360   3.678   0.467   4.491 -0.2601  0.7974 -2.6773
 7966SOL    HW235361   3.570   0.416   4.403 -1.1880  0.2691  0.1604
 7967SOL     OW35362   0.242   1.995  15.028 -0.2415  0.2576 -0.2041
 7967SOL    HW135363   0.185   1.957  14.961  2.7465 -1.6988 -1.6432
 7967SOL    HW235364   0.200   1.965  15.109 -0.6316 -0.0572 -0.5210
 7968SOL     OW35365   3.251   1.996   6.472 -0.6720  0.2872 -0.1458
 7968SOL    HW135366   3.328   1.941   6.485 -1.8691 -1.4426 -0.3669
 7968SOL    HW235367   3.184   1.934   6.444 -0.1484  0.7959 -2.4631
 7969SOL     OW35368   2.725   4.255   8.039 -0.0115  0.4759  0.2814
 7969SOL    HW135369   2.793   4.241   8.105  1.2588  0.5754 -0.9818
 7969SOL    HW235370   2.693   4.344   8.051  0.7083  0.7849 -0.0507
 7970SOL     OW35371   3.499   0.259  16.291 -0.5683 -0.2300  0.1848
 7970SOL    HW135372   3.504   0.221  16.203 -1.0681  0.4955 -0.1643
 7970SOL    HW235373   3.404   0.270  16.294 -0.2971  2.2762 -0.1192
 7971SOL     OW35374   0.960   2.593   8.113  0.0052  0.8386 -0.2700
 7971SOL    HW135375   1.029   2.657   8.131 -2.2399  2.4158  2.7174
 7971SOL    HW235376   0.980   2.520   8.172 -0.7022  0.3634 -0.6181
 7972SOL     OW35377   3.902   4.500   7.057 -0.6235  0.2386 -0.1829
 7972SOL    HW135378   3.810   4.478   7.039 -0.9474  1.4003  0.0376
 7972SOL    HW235379   3.950   4.465   6.982 -1.7906  2.7405 -2.0953
 7973SOL     OW35380   4.210   0.532   2.558  0.4534 -0.0965  0.3725
 7973SOL    HW135381   4.290   0.548   2.608 -0.4568 -0.2461  1.8896
 7973SOL    HW235382   4.197   0.442   2.590  0.2335 -0.3395 -0.4042
 7974SOL     OW35383   2.807   3.903   0.225  0.2770 -0.0037  0.5502
 7974SOL    HW135384   2.719   3.901   0.188 -0.0113 -0.2719  1.2539
 7974SOL    HW235385   2.840   3.986   0.190  2.7930  0.0607  3.0821
 7975SOL     OW35386   1.969   2.939  10.646 -0.1967  0.5126  0.2634
 7975SOL    HW135387   1.877   2.951  10.622 -0.9911 -2.4602  1.8448
 7975SOL    HW235388   1.961   2.980  10.732  1.3996  0.0323  0.6309
 7976SOL     OW35389   3.737   0.674   3.799  0.2839  0.0450  0.3177
 7976SOL    HW135390   3.772   0.736   3.735 -1.8417  0.6185 -0.3030
 7976SOL    HW235391   3.816   0.668   3.853 -0.3994 -2.3605  1.0109
 7977SOL     OW35392   2.844   2.838   3.083 -0.1810 -0.5093  0.1409
 7977SOL    HW135393   2.754   2.869   3.081  0.6306  1.9621  1.7575
 7977SOL    HW235394   2.855   2.809   3.174 -0.4665 -0.5303  0.1681
 7978SOL     OW35395   1.004   1.095   4.385  0.2887 -0.2762 -0.6537
 7978SOL    HW135396   1.014   1.186   4.357  1.5929 -0.0308  0.5996
 7978SOL    HW235397   0.911   1.084   4.364  0.3565 -0.0820 -1.0610
 7979SOL     OW35398   1.597   1.675   3.618 -0.2969  0.0231  0.0650
 7979SOL    HW135399   1.607   1.682   3.713  2.6384 -0.4873 -0.2272
 7979SOL    HW235400   1.557   1.588   3.614 -0.2914  0.0020  0.4671
 7980SOL     OW35401   3.217   4.271   8.180 -0.2766  0.3693 -0.1555
 7980SOL    HW135402   3.288   4.208   8.194 -1.6309 -1.5186 -1.6997
 7980SOL    HW235403   3.217   4.308   8.268  3.5927  0.3885 -0.1217
 7981SOL     OW35404   2.384   0.210   7.411  0.1064 -0.2198 -0.1164
 7981SOL    HW135405   2.450   0.141   7.419  0.9945  0.6879  0.5214
 7981SOL    HW235406   2.375   0.235   7.503 -1.3984 -0.4527 -0.1935
 7982SOL     OW35407   4.328   3.759  11.089  0.0178 -0.3577 -0.0884
 7982SOL    HW135408   4.284   3.827  11.142  1.9280  0.1000  0.9108
 7982SOL    HW235409   4.387   3.814  11.038  0.1856 -0.9544 -0.5313
 7983SOL     OW35410   0.584   2.603   1.842 -0.0920 -0.1744  0.1030
 7983SOL    HW135411   0.660   2.548   1.861 -0.4218  0.0649  2.0980
 7983SOL    HW235412   0.619   2.649   1.766 -0.1049  2.0238  1.4179
 7984SOL     OW35413   2.302   2.420   8.150  0.1587 -0.3161  0.3888
 7984SOL    HW135414   2.352   2.501   8.154 -0.7144  0.2397  0.0622
 7984SOL    HW235415   2.213   2.453   8.137 -0.0966 -1.7067 -1.4443
 7985SOL     OW35416   2.005   3.683  11.404 -0.3075  0.6414  0.0954
 7985SOL    HW135417   1.999   3.614  11.338  0.3934 -1.2970  2.0732
 7985SOL    HW235418   2.054   3.638  11.473 -1.0028  0.0501  0.1987
 7986SOL     OW35419   2.138   2.666   5.245  0.2597  0.4804 -0.0327
 7986SOL    HW135420   2.056   2.707   5.221  0.4458  1.6624  1.3904
 7986SOL    HW235421   2.131   2.597   5.179 -2.1292 -0.2250  0.9692
 7987SOL     OW35422   4.055   3.711   5.163 -0.0841  0.3264  0.3335
 7987SOL    HW135423   3.968   3.692   5.198 -0.0150  0.2981  0.4893
 7987SOL    HW235424   4.034   3.715   5.070  0.7885  0.7033  0.1525
 7988SOL     OW35425   0.491   4.145  16.868  0.1886  0.0080  0.1433
 7988SOL    HW135426   0.534   4.228  16.885  2.3797 -1.2973  1.0154
 7988SOL    HW235427   0.403   4.161  16.900  0.9358 -0.9813  2.6801
 7989SOL     OW35428   2.704   2.046  10.204  0.2784 -0.8082 -0.2430
 7989SOL    HW135429   2.697   2.063  10.298 -0.3770 -2.5857  0.0215
 7989SOL    HW235430   2.614   2.042  10.172 -0.4659  2.2347  1.5010
 7990SOL     OW35431   1.623   0.421  16.887  0.7767 -0.2960 -0.6309
 7990SOL    HW135432   1.552   0.466  16.840  0.6533  3.1962  2.8921
 7990SOL    HW235433   1.606   0.334  16.851  1.1391  0.3021 -2.2557
 7991SOL     OW35434   3.431   0.955   5.202 -0.0065 -0.1086  0.5248
 7991SOL    HW135435   3.367   1.001   5.147  1.9615 -1.2532 -2.6808
 7991SOL    HW235436   3.421   0.993   5.290 -0.1230 -0.1405  0.5260
 7992SOL     OW35437   2.145   0.281   4.168  0.4684  0.9605  0.4397
 7992SOL    HW135438   2.150   0.216   4.098  2.1823  1.3879  0.1668
 7992SOL    HW235439   2.205   0.240   4.230 -1.5769 -3.7105 -0.6195
 7993SOL     OW35440   2.140   2.418  13.336 -0.6253  0.2274 -0.4263
 7993SOL    HW135441   2.152   2.325  13.354 -0.5402  0.4293  0.5663
 7993SOL    HW235442   2.102   2.406  13.249  1.6617  0.1856 -1.4165
 7994SOL     OW35443   0.861   0.646   0.741  0.3402  0.3477  0.0739
 7994SOL    HW135444   0.898   0.643   0.653  1.3345  1.2340  0.4565
 7994SOL    HW235445   0.873   0.737   0.768 -1.3779  0.5230  0.2932
 7995SOL     OW35446   2.930   0.636   8.882  0.3493 -0.1385  0.3521
 7995SOL    HW135447   2.892   0.723   8.890 -0.2771 -0.3735 -0.0508
 7995SOL    HW235448   3.021   0.641   8.911  0.9341  0.6480 -1.6146
 7996SOL     OW35449   3.922   2.400   1.540  0.2239  0.6346  0.0663
 7996SOL    HW135450   3.902   2.485   1.578 -2.3115 -0.0255  0.1900
 7996SOL    HW235451   3.983   2.424   1.470  1.5802  0.6055  1.2319
 7997SOL     OW35452   1.126   3.825  15.011  0.1468  0.0716 -1.3141
 7997SOL    HW135453   1.160   3.913  14.998 -1.9441  0.9744 -0.6304
 7997SOL    HW235454   1.037   3.846  14.986  0.1515  0.6699 -0.8012
 7998SOL     OW35455   3.889   2.644   4.037 -0.0211  0.1843 -0.1413
 7998SOL    HW135456   3.913   2.707   4.105  0.8105 -0.4973  0.2042
 7998SOL    HW235457   3.976   2.614   4.009 -0.1009  0.4346 -0.6538
 7999SOL     OW35458   0.518   2.057   9.369  0.7593  0.3390 -0.1088
 7999SOL    HW135459   0.548   2.100   9.449  2.2511 -2.5701  0.8767
 7999SOL    HW235460   0.585   2.075   9.303 -0.2495 -2.0317 -1.7877
 8000SOL     OW35461   1.637   2.124   5.683 -0.1317 -0.4024 -0.9569
 8000SOL    HW135462   1.571   2.103   5.617 -0.5103 -0.4688 -0.5554
 8000SOL    HW235463   1.694   2.047   5.677 -0.7103 -0.8714 -0.4330
 8001SOL     OW35464   4.453   3.105  12.680 -0.0864 -0.2543  0.4826
 8001SOL    HW135465   4.510   3.087  12.754  1.4764  1.9705 -0.1795
 8001SOL    HW235466   4.471   3.199  12.686  1.0665 -0.5630  1.8499
 8002SOL     OW35467   4.350   1.266   1.175  0.4729 -0.3003  0.0549
 8002SOL    HW135468   4.322   1.265   1.084 -0.7955 -0.3794  0.4419
 8002SOL    HW235469   4.293   1.330   1.219 -0.5764 -0.3079 -1.3155
 8003SOL     OW35470   2.135   4.624  13.878 -0.1599  0.1342 -0.1863
 8003SOL    HW135471   2.142   4.550  13.939  1.4628  0.0827 -0.4149
 8003SOL    HW235472   2.184   4.692  13.924  0.2786 -0.6055  0.4607
 8004SOL     OW35473   1.902   3.140  13.286  0.0650  0.0971  0.4296
 8004SOL    HW135474   1.808   3.133  13.298 -0.1099 -0.1487 -1.0226
 8004SOL    HW235475   1.926   3.070  13.346 -0.8448  0.1320  0.8328
 8005SOL     OW35476   0.249   4.624   5.765  0.2904 -0.2357 -0.2255
 8005SOL    HW135477   0.305   4.691   5.805  1.3017 -0.3259 -1.4618
 8005SOL    HW235478   0.264   4.653   5.675 -2.6197  1.1217 -0.2795
 8006SOL     OW35479   1.011   1.368   3.413  1.0845  0.2482  0.4110
 8006SOL    HW135480   1.090   1.336   3.369  1.1141 -0.8272  1.2438
 8006SOL    HW235481   0.962   1.393   3.334 -0.0116 -1.8270  0.4343
 8007SOL     OW35482   2.712   3.467   7.993  0.5046 -0.2344 -0.1970
 8007SOL    HW135483   2.750   3.546   7.955 -0.7139  0.7321  0.6072
 8007SOL    HW235484   2.723   3.399   7.927 -1.1743 -0.4288 -0.2612
 8008SOL     OW35485   2.567   1.177   4.834  0.2105 -0.6529 -0.1683
 8008SOL    HW135486   2.598   1.186   4.744 -1.0351 -0.0595 -0.5346
 8008SOL    HW235487   2.478   1.212   4.823 -0.0448 -0.9486  0.9613
 8009SOL     OW35488   3.532   4.306   3.156  0.6936  0.1705  0.0843
 8009SOL    HW135489   3.566   4.335   3.072  2.0228 -1.0827  0.1826
 8009SOL    HW235490   3.495   4.389   3.186  0.6474  0.1975 -0.0486
 8010SOL     OW35491   4.297   3.393   4.227  0.4388 -0.3572 -0.1610
 8010SOL    HW135492   4.291   3.405   4.321 -0.3998  0.6198 -0.3390
 8010SOL    HW235493   4.299   3.298   4.213 -1.8218 -0.4129 -0.1535
 8011SOL     OW35494   2.433   1.217   6.772  0.1105 -0.7562 -0.1707
 8011SOL    HW135495   2.498   1.185   6.835 -0.3611  2.2179  1.8212
 8011SOL    HW235496   2.353   1.167   6.790  0.7692 -2.1406 -1.1439
 8012SOL     OW35497   0.309   2.679   7.913 -0.3738 -0.2688 -0.3903
 8012SOL    HW135498   0.392   2.695   7.959  0.9663  0.0026 -2.9074
 8012SOL    HW235499   0.331   2.599   7.865  1.0663 -0.3898  0.4723
 8013SOL     OW35500   3.891   0.120   2.849  0.3786 -0.1971  0.1691
 8013SOL    HW135501   3.969   0.069   2.827 -0.8091 -2.6360  1.5378
 8013SOL    HW235502   3.836   0.136   2.773 -1.5860 -0.7101  1.4769
 8014SOL     OW35503   2.060   0.762   8.999 -0.0099  0.5153  0.1167
 8014SOL    HW135504   2.090   0.735   9.085 -0.5244  0.5107  0.2945
 8014SOL    HW235505   2.110   0.696   8.950 -0.9439  1.1773 -1.7240
 8015SOL     OW35506   0.929   4.460   2.319  0.0790 -0.0410  0.6204
 8015SOL    HW135507   0.911   4.553   2.310 -1.5230 -0.5959 -1.9869
 8015SOL    HW235508   0.859   4.435   2.379 -0.3648  1.8421  0.8882
 8016SOL     OW35509   1.882   4.253  12.806 -0.7150  0.1011 -0.3744
 8016SOL    HW135510   1.803   4.256  12.752 -2.5379 -0.5306  2.2211
 8016SOL    HW235511   1.950   4.221  12.747 -0.3973 -0.0018  0.0484
 8017SOL     OW35512   1.127   1.872   4.762 -0.0881  0.1197 -0.7131
 8017SOL    HW135513   1.133   1.939   4.830  3.9397  0.3332 -1.2546
 8017SOL    HW235514   1.049   1.904   4.716 -0.5183 -0.0124 -0.0758
 8018SOL     OW35515   3.794   0.380   3.202 -0.2722 -0.3119  0.3898
 8018SOL    HW135516   3.705   0.347   3.197 -0.9595  1.6763 -0.5228
 8018SOL    HW235517   3.835   0.339   3.126  0.6191 -1.6365  1.5715
 8019SOL     OW35518   4.139   0.527   1.999 -0.3330  0.2934 -0.0341
 8019SOL    HW135519   4.070   0.463   1.980 -0.2275  0.1441  0.0862
 8019SOL    HW235520   4.172   0.485   2.079 -1.0003  1.0923  0.6639
 8020SOL     OW35521   0.924   1.798   7.870  0.2788  0.1889 -0.3138
 8020SOL    HW135522   0.935   1.889   7.896  2.8724 -0.4935  1.0350
 8020SOL    HW235523   0.946   1.756   7.953 -0.5240  0.4120  0.0164
 8021SOL     OW35524   0.231   3.590  13.910 -0.1426  0.0933  0.1899
 8021SOL    HW135525   0.179   3.629  13.980  1.4786  3.6276 -0.5444
 8021SOL    HW235526   0.176   3.620  13.838 -0.3237 -0.3872  0.1320
 8022SOL     OW35527   0.860   1.439   4.845 -0.3106 -0.5614  0.2047
 8022SOL    HW135528   0.845   1.458   4.752  1.6902  0.7177  0.1633
 8022SOL    HW235529   0.775   1.457   4.885  0.2197 -0.0707  1.0979
 8023SOL     OW35530   1.462   1.404   0.394  0.4914 -0.0598 -0.1087
 8023SOL    HW135531   1.491   1.314   0.377 -2.0829 -0.8378 -0.3191
 8023SOL    HW235532   1.432   1.399   0.485 -3.3171  1.9708 -1.2618
 8024SOL     OW35533   3.625   1.077  12.479 -0.1800 -0.3615  0.0022
 8024SOL    HW135534   3.678   1.127  12.416 -1.5751 -0.4173 -1.1992
 8024SOL    HW235535   3.662   0.989  12.469 -0.8318 -0.8568  2.1044
 8025SOL     OW35536   4.477   2.940   3.628 -0.2829  0.1344  0.2016
 8025SOL    HW135537   4.407   2.977   3.682 -0.3518  0.0263  0.1862
 8025SOL    HW235538   4.424   2.876   3.580  0.4355  0.1804 -0.6516
 8026SOL     OW35539   3.550   0.033  11.705  0.7315  0.9231  0.3190
 8026SOL    HW135540   3.610   4.703  11.653  0.0351  0.4175  0.0489
 8026SOL    HW235541   3.486   4.692  11.730  2.7541 -1.4826 -0.7698
 8027SOL     OW35542   2.704   4.460   5.849 -0.0858  0.6367  0.0623
 8027SOL    HW135543   2.660   4.404   5.786  0.1684  1.4354 -0.8235
 8027SOL    HW235544   2.786   4.415   5.867  0.2674  1.3649  0.3050
 8028SOL     OW35545   3.364   4.030   9.228 -0.7327  0.1120  0.3621
 8028SOL    HW135546   3.459   4.021   9.232 -0.5692  0.2196 -3.0079
 8028SOL    HW235547   3.329   3.946   9.201  0.9836  0.3724 -2.6627
 8029SOL     OW35548   0.727   0.267   7.823  0.0188 -1.0169 -0.4572
 8029SOL    HW135549   0.756   0.327   7.891  1.5108 -0.1800 -1.8267
 8029SOL    HW235550   0.798   0.255   7.760  1.3198 -3.6592  1.5366
 8030SOL     OW35551   4.637   1.334   3.949  0.0819 -0.1791 -0.0583
 8030SOL    HW135552   4.669   1.253   3.910  0.1955 -0.5525  0.7980
 8030SOL    HW235553   4.718   1.361   3.993  1.1305  0.0071 -2.1366
 8031SOL     OW35554   0.980   0.895   0.850  0.0001 -0.1870  0.0558
 8031SOL    HW135555   1.003   0.935   0.933  0.5609  1.1984 -0.7724
 8031SOL    HW235556   0.887   0.914   0.847  0.0093 -0.0398  0.7037
 8032SOL     OW35557   2.277   2.379  14.287 -0.5874 -0.3699 -0.3219
 8032SOL    HW135558   2.351   2.360  14.230  1.1675  0.7624  1.5802
 8032SOL    HW235559   2.271   2.473  14.269  0.4161 -0.1061  0.7651
 8033SOL     OW35560   1.389   1.216   3.525  0.1232  1.0445  0.3147
 8033SOL    HW135561   1.413   1.126   3.505 -0.6219  0.2174  3.0437
 8033SOL    HW235562   1.340   1.242   3.447 -0.7653 -2.1229 -0.1965
 8034SOL     OW35563   0.115   2.897   8.152  0.1060 -0.2685  0.4352
 8034SOL    HW135564   0.050   2.887   8.082 -1.9558 -1.4975  2.5200
 8034SOL    HW235565   0.184   2.933   8.096 -2.1254 -0.2953 -2.3334
 8035SOL     OW35566   2.428   0.893   7.172  0.1966  0.0771 -0.8089
 8035SOL    HW135567   2.508   0.863   7.128  0.6547  0.7552 -0.4385
 8035SOL    HW235568   2.411   0.830   7.242 -3.5249  0.4199 -1.4119
 8036SOL     OW35569   2.884   4.444   0.443 -0.2485  0.3913 -0.1757
 8036SOL    HW135570   2.907   4.536   0.429  3.3676 -0.3553  0.7182
 8036SOL    HW235571   2.937   4.432   0.522 -1.1901  0.4605  0.4563
 8037SOL     OW35572   0.083   1.279   4.288  0.8469 -0.2087  0.5486
 8037SOL    HW135573   0.102   1.368   4.317  1.1586  0.2406 -1.0308
 8037SOL    HW235574   0.004   1.259   4.338 -1.9066  3.0030 -2.4507
 8038SOL     OW35575   0.509   1.511  15.833  0.6210  0.6981 -0.3679
 8038SOL    HW135576   0.589   1.510  15.887  0.3521  0.0185  0.0231
 8038SOL    HW235577   0.480   1.601  15.823  2.6875  1.2056 -1.7292
 8039SOL     OW35578   4.360   2.461  14.117 -0.0126 -0.2072  0.2601
 8039SOL    HW135579   4.269   2.445  14.139 -0.4792  2.0648  0.0158
 8039SOL    HW235580   4.409   2.426  14.191 -1.0935 -0.2812  0.9211
 8040SOL     OW35581   4.416   2.715   7.998 -0.3419 -0.0510 -0.1255
 8040SOL    HW135582   4.355   2.753   7.935  0.5896  0.3997 -0.7636
 8040SOL    HW235583   4.369   2.717   8.081 -0.8027  4.2112 -0.4572
 8041SOL     OW35584   0.028   1.041   3.914 -0.2357  0.3415  0.1133
 8041SOL    HW135585   0.045   1.088   3.832 -0.6994 -1.8409 -1.2425
 8041SOL    HW235586   0.109   0.996   3.936  0.9007  3.1259  1.5932
 8042SOL     OW35587   2.819   3.727  12.312  0.1948  0.1148  0.2547
 8042SOL    HW135588   2.747   3.715  12.374 -1.5045  0.5696 -1.6277
 8042SOL    HW235589   2.884   3.659  12.332  0.8756  0.0627 -2.0786
 8043SOL     OW35590   3.180   3.029   5.344 -1.5737  0.0831  0.2717
 8043SOL    HW135591   3.219   3.116   5.334 -1.4593  0.3329  3.1247
 8043SOL    HW235592   3.160   3.031   5.437  1.7526 -1.8861  1.0226
 8044SOL     OW35593   1.875   2.813   6.759  0.0998 -0.5588 -0.1164
 8044SOL    HW135594   1.877   2.729   6.804 -0.3732  0.0723  1.0874
 8044SOL    HW235595   1.926   2.863   6.823  1.7093 -2.4630  0.0704
 8045SOL     OW35596   0.436   4.615   5.236 -0.6159  0.5127  0.0660
 8045SOL    HW135597   0.391   4.561   5.300 -1.7390  0.4612 -0.7628
 8045SOL    HW235598   0.362   4.649   5.185 -0.2290  0.8567 -0.2703
 8046SOL     OW35599   3.352   2.346  14.496 -0.3523 -0.1859 -0.0468
 8046SOL    HW135600   3.310   2.424  14.461  1.9838  1.6480  1.2602
 8046SOL    HW235601   3.368   2.382  14.583  0.3654 -0.3140 -0.1219
 8047SOL     OW35602   4.401   0.176   7.360  0.4256  0.2366 -0.6926
 8047SOL    HW135603   4.495   0.179   7.343  0.6414 -2.1809  0.0748
 8047SOL    HW235604   4.395   0.087   7.396  1.7633  0.0429 -0.9550
 8048SOL     OW35605   4.653   2.943   2.758 -0.4856 -0.2673 -0.2740
 8048SOL    HW135606   4.674   2.879   2.690  0.3773  1.3204 -1.4766
 8048SOL    HW235607   4.703   3.017   2.724  1.0108  0.1730  2.9025
 8049SOL     OW35608   4.541   1.126   1.607 -0.4086  0.0775  0.5946
 8049SOL    HW135609   4.521   1.213   1.641  1.6967  0.3074  1.2334
 8049SOL    HW235610   4.597   1.148   1.532 -0.4297 -3.2093 -0.4147
 8050SOL     OW35611   1.982   4.124   8.393 -0.1174 -0.2088 -0.4403
 8050SOL    HW135612   1.937   4.188   8.338 -2.7096 -3.8110 -2.4386
 8050SOL    HW235613   2.063   4.125   8.342  0.6363  1.4988  0.7570
 8051SOL     OW35614   4.413   0.125   1.523  0.4440 -0.3307 -0.0911
 8051SOL    HW135615   4.424   0.031   1.509  0.5528 -0.5754  1.6029
 8051SOL    HW235616   4.329   0.135   1.479  0.6816  0.5532 -0.3477
 8052SOL     OW35617   3.949   2.960  14.653 -0.8190  0.1939  0.4588
 8052SOL    HW135618   3.874   3.015  14.628  0.4131  2.3954  1.5851
 8052SOL    HW235619   4.025   3.017  14.642 -0.5636 -0.5139 -1.3542
 8053SOL     OW35620   2.082   0.818  15.534 -0.4737  0.2521  0.6408
 8053SOL    HW135621   2.009   0.874  15.510 -1.9687 -1.7890  0.4018
 8053SOL    HW235622   2.152   0.879  15.557  0.8484 -0.4754 -1.4667
 8054SOL     OW35623   0.089   4.114  11.801  0.3603 -0.0006 -0.1048
 8054SOL    HW135624   0.114   4.039  11.854  0.8611  0.0530 -0.2696
 8054SOL    HW235625   4.721   4.125  11.826  0.4108 -1.1056  0.5526
 8055SOL     OW35626   3.588   0.772  14.120 -0.5886  0.0315 -0.0448
 8055SOL    HW135627   3.548   0.832  14.057  0.9736 -0.4153 -1.4615
 8055SOL    HW235628   3.566   0.687  14.080 -1.1584  0.3129 -0.3311
 8056SOL     OW35629   4.326   3.727   7.166 -0.2269 -0.6880  0.1983
 8056SOL    HW135630   4.289   3.815   7.170  0.0425 -0.5951  0.6565
 8056SOL    HW235631   4.321   3.696   7.257  1.7503 -1.2680  0.1201
 8057SOL     OW35632   4.501   2.717   6.737  0.0310  0.1474 -0.0516
 8057SOL    HW135633   4.487   2.702   6.831 -1.7773  0.8047 -0.2297
 8057SOL    HW235634   4.578   2.660   6.735 -0.8858 -1.0399 -1.8590
 8058SOL     OW35635   1.184   4.429   0.006 -1.0163  0.2100  0.1219
 8058SOL    HW135636   1.271   4.466  17.693 -0.0132 -2.6432 -1.1869
 8058SOL    HW235637   1.136   4.487   0.065 -1.3615 -0.5582  0.5952
 8059SOL     OW35638   1.644   0.240  12.908  0.4930 -0.0205  0.3841
 8059SOL    HW135639   1.633   0.326  12.950  1.2318  0.9596 -1.4559
 8059SOL    HW235640   1.736   0.223  12.926  0.6401  1.0832  0.6754
 8060SOL     OW35641   4.367   0.073   4.148  0.2223  0.0404  0.2625
 8060SOL    HW135642   4.368   0.168   4.160 -1.2210 -0.0455  1.0752
 8060SOL    HW235643   4.320   0.071   4.065  2.4357 -0.1462 -0.9726
 8061SOL     OW35644   3.247   1.552   2.265 -0.2511  0.7455 -0.8973
 8061SOL    HW135645   3.263   1.639   2.228  0.7838  0.6052 -0.7756
 8061SOL    HW235646   3.151   1.549   2.265 -0.2371  0.4992 -2.8928
 8062SOL     OW35647   4.332   1.556   0.872 -0.4259  0.4011 -0.5534
 8062SOL    HW135648   4.375   1.583   0.791  2.2055  2.9130  1.7109
 8062SOL    HW235649   4.276   1.633   0.878 -0.4835  0.3255 -0.1026
 8063SOL     OW35650   4.597   1.640   8.881  0.0638  1.1117 -0.0261
 8063SOL    HW135651   4.623   1.703   8.813  2.3859 -0.5721 -0.6942
 8063SOL    HW235652   4.574   1.557   8.839  1.3887 -0.2762  1.9922
 8064SOL     OW35653   3.370   3.975   5.123  0.4046  0.6032  0.4694
 8064SOL    HW135654   3.388   3.895   5.072  0.0412 -0.6294  2.2722
 8064SOL    HW235655   3.374   4.043   5.056  2.5734 -1.1694 -1.2276
 8065SOL     OW35656   0.429   1.728   5.719 -0.2052  0.0302  0.0310
 8065SOL    HW135657   0.421   1.777   5.800  1.5038 -1.0893  0.8799
 8065SOL    HW235658   0.453   1.800   5.661 -1.7642  1.2996  0.9623
 8066SOL     OW35659   0.723   2.701   3.905 -0.3591  0.0238 -0.5485
 8066SOL    HW135660   0.809   2.659   3.915  0.4716  1.9964  0.5449
 8066SOL    HW235661   0.730   2.761   3.831 -2.9474 -0.1177 -0.9253
 8067SOL     OW35662   1.302   1.043   1.116  0.0541  0.5171 -0.2238
 8067SOL    HW135663   1.323   0.950   1.109 -1.8664  0.1134 -0.4530
 8067SOL    HW235664   1.378   1.086   1.076 -0.1865  1.6362  0.5140
 8068SOL     OW35665   3.872   2.710  15.712 -0.0362 -0.3937 -0.5714
 8068SOL    HW135666   3.853   2.699  15.805 -0.4060 -0.3409 -0.6433
 8068SOL    HW235667   3.933   2.784  15.713  1.2817 -1.5195  1.8572
 8069SOL     OW35668   0.545   1.743  11.938 -0.6589  0.1647 -0.4105
 8069SOL    HW135669   0.568   1.784  11.855  0.2144  0.5251  0.0090
 8069SOL    HW235670   0.455   1.719  11.916 -0.2896 -0.3587 -1.3484
 8070SOL     OW35671   1.105   4.605   1.386  0.1035  0.6310  0.3085
 8070SOL    HW135672   1.073   4.585   1.298 -0.8347 -2.2985  1.3240
 8070SOL    HW235673   1.162   4.531   1.407  0.6911  0.6813 -1.0927
 8071SOL     OW35674   2.969   3.436   6.721 -0.1149 -0.1164  0.7318
 8071SOL    HW135675   3.064   3.423   6.718  0.0663  1.1429  0.8537
 8071SOL    HW235676   2.965   3.529   6.744 -0.5643  0.0577 -0.0659
 8072SOL     OW35677   0.910   1.790   9.962 -0.1587 -0.4208 -0.7449
 8072SOL    HW135678   0.886   1.879   9.938  0.2042  0.2105  1.1823
 8072SOL    HW235679   0.885   1.782  10.054  1.1263  2.6591 -0.1239
 8073SOL     OW35680   4.183   0.756   8.636 -0.7395 -0.3193  0.0484
 8073SOL    HW135681   4.276   0.739   8.623 -0.0482  0.0646  4.4804
 8073SOL    HW235682   4.176   0.782   8.728 -0.7012 -1.2506  0.3091
 8074SOL     OW35683   0.966   0.611   2.184 -0.3188  0.1846 -0.2366
 8074SOL    HW135684   0.922   0.671   2.124 -0.1964 -0.1364 -0.6491
 8074SOL    HW235685   0.890   0.575   2.229  0.7407 -1.4449  0.2687
 8075SOL     OW35686   3.126   0.731   5.925 -0.2599 -0.1325 -0.0696
 8075SOL    HW135687   3.209   0.693   5.897 -0.3510 -1.0420  0.8759
 8075SOL    HW235688   3.138   0.823   5.903 -0.8417 -0.8268 -3.3629
 8076SOL     OW35689   1.995   4.677   6.260  0.0230  0.4232 -0.1580
 8076SOL    HW135690   2.070   4.681   6.319 -0.8405 -1.2036  1.0552
 8076SOL    HW235691   2.037   4.633   6.186 -2.3698 -0.4745 -0.9742
 8077SOL     OW35692   3.766   2.086   2.913 -0.2783  0.6095  0.2147
 8077SOL    HW135693   3.851   2.043   2.924 -0.2757  0.6719  0.4413
 8077SOL    HW235694   3.770   2.089   2.817  0.0685  2.0095  0.2734
 8078SOL     OW35695   2.746   4.053  10.966  0.1736 -0.2492  0.4256
 8078SOL    HW135696   2.779   4.018  10.884 -0.8574 -0.4870  0.1147
 8078SOL    HW235697   2.760   4.146  10.946  0.4517 -0.3472  0.1777
 8079SOL     OW35698   4.013   2.281  11.392 -0.1729  0.6106 -0.3138
 8079SOL    HW135699   3.986   2.372  11.383  0.3000  0.7595 -0.2556
 8079SOL    HW235700   4.074   2.276  11.318  1.2598 -0.9414  0.9727
 8080SOL     OW35701   1.299   3.315   2.267 -0.0112 -0.0878  0.0054
 8080SOL    HW135702   1.210   3.282   2.258 -0.0594  0.1559 -0.3713
 8080SOL    HW235703   1.334   3.282   2.184  1.6591  0.0139  0.6605
 8081SOL     OW35704   3.461   3.814   8.079 -0.5845  0.2510 -0.1024
 8081SOL    HW135705   3.369   3.788   8.072 -0.2324 -0.5779 -1.6618
 8081SOL    HW235706   3.504   3.765   8.009  0.0234  1.6887 -0.7544
 8082SOL     OW35707   1.625   0.267   6.420 -0.3372 -0.2865  0.0877
 8082SOL    HW135708   1.707   0.226   6.451  1.3880  0.4399 -3.5548
 8082SOL    HW235709   1.651   0.347   6.374 -0.3081 -0.4436 -0.1715
 8083SOL     OW35710   4.367   1.929  17.203 -0.4643  0.1482  0.4110
 8083SOL    HW135711   4.398   2.012  17.167 -1.5232 -0.3584 -1.6863
 8083SOL    HW235712   4.351   1.882  17.121 -0.9997 -0.6053  0.9466
 8084SOL     OW35713   2.989   1.854   1.515  0.3245  0.6805 -0.6094
 8084SOL    HW135714   2.950   1.768   1.501  1.0591  0.1534  0.5198
 8084SOL    HW235715   3.035   1.864   1.432 -0.6516  0.1857 -1.2085
 8085SOL     OW35716   0.775   2.062   2.622  0.8423 -0.2247  0.4407
 8085SOL    HW135717   0.749   1.983   2.671  0.5346  0.2695  1.0796
 8085SOL    HW235718   0.686   2.089   2.603  0.8653 -0.4783 -0.0267
 8086SOL     OW35719   2.265   4.688   6.743  0.1829  0.0167  0.6615
 8086SOL    HW135720   2.254   4.657   6.833 -0.4522  1.1418  0.9656
 8086SOL    HW235721   2.359   4.671   6.743  0.3670  1.0407 -0.3413
 8087SOL     OW35722   2.361   2.099   4.841  0.0805 -0.1047 -0.2963
 8087SOL    HW135723   2.392   2.030   4.899 -0.1088  0.4290  0.4449
 8087SOL    HW235724   2.272   2.095   4.875  0.4586 -1.4911  0.5066
 8088SOL     OW35725   1.949   3.014   2.560  0.2681 -0.4943 -0.5413
 8088SOL    HW135726   2.031   2.969   2.542  0.7836  0.9246 -1.7079
 8088SOL    HW235727   1.964   3.053   2.647 -2.4882  0.4637 -0.4930
 8089SOL     OW35728   0.497   2.438  10.673  0.0377 -0.1338 -0.2592
 8089SOL    HW135729   0.581   2.445  10.628  1.0758 -1.7790  1.4657
 8089SOL    HW235730   0.444   2.393  10.607 -1.0153 -1.9124  1.8043
 8090SOL     OW35731   2.928   2.980   4.795 -0.3417 -0.2071 -0.8038
 8090SOL    HW135732   2.976   2.900   4.815  1.9331  1.4142  0.2426
 8090SOL    HW235733   2.858   2.969   4.860 -0.0681 -1.1743 -0.6784
 8091SOL     OW35734   4.551   0.094   4.520 -0.5148  0.6355 -0.0384
 8091SOL    HW135735   4.462   0.058   4.515 -0.0883 -0.1366 -2.0510
 8091SOL    HW235736   4.595   0.019   4.561 -0.0959  0.0732 -1.5131
 8092SOL     OW35737   3.332   1.843   8.596  1.0354 -0.1404 -0.6106
 8092SOL    HW135738   3.251   1.816   8.553  0.6178 -0.1936  0.2076
 8092SOL    HW235739   3.298   1.892   8.671 -0.8951 -0.9944 -0.9291
 8093SOL     OW35740   4.348   1.181   7.898 -0.5286 -0.4229  0.1940
 8093SOL    HW135741   4.338   1.186   7.993 -0.1452  0.9803  0.1639
 8093SOL    HW235742   4.436   1.146   7.889 -0.2615 -0.1516  1.7758
 8094SOL     OW35743   3.352   2.891   6.060 -0.3515  0.7798 -0.4397
 8094SOL    HW135744   3.267   2.929   6.037 -0.1345  1.0604 -0.7623
 8094SOL    HW235745   3.401   2.898   5.978  3.5435  1.4082  1.9450
 8095SOL     OW35746   4.058   4.484   1.751  0.3423 -0.2652 -0.0804
 8095SOL    HW135747   4.144   4.441   1.747 -0.0816 -0.9287 -2.4602
 8095SOL    HW235748   4.072   4.567   1.705 -6.0784  0.3655 -0.8604
 8096SOL     OW35749   0.852   1.239   3.585 -0.3576  0.0128 -0.1975
 8096SOL    HW135750   0.918   1.265   3.520  0.3727  2.0782  1.3610
 8096SOL    HW235751   0.839   1.147   3.560 -0.2104 -1.1669  4.0986
 8097SOL     OW35752   1.899   0.746  11.437 -0.0632  0.1459  0.0971
 8097SOL    HW135753   1.845   0.774  11.363  1.5897  1.7325 -0.5224
 8097SOL    HW235754   1.969   0.705  11.385 -0.0979 -0.3571  0.4520
 8098SOL     OW35755   2.669   1.470   4.609  0.1270 -0.2069  0.3140
 8098SOL    HW135756   2.712   1.505   4.687 -0.1071  1.9442 -0.5389
 8098SOL    HW235757   2.577   1.479   4.634  0.0561 -0.0713 -0.0059
 8099SOL     OW35758   3.376   0.822  16.141 -0.0661  0.2760  0.2227
 8099SOL    HW135759   3.344   0.732  16.152 -1.0605  0.2590 -2.8158
 8099SOL    HW235760   3.321   0.851  16.069 -1.1568  2.3379  1.9128
 8100SOL     OW35761   3.688   2.620   1.358  0.6809 -0.6101  0.6698
 8100SOL    HW135762   3.664   2.544   1.412 -1.3626 -1.3435 -1.2740
 8100SOL    HW235763   3.688   2.589   1.267 -4.0562  0.0519  0.4325
 8101SOL     OW35764   1.723   4.400   8.448 -0.3642  0.1529  0.1461
 8101SOL    HW135765   1.813   4.382   8.474 -0.3051  0.0611 -0.1230
 8101SOL    HW235766   1.739   4.380   8.356  1.2771  0.3672  0.3881
 8102SOL     OW35767   0.282   2.214   7.931 -0.0403 -0.6518 -0.1273
 8102SOL    HW135768   0.324   2.128   7.931  0.4961 -0.3898 -2.4903
 8102SOL    HW235769   0.197   2.179   7.905  0.2645 -1.4526 -0.0386
 8103SOL     OW35770   4.695   4.157   5.551 -0.1418 -0.0060 -0.1355
 8103SOL    HW135771   4.642   4.214   5.494 -0.1605  0.8745  0.7529
 8103SOL    HW235772   4.649   4.080   5.519  0.3057 -1.0226  1.7022
 8104SOL     OW35773   4.600   1.948   6.479 -0.0552  0.0306  0.1793
 8104SOL    HW135774   4.517   1.901   6.485  0.2946 -0.5249  0.6256
 8104SOL    HW235775   4.569   2.038   6.491 -0.7665 -0.1603 -0.2467
 8105SOL     OW35776   1.602   1.340   1.702  0.2824  0.6310  0.0426
 8105SOL    HW135777   1.540   1.400   1.662 -0.5992 -0.2893  0.0376
 8105SOL    HW235778   1.545   1.300   1.768  0.6884  0.6044  0.3839
 8106SOL     OW35779   4.284   2.459   3.301 -0.1071  0.4555  0.1756
 8106SOL    HW135780   4.274   2.457   3.396  0.0658  1.2616  0.2105
 8106SOL    HW235781   4.313   2.549   3.288  1.9770 -0.0779  1.1740
 8107SOL     OW35782   4.639   4.373   3.619  0.1790 -0.3274  0.2699
 8107SOL    HW135783   4.629   4.419   3.702 -0.5296 -2.2726  1.2640
 8107SOL    HW235784   0.010   4.361   3.620  0.2902  0.5593  0.4226
 8108SOL     OW35785   2.894   3.651  14.968  0.0446 -0.4495  0.0758
 8108SOL    HW135786   2.863   3.642  14.878 -1.0094 -0.3793  0.4417
 8108SOL    HW235787   2.953   3.576  14.957  1.1538  0.4018  0.2050
 8109SOL     OW35788   2.525   0.760   4.085  0.1156  0.4328  0.6151
 8109SOL    HW135789   2.581   0.686   4.064 -1.8472 -0.9373  0.2003
 8109SOL    HW235790   2.586   0.833   4.096 -0.4812  0.8310  1.2871
 8110SOL     OW35791   1.249   3.456   3.188  0.3238  0.1697 -0.0861
 8110SOL    HW135792   1.232   3.521   3.120 -3.9890  0.1355  0.9427
 8110SOL    HW235793   1.209   3.375   3.156  0.2859  1.1161 -2.3987
 8111SOL     OW35794   2.908   0.698   6.603  0.0974 -0.3997 -0.2704
 8111SOL    HW135795   2.828   0.723   6.558 -1.3498 -1.2208  1.8937
 8111SOL    HW235796   2.865   0.688   6.687  2.6592 -2.1491  0.8441
 8112SOL     OW35797   0.521   4.285   3.212 -0.0445 -0.1289  0.2273
 8112SOL    HW135798   0.576   4.254   3.284  0.5596  0.4159  0.0078
 8112SOL    HW235799   0.573   4.358   3.178 -0.5523 -0.6185 -1.5781
 8113SOL     OW35800   1.908   3.873   5.033 -0.7922  0.1835  0.5039
 8113SOL    HW135801   1.904   3.785   4.996 -1.1367 -0.3727  1.8791
 8113SOL    HW235802   1.957   3.864   5.115 -0.8430 -2.5579  0.2052
 8114SOL     OW35803   1.197   0.562  11.459 -0.7002  0.2333  0.2256
 8114SOL    HW135804   1.126   0.519  11.411 -1.7748  1.9590  0.2770
 8114SOL    HW235805   1.156   0.634  11.506  0.3640  0.4547  0.8133
 8115SOL     OW35806   4.565   3.753   6.068  0.4226  0.0034 -0.1605
 8115SOL    HW135807   4.482   3.799   6.053 -0.8921 -2.7990 -1.5206
 8115SOL    HW235808   4.583   3.785   6.157 -3.0474  2.2405 -0.2241
 8116SOL     OW35809   3.634   2.382   2.360  0.2587 -0.0705  0.2827
 8116SOL    HW135810   3.630   2.378   2.456 -2.6143 -2.8462  0.0507
 8116SOL    HW235811   3.585   2.464   2.348  1.6783  0.8985  1.2038
 8117SOL     OW35812   3.298   2.016   5.721 -0.4877 -0.5671 -0.0325
 8117SOL    HW135813   3.367   1.967   5.678  0.8296 -0.2652  1.7520
 8117SOL    HW235814   3.276   2.087   5.661  1.2748  0.0509  0.0740
 8118SOL     OW35815   2.749   3.292   5.696  0.3089  0.4235  0.0704
 8118SOL    HW135816   2.705   3.377   5.701  1.6935  1.1545 -0.1552
 8118SOL    HW235817   2.810   3.302   5.770  1.9859 -1.5241 -1.0662
 8119SOL     OW35818   2.597   1.984   9.222 -0.3937 -0.5860  0.1661
 8119SOL    HW135819   2.628   2.074   9.216 -0.1669 -0.6891 -0.2101
 8119SOL    HW235820   2.528   1.983   9.156  0.5701 -2.0624 -0.8240
 8120SOL     OW35821   3.597   0.247   9.143 -0.7660 -0.1885 -0.4490
 8120SOL    HW135822   3.663   0.287   9.087 -0.0792 -1.4353 -0.5461
 8120SOL    HW235823   3.531   0.316   9.146  2.3404  2.7669 -0.6609
 8121SOL     OW35824   0.805   4.308   6.229 -0.7556 -0.2522  0.8473
 8121SOL    HW135825   0.809   4.358   6.310  1.2512  0.9673 -0.0179
 8121SOL    HW235826   0.713   4.284   6.221 -0.8456 -0.0766  1.3477
 8122SOL     OW35827   4.180   4.582   5.682  0.0766 -0.1124  0.2853
 8122SOL    HW135828   4.240   4.525   5.634 -1.4672 -1.3394 -0.2053
 8122SOL    HW235829   4.239   4.611   5.752 -0.9469  2.5233  0.0491
 8123SOL     OW35830   0.388   2.293  12.332 -0.2778  0.0019  0.0973
 8123SOL    HW135831   0.443   2.258  12.402  0.4621  0.0717 -0.4617
 8123SOL    HW235832   0.449   2.274  12.261 -2.9790 -1.2072 -1.8957
 8124SOL     OW35833   0.927   2.767  12.168  0.1001 -0.0006 -0.2895
 8124SOL    HW135834   0.873   2.765  12.247 -1.1805  0.2172 -1.1636
 8124SOL    HW235835   1.006   2.730  12.207  0.0823  1.6559  1.3334
 8125SOL     OW35836   1.168   2.883   4.576  0.2614 -0.2964 -0.2493
 8125SOL    HW135837   1.170   2.883   4.672  2.0901  1.4779 -0.2711
 8125SOL    HW235838   1.229   2.810   4.568 -0.6193 -1.1156  0.5534
 8126SOL     OW35839   3.815   1.626   4.310  0.4778  0.1304 -0.4439
 8126SOL    HW135840   3.754   1.583   4.370 -0.6643 -0.0031 -1.6920
 8126SOL    HW235841   3.858   1.551   4.269 -0.5780 -0.5856 -0.2416
 8127SOL     OW35842   2.537   1.251   3.893 -0.6378 -0.7741  0.2286
 8127SOL    HW135843   2.560   1.194   3.820 -0.8770 -1.0174  0.3446
 8127SOL    HW235844   2.569   1.333   3.854  3.4991 -2.4901  0.0480
 8128SOL     OW35845   2.065   0.769   4.500 -0.1929 -0.1357 -0.0508
 8128SOL    HW135846   2.161   0.764   4.497 -0.1604 -1.1952  2.8057
 8128SOL    HW235847   2.036   0.701   4.439  1.0522 -0.6020 -0.1207
 8129SOL     OW35848   0.272   0.931   4.374  0.2124  0.0647 -0.0259
 8129SOL    HW135849   0.319   0.895   4.449  2.5748  2.2290 -0.4610
 8129SOL    HW235850   0.259   1.018   4.410  0.6771  0.7528 -1.5150
 8130SOL     OW35851   2.067   0.392   9.209 -0.5607 -0.3183 -0.1435
 8130SOL    HW135852   1.999   0.347   9.260 -0.6046 -0.1849 -0.0840
 8130SOL    HW235853   2.009   0.443   9.151  0.6391  0.9756 -0.2077
 8131SOL     OW35854   2.798   1.632   6.195  0.0568 -0.1623 -0.6949
 8131SOL    HW135855   2.760   1.596   6.115 -0.1359 -1.1095 -0.1749
 8131SOL    HW235856   2.734   1.628   6.266 -2.1028  2.4590 -2.5057
 8132SOL     OW35857   0.423   2.695  10.603 -0.1957 -0.1234 -0.3850
 8132SOL    HW135858   0.452   2.612  10.642 -2.2672 -0.0848  1.1906
 8132SOL    HW235859   0.372   2.740  10.669  0.2598 -0.0832 -0.0617
 8133SOL     OW35860   2.840   3.361   9.407  0.1484 -0.3385  0.4465
 8133SOL    HW135861   2.936   3.358   9.399  0.2826 -0.6080  2.1587
 8133SOL    HW235862   2.827   3.303   9.482  0.9264  0.3870  1.1539
 8134SOL     OW35863   2.526   4.321   6.675  0.1035  0.0280  0.1465
 8134SOL    HW135864   2.572   4.240   6.653  1.8111  0.9321  0.3602
 8134SOL    HW235865   2.595   4.377   6.711  0.2730 -1.2986  1.8729
 8135SOL     OW35866   0.852   4.614   2.693 -0.2028 -0.0958 -0.6228
 8135SOL    HW135867   0.921   4.585   2.752 -0.4404 -0.1173 -0.3556
 8135SOL    HW235868   0.832   4.534   2.645  1.1482  1.2612 -3.4901
 8136SOL     OW35869   4.387   2.667  11.945 -0.0497  0.5494 -0.0207
 8136SOL    HW135870   4.319   2.730  11.970  0.3365  0.4461  1.3249
 8136SOL    HW235871   4.424   2.648  12.032  0.7899  1.8450 -0.0925
 8137SOL     OW35872   3.089   0.545   7.804 -0.2712  0.7159 -0.0898
 8137SOL    HW135873   3.119   0.454   7.806 -1.0571  0.4293 -1.7932
 8137SOL    HW235874   3.123   0.568   7.718 -1.4848 -0.6808 -0.9430
 8138SOL     OW35875   3.180   0.176   8.531  0.0760  0.0342 -0.3613
 8138SOL    HW135876   3.110   0.234   8.560 -2.4523 -2.3989 -1.6414
 8138SOL    HW235877   3.235   0.238   8.483  0.4673 -0.9536 -1.1611
 8139SOL     OW35878   3.046   0.788   8.513 -0.8124  0.4474 -0.3013
 8139SOL    HW135879   3.074   0.724   8.579  1.6292  2.9351  1.0943
 8139SOL    HW235880   3.099   0.757   8.439  0.3679 -0.6320  1.0028
 8140SOL     OW35881   4.715   2.665   8.768  0.0152 -0.1224  0.3075
 8140SOL    HW135882   0.073   2.698   8.734  0.8843 -0.9326  1.6588
 8140SOL    HW235883   4.650   2.718   8.721 -0.7381  1.4022  3.0827
 8141SOL     OW35884   1.157   0.218  11.496  0.1577  0.1860  0.5507
 8141SOL    HW135885   1.114   0.273  11.431  1.9422 -1.1191 -1.7215
 8141SOL    HW235886   1.244   0.207  11.457 -0.1704 -1.1685  0.1771
 8142SOL     OW35887   0.911   1.174   3.926  0.2580 -0.2472  0.2640
 8142SOL    HW135888   0.983   1.112   3.928  1.4810  1.1625 -0.5696
 8142SOL    HW235889   0.925   1.230   3.850  0.4588 -2.2249 -1.1549
 8143SOL     OW35890   4.021   0.573   0.809  0.2310  0.0841  0.1954
 8143SOL    HW135891   4.025   0.634   0.735 -0.7117 -1.2313 -0.9337
 8143SOL    HW235892   3.995   0.638   0.875 -2.1303 -0.3287 -0.3531
 8144SOL     OW35893   1.380   1.894  11.093  0.2109 -0.1757  0.0033
 8144SOL    HW135894   1.292   1.924  11.072  0.1614  1.0820  2.0107
 8144SOL    HW235895   1.422   1.978  11.113  2.6401 -1.2469 -0.5384
 8145SOL     OW35896   1.990   4.128   9.778 -0.3963  0.1074  0.3938
 8145SOL    HW135897   2.001   4.042   9.738 -0.1476  0.3298 -0.0212
 8145SOL    HW235898   2.083   4.145   9.791 -0.4042  3.0418 -3.3227
 8146SOL     OW35899   1.166   1.048  17.666  0.1437  0.0325 -0.1047
 8146SOL    HW135900   1.167   0.956  17.690 -0.0011 -0.4618 -1.9847
 8146SOL    HW235901   1.216   1.081   0.041 -0.6422 -2.8423  1.6480
 8147SOL     OW35902   3.797   1.102   5.451  0.3398  0.3235 -0.4498
 8147SOL    HW135903   3.774   1.190   5.422  0.6842  1.4021  2.5962
 8147SOL    HW235904   3.721   1.061   5.492  0.2899 -0.0723 -0.9378
 8148SOL     OW35905   3.378   3.824  12.688  0.3084 -0.1374  0.4163
 8148SOL    HW135906   3.409   3.734  12.675  0.6055 -0.1957  1.4918
 8148SOL    HW235907   3.415   3.871  12.614 -0.2115 -0.3181  0.0457
 8149SOL     OW35908   2.065   0.771   4.165 -0.5361 -0.2350  0.6305
 8149SOL    HW135909   2.138   0.814   4.119  0.8606 -1.6774  1.4931
 8149SOL    HW235910   2.094   0.680   4.166  1.7322  0.4902  0.9446
 8150SOL     OW35911   1.342   0.032   6.834 -0.4740  0.3679 -0.2613
 8150SOL    HW135912   1.394   4.694   6.783  0.1122 -1.5938  2.7101
 8150SOL    HW235913   1.410   0.090   6.868  0.4684  0.2902 -1.9621
 8151SOL     OW35914   3.943   1.888   5.086  0.5007 -0.1255  0.0843
 8151SOL    HW135915   3.875   1.955   5.076  3.9691  3.0968 -2.0885
 8151SOL    HW235916   3.980   1.880   4.998  0.5645  1.0279 -0.0015
 8152SOL     OW35917   4.103   0.456   7.848  0.6095 -0.2620  0.2327
 8152SOL    HW135918   4.152   0.521   7.899  0.4635 -0.6334  0.8454
 8152SOL    HW235919   4.120   0.380   7.903 -1.6784 -0.2080  1.0250
 8153SOL     OW35920   2.415   1.947   6.728 -0.0201 -0.9354  0.0766
 8153SOL    HW135921   2.398   2.020   6.788 -1.2490 -0.5703 -0.7301
 8153SOL    HW235922   2.364   1.878   6.770 -2.8862  0.9512 -0.2644
 8154SOL     OW35923   3.641   2.325  14.495  0.0125 -0.4581  0.3062
 8154SOL    HW135924   3.552   2.328  14.461  0.3016  1.3331 -0.3285
 8154SOL    HW235925   3.691   2.302  14.416 -0.1612  1.0849 -0.2584
 8155SOL     OW35926   0.373   2.075   9.135  0.3487 -0.8661 -0.0427
 8155SOL    HW135927   0.426   2.004   9.099  2.9500  2.2516 -2.2935
 8155SOL    HW235928   0.425   2.091   9.214  2.6413 -0.8484 -1.5508
 8156SOL     OW35929   2.533   0.469  11.435 -0.0367 -0.4647  0.5817
 8156SOL    HW135930   2.579   0.550  11.458 -1.2763 -0.4235  2.9038
 8156SOL    HW235931   2.609   0.413  11.454  0.3026 -0.1144  0.2335
 8157SOL     OW35932   3.487   1.390   7.539  0.3815 -0.6994 -0.0590
 8157SOL    HW135933   3.552   1.333   7.499  1.1173 -0.9716  1.5273
 8157SOL    HW235934   3.520   1.479   7.522  0.1654 -0.4833  0.6527
 8158SOL     OW35935   3.644   0.070   4.523 -0.0065 -0.5113 -0.2695
 8158SOL    HW135936   3.695   0.025   4.590 -1.2957 -0.1342  0.9511
 8158SOL    HW235937   3.599   0.000   4.475 -1.0353  0.4290 -0.6731
 8159SOL     OW35938   1.176   3.193  16.563 -0.5215  0.3678 -0.4357
 8159SOL    HW135939   1.114   3.126  16.592  0.2946  0.0717  0.6464
 8159SOL    HW235940   1.114   3.264  16.547 -0.8524  0.1916  0.0405
 8160SOL     OW35941   4.096   0.427  13.524 -0.1827 -0.1181  0.0407
 8160SOL    HW135942   4.093   0.415  13.429  0.3846 -1.2043  0.1634
 8160SOL    HW235943   4.075   0.520  13.533  0.9910  0.0430  1.0345
 8161SOL     OW35944   0.886   2.014   4.656  0.3461 -0.6014 -0.0839
 8161SOL    HW135945   0.800   1.976   4.675  0.4422 -0.3785  0.8034
 8161SOL    HW235946   0.863   2.057   4.574 -0.6284  1.1856  1.1498
 8162SOL     OW35947   3.720   1.778   0.919 -0.0012  0.3169 -0.0728
 8162SOL    HW135948   3.628   1.756   0.903  0.1556 -0.3037 -0.1160
 8162SOL    HW235949   3.714   1.853   0.977 -0.7025  1.0418 -1.0822
 8163SOL     OW35950   4.295   3.748   4.207  0.0954  0.3623 -0.0610
 8163SOL    HW135951   4.202   3.772   4.196 -0.1566 -0.6199 -0.0119
 8163SOL    HW235952   4.291   3.686   4.135  0.7725 -0.6600  0.7913
 8164SOL     OW35953   3.391   1.972   8.327 -0.1399  0.1102 -0.5117
 8164SOL    HW135954   3.483   1.974   8.354  0.1083 -1.0323 -1.2724
 8164SOL    HW235955   3.340   2.014   8.397  2.0785  0.6008  0.8191
 8165SOL     OW35956   1.718   0.581  14.651 -0.5935  0.0280  0.0493
 8165SOL    HW135957   1.686   0.626  14.573 -2.0016 -0.5192  0.2974
 8165SOL    HW235958   1.681   0.633  14.723  1.3359  1.5268 -0.0313
 8166SOL     OW35959   1.925   2.283   3.695  0.0009 -0.0988 -0.2962
 8166SOL    HW135960   1.930   2.284   3.791 -0.8207 -2.2178 -0.2266
 8166SOL    HW235961   1.923   2.188   3.683  1.6785 -0.1555 -0.2206
 8167SOL     OW35962   1.216   1.614   0.233 -0.0902  0.1205 -0.5026
 8167SOL    HW135963   1.147   1.589   0.172  0.9969  0.3874 -1.8562
 8167SOL    HW235964   1.179   1.583   0.315 -1.2119 -0.0330 -1.0653
 8168SOL     OW35965   3.936   0.434   7.597  0.0272  0.6290  0.2319
 8168SOL    HW135966   3.979   0.392   7.672  0.5859 -0.3596 -0.6237
 8168SOL    HW235967   3.924   0.522   7.632 -0.0903  1.3090 -1.5194
 8169SOL     OW35968   1.435   0.641   2.392  0.3756 -0.0077  0.5925
 8169SOL    HW135969   1.353   0.691   2.395  0.4234  0.0927  0.2038
 8169SOL    HW235970   1.454   0.661   2.484 -2.1963  1.8557  0.7387
 8170SOL     OW35971   1.986   1.292   8.018 -0.3653 -0.1078  0.7313
 8170SOL    HW135972   1.990   1.233   8.094 -2.4710 -2.0007 -0.6470
 8170SOL    HW235973   1.993   1.222   7.954 -0.1291  1.4003 -0.8761
 8171SOL     OW35974   2.336   2.098   0.972 -0.2702 -0.1925  1.0016
 8171SOL    HW135975   2.250   2.086   0.933 -1.3171  2.9098  2.3379
 8171SOL    HW235976   2.343   2.192   0.958  0.1597 -0.3553  0.0949
 8172SOL     OW35977   1.353   0.152   2.013 -0.1351 -0.2477 -0.0631
 8172SOL    HW135978   1.285   0.094   1.978  0.0274 -1.3004  1.3764
 8172SOL    HW235979   1.349   0.160   2.108  1.0627  0.0916 -0.0478
 8173SOL     OW35980   1.919   2.361   5.543 -0.2954 -0.0068 -0.2430
 8173SOL    HW135981   1.839   2.370   5.595  0.7969 -2.4074  1.8637
 8173SOL    HW235982   1.956   2.449   5.546  0.1984 -0.1472 -2.3073
 8174SOL     OW35983   1.209   3.048   3.602 -0.8444  0.1840  0.2233
 8174SOL    HW135984   1.154   3.126   3.593 -0.9247  0.2722  1.5027
 8174SOL    HW235985   1.244   3.045   3.513 -0.6203 -0.1792  0.3263
 8175SOL     OW35986   1.380   0.447  11.614  0.1445  0.0245  0.0030
 8175SOL    HW135987   1.314   0.485  11.555 -1.0181 -0.7005  0.8355
 8175SOL    HW235988   1.440   0.522  11.618  1.0038 -0.7484  1.4773
 8176SOL     OW35989   2.174   3.560  13.537  0.3782 -0.1219  0.1728
 8176SOL    HW135990   2.194   3.616  13.462 -0.2800 -0.9039 -0.5810
 8176SOL    HW235991   2.133   3.489  13.489  0.7882  0.4560 -1.0196
 8177SOL     OW35992   4.298   4.218   3.749  0.1473 -0.4994 -0.5678
 8177SOL    HW135993   4.342   4.232   3.666  1.6859 -1.4993  0.0794
 8177SOL    HW235994   4.314   4.299   3.798  2.9175 -0.1500 -2.1021
 8178SOL     OW35995   4.553   2.499   3.033 -0.1389 -0.1053 -0.4490
 8178SOL    HW135996   4.479   2.560   3.029  1.3583  1.8061  0.9679
 8178SOL    HW235997   4.626   2.560   3.042  0.5674 -0.9375 -0.5057
 8179SOL     OW35998   1.555   2.776   4.044  0.3016 -0.2910 -0.1475
 8179SOL    HW135999   1.465   2.765   4.015  0.8541 -1.3832 -1.4808
 8179SOL    HW236000   1.596   2.822   3.970  0.7555  0.1345  0.3708
 8180SOL     OW36001   1.568   0.024   2.290 -0.0854  0.1551  0.3898
 8180SOL    HW136002   1.578   0.034   2.384 -1.1040  1.9915  0.2970
 8180SOL    HW236003   1.473   0.014   2.286 -0.0378 -0.3663  0.5362
 8181SOL     OW36004   1.725   2.951   5.881  0.2059  0.4055  0.0820
 8181SOL    HW136005   1.690   2.914   5.961 -0.5935  0.3109 -0.3135
 8181SOL    HW236006   1.807   2.994   5.905  0.2229  0.9175 -0.8842
 8182SOL     OW36007   0.267   0.984   0.694 -0.3983  0.1005 -0.2551
 8182SOL    HW136008   0.263   0.894   0.727 -0.3780  0.6013  1.1219
 8182SOL    HW236009   0.317   0.969   0.613 -0.6569  1.9850 -0.7667
 8183SOL     OW36010   3.391   2.950   3.091 -0.1383 -0.1480  0.2439
 8183SOL    HW136011   3.328   2.878   3.085  0.1455 -0.4753  1.0810
 8183SOL    HW236012   3.389   2.998   3.009 -1.6605 -0.1557  0.2910
 8184SOL     OW36013   1.145   2.619   3.108  0.4000 -0.2173 -0.0595
 8184SOL    HW136014   1.104   2.534   3.094  1.6052 -1.1322  1.9595
 8184SOL    HW236015   1.156   2.656   3.020  1.8057  0.2791  0.3213
 8185SOL     OW36016   3.014   1.673   8.075  0.0916 -0.0940 -0.1341
 8185SOL    HW136017   3.065   1.650   7.998 -1.6103  1.2725 -1.6733
 8185SOL    HW236018   3.077   1.712   8.136  0.9216 -0.2634 -0.8973
 8186SOL     OW36019   1.200   1.079  14.730 -0.0726 -0.0445 -0.5837
 8186SOL    HW136020   1.216   1.173  14.744 -0.2281 -0.1192  0.0938
 8186SOL    HW236021   1.224   1.048  14.818 -1.6803 -0.8302 -0.4321
 8187SOL     OW36022   1.277   4.353  10.238 -0.0674 -0.0459  0.5540
 8187SOL    HW136023   1.339   4.285  10.213 -2.3028 -0.4219 -3.9314
 8187SOL    HW236024   1.333   4.430  10.246  2.2051 -1.7724  1.1017
 8188SOL     OW36025   2.271   4.456  14.765 -0.4907 -0.7169 -0.5314
 8188SOL    HW136026   2.345   4.441  14.707 -1.4151 -2.6464 -1.2345
 8188SOL    HW236027   2.197   4.414  14.721  0.3315 -2.8258  0.0895
 8189SOL     OW36028   3.440   0.292   0.482  0.7489 -0.3302 -0.2866
 8189SOL    HW136029   3.429   0.362   0.418  0.4483  0.1716  0.3043
 8189SOL    HW236030   3.449   0.341   0.564 -2.1970  2.6806 -1.7273
 8190SOL     OW36031   0.042   0.618  12.815 -0.2647 -0.2105 -0.0314
 8190SOL    HW136032   4.705   0.675  12.768 -0.1772 -0.5098 -0.5102
 8190SOL    HW236033   0.108   0.685  12.836 -0.2373 -0.5853  1.0777
 8191SOL     OW36034   0.717   2.078   5.618 -0.2399 -0.1194  0.1292
 8191SOL    HW136035   0.757   2.164   5.626 -1.9880  0.7814 -0.7249
 8191SOL    HW236036   0.726   2.067   5.523  2.3019 -0.5674  0.4353
 8192SOL     OW36037   1.206   3.810  13.660 -0.1453 -0.6188  0.5171
 8192SOL    HW136038   1.128   3.790  13.609  1.5259 -2.5761 -1.2761
 8192SOL    HW236039   1.165   3.822  13.746 -1.6823 -1.8524 -0.0561
 8193SOL     OW36040   2.005   4.155   5.644  0.2282 -0.2092 -0.0315
 8193SOL    HW136041   1.991   4.249   5.653  1.5522 -0.1227  1.2303
 8193SOL    HW236042   1.934   4.142   5.581  1.6764  0.5104 -1.8217
 8194SOL     OW36043   3.828   4.252   7.574 -0.1495 -0.1824  0.9211
 8194SOL    HW136044   3.751   4.308   7.588  0.3979  0.6032  0.7591
 8194SOL    HW236045   3.791   4.230   7.488  1.5443 -1.5977  0.5529
 8195SOL     OW36046   2.090   1.352   6.313  0.6387  0.2560 -0.4451
 8195SOL    HW136047   2.024   1.368   6.381  1.7915 -1.7043  1.1339
 8195SOL    HW236048   2.144   1.431   6.300 -0.0279  0.6109 -1.0580
 8196SOL     OW36049   2.969   0.031  10.977 -0.4970  0.1994  0.0284
 8196SOL    HW136050   2.932   0.051  11.063 -0.3525 -0.1368  0.1690
 8196SOL    HW236051   3.053   4.723  11.008 -0.7699 -0.1013  0.4637
 8197SOL     OW36052   3.980   4.453   5.835 -0.5085  0.7992  0.2744
 8197SOL    HW136053   4.038   4.503   5.778  0.3978 -0.6738 -0.1029
 8197SOL    HW236054   3.896   4.494   5.815 -0.3784  0.8364 -0.1964
 8198SOL     OW36055   2.797   3.645  15.477 -0.2181 -0.3136 -0.4483
 8198SOL    HW136056   2.759   3.732  15.472  1.4538  0.4845  0.7273
 8198SOL    HW236057   2.873   3.653  15.419  0.0073 -2.0327 -0.4029
 8199SOL     OW36058   3.252   1.063   5.005  0.2134 -0.5593  0.4345
 8199SOL    HW136059   3.238   1.154   4.978 -0.3880 -0.6120  0.5737
 8199SOL    HW236060   3.206   1.011   4.940 -0.1900  1.7408 -1.1245
 8200SOL     OW36061   1.276   1.884   5.810 -0.4394 -0.4152 -0.7261
 8200SOL    HW136062   1.227   1.930   5.879  1.9687  0.0692  0.6678
 8200SOL    HW236063   1.357   1.879   5.861 -0.7456  0.0282 -0.1944
 8201SOL     OW36064   0.750   3.601   7.802  0.3480  0.2072 -0.5456
 8201SOL    HW136065   0.837   3.571   7.775  1.4570  2.7913  0.1548
 8201SOL    HW236066   0.730   3.651   7.723 -1.9794 -0.1925 -0.2000
 8202SOL     OW36067   1.782   4.410  12.021 -0.1224 -0.3760  0.0035
 8202SOL    HW136068   1.750   4.323  11.995  1.6920 -1.3916  1.1777
 8202SOL    HW236069   1.706   4.463  11.995 -1.1966 -2.1071 -0.3977
 8203SOL     OW36070   2.627   3.952   8.774  0.0638 -0.0912  0.1987
 8203SOL    HW136071   2.548   3.925   8.821  0.0551  1.7164  1.2016
 8203SOL    HW236072   2.617   3.895   8.697  0.4536 -2.5970  2.0083
 8204SOL     OW36073   0.688   3.879   2.273 -0.0101 -0.6430  0.0000
 8204SOL    HW136074   0.724   3.957   2.315  1.4648 -0.5102 -1.4931
 8204SOL    HW236075   0.652   3.926   2.197 -0.9187 -2.2115 -0.5422
 8205SOL     OW36076   3.395   2.146   2.987 -0.6114  0.0387  0.5869
 8205SOL    HW136077   3.317   2.145   3.043  0.1664  1.5578  1.7047
 8205SOL    HW236078   3.350   2.181   2.910 -0.4804  0.7742  0.8429
 8206SOL     OW36079   0.750   3.057   4.024  0.0431  0.1687  0.0248
 8206SOL    HW136080   0.805   3.095   3.955 -1.6618  0.0454 -1.3796
 8206SOL    HW236081   0.670   3.107   4.010  0.7158  1.2015 -0.1994
 8207SOL     OW36082   3.035   1.003   1.617 -0.2953  0.0069  0.0289
 8207SOL    HW136083   3.005   1.025   1.529  1.1735  1.9816  0.0346
 8207SOL    HW236084   3.016   1.079   1.671 -0.3301  0.4905 -0.6712
 8208SOL     OW36085   3.899   3.416   6.092 -0.0132  0.0702 -0.7829
 8208SOL    HW136086   3.961   3.482   6.061 -0.7988  1.5465  0.8163
 8208SOL    HW236087   3.904   3.443   6.183  1.0502  1.6108 -1.2986
 8209SOL     OW36088   1.617   3.212   6.018  0.0093 -0.1509  0.4262
 8209SOL    HW136089   1.648   3.142   5.960 -0.0987  0.3892 -0.2826
 8209SOL    HW236090   1.638   3.278   5.952 -0.8696  0.3512  0.6573
 8210SOL     OW36091   0.482   2.132   2.981  0.6158  0.2617  0.4517
 8210SOL    HW136092   0.528   2.052   3.004  0.9707  0.6783  1.1767
 8210SOL    HW236093   0.404   2.096   2.938 -1.0720  0.9509  2.9331
 8211SOL     OW36094   4.017   1.541   7.494  0.1781 -0.2791  0.2748
 8211SOL    HW136095   4.029   1.581   7.408 -1.8257  2.5229  1.3027
 8211SOL    HW236096   3.974   1.620   7.527  0.8448  0.6245 -1.0274
 8212SOL     OW36097   4.555   0.056   3.247 -0.7765 -0.3665 -0.0188
 8212SOL    HW136098   4.647   0.084   3.238 -0.9354  0.6386  1.5712
 8212SOL    HW236099   4.561   4.688   3.221  1.0730  0.4685 -2.6053
 8213SOL     OW36100   0.120   0.121   3.177  0.0632 -0.1557 -0.2246
 8213SOL    HW136101   0.137   0.120   3.271 -1.7343  0.3924  0.1214
 8213SOL    HW236102   0.161   0.037   3.158 -0.1724 -0.3317  0.0556
 8214SOL     OW36103   1.759   4.688   8.473  0.2428  0.0476 -0.0112
 8214SOL    HW136104   1.742   4.594   8.465 -0.1795  0.2160 -1.1096
 8214SOL    HW236105   1.759   4.705   8.568 -0.5627  1.6758 -0.3033
 8215SOL     OW36106   2.659   4.491   4.402  0.3386  0.0416  0.2405
 8215SOL    HW136107   2.724   4.427   4.372 -0.9709 -1.7043  1.1230
 8215SOL    HW236108   2.705   4.535   4.473 -1.0551  0.7388  0.7049
 8216SOL     OW36109   0.592   4.446   6.897  0.3007  0.1073  0.3539
 8216SOL    HW136110   0.565   4.494   6.819  0.8885  1.5337  1.0333
 8216SOL    HW236111   0.626   4.516   6.952 -1.9339 -0.7172  2.7840
 8217SOL     OW36112   0.358   0.192   1.951  0.1033 -0.3613 -0.6422
 8217SOL    HW136113   0.407   0.139   2.013  1.9823  0.7087 -1.2167
 8217SOL    HW236114   0.351   0.274   2.000 -0.7353 -0.8324  0.0229
 8218SOL     OW36115   3.836   3.861  13.645  0.0776  0.1640  0.3430
 8218SOL    HW136116   3.900   3.821  13.586 -0.4052 -1.3650  0.8569
 8218SOL    HW236117   3.781   3.784  13.662  0.8839 -0.1209  1.7103
 8219SOL     OW36118   0.574   0.272  17.120 -0.0563  0.1028  0.4485
 8219SOL    HW136119   0.526   0.266  17.037 -1.3887  0.5986  1.1889
 8219SOL    HW236120   0.603   0.182  17.138 -0.9851 -0.2783  0.0635
 8220SOL     OW36121   2.474   1.147  10.629  0.1865  0.6751 -0.8471
 8220SOL    HW136122   2.409   1.105  10.572  1.2592 -0.8982 -0.9098
 8220SOL    HW236123   2.519   1.203  10.565  1.7415  1.5109  0.9827
 8221SOL     OW36124   4.540   2.061  15.037  1.2844 -0.7365 -0.4391
 8221SOL    HW136125   4.485   2.133  15.005 -0.0260 -0.5794  2.2334
 8221SOL    HW236126   4.482   1.999  15.080  0.7040 -0.4107 -0.7486
 8222SOL     OW36127   1.080   3.459   6.282 -0.0630 -0.2844  0.5916
 8222SOL    HW136128   1.020   3.505   6.341  0.1974 -0.8336  1.2774
 8222SOL    HW236129   1.157   3.440   6.334  1.3908 -0.0019 -1.4644
 8223SOL     OW36130   4.550   1.316  14.812 -0.0616  0.2181 -0.1374
 8223SOL    HW136131   4.610   1.290  14.742 -0.9576 -0.3600 -0.6939
 8223SOL    HW236132   4.603   1.390  14.843  0.4088  0.6378 -1.9215
 8224SOL     OW36133   1.862   2.181   4.637 -0.0093 -0.2578  0.2203
 8224SOL    HW136134   1.866   2.092   4.672  3.1119 -0.0370  0.4192
 8224SOL    HW236135   1.779   2.202   4.680 -0.5831  1.8985 -1.9217
 8225SOL     OW36136   0.808   3.274   6.422  0.6150  0.0999 -0.4238
 8225SOL    HW136137   0.727   3.275   6.474  0.7415  0.6995 -0.2370
 8225SOL    HW236138   0.773   3.272   6.333 -1.1914 -0.7676  0.2975
 8226SOL     OW36139   4.143   2.406   9.819 -0.1590  0.7647 -0.7927
 8226SOL    HW136140   4.085   2.341   9.858  1.5250 -0.4610 -0.2902
 8226SOL    HW236141   4.172   2.456   9.896 -0.8962  1.1611 -0.7760
 8227SOL     OW36142   1.909   1.055   6.421  0.1978  0.6704 -0.4978
 8227SOL    HW136143   1.820   1.088   6.427  0.3290  0.9856 -0.3124
 8227SOL    HW236144   1.901   0.969   6.462  0.3222  0.1418 -1.5853
 8228SOL     OW36145   0.699   3.219   7.801  0.2082  0.1019  0.0255
 8228SOL    HW136146   0.655   3.137   7.824 -2.8456  1.5263 -0.8412
 8228SOL    HW236147   0.668   3.233   7.712  0.3052 -1.1765 -0.2111
 8229SOL     OW36148   4.068   4.681   6.675 -0.6338  0.1781 -0.4439
 8229SOL    HW136149   4.120   0.015   6.729 -0.9505 -0.3864  0.4912
 8229SOL    HW236150   4.104   4.702   6.589 -0.1681  2.1597  0.2603
 8230SOL     OW36151   3.987   2.516   2.805  0.0076 -0.0303 -0.2233
 8230SOL    HW136152   4.024   2.428   2.805  0.2776  0.0840 -0.3747
 8230SOL    HW236153   3.942   2.509   2.721  1.3684 -0.8116 -0.8771
 8231SOL     OW36154   1.158   2.698   3.352  0.2124  0.1899  0.2008
 8231SOL    HW136155   1.162   2.659   3.265 -0.1584 -1.5435  0.9499
 8231SOL    HW236156   1.215   2.773   3.339  1.9077 -1.2353 -0.5668
 8232SOL     OW36157   0.352   4.176   5.941 -0.2115  0.5193  0.0282
 8232SOL    HW136158   0.357   4.272   5.939 -0.0094  0.4892 -0.8307
 8232SOL    HW236159   0.300   4.153   5.864 -0.7665 -0.0604  0.5783
 8233SOL     OW36160   0.568   2.862  10.458 -0.2276 -0.7173 -0.5011
 8233SOL    HW136161   0.513   2.870  10.380 -2.1845 -0.3103  0.9093
 8233SOL    HW236162   0.516   2.800  10.508  1.9743 -2.0556  0.1138
 8234SOL     OW36163   2.714   4.237   3.028 -0.4244  0.1425  0.2804
 8234SOL    HW136164   2.785   4.215   2.968  0.6243  2.0287  0.8215
 8234SOL    HW236165   2.668   4.155   3.042 -0.8626  0.1431 -1.2093
 8235SOL     OW36166   4.690   4.266  12.960 -0.2704 -0.7358 -0.1357
 8235SOL    HW136167   4.649   4.293  13.042  0.4259 -0.0017 -0.0273
 8235SOL    HW236168   4.615   4.276  12.902 -0.6251 -0.7488  0.3270
 8236SOL     OW36169   2.318   0.267  16.978 -0.3826  0.1348  0.1606
 8236SOL    HW136170   2.374   0.343  16.961 -0.5119 -0.3175 -2.2825
 8236SOL    HW236171   2.358   0.227  17.054 -1.0210 -0.5018  0.1622
 8237SOL     OW36172   4.594   1.058   7.892 -0.1804  0.0179 -0.0886
 8237SOL    HW136173   4.635   1.077   7.808  0.9822  2.9559  1.1319
 8237SOL    HW236174   4.664   1.085   7.951 -0.1460 -3.7944  1.5766
 8238SOL     OW36175   3.189   1.434   8.847  0.5046  0.5406 -0.1195
 8238SOL    HW136176   3.267   1.379   8.855 -0.3081 -0.4219  1.1467
 8238SOL    HW236177   3.140   1.432   8.929  0.4918 -1.6790 -0.1868
 8239SOL     OW36178   3.880   2.343   5.739 -0.4886 -0.5028  0.2690
 8239SOL    HW136179   3.835   2.365   5.821  1.7121 -0.2356  1.3974
 8239SOL    HW236180   3.828   2.372   5.665 -2.2585 -0.9739  1.3200
 8240SOL     OW36181   0.805   0.963   6.976  0.2097 -0.5451  0.0657
 8240SOL    HW136182   0.782   0.981   7.067 -1.8278 -3.4181  0.1103
 8240SOL    HW236183   0.846   1.048   6.962 -1.2274  0.3397  1.2852
 8241SOL     OW36184   4.667   1.584   2.663  0.1705  0.7080 -0.1531
 8241SOL    HW136185   4.611   1.528   2.717 -2.4278  0.6717 -2.8111
 8241SOL    HW236186   4.654   1.538   2.580  0.1270  0.1621  0.1595
 8242SOL     OW36187   0.694   1.557   2.054 -0.2515  0.5095  0.5805
 8242SOL    HW136188   0.692   1.653   2.055 -0.7191  0.4803  1.8973
 8242SOL    HW236189   0.761   1.542   1.987  0.2013  1.1765  0.8717
 8243SOL     OW36190   2.884   2.239   9.031 -0.1627 -0.3864  0.7520
 8243SOL    HW136191   2.896   2.145   9.018 -2.5423 -0.4763 -0.7893
 8243SOL    HW236192   2.838   2.245   9.114 -0.4604  0.5370  0.5284
 8244SOL     OW36193   2.243   0.924   2.324  0.2784 -0.3874 -0.0217
 8244SOL    HW136194   2.230   1.013   2.358  2.7930  0.5260 -1.3884
 8244SOL    HW236195   2.264   0.881   2.407 -2.2746 -1.8129 -0.1200
 8245SOL     OW36196   3.311   0.964   5.902  1.0403  0.3570  0.1002
 8245SOL    HW136197   3.398   0.925   5.910  1.2681  0.3901 -2.4022
 8245SOL    HW236198   3.304   0.972   5.997  0.8827  0.8579  0.0435
 8246SOL     OW36199   4.477   0.777  10.612 -0.1321  0.1972 -0.6760
 8246SOL    HW136200   4.555   0.830  10.628 -0.6927  0.7905  0.0850
 8246SOL    HW236201   4.509   0.700  10.659 -0.8221  2.0460  2.7948
 8247SOL     OW36202   0.668   0.634   6.134 -0.0710 -0.4010 -0.2483
 8247SOL    HW136203   0.607   0.626   6.207  1.0253 -2.4264  0.4460
 8247SOL    HW236204   0.620   0.687   6.069 -0.6159  0.5172  0.9058
 8248SOL     OW36205   1.638   2.173   5.210 -0.2565 -0.1324  0.5531
 8248SOL    HW136206   1.629   2.186   5.116  1.7479 -1.2847  0.2200
 8248SOL    HW236207   1.566   2.227   5.244  0.1023 -0.3753  1.7031
 8249SOL     OW36208   3.572   2.596   9.893  0.0921  0.2167 -0.2075
 8249SOL    HW136209   3.561   2.687   9.864 -0.6867  0.1600 -0.0735
 8249SOL    HW236210   3.666   2.584   9.878  0.7208  1.6391  2.5593
 8250SOL     OW36211   4.460   1.907   5.998  0.3855  0.1087  0.0253
 8250SOL    HW136212   4.470   1.822   5.955 -0.4463  0.1553 -0.2713
 8250SOL    HW236213   4.367   1.897   6.019  0.8152  0.8239  2.2976
 8251SOL     OW36214   1.664   2.633  12.943  0.2166  0.1355  0.0691
 8251SOL    HW136215   1.739   2.644  12.885  0.7027  0.8284  0.8369
 8251SOL    HW236216   1.617   2.558  12.908 -1.1149  2.0446 -2.2667
 8252SOL     OW36217   3.673   3.760  10.439 -0.0633 -0.3721 -0.0279
 8252SOL    HW136218   3.583   3.790  10.456  0.0827  0.2787 -0.3976
 8252SOL    HW236219   3.726   3.813  10.498  0.1352  0.3280 -0.8376
 8253SOL     OW36220   3.759   3.436   1.501 -0.3633 -0.0692 -0.2483
 8253SOL    HW136221   3.840   3.393   1.474  0.1086 -0.0756  1.1766
 8253SOL    HW236222   3.726   3.468   1.417 -2.5140 -1.7891 -0.0521
 8254SOL     OW36223   1.387   4.587  14.863  0.3917  0.4883 -0.0794
 8254SOL    HW136224   1.465   4.641  14.863  0.7207 -0.0168  3.2824
 8254SOL    HW236225   1.348   4.605  14.777  2.6778  2.3316 -0.7091
 8255SOL     OW36226   3.670   0.941   3.386 -0.2126  0.3675 -0.1381
 8255SOL    HW136227   3.716   0.925   3.304 -0.0533  2.4961 -0.4766
 8255SOL    HW236228   3.701   1.030   3.402  0.8816  0.1276 -0.9587
 8256SOL     OW36229   3.708   0.134   0.688  0.2249  0.5435 -0.2870
 8256SOL    HW136230   3.766   0.059   0.697 -1.0645 -0.6023 -1.5041
 8256SOL    HW236231   3.764   0.205   0.659  0.9677 -0.2960 -0.9107
 8257SOL     OW36232   2.147   1.557   8.747 -0.5432  0.0690  0.3458
 8257SOL    HW136233   2.215   1.490   8.739  1.0500  2.1260 -3.0529
 8257SOL    HW236234   2.147   1.593   8.659  1.8846  1.0467  0.7513
 8258SOL     OW36235   0.888   4.296   3.142  0.1616  0.2503 -0.1002
 8258SOL    HW136236   0.925   4.375   3.104 -0.5634 -1.5819 -4.6129
 8258SOL    HW236237   0.877   4.326   3.232  0.2838 -1.2377  0.4078
 8259SOL     OW36238   0.026   2.400  11.697  0.6309 -0.1200  0.3426
 8259SOL    HW136239   4.675   2.442  11.738  1.4431 -1.7039  3.4134
 8259SOL    HW236240   0.094   2.425  11.760 -1.7398  0.4244  2.6854
 8260SOL     OW36241   1.019   1.267   6.495  0.1353  0.3435  0.0747
 8260SOL    HW136242   0.983   1.229   6.576 -3.4993 -0.4874 -1.9196
 8260SOL    HW236243   1.007   1.360   6.517  0.3904  0.2607  0.5677
 8261SOL     OW36244   0.622   3.065  11.184  0.5423  0.4419 -0.6438
 8261SOL    HW136245   0.668   2.990  11.221 -1.6912 -1.2190 -1.2272
 8261SOL    HW236246   0.675   3.141  11.206  0.4013 -0.2760  2.1986
 8262SOL     OW36247   1.013   0.076   0.750 -0.5254  0.0145  0.7660
 8262SOL    HW136248   1.073   0.013   0.791 -0.5217 -0.1203  0.5511
 8262SOL    HW236249   0.935   0.021   0.741  0.2451 -0.9298 -0.0756
 8263SOL     OW36250   3.129   0.099  14.452  0.0279 -0.2152  0.3454
 8263SOL    HW136251   3.143   0.191  14.429 -2.7373 -0.0472 -0.6675
 8263SOL    HW236252   3.088   0.072  14.370  1.3826 -0.7805 -0.1557
 8264SOL     OW36253   4.283   4.117   2.560 -0.5317 -0.0734 -0.2838
 8264SOL    HW136254   4.242   4.150   2.480  0.5574 -0.3226 -0.9468
 8264SOL    HW236255   4.366   4.079   2.532 -0.2730  1.0611 -1.0588
 8265SOL     OW36256   0.925   1.722   6.952  0.4791  0.2882  0.2307
 8265SOL    HW136257   0.862   1.753   6.887  0.5876  0.2287  0.0966
 8265SOL    HW236258   1.001   1.718   6.893 -0.9044  1.4173 -1.6502
 8266SOL     OW36259   4.421   2.952  16.205  0.3589 -0.6040  0.1813
 8266SOL    HW136260   4.502   2.998  16.185  0.2706  0.7653  2.8192
 8266SOL    HW236261   4.451   2.921  16.290 -0.8079 -0.4872  0.6463
 8267SOL     OW36262   3.549   0.519   9.571 -0.2123  0.2321 -0.1934
 8267SOL    HW136263   3.558   0.441   9.625 -0.7862 -0.8664 -1.6696
 8267SOL    HW236264   3.455   0.538   9.579 -0.0720  0.7256  0.3175
 8268SOL     OW36265   0.383   4.607   3.380 -0.2346 -0.3458 -0.3182
 8268SOL    HW136266   0.317   4.656   3.430 -0.5337 -0.4031 -0.6549
 8268SOL    HW236267   0.336   4.612   3.296 -0.4517  1.5234 -0.0760
 8269SOL     OW36268   3.894   4.289  14.280 -0.2477  0.2060 -0.1605
 8269SOL    HW136269   3.947   4.286  14.200 -0.7446  0.1431 -0.4884
 8269SOL    HW236270   3.895   4.197  14.307  0.7923  0.5490  0.9700
 8270SOL     OW36271   1.746   1.501   0.919  0.1065 -0.3228  0.3333
 8270SOL    HW136272   1.662   1.457   0.930 -0.0118 -0.7186 -2.2186
 8270SOL    HW236273   1.737   1.573   0.982  1.0286  0.8307 -0.8414
 8271SOL     OW36274   2.617   0.739  11.489 -0.0526  0.1615  0.6113
 8271SOL    HW136275   2.579   0.760  11.575  3.4748  0.9864  1.9456
 8271SOL    HW236276   2.704   0.706  11.512  0.3937  1.4380  0.7289
 8272SOL     OW36277   0.160   0.118   9.983  0.3521  0.7855  0.1235
 8272SOL    HW136278   0.066   0.131   9.999  0.0388  0.1149 -1.1085
 8272SOL    HW236279   0.158   0.096   9.890  1.1320  0.0500  0.2813
 8273SOL     OW36280   1.343   3.810   2.010  0.2735  0.1594 -0.1618
 8273SOL    HW136281   1.396   3.731   2.017 -0.0245  0.1421  1.8517
 8273SOL    HW236282   1.410   3.861   2.055  0.3093  0.2006 -0.2600
 8274SOL     OW36283   1.357   3.662   2.806 -0.2739  0.0502  0.8777
 8274SOL    HW136284   1.279   3.654   2.752  0.6325  2.9977 -0.8816
 8274SOL    HW236285   1.391   3.748   2.781  0.4222 -0.3435  0.4642
 8275SOL     OW36286   3.720   4.260  13.025 -0.5766 -0.0112  0.7788
 8275SOL    HW136287   3.659   4.231  12.957 -0.0536  1.2854 -0.2328
 8275SOL    HW236288   3.697   4.208  13.103 -0.7814  0.8825  1.3106
 8276SOL     OW36289   1.251   4.281  12.895 -0.2703  0.2003 -0.2392
 8276SOL    HW136290   1.265   4.189  12.873  1.8763  0.3620  0.4395
 8276SOL    HW236291   1.161   4.301  12.870 -0.5427 -0.5668  0.1268
 8277SOL     OW36292   3.635   4.274   4.315 -0.0245 -0.3680 -0.7231
 8277SOL    HW136293   3.649   4.183   4.343  1.0983  0.0584  0.0901
 8277SOL    HW236294   3.649   4.262   4.221  1.4789 -0.1582 -0.5230
 8278SOL     OW36295   4.533   0.984  17.670 -0.2487 -0.1578 -0.9293
 8278SOL    HW136296   4.620   1.021  17.657 -0.5031 -0.1921 -2.6749
 8278SOL    HW236297   4.472   1.022  17.607  0.0652  1.2322 -0.3931
 8279SOL     OW36298   3.884   4.650   0.719 -0.4334 -0.1619 -0.3211
 8279SOL    HW136299   3.973   4.671   0.690 -1.6318  3.3794 -1.3799
 8279SOL    HW236300   3.865   4.591   0.645 -1.5904  1.6539 -1.4685
 8280SOL     OW36301   1.407   4.424  15.405 -0.4662  0.2487 -0.0707
 8280SOL    HW136302   1.390   4.330  15.397  1.2801 -0.1799  1.0301
 8280SOL    HW236303   1.503   4.426  15.409 -0.4764 -0.2590  0.5616
 8281SOL     OW36304   3.348   2.100  15.596 -0.8377  0.7052  0.4172
 8281SOL    HW136305   3.323   2.167  15.659  2.7571  0.0609  2.5249
 8281SOL    HW236306   3.417   2.143  15.544  0.7101 -0.4271  1.5497
 8282SOL     OW36307   3.547   1.030   5.569  0.1594  0.3019 -0.7777
 8282SOL    HW136308   3.471   1.058   5.518  0.4987  0.8437 -0.9830
 8282SOL    HW236309   3.504   0.956   5.612  1.4029  0.2019  0.2667
 8283SOL     OW36310   0.306   4.095  14.521 -0.1731  0.1181  0.3694
 8283SOL    HW136311   0.332   4.007  14.549 -1.2525  0.2694  1.8710
 8283SOL    HW236312   0.355   4.149  14.583 -0.4410  0.3296  0.3939
 8284SOL     OW36313   0.660   3.403   8.017  0.3903 -0.3362  0.0994
 8284SOL    HW136314   0.690   3.334   7.957  1.3547 -0.6480  0.9422
 8284SOL    HW236315   0.673   3.478   7.959 -1.0222 -0.9909 -1.0656
 8285SOL     OW36316   1.580   0.423  14.844 -0.7128 -0.0197  0.0603
 8285SOL    HW136317   1.606   0.501  14.796 -0.6755 -0.7666 -1.1379
 8285SOL    HW236318   1.576   0.366  14.767 -1.1036  0.2403 -0.1075
 8286SOL     OW36319   0.411   1.771   2.944  0.3738  0.5493 -0.2669
 8286SOL    HW136320   0.318   1.791   2.953 -0.4155 -3.6260  0.7262
 8286SOL    HW236321   0.417   1.788   2.850 -1.6789 -0.9523 -0.6598
 8287SOL     OW36322   0.713   4.191   4.369 -0.0656  0.1922 -0.4368
 8287SOL    HW136323   0.774   4.242   4.316 -1.6144  0.5023 -1.9303
 8287SOL    HW236324   0.780   4.177   4.436 -0.3339  1.0232  0.0114
 8288SOL     OW36325   3.133   1.108   5.783 -0.2432 -0.0839 -0.0838
 8288SOL    HW136326   3.084   1.124   5.863 -1.8884 -1.8880 -0.7500
 8288SOL    HW236327   3.189   1.037   5.814 -0.3209  0.0921  0.4710
 8289SOL     OW36328   0.523   3.317   9.492 -0.2004 -0.4227 -0.5710
 8289SOL    HW136329   0.575   3.267   9.554  0.5904 -2.1288 -2.5763
 8289SOL    HW236330   0.496   3.395   9.540  1.4375 -0.8381  1.0020
 8290SOL     OW36331   1.475   4.528   1.876  0.3817  0.2035  0.4311
 8290SOL    HW136332   1.496   4.434   1.884  0.1125  0.1371  0.3675
 8290SOL    HW236333   1.536   4.570   1.937  1.6253 -0.3259 -0.4690
 8291SOL     OW36334   0.405   3.844   3.115 -0.8077 -0.0021  0.4751
 8291SOL    HW136335   0.412   3.827   3.209  1.6961 -0.5249  0.1995
 8291SOL    HW236336   0.312   3.867   3.110 -0.1377  2.7633  0.7485
 8292SOL     OW36337   4.111   4.603   3.613  0.0327  0.0286 -0.7550
 8292SOL    HW136338   4.076   4.678   3.564 -1.4606 -1.0764 -1.3693
 8292SOL    HW236339   4.125   4.543   3.540 -0.9418 -2.0487  0.7604
 8293SOL     OW36340   3.126   3.713  13.173 -0.2234  0.0089 -0.1576
 8293SOL    HW136341   3.084   3.727  13.088  0.4619 -2.5695 -0.9088
 8293SOL    HW236342   3.210   3.759  13.163 -0.1946 -0.1245 -0.5499
 8294SOL     OW36343   3.747   0.516  15.878 -0.1000  0.2533 -0.3990
 8294SOL    HW136344   3.778   0.535  15.790  1.8340 -0.3408  0.1712
 8294SOL    HW236345   3.739   0.606  15.907  0.0842 -0.0210  0.5072
 8295SOL     OW36346   1.493   4.418   5.315  0.1759  0.4843 -0.2396
 8295SOL    HW136347   1.412   4.385   5.354 -0.2486  0.1439 -1.4199
 8295SOL    HW236348   1.454   4.465   5.241  0.5727  1.1287 -0.0411
 8296SOL     OW36349   3.847   0.626   2.027  1.0905  0.2744 -0.3735
 8296SOL    HW136350   3.788   0.559   2.061  0.6333  1.5665  1.3808
 8296SOL    HW236351   3.854   0.685   2.102  0.0893  0.6975 -0.6115
 8297SOL     OW36352   3.594   0.256  13.221  0.4778 -0.4355 -0.3122
 8297SOL    HW136353   3.608   0.243  13.315  1.3727 -2.1894 -0.6910
 8297SOL    HW236354   3.682   0.278  13.193  0.2794  1.3911  0.4833
 8298SOL     OW36355   3.963   4.134   4.198 -0.0844  0.2631 -0.6873
 8298SOL    HW136356   3.958   4.229   4.195 -0.3645  0.2391 -0.9077
 8298SOL    HW236357   4.045   4.132   4.247 -0.0816  0.7525 -0.6747
 8299SOL     OW36358   2.650   0.784   6.518  0.0042  0.0092  0.0421
 8299SOL    HW136359   2.629   0.828   6.436  0.5973  0.0336 -0.0989
 8299SOL    HW236360   2.576   0.724   6.528 -0.8698  0.8283 -1.4074
 8300SOL     OW36361   1.034   3.140   9.265 -0.4710 -0.1438 -0.1529
 8300SOL    HW136362   0.941   3.155   9.251  0.0025 -0.3742 -3.4049
 8300SOL    HW236363   1.067   3.230   9.264  1.9529 -1.0252 -0.5254
 8301SOL     OW36364   1.871   3.927   3.986  0.4234  0.2531  0.0913
 8301SOL    HW136365   1.916   3.877   3.918  1.0761  3.3888 -1.7612
 8301SOL    HW236366   1.938   3.934   4.055 -1.4985 -0.5893  2.0595
 8302SOL     OW36367   1.459   3.549   6.964 -0.5355  0.9618  0.0850
 8302SOL    HW136368   1.369   3.554   6.996 -0.8714 -3.7230 -0.1043
 8302SOL    HW236369   1.505   3.622   7.005  0.3401  0.5798 -0.2071
 8303SOL     OW36370   2.599   2.875  17.213  0.2205 -0.0132 -0.2112
 8303SOL    HW136371   2.583   2.950  17.157  0.7948  0.3452  0.1053
 8303SOL    HW236372   2.559   2.803  17.164 -0.0996 -0.1601  0.2615
 8304SOL     OW36373   4.460   4.161   6.024  0.2406  0.0652  0.1546
 8304SOL    HW136374   4.544   4.114   6.023 -0.1197 -0.5814 -2.9258
 8304SOL    HW236375   4.487   4.243   5.983 -1.3974  0.1840 -0.6776
 8305SOL     OW36376   0.132   0.267  13.298  0.1641  0.2687  0.4758
 8305SOL    HW136377   0.151   0.233  13.385  1.2521  1.9286  0.8848
 8305SOL    HW236378   0.215   0.238  13.261  0.2778  0.9787  0.1750
 8306SOL     OW36379   1.580   0.080   9.335  0.6137 -0.2919  0.2099
 8306SOL    HW136380   1.493   0.098   9.371  0.4266 -1.1207  0.1816
 8306SOL    HW236381   1.564   4.720   9.292 -1.7683  0.9047 -1.2779
 8307SOL     OW36382   2.340   1.868   4.214  0.2712 -0.0821  0.0244
 8307SOL    HW136383   2.411   1.890   4.274 -0.2594  0.7343  0.3433
 8307SOL    HW236384   2.352   1.937   4.149 -1.5857  0.5229  0.3345
 8308SOL     OW36385   3.012   0.275   3.396 -0.5069  0.5013  0.0631
 8308SOL    HW136386   2.932   0.268   3.448 -0.0937  1.7234  0.8633
 8308SOL    HW236387   2.996   0.203   3.335  0.3818  0.4990 -0.1713
 8309SOL     OW36388   4.326   3.622   1.754 -0.4002  1.0863 -0.1335
 8309SOL    HW136389   4.370   3.538   1.766 -0.1851  1.2625  0.3055
 8309SOL    HW236390   4.399   3.680   1.733  0.0337  1.0336  1.2058
 8310SOL     OW36391   0.709   2.483  12.258 -0.3735  0.2919 -0.1501
 8310SOL    HW136392   0.795   2.474  12.216  1.4712  1.1953  3.4277
 8310SOL    HW236393   0.677   2.393  12.249 -1.1587  0.6990 -1.3849
 8311SOL     OW36394   2.740   3.087   5.512 -0.1469  0.3593 -0.5694
 8311SOL    HW136395   2.735   3.161   5.572  2.0423  0.4885 -0.5622
 8311SOL    HW236396   2.788   3.120   5.436  1.6055  0.3960  0.5597
 8312SOL     OW36397   2.103   4.391   8.106 -0.2407 -0.1158  0.4246
 8312SOL    HW136398   2.175   4.433   8.060 -2.1330  1.3135 -1.2778
 8312SOL    HW236399   2.144   4.361   8.187 -0.7541  1.5680  1.3231
 8313SOL     OW36400   0.617   2.241   9.557 -0.3072  0.3261  0.4776
 8313SOL    HW136401   0.579   2.215   9.641  0.4222 -1.5619  0.2164
 8313SOL    HW236402   0.546   2.302   9.534  1.3470  1.7181 -0.8800
 8314SOL     OW36403   0.372   1.144   0.880 -0.4976  0.3582  0.2980
 8314SOL    HW136404   0.357   1.110   0.792 -0.4000 -1.0026  0.8133
 8314SOL    HW236405   0.338   1.073   0.934  1.2479 -1.6823 -1.3226
 8315SOL     OW36406   4.062   2.200   8.387  0.7690 -0.1591  0.1075
 8315SOL    HW136407   4.096   2.212   8.476  0.2345 -1.5443  0.5049
 8315SOL    HW236408   4.096   2.115   8.359 -0.0105  0.3319 -2.3644
 8316SOL     OW36409   1.175   1.656  17.443  0.0190  1.0313  0.1271
 8316SOL    HW136410   1.213   1.620  17.523  0.4568 -1.4927 -1.2451
 8316SOL    HW236411   1.097   1.704  17.473 -0.0621  0.9868 -0.0118
 8317SOL     OW36412   3.156   0.092   5.882  0.4658  0.1090 -0.0079
 8317SOL    HW136413   3.187   0.151   5.813  0.7701  2.5971  2.2532
 8317SOL    HW236414   3.081   0.043   5.849 -0.7387  1.8196  0.1928
 8318SOL     OW36415   4.553   0.528   5.064 -0.7792 -0.0779  0.3337
 8318SOL    HW136416   4.554   0.556   4.973 -0.3413  1.0398  0.6859
 8318SOL    HW236417   4.473   0.477   5.049  0.4996 -2.0274  0.1772
 8319SOL     OW36418   4.629   4.597   7.583 -0.2901  0.0188 -0.1817
 8319SOL    HW136419   4.703   4.622   7.528 -1.3958 -1.6142 -2.4145
 8319SOL    HW236420   4.671   4.522   7.625 -1.9942 -0.2536  1.0441
 8320SOL     OW36421   4.615   2.532   2.006  0.7575  0.1108  0.5717
 8320SOL    HW136422   4.705   2.565   2.008  1.2296 -1.2610  1.8995
 8320SOL    HW236423   4.592   2.563   1.919  2.0581  0.8983  0.5069
 8321SOL     OW36424   0.971   1.811   1.916 -0.4267  0.3613 -0.1496
 8321SOL    HW136425   0.926   1.823   2.000 -1.9627  1.3452 -1.1176
 8321SOL    HW236426   0.952   1.885   1.859 -2.0443  1.7944  2.2181
 8322SOL     OW36427   0.179   1.658   9.047 -0.2963  0.2568 -0.0482
 8322SOL    HW136428   0.213   1.735   9.093  0.5768 -0.0532 -0.1678
 8322SOL    HW236429   0.237   1.649   8.972  0.4216  0.1464  0.5169
 8323SOL     OW36430   3.086   0.459   7.017  0.7565 -0.3094  0.0240
 8323SOL    HW136431   3.083   0.472   6.923  0.2348  1.4193  0.2906
 8323SOL    HW236432   3.170   0.496   7.045 -0.4347  1.8037  0.7880
 8324SOL     OW36433   2.594   4.531  13.467  0.5411  0.5503 -0.1545
 8324SOL    HW136434   2.553   4.581  13.538  0.0090  1.8849 -1.4022
 8324SOL    HW236435   2.532   4.533  13.394 -2.0247 -1.7372  1.9328
 8325SOL     OW36436   1.836   0.287   8.019 -0.3830  0.2799 -0.4168
 8325SOL    HW136437   1.845   0.270   8.113  0.5721  0.3397 -0.4950
 8325SOL    HW236438   1.879   0.372   8.021 -1.5327  0.8104  1.4746
 8326SOL     OW36439   3.130   3.205   4.929  0.2901  0.0361  0.4391
 8326SOL    HW136440   3.089   3.141   4.869 -0.1642 -1.1496  2.0173
 8326SOL    HW236441   3.204   3.232   4.874 -0.9587 -0.0651 -1.3029
 8327SOL     OW36442   0.298   3.258  13.035 -0.4943 -0.4310 -0.0261
 8327SOL    HW136443   0.357   3.289  13.104 -0.0743  1.9977 -1.4799
 8327SOL    HW236444   0.310   3.164  13.040  0.6322 -0.2535  0.5346
 8328SOL     OW36445   4.146   2.095   1.150  0.1811  0.0012  0.1294
 8328SOL    HW136446   4.147   2.166   1.086 -1.4043 -1.0124 -1.0416
 8328SOL    HW236447   4.128   2.149   1.226  3.1033 -0.2124  0.9484
 8329SOL     OW36448   3.519   4.421   1.184  0.1429 -0.2296  0.0990
 8329SOL    HW136449   3.598   4.368   1.171 -0.4737 -0.4417 -2.7611
 8329SOL    HW236450   3.466   4.403   1.106 -0.6737 -1.9282  1.0343
 8330SOL     OW36451   2.304   1.851  17.427  0.9091  0.1339 -0.5639
 8330SOL    HW136452   2.323   1.847  17.334  3.0296 -1.8341 -0.0472
 8330SOL    HW236453   2.363   1.925  17.444 -0.3808  1.4286 -1.7601
 8331SOL     OW36454   0.199   2.929   6.001  0.6393 -0.3548 -0.3663
 8331SOL    HW136455   0.197   3.013   6.047 -0.1098 -0.2008 -0.6814
 8331SOL    HW236456   0.291   2.904   6.006  0.8086 -0.3624 -3.4101
 8332SOL     OW36457   0.201   0.962   7.251 -0.5287  0.2464 -0.3420
 8332SOL    HW136458   0.123   1.010   7.278 -0.5779  0.9670 -1.7530
 8332SOL    HW236459   0.245   1.019   7.189 -0.4386 -0.0112 -0.5142
 8333SOL     OW36460   2.129   3.405   8.485 -0.0505 -0.3080 -0.8796
 8333SOL    HW136461   2.127   3.317   8.448  0.8296 -0.5502 -0.3523
 8333SOL    HW236462   2.144   3.463   8.411  1.4115 -2.1113 -2.0015
 8334SOL     OW36463   0.291   0.300   0.495  0.2023  0.1985  0.3019
 8334SOL    HW136464   0.263   0.228   0.551 -0.3550  1.0384  1.0921
 8334SOL    HW236465   0.317   0.250   0.417  0.4528  0.8979 -0.0658
 8335SOL     OW36466   4.110   3.602   5.413  0.0657  0.6193  0.0783
 8335SOL    HW136467   4.031   3.560   5.379  0.9856 -0.1437 -1.1136
 8335SOL    HW236468   4.122   3.668   5.345 -0.3309  0.2611 -0.3358
 8336SOL     OW36469   3.595   0.024   7.849 -0.0773  0.3778 -0.4659
 8336SOL    HW136470   3.589   0.068   7.764 -0.0389  2.1384  0.4373
 8336SOL    HW236471   3.680   4.707   7.838  0.4820  0.1491  4.6681
 8337SOL     OW36472   3.073   0.081   4.880  0.3468  0.0892  0.5288
 8337SOL    HW136473   3.154   0.045   4.843  0.0100  1.9023 -1.9427
 8337SOL    HW236474   3.032   0.147   4.824 -1.2037  0.0015  1.5824
 8338SOL     OW36475   3.612   0.996   4.972 -0.0727  0.2405  0.0075
 8338SOL    HW136476   3.547   0.955   5.030 -0.1507  0.2275 -0.0906
 8338SOL    HW236477   3.640   1.065   5.032  1.8364 -0.8429  0.3342
 8339SOL     OW36478   3.371   4.723  12.053  0.2701  0.1242  0.0219
 8339SOL    HW136479   3.339   4.682  11.973  2.2243 -1.2009 -0.1032
 8339SOL    HW236480   3.464   4.702  12.043  0.5367  0.8597  0.9172
 8340SOL     OW36481   0.520   0.657   7.116 -0.3978  0.2392  0.5395
 8340SOL    HW136482   0.566   0.573   7.110  1.1991  1.1239  0.5102
 8340SOL    HW236483   0.492   0.657   7.208  1.1413 -2.5822  1.0134
 8341SOL     OW36484   2.694   2.553   1.102  0.1299  0.2368 -0.1945
 8341SOL    HW136485   2.695   2.647   1.084  1.0491  0.1171 -0.7467
 8341SOL    HW236486   2.732   2.513   1.024 -0.5930  1.1519 -1.0125
 8342SOL     OW36487   1.008   0.803  11.490 -0.1576  1.0756 -0.1486
 8342SOL    HW136488   1.074   0.867  11.464 -1.2149  1.5828 -1.5512
 8342SOL    HW236489   0.932   0.859  11.475  0.6942  1.4318 -3.0965
 8343SOL     OW36490   0.397   2.763   6.349 -0.2746  0.0608 -0.1253
 8343SOL    HW136491   0.491   2.775   6.342 -0.2693  0.5576  0.7225
 8343SOL    HW236492   0.391   2.720   6.435  1.2385  1.6900  0.8011
 8344SOL     OW36493   2.270   0.115   4.343 -0.1080 -1.0834 -0.3880
 8344SOL    HW136494   2.360   0.093   4.318  0.7752  0.9713  1.0081
 8344SOL    HW236495   2.261   0.040   4.403 -0.5282 -1.0937 -0.4643
 8345SOL     OW36496   3.380   3.530   4.158 -0.3178 -0.0142  0.1597
 8345SOL    HW136497   3.287   3.553   4.158  0.4685  3.1373  0.9320
 8345SOL    HW236498   3.414   3.608   4.115  1.0590 -1.2827 -1.0370
 8346SOL     OW36499   1.427   0.833   5.093  0.4501  0.1881  0.4044
 8346SOL    HW136500   1.523   0.841   5.097  0.1440  1.8278  4.7890
 8346SOL    HW236501   1.405   0.922   5.067 -0.0877  0.4576  1.8010
 8347SOL     OW36502   0.301   1.065   7.515  0.3183 -0.1226 -0.1714
 8347SOL    HW136503   0.364   1.074   7.444  0.7451  0.0042  0.2307
 8347SOL    HW236504   0.327   0.990   7.567 -0.2472 -0.0988  0.1542
 8348SOL     OW36505   2.793   1.037   6.240 -0.4476  0.6365  0.0704
 8348SOL    HW136506   2.698   1.033   6.248 -0.4921  0.0473 -0.6655
 8348SOL    HW236507   2.800   0.988   6.158 -0.6190 -1.5099  1.3342
 8349SOL     OW36508   1.733   3.062  13.836 -0.1139  0.2092 -0.1042
 8349SOL    HW136509   1.710   3.122  13.907 -0.1683 -0.5022  0.4783
 8349SOL    HW236510   1.796   3.003  13.877  1.3613  1.2577 -0.8535
 8350SOL     OW36511   2.456   1.756   1.290 -0.5753  0.1898  0.0610
 8350SOL    HW136512   2.382   1.812   1.267  0.2257  1.8569  1.5779
 8350SOL    HW236513   2.506   1.759   1.208 -0.4794 -0.3484  0.0983
 8351SOL     OW36514   3.875   1.423   6.483 -0.0887  0.2540 -0.2896
 8351SOL    HW136515   3.805   1.367   6.453 -2.1124  1.6879  1.7550
 8351SOL    HW236516   3.873   1.392   6.573  0.2234  1.1549  0.0351
 8352SOL     OW36517   4.564   3.735  11.829 -0.4961 -0.2830 -0.7919
 8352SOL    HW136518   4.632   3.776  11.776  0.1768  1.9879  1.8929
 8352SOL    HW236519   4.485   3.776  11.793 -0.4735 -1.0290 -1.7160
 8353SOL     OW36520   1.007   4.505   7.475  0.3239 -0.0697  0.5603
 8353SOL    HW136521   1.088   4.556   7.481  0.4604 -0.2251 -0.0534
 8353SOL    HW236522   0.960   4.562   7.536 -1.0789 -0.4612 -0.1542
 8354SOL     OW36523   2.909   1.680   5.131  0.7319 -0.0411  0.0113
 8354SOL    HW136524   2.820   1.714   5.139  0.0153 -2.0755  0.7422
 8354SOL    HW236525   2.947   1.748   5.076  1.0507  0.9922  1.5152
 8355SOL     OW36526   2.019   1.271   2.216  0.0851 -0.4105 -0.4219
 8355SOL    HW136527   2.049   1.359   2.194 -0.9626  0.3330  1.1571
 8355SOL    HW236528   1.925   1.286   2.207 -0.4401 -3.1989  0.5780
 8356SOL     OW36529   4.246   4.155   7.870 -0.4530  0.2315  0.2028
 8356SOL    HW136530   4.313   4.087   7.860 -2.3109 -1.4464 -0.7920
 8356SOL    HW236531   4.190   4.118   7.938 -0.4911  1.7694  1.0270
 8357SOL     OW36532   1.652   1.777   1.988  0.2781 -0.1088  0.2557
 8357SOL    HW136533   1.604   1.830   2.051 -1.1387 -2.5075  1.1756
 8357SOL    HW236534   1.594   1.763   1.913  0.3151 -1.3016  0.4561
 8358SOL     OW36535   1.837   1.690  16.020 -0.5173 -0.7023  0.2378
 8358SOL    HW136536   1.792   1.662  15.940 -1.3270  0.4435  0.2927
 8358SOL    HW236537   1.922   1.645  16.017  0.3443  0.8227  1.5284
 8359SOL     OW36538   0.851   4.470   5.140  0.2398 -0.1309 -0.1160
 8359SOL    HW136539   0.817   4.387   5.173  0.0741 -0.7047 -1.7108
 8359SOL    HW236540   0.778   4.484   5.079  0.3080  0.1380 -0.1336
 8360SOL     OW36541   3.438   1.590  13.385 -0.0225 -0.0302 -0.3133
 8360SOL    HW136542   3.346   1.608  13.362 -0.1646 -1.5088 -0.9132
 8360SOL    HW236543   3.487   1.636  13.317  0.2773  0.0833 -0.0177
 8361SOL     OW36544   4.167   4.626  16.947 -0.1458 -0.0563  0.1635
 8361SOL    HW136545   4.171   4.531  16.937 -1.5616  0.0435 -1.4089
 8361SOL    HW236546   4.246   4.652  16.899 -1.2225  2.6048 -0.1887
 8362SOL     OW36547   0.776   0.196  16.302 -0.1018 -0.6508  0.3177
 8362SOL    HW136548   0.716   0.182  16.228  0.6809  0.0942 -0.4679
 8362SOL    HW236549   0.854   0.151  16.269  0.1423 -0.5573  0.7765
 8363SOL     OW36550   4.060   4.696   7.334 -0.4528  0.3618  0.3057
 8363SOL    HW136551   4.100   0.010   7.412 -0.7747  0.0673  0.6111
 8363SOL    HW236552   4.007   0.045   7.302  0.4925  1.0823  0.3894
 8364SOL     OW36553   2.380   3.319   6.316  0.1549 -0.3313  0.2569
 8364SOL    HW136554   2.355   3.278   6.399  0.0390 -2.0063 -0.5978
 8364SOL    HW236555   2.298   3.330   6.266 -0.6090 -0.7103  1.4275
 8365SOL     OW36556   2.432   3.791   3.680  0.1411 -0.1746  0.1982
 8365SOL    HW136557   2.452   3.787   3.587 -1.2251  2.9171 -0.2481
 8365SOL    HW236558   2.360   3.854   3.674  0.6372  0.5368  1.4559
 8366SOL     OW36559   1.144   3.194   8.799 -0.2276  0.2850  0.0061
 8366SOL    HW136560   1.180   3.141   8.871 -0.6731 -0.5531 -0.3831
 8366SOL    HW236561   1.050   3.186   8.815 -0.2395 -1.2703 -0.8379
 8367SOL     OW36562   0.903   4.404   0.113 -0.2537  0.2721  0.3384
 8367SOL    HW136563   0.977   4.363   0.068 -0.0575 -2.6492  3.2954
 8367SOL    HW236564   0.927   4.494   0.135  0.5298  0.0705  0.3178
 8368SOL     OW36565   2.529   3.388   2.962 -0.2613 -0.1351 -0.2259
 8368SOL    HW136566   2.464   3.458   2.966  1.3528  1.3867 -0.7115
 8368SOL    HW236567   2.513   3.346   3.046 -0.7026 -0.1527 -0.3184
 8369SOL     OW36568   2.943   2.081   1.661 -0.0095  0.3457 -0.0088
 8369SOL    HW136569   2.949   1.995   1.618 -0.8439 -0.1926  0.9377
 8369SOL    HW236570   3.019   2.131   1.631 -0.3975  1.6201  1.1446
 8370SOL     OW36571   2.906   2.541   1.928  0.3514  0.5682 -0.3314
 8370SOL    HW136572   2.955   2.461   1.907 -0.6237 -0.2922  0.7154
 8370SOL    HW236573   2.936   2.598   1.858 -1.6785  0.9435 -0.8749
 8371SOL     OW36574   3.243   0.536   0.849 -0.1105 -0.0580 -0.2528
 8371SOL    HW136575   3.255   0.482   0.926  0.4034  0.3198 -0.0617
 8371SOL    HW236576   3.237   0.620   0.895 -0.4999  0.9057 -2.0401
 8372SOL     OW36577   1.147   1.989   6.022 -0.3628 -0.2445 -0.3969
 8372SOL    HW136578   1.104   2.064   6.063 -0.4756 -1.3449  1.5046
 8372SOL    HW236579   1.069   1.933   6.026 -0.5220  0.0476  0.7292
 8373SOL     OW36580   1.923   1.350   2.485  0.3837  0.2125 -0.1304
 8373SOL    HW136581   1.873   1.379   2.561  2.2729  2.1621  0.4021
 8373SOL    HW236582   1.850   1.333   2.425 -0.8079 -0.3629  1.5004
 8374SOL     OW36583   3.920   0.160  12.693  0.3333  0.0844  0.1435
 8374SOL    HW136584   3.943   0.244  12.733  2.0452 -0.4863  0.3761
 8374SOL    HW236585   3.871   0.118  12.763 -1.0029  1.0899 -0.2081
 8375SOL     OW36586   0.988   3.582   1.965 -0.1229  0.3517 -0.0500
 8375SOL    HW136587   0.908   3.603   2.013 -1.1617 -0.3508 -1.4459
 8375SOL    HW236588   1.036   3.539   2.036 -1.3394  0.4172  0.8120
 8376SOL     OW36589   1.184   1.256   5.162  0.2299 -0.2165  0.0244
 8376SOL    HW136590   1.168   1.338   5.208  2.8495 -0.1710  0.9024
 8376SOL    HW236591   1.120   1.252   5.091 -1.2669  2.9600  1.2261
 8377SOL     OW36592   2.542   2.384   8.843  0.7138 -0.0255 -0.1175
 8377SOL    HW136593   2.611   2.339   8.793  1.2811 -0.9683  1.4969
 8377SOL    HW236594   2.577   2.468   8.871 -1.2434  0.4619  0.8761
 8378SOL     OW36595   3.985   3.188   0.109 -0.1433 -0.3418  0.4417
 8378SOL    HW136596   3.890   3.193   0.117 -0.2645  1.4117 -2.1866
 8378SOL    HW236597   3.992   3.095   0.130 -0.8643 -0.1628  1.4781
 8379SOL     OW36598   1.324   0.819   7.984 -0.2962  0.4601  0.2294
 8379SOL    HW136599   1.314   0.828   7.889  2.4901 -1.0670 -0.2048
 8379SOL    HW236600   1.342   0.907   8.017  0.0470  0.3434  0.3509
 8380SOL     OW36601   2.803   2.526   5.888  0.3688  0.0665 -0.1444
 8380SOL    HW136602   2.787   2.477   5.807  0.6372 -1.7859  0.9254
 8380SOL    HW236603   2.749   2.602   5.870  1.3561  1.0939  1.2722
 8381SOL     OW36604   3.149   0.079  10.162 -0.0089  0.0319  0.2031
 8381SOL    HW136605   3.104   0.001  10.195 -0.1202  0.0655  0.1310
 8381SOL    HW236606   3.120   0.146  10.223 -0.2643  1.7359 -1.7716
 8382SOL     OW36607   3.056   1.108   6.051 -0.0764  0.2674 -0.2022
 8382SOL    HW136608   3.015   1.179   6.101 -2.2282 -1.2743  0.1967
 8382SOL    HW236609   3.121   1.082   6.116 -1.0393 -1.6818 -0.0456
 8383SOL     OW36610   1.575   1.611   8.408 -0.4831 -0.4006  0.0324
 8383SOL    HW136611   1.642   1.557   8.366 -0.6163 -0.4693 -0.0898
 8383SOL    HW236612   1.543   1.553   8.477  0.8078  0.1244  1.0739
 8384SOL     OW36613   1.325   0.916   4.616 -0.5067 -0.1212 -0.1664
 8384SOL    HW136614   1.247   0.914   4.671  0.3818  1.8294  1.1288
 8384SOL    HW236615   1.280   0.894   4.534 -0.2970  0.9310 -0.5535
 8385SOL     OW36616   0.368   1.646   8.847 -0.0638 -0.1664  0.2284
 8385SOL    HW136617   0.407   1.720   8.800 -0.9483  0.0314 -0.1964
 8385SOL    HW236618   0.405   1.575   8.795 -0.6874  1.5378 -2.5501
 8386SOL     OW36619   4.024   2.019   4.030 -0.1100  0.9771 -0.1728
 8386SOL    HW136620   3.956   2.043   3.968 -0.9748 -0.2360  0.3142
 8386SOL    HW236621   3.977   1.954   4.082  2.9674  0.4991  2.0464
 8387SOL     OW36622   4.280   3.453   7.568 -0.1834  0.1711 -0.1503
 8387SOL    HW136623   4.351   3.516   7.559 -2.4578  2.5070 -1.7957
 8387SOL    HW236624   4.286   3.435   7.662  1.0520 -0.1631 -0.2919
 8388SOL     OW36625   0.484   2.955   8.503  0.6249  0.0336  0.5891
 8388SOL    HW136626   0.567   2.910   8.518  0.5414 -0.5167 -0.6294
 8388SOL    HW236627   0.463   2.975   8.594 -4.6115 -0.2589 -0.5841
 8389SOL     OW36628   1.939   3.860   6.863 -0.1099 -0.1761 -0.2125
 8389SOL    HW136629   1.973   3.949   6.876  1.2628 -0.5868 -0.9965
 8389SOL    HW236630   1.922   3.847   6.770  0.5864  2.1021 -0.6537
 8390SOL     OW36631   0.111   0.080  13.065 -0.1985 -0.2439 -0.0837
 8390SOL    HW136632   0.046   0.101  13.131  0.1143  0.4811 -0.0105
 8390SOL    HW236633   0.188   0.081  13.122 -0.3388  0.1619  0.0909
 8391SOL     OW36634   0.621   1.124   3.883  0.6765  0.7529 -0.1507
 8391SOL    HW136635   0.647   1.048   3.936  0.7056  0.6063 -0.3746
 8391SOL    HW236636   0.704   1.168   3.867  1.2900  0.3729  1.9415
 8392SOL     OW36637   3.313   2.745   7.297  0.1662 -0.4097  0.0308
 8392SOL    HW136638   3.381   2.708   7.354  0.8509  0.9941  0.1157
 8392SOL    HW236639   3.265   2.669   7.265 -0.9616  0.1408  0.4388
 8393SOL     OW36640   0.891   3.041   7.562  0.0148 -0.5623  0.3832
 8393SOL    HW136641   0.940   3.005   7.488 -1.6696  0.7517 -1.4007
 8393SOL    HW236642   0.796   3.038   7.547  0.3638 -2.0386 -1.6672
 8394SOL     OW36643   2.351   3.224   2.132  0.2276 -0.0959 -0.2711
 8394SOL    HW136644   2.354   3.289   2.062 -2.3499  0.3182 -0.0034
 8394SOL    HW236645   2.327   3.282   2.204 -1.2567 -0.4058 -0.4972
 8395SOL     OW36646   2.651   0.727   4.677  0.3802 -0.4575  0.3171
 8395SOL    HW136647   2.578   0.739   4.738 -0.8722 -1.7134 -0.9339
 8395SOL    HW236648   2.708   0.802   4.696 -1.7410  1.2192 -0.0072
 8396SOL     OW36649   1.070   3.628   8.770  0.2503 -0.1582 -0.0495
 8396SOL    HW136650   1.027   3.561   8.823 -0.6719  1.1738  0.8654
 8396SOL    HW236651   1.001   3.692   8.752 -0.3176 -0.9558 -0.7406
 8397SOL     OW36652   1.742   2.102  16.108  0.3175  0.1096  0.0688
 8397SOL    HW136653   1.762   2.141  16.023 -2.9794 -1.2412 -1.3365
 8397SOL    HW236654   1.687   2.025  16.091  0.5497 -0.0083 -0.1405
 8398SOL     OW36655   0.377   2.790   3.508 -0.3152  0.5873  1.0649
 8398SOL    HW136656   0.333   2.782   3.592 -0.5125  0.7512  0.9802
 8398SOL    HW236657   0.304   2.773   3.447 -0.1717 -1.8074  1.5498
 8399SOL     OW36658   2.893   3.923   6.542  0.9048 -0.1865  0.4490
 8399SOL    HW136659   2.871   3.930   6.449  3.3169 -0.2268 -0.1092
 8399SOL    HW236660   2.986   3.919   6.523  0.9615  1.2160  0.4325
 8400SOL     OW36661   2.884   1.561  13.781 -0.3147  0.3848 -0.8848
 8400SOL    HW136662   2.973   1.540  13.754 -0.2318  1.0416 -1.1444
 8400SOL    HW236663   2.848   1.593  13.698 -0.5920  2.0920 -0.1137
 8401SOL     OW36664   2.760   0.248  10.319  0.7595  0.5004 -0.1719
 8401SOL    HW136665   2.739   0.187  10.249  0.2250  0.2717  0.1884
 8401SOL    HW236666   2.854   0.240  10.336  0.3521  0.1917  1.9852
 8402SOL     OW36667   3.447   1.478   7.026  0.0920 -0.1131 -0.0147
 8402SOL    HW136668   3.374   1.541   7.021  1.3584  1.3508 -0.1115
 8402SOL    HW236669   3.397   1.427   6.962  0.4947  0.1422 -0.5337
 8403SOL     OW36670   0.716   0.492  10.067  0.1580 -0.5999  0.1470
 8403SOL    HW136671   0.795   0.540  10.043 -1.9250  1.2899 -2.9236
 8403SOL    HW236672   0.715   0.501  10.162  1.1777 -0.2210  0.1175
 8404SOL     OW36673   3.458   3.106   4.337  0.1427 -0.0708 -0.2081
 8404SOL    HW136674   3.366   3.132   4.335 -0.3530 -1.7092  0.9191
 8404SOL    HW236675   3.476   3.112   4.243  0.0135 -0.9313 -0.2900
 8405SOL     OW36676   1.376   1.133  12.183 -0.1221  0.1094  0.5618
 8405SOL    HW136677   1.407   1.062  12.239  1.1774 -1.3786 -2.0449
 8405SOL    HW236678   1.297   1.155  12.232 -0.3576  0.7701 -0.1168
 8406SOL     OW36679   2.800   0.587   2.931 -0.4893 -0.1787  0.2940
 8406SOL    HW136680   2.744   0.630   2.867  0.1840  0.7839  0.3471
 8406SOL    HW236681   2.774   0.496   2.922  2.8011 -0.9243 -1.8052
 8407SOL     OW36682   0.234   3.824   3.829  0.1336  0.0408  0.1124
 8407SOL    HW136683   0.302   3.809   3.764  0.2589  1.0065  0.0229
 8407SOL    HW236684   0.281   3.807   3.911  0.3339  2.2622  0.4665
 8408SOL     OW36685   3.871   2.051  13.869  0.2641  0.1207 -0.4636
 8408SOL    HW136686   3.861   2.130  13.922 -0.3097  0.2429 -0.7569
 8408SOL    HW236687   3.948   2.014  13.911 -0.7710  0.3593  1.6215
 8409SOL     OW36688   1.109   4.027   5.677 -0.7583 -0.5299 -0.1278
 8409SOL    HW136689   1.080   4.048   5.588 -0.8951 -0.0801  0.0221
 8409SOL    HW236690   1.167   3.951   5.666  1.5818  1.5489 -2.3805
 8410SOL     OW36691   1.299   0.156   7.201 -0.4546 -0.7480  0.0394
 8410SOL    HW136692   1.373   0.170   7.261 -0.5892 -0.4197  0.1314
 8410SOL    HW236693   1.245   0.232   7.222  2.0594  1.1204 -0.2218
 8411SOL     OW36694   2.681   4.659   5.440  0.0216 -0.6988 -0.1703
 8411SOL    HW136695   2.754   4.688   5.495 -0.4638  0.5970 -0.2129
 8411SOL    HW236696   2.721   4.580   5.404 -0.3644 -3.0220  4.4805
 8412SOL     OW36697   3.549   3.673   9.427 -0.4280 -0.2929  0.0526
 8412SOL    HW136698   3.548   3.617   9.505 -0.7272 -0.3793 -0.0139
 8412SOL    HW236699   3.511   3.750   9.470 -0.0889  0.3176 -0.7411
 8413SOL     OW36700   2.603   4.426   3.196  0.6703 -0.1746 -0.0773
 8413SOL    HW136701   2.513   4.404   3.222  0.3065 -0.3396 -1.4726
 8413SOL    HW236702   2.641   4.356   3.143 -1.5190 -0.9691 -0.5941
 8414SOL     OW36703   4.518   2.743   7.020 -0.1480  0.2306  0.1589
 8414SOL    HW136704   4.599   2.779   6.983  2.0630 -2.9781  1.8922
 8414SOL    HW236705   4.487   2.823   7.063  0.6760 -0.6780  2.4553
 8415SOL     OW36706   0.175   4.274   0.112  0.2798  0.1099  0.5495
 8415SOL    HW136707   0.111   4.280   0.041  0.1043  0.4259  0.7336
 8415SOL    HW236708   0.110   4.230   0.167 -0.7785  0.0579 -0.7230
 8416SOL     OW36709   2.361   1.630   6.756  0.4204  0.1532 -0.0106
 8416SOL    HW136710   2.381   1.558   6.695  3.8886  0.1434  1.1775
 8416SOL    HW236711   2.429   1.611   6.820 -0.5031 -0.7788  0.7058
 8417SOL     OW36712   3.786   0.254   8.900 -0.0905 -0.1714 -0.3097
 8417SOL    HW136713   3.839   0.332   8.882 -0.3845  0.2079  0.4430
 8417SOL    HW236714   3.741   0.247   8.816 -1.4309  1.5936  0.2533
 8418SOL     OW36715   0.785   0.029   6.463 -0.0300 -0.2615 -0.2837
 8418SOL    HW136716   0.835   0.013   6.383  1.0393  0.1270  0.3106
 8418SOL    HW236717   0.867   0.036   6.513 -0.5659 -1.4020  0.7566
 8419SOL     OW36718   1.864   2.599   7.161  0.1798  0.1851  0.1578
 8419SOL    HW136719   1.926   2.551   7.215 -0.4865 -0.5094  0.2957
 8419SOL    HW236720   1.886   2.573   7.072  1.5496 -1.6634  1.0221
 8420SOL     OW36721   1.669   4.022   8.602  0.3272  0.4808  0.2751
 8420SOL    HW136722   1.585   4.028   8.555  0.0396 -1.8191  0.5149
 8420SOL    HW236723   1.667   4.109   8.641 -1.9293  0.1801  0.8134
 8421SOL     OW36724   1.031   2.396   6.177  0.4943  0.3399 -0.0173
 8421SOL    HW136725   0.994   2.351   6.253  0.3730 -0.4146 -0.5262
 8421SOL    HW236726   1.124   2.401   6.197  1.0789 -0.4610 -2.6217
 8422SOL     OW36727   4.270   4.474   2.514  0.6629 -0.5014  0.2506
 8422SOL    HW136728   4.317   4.392   2.532  1.6010  0.1418  0.7356
 8422SOL    HW236729   4.188   4.436   2.483 -0.3154  1.1516  0.8159
 8423SOL     OW36730   3.861   0.902  16.101 -0.1056  0.2127 -0.0665
 8423SOL    HW136731   3.835   0.969  16.163 -0.7479 -1.4725  1.4795
 8423SOL    HW236732   3.923   0.859  16.160  0.5740 -1.1170 -1.7333
 8424SOL     OW36733   3.531   4.013   7.384  0.1680 -0.3953  0.3040
 8424SOL    HW136734   3.487   4.006   7.469 -1.3605 -0.0704 -0.4532
 8424SOL    HW236735   3.484   4.085   7.343  2.7542  1.0344 -0.1159
 8425SOL     OW36736   3.103   3.325   8.376  0.4443 -0.4144  0.1317
 8425SOL    HW136737   3.085   3.347   8.284 -1.0724 -0.4465  0.4348
 8425SOL    HW236738   3.088   3.407   8.423  2.2361  1.4859 -2.5619
 8426SOL     OW36739   1.526   1.803   9.795 -0.7431  0.1653  0.5068
 8426SOL    HW136740   1.589   1.821   9.864  0.4990  1.0124 -0.8452
 8426SOL    HW236741   1.522   1.881   9.740 -2.4737  1.4195  2.4004
 8427SOL     OW36742   0.487   0.397  13.796  0.1342 -0.5696 -0.0750
 8427SOL    HW136743   0.420   0.329  13.798 -0.7682  0.3907  2.9425
 8427SOL    HW236744   0.561   0.350  13.833 -0.0151  0.3108  1.3467
 8428SOL     OW36745   1.091   3.214   1.850  0.2452  1.0554  0.4185
 8428SOL    HW136746   1.106   3.132   1.898 -2.9538  1.0715  1.4177
 8428SOL    HW236747   1.170   3.217   1.796  1.4161  1.0869  2.1317
 8429SOL     OW36748   2.266   1.807   8.334  0.1723 -0.4011  0.1204
 8429SOL    HW136749   2.314   1.888   8.315  0.5891 -0.7896 -0.4616
 8429SOL    HW236750   2.187   1.818   8.281  1.9603  1.6783 -2.0562
 8430SOL     OW36751   2.428   0.158  17.180 -0.8930 -0.5961  0.6267
 8430SOL    HW136752   2.405   0.086  17.239 -0.7587  0.1042  1.5305
 8430SOL    HW236753   2.489   0.213  17.229 -0.2528 -2.1396  1.5418
 8431SOL     OW36754   1.663   0.292  10.290  0.0934  0.5384 -0.5744
 8431SOL    HW136755   1.664   0.353  10.364  2.4319  0.8091 -0.8323
 8431SOL    HW236756   1.580   0.245  10.301  0.5077  0.1426  0.8774
 8432SOL     OW36757   1.919   0.502  16.281  0.0713 -0.5494  0.1855
 8432SOL    HW136758   1.922   0.470  16.190 -2.8299  1.6908 -0.7151
 8432SOL    HW236759   1.901   0.595  16.271 -1.9409 -0.8657  0.7434
 8433SOL     OW36760   2.162   0.670   2.241  0.0718  0.0411  0.4330
 8433SOL    HW136761   2.187   0.756   2.273 -2.7857  0.9354  0.2604
 8433SOL    HW236762   2.229   0.642   2.178 -2.1384  0.2065 -2.0031
 8434SOL     OW36763   3.504   2.027   2.622  0.4408 -0.7240  0.5185
 8434SOL    HW136764   3.473   2.078   2.697  1.0816 -0.3926  0.5576
 8434SOL    HW236765   3.516   2.100   2.561  0.6383 -2.3381 -1.3625
 8435SOL     OW36766   1.490   1.945  14.535  0.1535 -0.0247 -0.2823
 8435SOL    HW136767   1.433   1.896  14.594 -0.8998 -0.4669 -1.6568
 8435SOL    HW236768   1.568   1.891  14.521  0.7800  1.1442 -1.2992
 8436SOL     OW36769   2.968   4.691   3.248  0.1790 -0.0360 -0.4212
 8436SOL    HW136770   3.032   4.674   3.317 -0.9848  0.6110  0.8231
 8436SOL    HW236771   2.888   4.664   3.294  2.2791 -1.5561  2.3726
 8437SOL     OW36772   1.953   3.186  16.189 -0.1086 -0.6718  0.5544
 8437SOL    HW136773   1.976   3.261  16.243  2.3393 -1.8705  1.1445
 8437SOL    HW236774   2.038   3.159  16.154  1.6989  0.9842  3.6836
 8438SOL     OW36775   3.675   2.283   8.442 -0.0687 -0.0981  0.2186
 8438SOL    HW136776   3.628   2.296   8.359 -0.4320 -1.3516  0.2258
 8438SOL    HW236777   3.603   2.296   8.504  0.2291  0.6320  0.4007
 8439SOL     OW36778   3.423   1.153   2.880  0.5181 -0.0085  0.5501
 8439SOL    HW136779   3.419   1.061   2.853  0.3670  0.2958 -0.4739
 8439SOL    HW236780   3.337   1.177   2.847  0.0948 -1.0781  0.8661
 8440SOL     OW36781   2.412   1.133   6.428  0.0412  0.1387  0.0417
 8440SOL    HW136782   2.412   1.053   6.375  0.3156 -1.1432  1.9802
 8440SOL    HW236783   2.360   1.111   6.506  1.2340  0.1418  0.8336
 8441SOL     OW36784   1.638   0.861   3.744 -0.2975 -0.0030  0.0582
 8441SOL    HW136785   1.682   0.888   3.663 -0.4560  0.9187  0.2771
 8441SOL    HW236786   1.701   0.796   3.774  1.1828  1.8639  0.9999
 8442SOL     OW36787   0.748   2.419  17.436  0.3958  0.2936  0.0189
 8442SOL    HW136788   0.701   2.337  17.454  0.0316  0.4163 -0.3770
 8442SOL    HW236789   0.676   2.482  17.437 -1.0990 -1.4282  0.8697
 8443SOL     OW36790   1.427   2.621   1.943 -0.1961 -0.3803  0.6309
 8443SOL    HW136791   1.462   2.678   1.874 -0.7778 -0.7517  0.0310
 8443SOL    HW236792   1.477   2.665   2.012 -0.0849 -0.0691  0.3547
 8444SOL     OW36793   3.665   3.517  10.316 -0.2354  0.0652 -0.5506
 8444SOL    HW136794   3.644   3.607  10.340  2.4108  0.7913 -0.9400
 8444SOL    HW236795   3.635   3.475  10.397  1.9464  0.4077  0.4321
 8445SOL     OW36796   3.486   2.321   1.204 -0.1021  0.3229 -0.1360
 8445SOL    HW136797   3.559   2.369   1.242  0.1167  0.3208 -0.5562
 8445SOL    HW236798   3.542   2.249   1.175 -2.9201 -1.5197 -1.0995
 8446SOL     OW36799   2.801   1.604   9.584 -0.1473  0.0048 -0.4051
 8446SOL    HW136800   2.743   1.673   9.551 -1.7235 -0.9061  0.4715
 8446SOL    HW236801   2.765   1.535   9.527  2.6032 -0.5334 -1.4580
 8447SOL     OW36802   1.490   3.852   8.832 -0.5352 -0.0707  0.3717
 8447SOL    HW136803   1.483   3.946   8.816  0.6906  0.3059  1.9569
 8447SOL    HW236804   1.411   3.832   8.782  0.1813 -1.3252 -0.2529
 8448SOL     OW36805   1.041   3.568   8.118 -0.4201 -0.1253  0.4600
 8448SOL    HW136806   0.954   3.601   8.141 -0.1518 -0.2091  1.5594
 8448SOL    HW236807   1.021   3.541   8.028 -1.9952  2.7453 -0.0394
 8449SOL     OW36808   4.179   2.515   4.745  0.5352  0.1772 -0.8334
 8449SOL    HW136809   4.183   2.547   4.655  1.3062 -0.9471 -1.2043
 8449SOL    HW236810   4.160   2.424   4.720  2.0770  0.0285 -1.4414
 8450SOL     OW36811   3.808   3.838   1.962 -0.4303 -0.2376 -0.1393
 8450SOL    HW136812   3.839   3.754   1.927 -0.1294  0.4209 -1.4444
 8450SOL    HW236813   3.720   3.845   1.925 -0.8406 -1.3272  0.6420
 8451SOL     OW36814   1.306   0.892   4.078  0.6099  0.3369  0.2915
 8451SOL    HW136815   1.259   0.863   4.000 -0.0246 -1.4274  1.3329
 8451SOL    HW236816   1.298   0.986   4.062  1.0716  0.3116 -0.0949
 8452SOL     OW36817   1.194   4.467   3.563 -0.3028  0.0775 -0.2098
 8452SOL    HW136818   1.196   4.373   3.584 -1.2994 -0.1271 -0.9985
 8452SOL    HW236819   1.273   4.510   3.596 -0.5624  0.1997  0.2546
 8453SOL     OW36820   0.749   0.573   7.534 -0.4733 -0.4362  0.1659
 8453SOL    HW136821   0.826   0.516   7.528  0.1077  0.6096 -2.2987
 8453SOL    HW236822   0.673   0.519   7.555 -1.9003 -0.0292 -3.7780
 8454SOL     OW36823   1.126   4.437   7.925  0.0056  0.5436  0.2001
 8454SOL    HW136824   1.122   4.461   8.018  0.5256 -0.4047  0.4639
 8454SOL    HW236825   1.041   4.469   7.895  1.0162 -0.1335 -3.3686
 8455SOL     OW36826   0.648   3.713   6.413  0.2413  0.1618  0.1467
 8455SOL    HW136827   0.706   3.682   6.483  1.1411  1.1122 -0.1791
 8455SOL    HW236828   0.617   3.643   6.357 -0.4753  1.7726 -1.4571
 8456SOL     OW36829   3.109   1.799   8.446  0.0090 -0.4650  0.2502
 8456SOL    HW136830   3.084   1.707   8.450  1.6392 -0.9545 -0.7711
 8456SOL    HW236831   3.122   1.810   8.351 -0.1888  0.5722  0.3389
 8457SOL     OW36832   3.296   2.776   3.946 -0.4842 -0.5490 -0.0223
 8457SOL    HW136833   3.245   2.829   4.007 -1.7647  1.2390 -2.6620
 8457SOL    HW236834   3.260   2.803   3.862  0.5905  0.2027 -0.2466
 8458SOL     OW36835   2.514   1.972   2.271  0.1530  0.0769  0.1517
 8458SOL    HW136836   2.442   1.914   2.246  0.5008  0.1063 -0.9529
 8458SOL    HW236837   2.462   2.050   2.293  0.0536  0.0679 -0.0481
 8459SOL     OW36838   2.314   3.550   7.170  0.1468  0.1564  0.4258
 8459SOL    HW136839   2.300   3.538   7.264 -0.5932 -1.4660  0.1182
 8459SOL    HW236840   2.316   3.645   7.175 -0.3281  0.2078 -0.3665
 8460SOL     OW36841   1.971   0.550  15.788 -0.7239 -0.0915  0.5577
 8460SOL    HW136842   1.895   0.606  15.772 -0.7030  0.2484  1.6334
 8460SOL    HW236843   2.014   0.538  15.703 -2.9689 -0.6258 -0.4973
 8461SOL     OW36844   3.688   3.335   6.755  0.2614 -0.3157  0.0164
 8461SOL    HW136845   3.671   3.367   6.843 -3.5999  0.0912 -0.8579
 8461SOL    HW236846   3.782   3.320   6.759  0.6803  2.4855  1.0153
 8462SOL     OW36847   2.783   3.037   0.162  0.1006  0.5735  0.3829
 8462SOL    HW136848   2.720   2.996   0.221 -1.2042  1.7080 -0.2166
 8462SOL    HW236849   2.839   3.072   0.230  1.9364 -1.5068 -0.0590
 8463SOL     OW36850   3.245   4.319  15.203  0.0689 -0.2718 -0.0456
 8463SOL    HW136851   3.229   4.352  15.115 -1.0911 -0.6999  0.0079
 8463SOL    HW236852   3.321   4.373  15.225 -0.1601  0.1240 -0.2196
 8464SOL     OW36853   1.851   0.634   6.965  0.1468  0.7422  0.3005
 8464SOL    HW136854   1.889   0.713   6.927  0.6569  0.3213 -0.0684
 8464SOL    HW236855   1.908   0.562   6.935 -0.6749  0.4350 -0.5225
 8465SOL     OW36856   1.630   1.648   4.439 -0.2971  0.0125 -0.2043
 8465SOL    HW136857   1.697   1.695   4.389 -0.4877  0.8151  0.2842
 8465SOL    HW236858   1.655   1.560   4.413  0.9419  0.5652 -0.9048
 8466SOL     OW36859   0.620   1.136   2.652 -0.3114 -0.1576  0.4582
 8466SOL    HW136860   0.608   1.205   2.587  1.3343 -3.6502 -3.5347
 8466SOL    HW236861   0.557   1.068   2.625 -1.1863  0.7716  0.1656
 8467SOL     OW36862   1.163   3.294   7.419 -0.4389  0.1459 -0.6561
 8467SOL    HW136863   1.132   3.208   7.391  0.6469 -0.5332  0.2335
 8467SOL    HW236864   1.113   3.355   7.364 -0.4833  0.9122  0.2318
 8468SOL     OW36865   2.444   0.420   7.258 -0.4604 -0.1091 -0.2328
 8468SOL    HW136866   2.412   0.345   7.310 -0.1061  0.6471  1.0600
 8468SOL    HW236867   2.536   0.399   7.241  0.3359  0.2543  3.7799
 8469SOL     OW36868   2.711   1.740   3.614 -0.0552 -0.4903 -0.4931
 8469SOL    HW136869   2.626   1.728   3.656  0.8351  0.5898  1.6117
 8469SOL    HW236870   2.773   1.769   3.681 -0.4667  1.6238 -1.0247
 8470SOL     OW36871   4.201   3.686   8.036 -0.2555 -0.1784 -0.1393
 8470SOL    HW136872   4.149   3.657   7.961  0.3639 -1.3463 -0.1196
 8470SOL    HW236873   4.287   3.693   7.992  0.2629 -1.9207  0.5861
 8471SOL     OW36874   0.410   3.892   5.233  0.3580 -0.0652 -0.2387
 8471SOL    HW136875   0.356   3.831   5.183 -0.3080  0.1417  0.2286
 8471SOL    HW236876   0.394   3.866   5.324  0.5384 -1.4136 -0.5987
 8472SOL     OW36877   0.900   0.159  10.452  0.2496  0.4022 -0.5409
 8472SOL    HW136878   0.867   0.138  10.540  1.8200  0.1934 -0.0072
 8472SOL    HW236879   0.877   0.252  10.454 -2.0437 -0.2111  2.1151
 8473SOL     OW36880   4.054   1.540   7.017  0.0761 -0.0132 -0.3243
 8473SOL    HW136881   3.975   1.582   7.051 -0.8122  0.1106 -2.5222
 8473SOL    HW236882   4.101   1.517   7.097  1.2660 -0.7905 -1.2348
 8474SOL     OW36883   3.999   4.117   6.525 -0.2137 -0.1128 -0.1448
 8474SOL    HW136884   3.921   4.172   6.527 -0.4472 -0.4220 -0.7520
 8474SOL    HW236885   4.016   4.114   6.431 -0.1092 -1.9902 -0.0706
 8475SOL     OW36886   0.155   1.429   3.561 -0.3824 -0.2533 -0.2715
 8475SOL    HW136887   0.211   1.484   3.506 -0.3416 -1.1295 -1.1246
 8475SOL    HW236888   0.078   1.435   3.503  0.9451 -0.8398 -2.0986
 8476SOL     OW36889   1.459   3.642   6.461 -0.0771  0.0393  0.4171
 8476SOL    HW136890   1.392   3.623   6.527 -0.5906  1.7453  0.3889
 8476SOL    HW236891   1.534   3.656   6.518 -0.8924  0.1645  1.4463
 8477SOL     OW36892   2.074   3.481   5.745 -0.4083  0.5308  0.1785
 8477SOL    HW136893   2.118   3.481   5.660  0.4667  0.6285  0.6271
 8477SOL    HW236894   2.051   3.572   5.764 -0.5507  0.7408 -1.0140
 8478SOL     OW36895   2.341   4.659  12.155 -0.3114 -0.3730  0.4488
 8478SOL    HW136896   2.401   4.607  12.208  0.6366  0.5557  0.2998
 8478SOL    HW236897   2.329   4.603  12.079  0.3728 -0.3142  0.2913
 8479SOL     OW36898   0.985   0.049  16.203 -0.0001 -0.5602  0.2893
 8479SOL    HW136899   1.009   4.701  16.260 -1.2769  1.3232  3.1781
 8479SOL    HW236900   1.049   0.119  16.212 -0.8402  0.2665 -0.1985
 8480SOL     OW36901   2.741   2.210   9.251  0.4985 -0.3676  0.3028
 8480SOL    HW136902   2.806   2.227   9.319  1.6367 -0.2721 -0.8099
 8480SOL    HW236903   2.720   2.300   9.225 -1.8610 -0.1449  3.0005
 8481SOL     OW36904   1.427   3.757   5.401  0.3200 -0.0497  0.1011
 8481SOL    HW136905   1.473   3.673   5.405  0.4789  0.1037  1.4236
 8481SOL    HW236906   1.430   3.776   5.307  0.8026  3.1667  0.7664
 8482SOL     OW36907   2.269   1.044  10.472  0.3701 -0.0948  0.4163
 8482SOL    HW136908   2.186   1.079  10.505 -0.4728  2.3445 -4.4396
 8482SOL    HW236909   2.277   0.966  10.528  0.9251 -0.2559  0.1132
 8483SOL     OW36910   2.559   0.868   7.757  0.2442  0.5530  0.3314
 8483SOL    HW136911   2.504   0.908   7.824 -0.2029 -0.7660  0.7635
 8483SOL    HW236912   2.646   0.893   7.789  0.4193 -0.5451  0.7260
 8484SOL     OW36913   0.746   4.430   7.853 -0.0953  0.5725 -0.4448
 8484SOL    HW136914   0.820   4.371   7.867  0.2294  0.7033 -1.5907
 8484SOL    HW236915   0.693   4.403   7.928 -2.2191  3.5850 -0.8337
 8485SOL     OW36916   1.213   3.795   8.097  0.0197 -0.0111  0.5098
 8485SOL    HW136917   1.145   3.728   8.089  0.8259 -1.0282  2.1554
 8485SOL    HW236918   1.265   3.767   8.173  0.7023  1.3440  0.5348
 8486SOL     OW36919   0.623   3.858   8.339 -0.3019 -0.0481 -0.2421
 8486SOL    HW136920   0.659   3.871   8.251  1.5375 -2.3815  0.1602
 8486SOL    HW236921   0.599   3.950   8.347  4.2679  1.2182 -1.4426
 8487SOL     OW36922   3.989   2.429   6.009 -0.0549  0.4742  0.8660
 8487SOL    HW136923   4.030   2.352   6.049 -0.1532 -0.3681 -0.6553
 8487SOL    HW236924   4.067   2.484   6.000  2.1629 -3.1486 -1.5590
 8488SOL     OW36925   2.896   1.580  16.093  0.5148 -0.5264  0.3526
 8488SOL    HW136926   2.874   1.491  16.067 -0.4313  0.4901 -2.3243
 8488SOL    HW236927   2.930   1.609  16.009 -2.5369 -0.6765 -0.9107
 8489SOL     OW36928   3.007   0.923   6.400 -0.3245  0.2038  0.0241
 8489SOL    HW136929   3.072   0.992   6.415 -1.8182  1.7710 -0.7373
 8489SOL    HW236930   2.935   0.974   6.362  1.0573  0.8809 -1.6511
 8490SOL     OW36931   1.164   2.534   5.820  0.0216 -0.5282 -0.1201
 8490SOL    HW136932   1.238   2.588   5.793 -0.2601 -0.3969 -0.6285
 8490SOL    HW236933   1.202   2.485   5.892 -2.5210 -2.3130  0.0197
 8491SOL     OW36934   4.615   1.798   6.222 -0.2223  0.2861 -0.3415
 8491SOL    HW136935   4.642   1.872   6.277 -0.5267  1.8354 -2.2951
 8491SOL    HW236936   4.571   1.842   6.149 -0.6794  1.6925  0.7747
 8492SOL     OW36937   0.701   3.933   0.472  0.0502 -0.6430  0.1900
 8492SOL    HW136938   0.679   3.887   0.553 -1.5261  0.4241  0.3717
 8492SOL    HW236939   0.673   4.019   0.502 -1.2521 -1.2392  0.6566
 8493SOL     OW36940   0.927   4.016   6.252  0.2442  0.3477  0.2051
 8493SOL    HW136941   0.862   4.067   6.204 -0.3365 -0.3872  0.2065
 8493SOL    HW236942   0.951   4.065   6.330 -0.8166  2.2531 -0.6757
 8494SOL     OW36943   4.598   3.198   8.764 -0.9783 -0.0134  0.0768
 8494SOL    HW136944   4.522   3.176   8.710  1.4482 -2.3599 -2.3551
 8494SOL    HW236945   4.626   3.274   8.714  2.2706 -1.3371 -0.1134
 8495SOL     OW36946   1.089   2.960   7.376 -0.1385  0.1253 -0.5003
 8495SOL    HW136947   1.182   2.938   7.371 -0.4880 -1.8168  1.5010
 8495SOL    HW236948   1.056   2.881   7.333  0.2734  0.1137 -0.7904
 8496SOL     OW36949   1.521   1.170  11.948  0.0648  0.0374  0.3185
 8496SOL    HW136950   1.489   1.155  12.037  0.6442  0.4144  0.5929
 8496SOL    HW236951   1.615   1.176  11.968 -0.0414 -0.9062  1.1044
 8497SOL     OW36952   2.379   0.437   5.557 -0.1728 -0.4143 -1.0043
 8497SOL    HW136953   2.473   0.447   5.539 -0.4857  1.6412 -1.4548
 8497SOL    HW236954   2.349   0.435   5.466 -0.6456  3.5159 -0.9315
 8498SOL     OW36955   3.335   0.069   5.122  0.0689 -0.1510  0.7887
 8498SOL    HW136956   3.244   0.057   5.151 -0.3453 -0.3267 -0.5652
 8498SOL    HW236957   3.331   0.022   5.038  0.9875  0.1136  0.5955
 8499SOL     OW36958   2.674   3.321  17.540 -0.0633  0.1332 -0.4258
 8499SOL    HW136959   2.741   3.336  17.607 -1.0241  1.0493  0.3287
 8499SOL    HW236960   2.674   3.226  17.541 -2.0193  0.1470  1.2978
 8500SOL     OW36961   1.934   2.500   3.542 -0.2716 -0.2065  0.0327
 8500SOL    HW136962   1.870   2.472   3.477 -1.1454 -1.2145  1.3337
 8500SOL    HW236963   1.931   2.422   3.598 -0.8512 -0.0689  0.1879
 8501SOL     OW36964   3.472   4.449   8.876  0.2315  0.4414 -0.5465
 8501SOL    HW136965   3.473   4.394   8.797 -3.1936  1.4515 -1.2725
 8501SOL    HW236966   3.488   4.380   8.941  1.7222 -0.4821 -1.8951
 8502SOL     OW36967   3.591   4.393   2.631  0.1811  0.1285  0.4588
 8502SOL    HW136968   3.518   4.414   2.573  0.9996  1.3996 -0.1196
 8502SOL    HW236969   3.672   4.440   2.609  0.4021 -0.6350 -0.3282
 8503SOL     OW36970   0.012   4.335  15.043 -0.2982  0.4576 -0.0457
 8503SOL    HW136971   0.065   4.271  15.091 -0.6223  1.1030  1.1948
 8503SOL    HW236972   4.695   4.381  15.116 -1.9461  1.0746 -1.3858
 8504SOL     OW36973   4.360   4.333   1.363  0.2938 -0.1061 -0.3723
 8504SOL    HW136974   4.379   4.311   1.271  0.2746 -2.2112  0.1343
 8504SOL    HW236975   4.351   4.246   1.401  0.6354  0.8827  1.9811
 8505SOL     OW36976   2.708   0.160   5.032  0.9555  0.1035  0.0380
 8505SOL    HW136977   2.680   0.159   5.124  0.8087 -0.7151 -0.0164
 8505SOL    HW236978   2.670   0.238   4.992  0.4252 -1.3064 -2.2081
 8506SOL     OW36979   2.225   3.520   1.639  0.5241 -0.5760 -0.3859
 8506SOL    HW136980   2.134   3.540   1.658  0.1926 -0.3646 -2.2392
 8506SOL    HW236981   2.235   3.427   1.662  0.2224  0.0375  2.1901
 8507SOL     OW36982   2.185   2.503   4.499  0.3197 -0.0586 -0.3070
 8507SOL    HW136983   2.133   2.461   4.430 -1.6520 -0.3343  1.3450
 8507SOL    HW236984   2.186   2.595   4.472 -2.2158  0.7187  2.2119
 8508SOL     OW36985   4.355   1.908   4.330 -0.0302 -0.1063 -0.2686
 8508SOL    HW136986   4.342   1.915   4.236  0.6753 -0.5990 -0.4006
 8508SOL    HW236987   4.438   1.954   4.338  0.4754 -1.0065 -0.3600
 8509SOL     OW36988   1.473   3.653  12.697 -0.7667 -0.5323  0.4343
 8509SOL    HW136989   1.498   3.694  12.615 -1.1353  0.5259  0.8517
 8509SOL    HW236990   1.480   3.721  12.764 -0.0042 -0.2255  0.0343
 8510SOL     OW36991   3.280   1.405   1.719  0.2232 -0.0210 -0.1114
 8510SOL    HW136992   3.205   1.385   1.663 -0.0651 -0.9729  0.6140
 8510SOL    HW236993   3.295   1.494   1.688  0.3873 -0.6849 -1.9852
 8511SOL     OW36994   0.508   4.594   0.480  0.1613 -0.6212  0.4484
 8511SOL    HW136995   0.539   4.548   0.558  1.0500 -1.0008 -0.1228
 8511SOL    HW236996   0.478   4.526   0.420  0.2865 -0.4093  0.1475
 8512SOL     OW36997   0.056   4.124  14.606  0.5748 -0.3984 -0.1328
 8512SOL    HW136998   0.147   4.094  14.601  0.9054 -0.2372  4.4772
 8512SOL    HW236999   0.069   4.206  14.558  1.6300 -0.5771 -0.1482
 8513SOL     OW37000   0.797   2.675   0.499  0.3618  0.1205  0.4313
 8513SOL    HW137001   0.829   2.597   0.544  0.6160 -0.2990 -0.4697
 8513SOL    HW237002   0.856   2.746   0.524  1.6879 -0.4107 -1.2165
 8514SOL     OW37003   0.529   2.225   6.755 -0.0551  0.3551  0.0342
 8514SOL    HW137004   0.468   2.239   6.683  1.5918  1.4532 -1.1366
 8514SOL    HW237005   0.460   2.181   6.804 -0.4611  0.8004 -0.1479
 8515SOL     OW37006   3.851   2.745   9.388 -0.5155 -0.1106 -0.2656
 8515SOL    HW137007   3.940   2.727   9.357 -0.7894 -2.7707  0.5147
 8515SOL    HW237008   3.820   2.819   9.335 -3.0419 -2.2655 -1.7941
 8516SOL     OW37009   2.241   2.499   5.851  0.2113  0.0680  0.1657
 8516SOL    HW137010   2.285   2.504   5.936  0.0327 -1.4718  0.3349
 8516SOL    HW237011   2.148   2.516   5.864 -0.0867 -1.2726 -0.1958
 8517SOL     OW37012   0.069   2.692  10.610 -0.3402 -0.8418  0.1347
 8517SOL    HW137013   4.706   2.662  10.588 -0.6720  0.0985  0.2053
 8517SOL    HW237014   0.117   2.611  10.591  2.3383  0.7344  0.1008
 8518SOL     OW37015   4.390   3.519  11.235  0.1306  0.1305  0.2880
 8518SOL    HW137016   4.354   3.594  11.188  2.0116  1.3173  0.7720
 8518SOL    HW237017   4.470   3.508  11.184 -0.2437  1.2073 -0.5353
 8519SOL     OW37018   0.459   4.632   8.160  0.2344  0.5666 -0.2098
 8519SOL    HW137019   0.402   4.696   8.117 -1.0916  0.4350  1.3407
 8519SOL    HW237020   0.397   4.623   8.233 -0.6058  0.4747 -0.9273
 8520SOL     OW37021   2.866   4.467   5.328 -0.1312 -0.4149  0.1457
 8520SOL    HW137022   2.805   4.395   5.346 -1.6200  0.5333 -1.0842
 8520SOL    HW237023   2.945   4.443   5.377  1.3937  0.8121 -1.7265
 8521SOL     OW37024   1.015   1.094   2.297 -0.9331 -0.1290 -0.0007
 8521SOL    HW137025   0.947   1.030   2.317 -0.9861 -0.4540 -1.2527
 8521SOL    HW237026   1.035   1.070   2.207  0.3297  0.2480  0.1833
 8522SOL     OW37027   1.440   0.666  10.716 -0.3301 -0.4949  0.2226
 8522SOL    HW137028   1.535   0.681  10.723 -0.1272 -1.7133  0.0791
 8522SOL    HW237029   1.419   0.758  10.697 -4.5248 -1.5507 -0.0397
 8523SOL     OW37030   4.672   3.718   4.935  0.0856  0.1261 -0.6858
 8523SOL    HW137031   4.616   3.680   4.868  0.3612 -2.5334  0.6095
 8523SOL    HW237032   4.612   3.773   4.986 -0.6634 -1.0531 -0.3087
 8524SOL     OW37033   3.881   4.060   8.194  0.1945 -0.0786  0.0383
 8524SOL    HW137034   3.903   3.996   8.262 -0.6654 -0.2391  0.1619
 8524SOL    HW237035   3.965   4.070   8.150 -0.5175  0.0091 -1.2931
 8525SOL     OW37036   0.850   4.175  16.978 -0.2402 -0.1300 -0.1230
 8525SOL    HW137037   0.841   4.270  16.983  1.0925 -0.0337  0.6449
 8525SOL    HW237038   0.938   4.177  16.940  1.4218 -0.6060  3.6803
 8526SOL     OW37039   2.999   0.707  13.527 -0.1504  0.1168  0.1745
 8526SOL    HW137040   2.944   0.736  13.455 -3.2635 -0.9460  2.1375
 8526SOL    HW237041   2.988   0.780  13.588  0.1594 -0.1572  0.5612
 8527SOL     OW37042   2.891   4.011  12.321  0.2069  0.1823  0.5118
 8527SOL    HW137043   2.872   4.047  12.234  1.6215  0.0968  0.1748
 8527SOL    HW237044   2.885   3.917  12.308  1.0548  0.2586 -0.4358
 8528SOL     OW37045   3.261   1.286  13.910 -0.5816  0.0611  0.6140
 8528SOL    HW137046   3.195   1.343  13.871 -0.5937  1.1299  2.2241
 8528SOL    HW237047   3.299   1.326  13.988  0.8670 -1.3875  0.6495
 8529SOL     OW37048   4.616   4.419  15.293 -0.1585 -0.6158  0.6232
 8529SOL    HW137049   4.648   4.470  15.367  1.5393 -1.6435  0.5935
 8529SOL    HW237050   4.578   4.344  15.338 -2.8793 -0.2827 -1.1014
 8530SOL     OW37051   0.435   2.353  17.124  0.0446  0.0339  0.0662
 8530SOL    HW137052   0.419   2.353  17.219  0.3008 -0.6071  0.1063
 8530SOL    HW237053   0.530   2.361  17.115  0.3097 -3.0356  0.0704
 8531SOL     OW37054   1.579   2.305   4.946  0.0079 -0.0635  0.3843
 8531SOL    HW137055   1.644   2.365   4.984  0.5224  1.0604 -2.2763
 8531SOL    HW237056   1.497   2.353   4.948  0.6002  0.9472  0.6001
 8532SOL     OW37057   2.548   3.668  12.840 -0.6751  0.0970  0.3103
 8532SOL    HW137058   2.512   3.651  12.927 -0.5221  0.8712  0.5323
 8532SOL    HW237059   2.585   3.756  12.853  2.4105 -0.7980 -2.2744
 8533SOL     OW37060   4.285   2.274  11.226  0.6942  0.0927  0.0827
 8533SOL    HW137061   4.369   2.262  11.182  0.5576 -0.3469 -0.0536
 8533SOL    HW237062   4.289   2.365  11.255  0.3734 -0.2871  1.3383
 8534SOL     OW37063   2.862   2.964  15.934 -0.1478  0.1873 -0.2255
 8534SOL    HW137064   2.859   2.878  15.894  0.2507  0.8306 -1.6657
 8534SOL    HW237065   2.957   2.973  15.943  0.0913 -1.3483 -1.3483
 8535SOL     OW37066   1.392   2.674   0.432  0.0576  0.3366 -0.5328
 8535SOL    HW137067   1.415   2.586   0.402  1.3822  0.5600 -0.1400
 8535SOL    HW237068   1.393   2.731   0.354 -0.8825  1.3072  0.1648
 8536SOL     OW37069   2.303   2.923  12.184  0.8141  0.9107  0.1980
 8536SOL    HW137070   2.372   2.858  12.174 -1.4074 -1.4688  0.3695
 8536SOL    HW237071   2.293   2.948  12.092 -1.2189  0.7641  0.3864
 8537SOL     OW37072   2.771   4.129   3.520  0.3324  0.3706  0.0703
 8537SOL    HW137073   2.685   4.097   3.548  0.9945 -0.3766  1.2488
 8537SOL    HW237074   2.808   4.048   3.484 -0.5216 -0.2343  0.5429
 8538SOL     OW37075   1.621   3.628   5.671 -0.5558 -0.3751  0.0469
 8538SOL    HW137076   1.529   3.642   5.696 -0.2227  2.4780 -0.3489
 8538SOL    HW237077   1.646   3.573   5.746 -1.2809  0.1025  0.6416
 8539SOL     OW37078   0.293   0.356   0.843 -0.8224  0.3928 -0.0104
 8539SOL    HW137079   0.216   0.403   0.810 -2.2522 -1.6489  0.3360
 8539SOL    HW237080   0.328   0.424   0.900 -0.4106 -0.5047  0.7975
 8540SOL     OW37081   3.286   1.799   6.836 -0.5789 -0.3025 -0.7842
 8540SOL    HW137082   3.304   1.714   6.797 -0.1656 -0.9945  0.9561
 8540SOL    HW237083   3.372   1.821   6.871  0.0260  0.2820 -2.5925
 8541SOL     OW37084   3.897   2.792   8.590  0.0428  0.4920 -0.8462
 8541SOL    HW137085   3.810   2.758   8.570  1.0256 -1.9398 -0.9828
 8541SOL    HW237086   3.948   2.714   8.611  0.4223  0.5592 -1.5068
 8542SOL     OW37087   4.563   2.856   8.645  0.4688 -0.1076 -0.3789
 8542SOL    HW137088   4.488   2.852   8.703  1.1462 -1.3054  0.4079
 8542SOL    HW237089   4.592   2.947   8.651  0.0650  0.2753 -3.7691
 8543SOL     OW37090   3.047   1.743   1.008 -0.3033 -0.3086 -0.0713
 8543SOL    HW137091   3.029   1.768   0.917  2.2502  1.1119 -0.1766
 8543SOL    HW237092   3.125   1.690   0.989 -0.3888  0.0038 -1.3153
 8544SOL     OW37093   2.191   3.521   2.969  0.9856 -0.5035  0.5652
 8544SOL    HW137094   2.205   3.471   2.888 -0.2920 -0.2991  0.2261
 8544SOL    HW237095   2.113   3.566   2.937  0.3370 -3.4011 -1.9538
 8545SOL     OW37096   4.229   4.167   4.264  0.4690  0.5036 -0.2781
 8545SOL    HW137097   4.250   4.146   4.173  1.1209  3.2039 -0.7285
 8545SOL    HW237098   4.292   4.238   4.277 -0.8629  1.7367 -0.5180
 8546SOL     OW37099   2.694   3.552   2.783  0.0113  0.6379 -0.1012
 8546SOL    HW137100   2.660   3.509   2.862 -0.1571  2.4237  0.8113
 8546SOL    HW237101   2.664   3.643   2.795  1.9897  1.3057 -0.1745
 8547SOL     OW37102   1.940   4.648   7.875  0.3160 -0.2486  0.1968
 8547SOL    HW137103   1.978   4.563   7.854  1.2429  0.4037 -0.7837
 8547SOL    HW237104   2.007   4.700   7.921 -0.2006  0.1743  0.4710
 8548SOL     OW37105   0.840   1.332   1.101  0.1288  0.5916 -0.1329
 8548SOL    HW137106   0.765   1.366   1.051  0.8229  2.3529  0.0185
 8548SOL    HW237107   0.792   1.266   1.152  3.0486 -1.5163 -0.1481
 8549SOL     OW37108   4.373   4.488   4.884 -0.3715 -0.1108 -0.2393
 8549SOL    HW137109   4.345   4.399   4.903  0.3910 -0.6375 -1.5762
 8549SOL    HW237110   4.448   4.491   4.824 -0.0429 -2.0750  0.0890
 8550SOL     OW37111   4.155   3.541   4.011 -0.1627 -0.0953  0.0289
 8550SOL    HW137112   4.176   3.482   4.084  0.7599  1.0868  0.7246
 8550SOL    HW237113   4.097   3.481   3.964  2.1237 -1.8028 -0.6190
 8551SOL     OW37114   4.253   3.170   9.059  0.0481  0.6120 -0.7200
 8551SOL    HW137115   4.160   3.188   9.077 -0.0289 -0.6293  0.1358
 8551SOL    HW237116   4.231   3.085   9.021  0.3488  0.2533 -0.0812
 8552SOL     OW37117   3.927   2.940   0.599 -0.0253 -0.3352 -0.5502
 8552SOL    HW137118   3.882   2.917   0.517  1.1514  1.8243 -1.7938
 8552SOL    HW237119   3.966   3.021   0.566 -1.9854  1.3524  1.3419
 8553SOL     OW37120   0.228   2.958  12.581 -0.2210  0.0986 -0.1312
 8553SOL    HW137121   0.247   3.003  12.498 -0.2093 -1.8515 -1.1930
 8553SOL    HW237122   0.280   3.012  12.641 -1.7030 -0.0625  1.3027
 8554SOL     OW37123   3.289   3.183   9.846  0.2577  0.0746 -0.1702
 8554SOL    HW137124   3.311   3.119   9.778  1.7350  0.1537  0.2407
 8554SOL    HW237125   3.287   3.126   9.923 -3.8150 -1.1444 -1.1381
 8555SOL     OW37126   2.670   2.697   5.053  0.0654  0.3053 -0.4217
 8555SOL    HW137127   2.589   2.741   5.025  0.3511  0.2896 -1.2687
 8555SOL    HW237128   2.668   2.721   5.146  2.4001 -0.1900 -0.2548
 8556SOL     OW37129   1.066   2.156   4.440  0.5136  0.5499 -0.1984
 8556SOL    HW137130   1.126   2.096   4.396 -2.1247 -2.0261 -0.3105
 8556SOL    HW237131   0.979   2.117   4.430  0.7096  0.3305 -0.9875
 8557SOL     OW37132   0.680   0.274  11.596  0.4606  0.6418 -0.3128
 8557SOL    HW137133   0.632   0.212  11.651  0.7701 -1.3035 -2.2888
 8557SOL    HW237134   0.665   0.237  11.510 -0.9663  1.6941 -0.5277
 8558SOL     OW37135   0.731   4.701   8.234  0.0651  0.3696 -0.2064
 8558SOL    HW137136   0.670   0.042   8.268  0.0229  0.4018 -0.3409
 8558SOL    HW237137   0.671   4.631   8.210  0.9479 -0.4803  0.0553
 8559SOL     OW37138   1.433   3.986   4.780  0.1665  0.1242 -0.3814
 8559SOL    HW137139   1.453   3.893   4.775 -1.3595 -0.0901 -2.3902
 8559SOL    HW237140   1.496   4.015   4.714  2.1648  0.4088  1.6729
 8560SOL     OW37141   2.930   1.967   8.971  0.2353  0.0712 -0.3549
 8560SOL    HW137142   2.945   1.892   9.028 -2.2217 -0.6439 -0.6403
 8560SOL    HW237143   2.886   1.927   8.896 -1.6466 -0.3863  0.9895
 8561SOL     OW37144   0.824   0.893   9.718 -0.2644 -0.0299  0.3669
 8561SOL    HW137145   0.800   0.977   9.757 -1.5756  0.2251 -0.9805
 8561SOL    HW237146   0.911   0.911   9.682  0.2182  1.8142  2.4874
 8562SOL     OW37147   2.636   3.920   9.572 -0.0513 -0.5140 -0.4254
 8562SOL    HW137148   2.661   3.855   9.638  2.8563  1.4365  0.3986
 8562SOL    HW237149   2.707   3.984   9.571  0.2848 -0.8863 -0.6409
 8563SOL     OW37150   0.921   0.811  16.473 -0.0582 -0.5558  0.5180
 8563SOL    HW137151   0.905   0.800  16.567 -0.8053  0.2821  0.4882
 8563SOL    HW237152   0.985   0.882  16.479 -0.2590 -0.3045 -0.4443
 8564SOL     OW37153   0.746   1.708   3.548  0.2107 -0.2711 -0.4508
 8564SOL    HW137154   0.743   1.790   3.498 -0.1535  0.4877  0.8161
 8564SOL    HW237155   0.699   1.729   3.628 -0.5205  0.9849 -1.2110
 8565SOL     OW37156   1.922   0.516   4.400  0.6886 -0.0852  0.5142
 8565SOL    HW137157   1.994   0.530   4.338 -0.1392 -0.5144 -0.5344
 8565SOL    HW237158   1.863   0.460   4.350  1.0647 -1.1423  1.2371
 8566SOL     OW37159   3.482   1.832   6.113  0.2087  0.5111  0.1836
 8566SOL    HW137160   3.529   1.750   6.095  1.3716  0.7960  1.8754
 8566SOL    HW237161   3.519   1.861   6.196  0.0571  1.2636 -0.0093
 8567SOL     OW37162   3.493   0.329  10.120  0.7516 -0.2391 -0.4558
 8567SOL    HW137163   3.415   0.285  10.087  0.1489 -1.6022  2.7920
 8567SOL    HW237164   3.529   0.267  10.184  1.2584 -1.2324 -1.7217
 8568SOL     OW37165   0.709   2.793   8.525 -0.1200  0.4768  0.1509
 8568SOL    HW137166   0.765   2.731   8.572  0.1099  0.3707 -0.2571
 8568SOL    HW237167   0.646   2.734   8.482 -0.4088 -1.6213  3.4808
 8569SOL     OW37168   1.095   4.297  17.484 -0.1648 -0.0883  0.4334
 8569SOL    HW137169   1.072   4.209  17.515 -2.2755  0.7255  1.1879
 8569SOL    HW237170   1.111   4.343  17.567  1.3119 -0.9854  0.6398
 8570SOL     OW37171   2.089   4.523  14.359 -0.2028 -0.1892 -0.1841
 8570SOL    HW137172   2.046   4.517  14.444  1.3655 -2.8030  0.4223
 8570SOL    HW237173   2.168   4.474  14.381  0.9921  1.8043 -0.0327
 8571SOL     OW37174   4.472   2.387  15.650  0.3176 -0.5071  0.1571
 8571SOL    HW137175   4.388   2.347  15.629  1.7934 -2.5586 -1.9393
 8571SOL    HW237176   4.533   2.318  15.626  0.2223 -0.0086 -1.5601
 8572SOL     OW37177   3.496   1.492   0.935 -0.2382 -0.3719 -0.2807
 8572SOL    HW137178   3.570   1.437   0.959  1.1370  1.9699  0.7461
 8572SOL    HW237179   3.449   1.433   0.875 -1.3106 -1.0825  1.2340
 8573SOL     OW37180   1.333   4.598  10.490  0.0363  0.4278 -0.4618
 8573SOL    HW137181   1.258   4.652  10.465  0.0136  1.6335  2.1617
 8573SOL    HW237182   1.330   4.606  10.585 -3.0112  0.5753 -0.5820
 8574SOL     OW37183   0.630   1.286   8.444  0.0495  0.4444  0.0360
 8574SOL    HW137184   0.606   1.209   8.495  1.3282  2.8248  4.2251
 8574SOL    HW237185   0.606   1.361   8.499 -3.1248 -0.4831 -0.1178
 8575SOL     OW37186   1.947   1.821  10.258  0.0536  0.3575 -0.1243
 8575SOL    HW137187   2.013   1.877  10.298  0.6669  0.2512 -0.9902
 8575SOL    HW237188   1.967   1.830  10.165  1.1216  1.1698  0.1818
 8576SOL     OW37189   2.798   3.156  13.896  0.0729  0.4285 -0.2490
 8576SOL    HW137190   2.721   3.120  13.852  1.3188 -1.0787 -1.1922
 8576SOL    HW237191   2.866   3.150  13.829  1.3735  2.0206  0.9288
 8577SOL     OW37192   0.500   1.641   6.987 -0.0154 -0.1440  0.0062
 8577SOL    HW137193   0.433   1.584   7.026  2.1148 -1.1883  2.1166
 8577SOL    HW237194   0.473   1.627   6.896  1.3593 -0.0384 -0.4148
 8578SOL     OW37195   4.079   1.132   5.497 -0.4569 -0.2753  0.0097
 8578SOL    HW137196   3.988   1.126   5.528  0.4648 -1.1089  2.5718
 8578SOL    HW237197   4.088   1.227   5.503  1.2708 -0.5119  1.1599
 8579SOL     OW37198   2.331   2.128   3.109 -0.6615  0.3338 -0.1067
 8579SOL    HW137199   2.275   2.050   3.108  1.4984 -1.1910 -0.9880
 8579SOL    HW237200   2.275   2.187   3.059  0.7228  1.0150 -0.8512
 8580SOL     OW37201   1.785   4.483   8.837 -0.6035  0.8260  0.0884
 8580SOL    HW137202   1.756   4.573   8.820  0.0828  1.1525  0.6318
 8580SOL    HW237203   1.855   4.467   8.774 -0.3482  0.1375  0.5540
 8581SOL     OW37204   2.572   1.309   6.307  0.1798  0.2755  0.2711
 8581SOL    HW137205   2.596   1.265   6.225 -0.0603 -0.4223  0.5793
 8581SOL    HW237206   2.525   1.242   6.355  1.5529 -0.9676 -0.1378
 8582SOL     OW37207   1.907   1.835   6.348  0.0721 -0.8644  0.4120
 8582SOL    HW137208   1.993   1.867   6.376  0.6605  0.9250 -3.4227
 8582SOL    HW237209   1.931   1.781   6.272 -0.5844 -1.0751  0.3550
 8583SOL     OW37210   3.499   1.870   6.956  0.1908  0.2709 -0.8004
 8583SOL    HW137211   3.512   1.946   6.899  1.9901  0.7176  0.2296
 8583SOL    HW237212   3.591   1.843   6.946  0.0242 -0.4347 -0.4475
 8584SOL     OW37213   2.976   0.576   8.039  0.2011 -0.2652 -0.1179
 8584SOL    HW137214   2.948   0.665   8.018  1.0791  0.2946  1.1096
 8584SOL    HW237215   2.992   0.542   7.951  1.2958 -0.8926  0.3280
 8585SOL     OW37216   0.225   1.383   6.761 -0.0770 -0.5004  0.4307
 8585SOL    HW137217   0.209   1.314   6.826 -0.4491  0.3461  1.2434
 8585SOL    HW237218   0.183   1.351   6.681 -0.2170 -0.6102  0.5466
 8586SOL     OW37219   2.498   0.148   6.477 -0.2860 -0.3154  0.3464
 8586SOL    HW137220   2.437   0.199   6.423  1.0028  1.4281  0.5516
 8586SOL    HW237221   2.437   0.126   6.547 -1.6012 -0.2284 -0.7557
 8587SOL     OW37222   0.779   3.978   3.907  0.0352  0.2978 -0.2254
 8587SOL    HW137223   0.691   4.014   3.894  0.5568  1.0402 -1.7750
 8587SOL    HW237224   0.825   4.052   3.945  1.2216  0.3752 -1.8092
 8588SOL     OW37225   3.184   2.605   1.221 -0.5865 -0.4411 -0.3337
 8588SOL    HW137226   3.209   2.545   1.292 -0.5073 -0.6294 -0.5206
 8588SOL    HW237227   3.228   2.557   1.151 -1.2011 -0.6639 -0.5639
 8589SOL     OW37228   1.596   0.203   8.020 -0.3524 -0.1313 -0.4845
 8589SOL    HW137229   1.691   0.218   8.028 -0.7617  1.6920  0.8186
 8589SOL    HW237230   1.581   0.151   8.099  2.1140  0.2592  0.2375
 8590SOL     OW37231   3.838   2.483   9.181 -0.5551  0.0566  0.0931
 8590SOL    HW137232   3.903   2.522   9.240 -0.6939 -1.1281  1.0462
 8590SOL    HW237233   3.762   2.495   9.238 -1.5134  0.6482 -1.3346
 8591SOL     OW37234   1.193   3.298   6.751 -0.5388 -0.2866  0.0838
 8591SOL    HW137235   1.165   3.269   6.838  0.1938 -0.9088  0.1035
 8591SOL    HW237236   1.281   3.261   6.747 -0.4586 -0.1726  0.9144
 8592SOL     OW37237   4.537   1.473   6.531 -0.7371 -0.7042  0.1238
 8592SOL    HW137238   4.593   1.499   6.604  0.6716  0.1918 -1.2587
 8592SOL    HW237239   4.538   1.377   6.529  0.7290 -0.6966  0.2932
 8593SOL     OW37240   2.120   0.210   5.306 -0.0584 -0.0110  0.8569
 8593SOL    HW137241   2.062   0.135   5.317  0.1129 -0.4534 -1.2889
 8593SOL    HW237242   2.077   0.244   5.228 -1.0257 -1.6940  0.6604
 8594SOL     OW37243   4.542   4.125  12.605 -0.1826 -0.2188  0.1196
 8594SOL    HW137244   4.603   4.093  12.672 -0.9411 -1.0431  0.4082
 8594SOL    HW237245   4.610   4.157  12.546  0.1486 -0.3596  0.4216
 8595SOL     OW37246   4.000   0.406   7.321  0.8222  0.0106 -0.3986
 8595SOL    HW137247   4.079   0.359   7.347  0.7540  0.2055  0.1647
 8595SOL    HW237248   3.964   0.434   7.405 -1.2179 -1.4054 -0.7838
 8596SOL     OW37249   3.441   0.244   6.700  0.1899 -1.0787 -0.2388
 8596SOL    HW137250   3.482   0.195   6.629 -1.4914 -1.4374 -0.9612
 8596SOL    HW237251   3.348   0.229   6.683  0.1732 -0.9153 -0.2883
 8597SOL     OW37252   4.123   0.806   4.894 -0.0628  0.5894 -0.2506
 8597SOL    HW137253   4.157   0.840   4.977  0.9193 -0.0492 -0.3973
 8597SOL    HW237254   4.064   0.735   4.919  1.7478 -0.7032  0.3284
 8598SOL     OW37255   1.902   4.413   4.301 -0.5389 -0.6092  0.4283
 8598SOL    HW137256   1.850   4.493   4.294 -0.1389 -0.3213  0.7934
 8598SOL    HW237257   1.949   4.426   4.383 -0.1743 -1.1875  0.3040
 8599SOL     OW37258   4.577   1.058  14.433 -0.0208  0.4272  0.0073
 8599SOL    HW137259   4.509   1.072  14.500 -1.4569  2.2445 -1.8441
 8599SOL    HW237260   4.530   1.005  14.369  0.2360 -2.1171  1.9065
 8600SOL     OW37261   1.346   3.855   9.260 -0.1111 -0.2305  0.1549
 8600SOL    HW137262   1.272   3.898   9.218  0.4510  0.6022  0.0059
 8600SOL    HW237263   1.374   3.791   9.194 -1.9223  0.4865 -1.3313
 8601SOL     OW37264   4.089   4.115   4.841  0.1507 -0.0371  0.5300
 8601SOL    HW137265   3.995   4.127   4.831  0.2475 -0.3493 -0.7947
 8601SOL    HW237266   4.092   4.021   4.822  0.8325  0.3607 -1.3731
 8602SOL     OW37267   2.374   4.667   9.510  0.3571 -0.2022 -0.0120
 8602SOL    HW137268   2.378   0.024   9.561 -1.7759  0.6597 -1.2534
 8602SOL    HW237269   2.340   4.713   9.433 -3.1834  0.8015  2.1521
 8603SOL     OW37270   0.226   1.642   0.007 -0.1743  0.5785  0.2198
 8603SOL    HW137271   0.215   1.655  17.613  1.4147  0.9558  0.0763
 8603SOL    HW237272   0.292   1.573   0.014 -0.0118  0.5001 -2.0551
 8604SOL     OW37273   1.518   2.528   8.805 -0.3907  0.6570 -0.4421
 8604SOL    HW137274   1.481   2.500   8.721  0.4201  0.7879 -0.8426
 8604SOL    HW237275   1.544   2.618   8.788 -0.9894  0.7744 -0.7417
 8605SOL     OW37276   0.117   3.080   7.834 -0.6515  0.2207 -0.2975
 8605SOL    HW137277   0.191   3.056   7.889 -0.8666 -2.2349 -1.0979
 8605SOL    HW237278   0.082   3.155   7.883  1.4529  1.8185 -1.2797
 8606SOL     OW37279   4.107   1.571   2.990 -0.5791  0.1694  0.5157
 8606SOL    HW137280   4.031   1.557   2.934 -0.0429 -0.9396  0.0785
 8606SOL    HW237281   4.110   1.482   3.025 -2.6244 -0.5438 -1.1437
 8607SOL     OW37282   0.388   0.121   1.133  0.3241 -0.3097  0.2563
 8607SOL    HW137283   0.317   0.081   1.184 -0.0849  1.1546  0.8393
 8607SOL    HW237284   0.460   0.090   1.187 -0.2563 -0.5075  0.9233
 8608SOL     OW37285   3.014   0.991   6.728 -0.0440 -0.0575 -0.0361
 8608SOL    HW137286   3.087   1.048   6.705  0.1550 -0.3207 -0.0495
 8608SOL    HW237287   2.936   1.035   6.694  0.0202  1.5311  1.8940
 8609SOL     OW37288   3.368   4.144   5.411 -0.2536  0.2225  0.1653
 8609SOL    HW137289   3.336   4.054   5.402 -0.2328  0.1588  0.7332
 8609SOL    HW237290   3.366   4.162   5.505  0.8539  1.8652 -0.1085
 8610SOL     OW37291   3.753   1.604   7.892  0.0015 -0.2507  0.5403
 8610SOL    HW137292   3.829   1.569   7.845  0.9708  1.6977  0.6240
 8610SOL    HW237293   3.729   1.538   7.957 -2.1125  0.7349  0.7635
 8611SOL     OW37294   3.045   3.233  17.301 -0.1733  0.2922  0.0622
 8611SOL    HW137295   2.956   3.205  17.282 -0.0682  0.7646 -1.1281
 8611SOL    HW237296   3.042   3.284  17.381  1.4079 -0.3128  0.5236
 8612SOL     OW37297   3.470   3.228   8.866 -0.4080 -1.0570 -0.2160
 8612SOL    HW137298   3.442   3.223   8.957  0.4671  0.1827  0.1061
 8612SOL    HW237299   3.533   3.156   8.862  0.2197 -0.6052  1.5334
 8613SOL     OW37300   3.860   3.379   4.874  0.2541  0.0802  0.0111
 8613SOL    HW137301   3.948   3.346   4.856  0.2062  0.5648 -1.0779
 8613SOL    HW237302   3.836   3.433   4.799  0.4282 -0.7347 -0.6380
 8614SOL     OW37303   1.452   3.601  10.626 -0.4316 -0.2233  0.1896
 8614SOL    HW137304   1.533   3.646  10.606 -0.7125  0.8565  1.5059
 8614SOL    HW237305   1.482   3.529  10.682  1.6380  0.6926  0.2505
 8615SOL     OW37306   2.828   0.300  13.651  0.3386 -0.9205  0.5600
 8615SOL    HW137307   2.747   0.297  13.702 -1.1440 -2.3298 -1.9105
 8615SOL    HW237308   2.809   0.231  13.587 -0.8557  0.3344 -0.4142
 8616SOL     OW37309   4.582   0.483  13.444  0.3012  0.0009 -0.1601
 8616SOL    HW137310   4.501   0.483  13.496 -0.0405  0.7937 -0.6816
 8616SOL    HW237311   4.595   0.578  13.450 -1.2772  0.2572 -0.5982
 8617SOL     OW37312   2.108   4.202   2.804  0.0171 -0.3427 -0.4442
 8617SOL    HW137313   2.073   4.288   2.779  1.1064 -0.3367 -1.9392
 8617SOL    HW237314   2.201   4.196   2.783  0.2445  1.5392 -0.0530
 8618SOL     OW37315   2.798   1.437   5.820 -0.5645  0.0697 -0.4252
 8618SOL    HW137316   2.890   1.420   5.843 -0.7973 -0.5815  0.0463
 8618SOL    HW237317   2.801   1.518   5.770 -1.1524  0.4650  0.1812
 8619SOL     OW37318   4.150   2.532   2.434  0.0925 -0.0285  0.0664
 8619SOL    HW137319   4.155   2.607   2.375  5.0789 -1.0780 -0.8505
 8619SOL    HW237320   4.088   2.476   2.388  0.1039 -0.6788  0.8359
 8620SOL     OW37321   3.178   3.536   3.200 -0.3131 -0.6959 -0.2909
 8620SOL    HW137322   3.117   3.556   3.271 -1.7502 -0.4173 -1.5882
 8620SOL    HW237323   3.218   3.623   3.198  0.0351 -0.8633 -0.6024
 8621SOL     OW37324   3.060   0.415  13.735 -0.4369 -0.5149  0.2278
 8621SOL    HW137325   3.011   0.498  13.740  3.0013  1.5849 -0.8776
 8621SOL    HW237326   2.989   0.360  13.704 -1.3645  1.0372 -0.4207
 8622SOL     OW37327   2.072   4.280   1.670  1.2018 -0.2359  0.1344
 8622SOL    HW137328   2.143   4.232   1.712  0.2643 -2.5307 -0.8745
 8622SOL    HW237329   2.036   4.333   1.742  3.9640  1.1935  0.4393
 8623SOL     OW37330   0.266   1.627   8.538 -0.1580  0.1991 -0.2239
 8623SOL    HW137331   0.270   1.698   8.473 -0.8628 -1.0397 -1.6355
 8623SOL    HW237332   0.324   1.562   8.497  1.4251  0.8969  0.8966
 8624SOL     OW37333   4.347   1.078   5.081 -0.7409  0.2659  0.1368
 8624SOL    HW137334   4.327   1.100   5.172  0.7627  0.7421  0.3466
 8624SOL    HW237335   4.380   0.989   5.093 -2.1262 -0.3074 -0.2947
 8625SOL     OW37336   1.772   4.680   3.092  0.4635 -0.5027  0.1319
 8625SOL    HW137337   1.801   4.603   3.043  0.9629  0.2899 -0.8085
 8625SOL    HW237338   1.786   0.031   3.035  0.3419 -0.9573 -0.4940
 8626SOL     OW37339   2.363   2.684   5.438  0.5120  0.2081  0.2543
 8626SOL    HW137340   2.341   2.659   5.348  0.6643  0.5617  0.1214
 8626SOL    HW237341   2.409   2.767   5.434  0.1157  0.4076 -0.1287
 8627SOL     OW37342   1.196   4.075   8.712  0.2966 -0.2111  0.4513
 8627SOL    HW137343   1.103   4.074   8.735  0.3941 -0.4876  0.8375
 8627SOL    HW237344   1.216   3.982   8.704  0.7259 -0.1602  0.9583
 8628SOL     OW37345   2.248   4.266   9.497 -0.1535 -0.6105  0.6855
 8628SOL    HW137346   2.256   4.358   9.521  1.6452 -0.3605 -0.8705
 8628SOL    HW237347   2.219   4.227   9.579  0.5599  0.6423  1.5297
 8629SOL     OW37348   0.607   4.510   3.464  0.2202  0.5688  0.0292
 8629SOL    HW137349   0.534   4.566   3.437 -0.2097 -0.1573 -0.3188
 8629SOL    HW237350   0.585   4.437   3.406 -1.6427  0.4037  0.9409
 8630SOL     OW37351   1.028   3.643   6.501 -0.5855 -0.1463  0.2636
 8630SOL    HW137352   1.039   3.566   6.556  0.2404 -0.0195  0.2635
 8630SOL    HW237353   0.989   3.702   6.566 -0.6851  1.6631 -1.4401
 8631SOL     OW37354   0.510   3.962   2.896 -0.2459 -0.3517 -0.1760
 8631SOL    HW137355   0.554   3.878   2.879  0.0194 -0.7521  2.3657
 8631SOL    HW237356   0.465   3.932   2.975 -0.0533 -0.3596 -0.0673
 8632SOL     OW37357   1.422   3.296  15.932 -0.9254  0.1026 -0.3302
 8632SOL    HW137358   1.355   3.358  15.903 -0.4357  0.9383  0.3069
 8632SOL    HW237359   1.460   3.351  16.000 -4.0847 -0.5809  1.9994
 8633SOL     OW37360   2.335   2.332  10.734 -0.5499  0.2922  0.0637
 8633SOL    HW137361   2.248   2.315  10.770  0.5859 -0.0030  2.7257
 8633SOL    HW237362   2.318   2.392  10.662  2.2654 -0.0352 -0.8905
 8634SOL     OW37363   2.412   0.265  11.304  0.2106 -0.0976  0.2293
 8634SOL    HW137364   2.429   0.350  11.345 -0.6627  0.3328 -0.2665
 8634SOL    HW237365   2.467   0.258  11.226  1.0565 -1.3929  0.9446
 8635SOL     OW37366   0.807   3.588   0.295  0.4260 -0.2015 -0.2726
 8635SOL    HW137367   0.874   3.528   0.260  0.6229 -0.0918 -0.0846
 8635SOL    HW237368   0.744   3.576   0.224 -0.1696  0.8808  0.0739
 8636SOL     OW37369   0.079   4.111   2.701  0.2493  0.5453  0.2389
 8636SOL    HW137370   0.110   4.024   2.725 -0.7811  0.3595  0.9021
 8636SOL    HW237371   4.710   4.095   2.686  0.3117 -1.2210  1.6719
 8637SOL     OW37372   0.164   2.741   4.666  0.2453  0.2757 -0.3247
 8637SOL    HW137373   0.170   2.808   4.733  1.4709 -1.1007  0.9525
 8637SOL    HW237374   0.255   2.741   4.636  0.8230  1.0249  1.4235
 8638SOL     OW37375   1.609   1.155   6.529  0.0334 -0.5506 -0.6723
 8638SOL    HW137376   1.527   1.204   6.524 -0.5224 -1.5251 -1.0662
 8638SOL    HW237377   1.584   1.065   6.507 -0.7566 -0.1537 -1.3900
 8639SOL     OW37378   2.179   4.327   7.063  0.0523 -0.9650  0.3883
 8639SOL    HW137379   2.159   4.376   6.984  0.4234 -1.1002  0.2082
 8639SOL    HW237380   2.275   4.333   7.067  0.0394 -1.3292  1.3928
 8640SOL     OW37381   1.724   4.602   8.076 -0.4016  0.5115  0.0584
 8640SOL    HW137382   1.688   4.523   8.035 -0.1140 -0.5529  1.8406
 8640SOL    HW237383   1.786   4.626   8.006  0.6241 -0.5015  0.6044
 8641SOL     OW37384   3.345   0.684   4.886 -0.5737 -0.1052 -0.4452
 8641SOL    HW137385   3.348   0.683   4.982  0.0032  0.6894 -0.4526
 8641SOL    HW237386   3.435   0.684   4.855 -0.5421  0.5010 -0.3620
 8642SOL     OW37387   2.956   1.825   8.720  0.1888 -0.2410 -0.5396
 8642SOL    HW137388   2.997   1.820   8.634 -0.9915 -4.2216 -0.8403
 8642SOL    HW237389   2.927   1.734   8.730  2.1398 -0.7537  0.2883
 8643SOL     OW37390   1.454   0.142   5.167 -0.5344  0.0804 -0.0779
 8643SOL    HW137391   1.360   0.157   5.162 -0.5610 -0.5021 -1.3294
 8643SOL    HW237392   1.473   0.087   5.091 -3.1081 -0.9878  0.0681
 8644SOL     OW37393   1.501   2.057   5.468  0.0295 -0.6978 -0.3095
 8644SOL    HW137394   1.424   2.001   5.452  1.5592 -2.6459 -0.7985
 8644SOL    HW237395   1.538   2.077   5.382  0.4173  2.9231  0.7085
 8645SOL     OW37396   4.506   3.892   7.466 -0.1154  0.4734 -0.0613
 8645SOL    HW137397   4.589   3.905   7.512 -1.4590  0.4107  2.3944
 8645SOL    HW237398   4.460   3.974   7.486  2.0319  2.0390 -1.5142
 8646SOL     OW37399   4.389   0.095   2.516 -0.7055 -0.0334 -0.0202
 8646SOL    HW137400   4.484   0.089   2.508 -0.8104 -0.9987 -0.4756
 8646SOL    HW237401   4.375   0.015   2.466  1.9241 -0.2456 -0.4201
 8647SOL     OW37402   0.782   2.866   5.739  0.2237  0.0231 -0.0637
 8647SOL    HW137403   0.827   2.911   5.667 -1.1804  0.5675 -0.6008
 8647SOL    HW237404   0.729   2.940   5.771  0.5722 -0.7481  2.2399
 8648SOL     OW37405   1.037   3.454   7.862  0.4830 -0.3852  0.4877
 8648SOL    HW137406   1.000   3.367   7.869 -1.5921  0.3206 -1.8000
 8648SOL    HW237407   1.019   3.458   7.768  0.5949 -0.6116  0.4555
 8649SOL     OW37408   0.433   4.226   0.037  0.0042  0.7153  0.4284
 8649SOL    HW137409   0.440   4.292  17.668 -0.4111 -0.1569 -0.4582
 8649SOL    HW237410   0.342   4.239   0.062 -0.2374 -0.5791  0.2202
 8650SOL     OW37411   3.382   3.852   9.522  0.4980  0.0280 -0.4018
 8650SOL    HW137412   3.308   3.911   9.507  0.4323  0.4710  1.7450
 8650SOL    HW237413   3.410   3.869   9.612  0.3548  1.2527 -0.5896
 8651SOL     OW37414   0.482   2.957   5.934 -0.1857 -0.5615 -0.1467
 8651SOL    HW137415   0.535   3.016   5.880 -1.7845 -0.6367 -1.8223
 8651SOL    HW237416   0.560   2.914   5.967  0.6700  0.6019 -0.6581
 8652SOL     OW37417   1.495   2.411   9.466  0.1454  0.0956  0.2251
 8652SOL    HW137418   1.430   2.345   9.441 -0.3224  0.2365  1.0555
 8652SOL    HW237419   1.570   2.396   9.409 -0.3394  3.4614 -1.2633
 8653SOL     OW37420   0.691   0.223   0.848  0.2450 -0.1039 -0.2476
 8653SOL    HW137421   0.620   0.167   0.879  2.9163 -2.1083  2.2993
 8653SOL    HW237422   0.678   0.225   0.753 -0.6303  1.7304 -0.0760
 8654SOL     OW37423   2.651   2.132   4.017 -0.0126  0.1724 -0.3319
 8654SOL    HW137424   2.693   2.079   4.084 -1.9781 -0.9304  0.0117
 8654SOL    HW237425   2.703   2.211   4.030  0.1187 -0.3627  2.3396
 8655SOL     OW37426   3.731   3.966   2.942 -0.3041 -0.0925  0.0122
 8655SOL    HW137427   3.702   4.051   2.907  0.1985 -0.4459 -1.2814
 8655SOL    HW237428   3.766   3.993   3.027 -0.8999  1.8455 -0.3515
 8656SOL     OW37429   0.331   1.372   0.591 -0.1212  0.0800  0.0474
 8656SOL    HW137430   0.324   1.464   0.565 -0.6207  0.2309  0.7290
 8656SOL    HW237431   0.267   1.369   0.661 -1.4031  1.5336 -1.0522
 8657SOL     OW37432   1.150   3.590  11.851  0.6923 -0.0500 -0.3882
 8657SOL    HW137433   1.198   3.667  11.882  1.4047 -1.2535  1.5164
 8657SOL    HW237434   1.065   3.604  11.894  0.7866 -0.2337 -0.1435
 8658SOL     OW37435   1.632   4.160  11.921  0.2956 -0.0608  0.6050
 8658SOL    HW137436   1.578   4.082  11.932 -0.0034  0.0328 -0.2437
 8658SOL    HW237437   1.706   4.123  11.874 -0.0458  1.6680 -1.3239
 8659SOL     OW37438   2.163   0.222   6.501 -0.2659 -0.3105 -0.0747
 8659SOL    HW137439   2.068   0.232   6.496 -0.1394  1.5576  1.3772
 8659SOL    HW237440   2.193   0.234   6.411  1.3160 -3.7022  0.0030
 8660SOL     OW37441   3.960   4.359   5.231  0.2527  0.0267 -0.0811
 8660SOL    HW137442   4.004   4.367   5.146  0.7160 -1.6448 -0.0104
 8660SOL    HW237443   3.880   4.409   5.213  0.4089  0.8404  1.4851
 8661SOL     OW37444   3.388   3.071   7.924 -0.2519  0.4994 -0.2020
 8661SOL    HW137445   3.322   3.097   7.988 -0.0080  1.4565 -0.3418
 8661SOL    HW237446   3.459   3.119   7.967  1.5163 -2.3346  0.0689
 8662SOL     OW37447   1.588   3.985  12.954 -0.1703 -0.3048  0.0149
 8662SOL    HW137448   1.553   4.018  13.036 -1.6130  1.7457 -1.4211
 8662SOL    HW237449   1.547   4.047  12.894  0.8700 -2.2092 -2.6666
 8663SOL     OW37450   3.434   0.282   8.699 -0.0619 -0.0808  0.3235
 8663SOL    HW137451   3.520   0.240   8.699  0.3223  0.7020 -0.2138
 8663SOL    HW237452   3.395   0.226   8.633 -2.6619  1.1854  0.7841
 8664SOL     OW37453   1.871   3.795   2.487  0.2217 -0.1019 -0.2525
 8664SOL    HW137454   1.874   3.737   2.411  1.3205 -0.9882  0.4768
 8664SOL    HW237455   1.938   3.861   2.467  1.7218 -1.5619  0.0335
 8665SOL     OW37456   4.643   1.115   2.249 -0.2598 -0.1231 -0.4415
 8665SOL    HW137457   4.620   1.136   2.340 -0.6825 -0.7488 -0.4027
 8665SOL    HW237458   4.631   1.020   2.250  1.2437 -0.2972  1.6883
 8666SOL     OW37459   4.329   3.368   6.484 -0.4947 -0.1320  0.3810
 8666SOL    HW137460   4.367   3.292   6.440 -0.0019  0.9584 -1.0829
 8666SOL    HW237461   4.240   3.339   6.503 -0.1236 -0.8946  0.9522
 8667SOL     OW37462   0.703   2.313  13.733 -0.1438  1.1886  0.5138
 8667SOL    HW137463   0.790   2.306  13.773 -0.2525 -1.1399  0.3522
 8667SOL    HW237464   0.723   2.243  13.670 -0.4860 -1.7610  3.7170
 8668SOL     OW37465   3.929   0.659   9.138 -0.6249 -0.4703  0.3504
 8668SOL    HW137466   3.885   0.601   9.200 -0.6304 -0.3202  0.4878
 8668SOL    HW237467   3.966   0.592   9.080 -3.2911  1.0797 -3.1490
 8669SOL     OW37468   4.130   1.175   7.233 -0.0574  0.7014  0.0442
 8669SOL    HW137469   4.081   1.251   7.264  0.4970  1.3969 -0.7587
 8669SOL    HW237470   4.057   1.114   7.222  0.7127 -0.8001  3.5018
 8670SOL     OW37471   0.363   2.874   6.886 -0.0277  0.2301 -0.6513
 8670SOL    HW137472   0.457   2.876   6.903 -0.3586 -1.9029  1.4697
 8670SOL    HW237473   0.361   2.919   6.801  0.9593 -1.0465 -1.3585
 8671SOL     OW37474   1.092   0.045   4.781  0.5666  0.0313 -0.1407
 8671SOL    HW137475   1.157   0.115   4.785  0.0600  0.6167 -2.5163
 8671SOL    HW237476   1.144   4.706   4.733 -2.0956 -2.2897  0.0484
 8672SOL     OW37477   0.249   2.674  14.858  0.4605 -0.2799  0.1148
 8672SOL    HW137478   0.295   2.634  14.932  1.7040  0.4189 -0.3047
 8672SOL    HW237479   0.163   2.632  14.862  0.6114 -0.4521  1.4489
 8673SOL     OW37480   0.963   3.962   2.384 -0.7036  0.3718  0.4136
 8673SOL    HW137481   1.040   3.938   2.333 -0.0945  0.1570  1.4198
 8673SOL    HW237482   0.920   3.879   2.403  2.1775 -1.0258  0.7835
 8674SOL     OW37483   0.470   2.246  17.390  0.0623  0.1248 -0.0790
 8674SOL    HW137484   0.551   2.199  17.367  0.0960  0.1683 -0.0510
 8674SOL    HW237485   0.463   2.221  17.482  0.7842  1.4514  0.3488
 8675SOL     OW37486   2.814   4.231   9.267  0.4787  0.8523 -0.5304
 8675SOL    HW137487   2.862   4.242   9.184 -2.1036  0.2889 -2.0795
 8675SOL    HW237488   2.726   4.223   9.232 -0.2414  0.6665  1.3450
 8676SOL     OW37489   2.286   2.975  14.535 -0.3006  0.1660  0.4900
 8676SOL    HW137490   2.284   3.006  14.444  0.6514  1.6866  1.0016
 8676SOL    HW237491   2.339   2.896  14.525 -1.0833 -0.1071 -1.6008
 8677SOL     OW37492   3.399   0.632   7.570 -0.0113  0.0543 -0.5272
 8677SOL    HW137493   3.420   0.718   7.607 -1.8166  0.2013  0.1489
 8677SOL    HW237494   3.465   0.575   7.610 -1.8188 -1.4704  0.3157
 8678SOL     OW37495   0.058   3.599   3.277 -0.5326  0.5832 -0.0246
 8678SOL    HW137496   0.067   3.652   3.356  1.0012 -1.0787  0.9207
 8678SOL    HW237497   0.146   3.561   3.271  0.1544  1.8321  2.1031
 8679SOL     OW37498   3.791   3.564   1.932 -0.0195  0.6503 -0.1573
 8679SOL    HW137499   3.841   3.517   1.999  0.4013 -0.5068 -1.2895
 8679SOL    HW237500   3.790   3.498   1.863 -1.3548  0.2873  0.2045
 8680SOL     OW37501   2.807   3.370  14.242  1.0178 -0.4101  0.1753
 8680SOL    HW137502   2.846   3.433  14.302  1.0545 -2.0863  1.8963
 8680SOL    HW237503   2.733   3.427  14.221  1.9083  0.1098 -1.4864
 8681SOL     OW37504   3.900   1.342  16.173 -0.5554  0.5681 -0.2684
 8681SOL    HW137505   3.873   1.269  16.229 -1.2484  1.1627  0.1676
 8681SOL    HW237506   3.994   1.327  16.187 -0.5669 -1.4477 -2.2728
 8682SOL     OW37507   0.282   1.224   0.335 -0.4130 -0.0256 -0.7697
 8682SOL    HW137508   0.277   1.287   0.407  1.2910 -2.7007  1.6830
 8682SOL    HW237509   0.361   1.245   0.285 -0.5937  1.9182 -0.2533
 8683SOL     OW37510   2.079   1.736  14.997 -0.1211 -0.0722  0.3202
 8683SOL    HW137511   2.129   1.732  15.079 -0.2352  0.7047  0.4303
 8683SOL    HW237512   2.027   1.812  15.021 -1.1178  0.0780 -2.3071
 8684SOL     OW37513   2.850   0.940   5.989 -0.9821  0.1053 -0.2669
 8684SOL    HW137514   2.891   0.901   5.911  0.2282  0.4422  0.2065
 8684SOL    HW237515   2.917   1.007   6.006 -0.1795 -0.5228 -0.9543
 8685SOL     OW37516   1.479   2.850   4.900 -0.3893  0.1891 -0.0118
 8685SOL    HW137517   1.519   2.795   4.832  1.2907 -1.1404  2.0582
 8685SOL    HW237518   1.394   2.860   4.856  0.6434  1.3015 -1.7644
 8686SOL     OW37519   1.075   2.262   9.037  0.1758  0.3728 -0.0416
 8686SOL    HW137520   1.030   2.187   8.997 -0.6744  0.9194 -0.1175
 8686SOL    HW237521   1.019   2.338   9.019 -0.0187 -0.5252 -3.1981
 8687SOL     OW37522   4.720   0.015   3.779 -0.2117 -0.1102  0.0979
 8687SOL    HW137523   0.040   0.093   3.747  0.9148 -1.0472 -0.6118
 8687SOL    HW237524   0.063   4.671   3.776  0.9181  1.0190 -0.2966
 8688SOL     OW37525   2.318   0.010   7.749  0.8839 -0.0028 -0.2956
 8688SOL    HW137526   2.256   0.082   7.756 -0.8119 -1.1548 -3.5791
 8688SOL    HW237527   2.263   4.673   7.702  0.7170 -0.0634 -0.0194
 8689SOL     OW37528   1.214   4.483  12.023  0.1866 -0.3589  0.3423
 8689SOL    HW137529   1.240   4.534  11.946 -1.5801 -0.1149 -0.0894
 8689SOL    HW237530   1.255   4.401  11.996 -1.3294 -0.9132 -0.3034
 8690SOL     OW37531   0.238   3.484   2.794 -0.4433  0.0992 -0.0734
 8690SOL    HW137532   0.263   3.443   2.711  1.7206  0.5803  0.3201
 8690SOL    HW237533   0.163   3.427   2.812 -1.0109 -0.4573 -4.1119
 8691SOL     OW37534   1.430   1.993   3.472  0.4126 -0.1086 -0.0924
 8691SOL    HW137535   1.400   1.981   3.562 -1.3440  1.2965 -0.4973
 8691SOL    HW237536   1.349   2.004   3.422 -1.4825 -0.6942  2.8472
 8692SOL     OW37537   0.822   1.562   9.341  0.3526  0.1337 -0.5890
 8692SOL    HW137538   0.854   1.527   9.424  0.2197 -1.1583 -1.0744
 8692SOL    HW237539   0.898   1.606   9.304  1.0145 -1.5071 -1.1683
 8693SOL     OW37540   0.130   0.042  14.938 -0.1464 -0.3306  0.5741
 8693SOL    HW137541   0.060   0.104  14.958  0.8428  1.3619 -1.2446
 8693SOL    HW237542   0.110   4.702  15.006  1.1743 -0.9188  0.4081
 8694SOL     OW37543   1.791   3.192   8.416 -0.2404 -0.0466 -0.2457
 8694SOL    HW137544   1.701   3.174   8.444 -0.9185  1.9872 -1.1141
 8694SOL    HW237545   1.816   3.265   8.473 -1.7748  0.4569 -0.2208
 8695SOL     OW37546   0.374   1.532   7.776  0.1897  0.1092  0.2037
 8695SOL    HW137547   0.421   1.484   7.845  0.6873 -0.6684 -0.6702
 8695SOL    HW237548   0.299   1.481   7.745  0.3204 -0.8890  1.5126
 8696SOL     OW37549   1.431   1.803   8.269 -0.5036  0.0920  0.4690
 8696SOL    HW137550   1.360   1.803   8.333 -0.4820 -2.6306  0.4785
 8696SOL    HW237551   1.498   1.744   8.305 -0.4750  0.2049  0.5988
 8697SOL     OW37552   1.028   1.636   0.604 -0.4997 -0.2191 -0.7317
 8697SOL    HW137553   0.960   1.572   0.624  0.9444 -0.6015  2.8792
 8697SOL    HW237554   1.072   1.600   0.527 -2.0887 -2.8522 -0.4116
 8698SOL     OW37555   4.352   1.956  16.247  0.3305 -0.5780 -0.1902
 8698SOL    HW137556   4.276   1.944  16.189 -0.8382 -0.8272  1.3835
 8698SOL    HW237557   4.400   2.011  16.185  0.2906  1.7152  1.8200
 8699SOL     OW37558   1.151   3.814   2.251  0.7722  0.4569  0.0383
 8699SOL    HW137559   1.135   3.831   2.158 -1.1810 -0.2115  0.2692
 8699SOL    HW237560   1.164   3.720   2.249  0.6563  0.4295  0.6804
 8700SOL     OW37561   0.612   0.838   4.516 -0.0041 -0.3336 -0.5812
 8700SOL    HW137562   0.591   0.745   4.528 -2.5862  0.4376  0.8848
 8700SOL    HW237563   0.533   0.879   4.552 -1.1731 -2.6802 -0.4673
 8701SOL     OW37564   3.993   2.780   6.019  0.2162 -0.2463 -0.1466
 8701SOL    HW137565   4.056   2.774   5.947 -2.7503 -0.7461 -2.7074
 8701SOL    HW237566   4.045   2.715   6.065  0.0362  0.4884  1.0887
 8702SOL     OW37567   4.568   1.798   5.691 -0.2552  0.3437 -0.4279
 8702SOL    HW137568   4.559   1.773   5.599 -0.5597 -2.1857  0.2938
 8702SOL    HW237569   4.652   1.762   5.718 -2.2040 -2.5535  1.7700
 8703SOL     OW37570   4.157   0.786   6.884  0.2947 -0.0328  0.1396
 8703SOL    HW137571   4.174   0.867   6.835  0.2096  0.1465  0.4052
 8703SOL    HW237572   4.062   0.777   6.874  0.4506  0.1164 -1.5600
 8704SOL     OW37573   0.296   3.011   2.360  0.2550  0.5383 -0.2489
 8704SOL    HW137574   0.248   3.019   2.278 -0.6880  0.9182  0.3411
 8704SOL    HW237575   0.268   2.927   2.399 -0.0200 -0.0264 -1.6699
 8705SOL     OW37576   1.993   1.550   2.995 -0.5699  0.1293  0.6817
 8705SOL    HW137577   1.951   1.633   2.971 -0.2363  0.3279  0.7815
 8705SOL    HW237578   1.919   1.491   2.980 -1.1094  1.2749 -1.2303
 8706SOL     OW37579   0.712   0.088   1.968 -0.1091 -0.4604 -0.1626
 8706SOL    HW137580   0.661   0.021   2.014  0.2759 -1.0789 -0.6343
 8706SOL    HW237581   0.684   0.068   1.878 -1.8823  2.7808 -0.3379
 8707SOL     OW37582   1.124   2.704   5.358  0.2002 -0.2581 -0.1510
 8707SOL    HW137583   1.095   2.737   5.443  0.0893 -1.2455  0.1895
 8707SOL    HW237584   1.121   2.608   5.363 -1.4199 -0.1774  0.4222
 8708SOL     OW37585   1.339   2.900   3.302  0.5077 -0.2497 -0.0853
 8708SOL    HW137586   1.396   2.907   3.226  1.3132  4.3343  0.9027
 8708SOL    HW237587   1.318   2.993   3.311  0.7643 -0.2802  0.8526
 8709SOL     OW37588   2.201   0.476  16.263 -0.4983  0.0742 -0.1768
 8709SOL    HW137589   2.184   0.569  16.248  1.3483  0.5264  0.5407
 8709SOL    HW237590   2.109   0.449  16.262 -0.6386  0.5467 -0.3926
 8710SOL     OW37591   4.268   0.194   6.367 -0.4248  0.2864  0.1825
 8710SOL    HW137592   4.354   0.219   6.401 -0.2940 -0.4603  0.4054
 8710SOL    HW237593   4.254   0.115   6.420 -1.6577 -1.0916 -2.2100
 8711SOL     OW37594   3.189   4.411   2.867 -0.4574  0.5477  0.0868
 8711SOL    HW137595   3.204   4.324   2.828  1.6615 -0.1969  2.6211
 8711SOL    HW237596   3.179   4.384   2.958  3.0835 -2.3097 -0.3511
 8712SOL     OW37597   1.657   4.372  13.913  0.5768 -0.4937  0.6162
 8712SOL    HW137598   1.627   4.450  13.865  1.9267  1.0006  2.1714
 8712SOL    HW237599   1.745   4.406  13.930 -0.0514  1.2395  0.4729
 8713SOL     OW37600   2.299   4.469   7.951 -0.4991 -0.2069  0.2465
 8713SOL    HW137601   2.345   4.552   7.966 -1.2690  0.3207 -0.3392
 8713SOL    HW237602   2.357   4.419   7.893 -0.1196  0.7029 -0.1506
 8714SOL     OW37603   2.380   1.835   8.724 -0.0481 -0.6721 -0.3386
 8714SOL    HW137604   2.378   1.762   8.663 -0.9673 -1.1229  0.2303
 8714SOL    HW237605   2.372   1.904   8.658 -3.4494 -2.0258 -1.3801
 8715SOL     OW37606   1.672   0.966   5.052  0.6159  0.0594 -0.0379
 8715SOL    HW137607   1.758   1.004   5.073 -0.0027  1.0156  0.7855
 8715SOL    HW237608   1.639   1.032   4.990  0.7205 -2.4174 -2.7013
 8716SOL     OW37609   2.999   2.210  15.551 -0.5298 -0.1905 -0.9602
 8716SOL    HW137610   2.921   2.168  15.515  1.1781 -2.6304 -1.7972
 8716SOL    HW237611   3.063   2.184  15.485  0.5864  0.2037 -0.0269
 8717SOL     OW37612   2.386   1.213   3.533  0.1707  0.3847 -0.5807
 8717SOL    HW137613   2.452   1.156   3.571 -0.7300 -0.8888 -0.9033
 8717SOL    HW237614   2.309   1.174   3.576 -0.3266  0.4507 -1.3967
 8718SOL     OW37615   3.252   1.744  14.303  0.2301  0.0922 -0.0489
 8718SOL    HW137616   3.199   1.682  14.352 -2.9652  1.0350 -2.3346
 8718SOL    HW237617   3.328   1.686  14.292  0.4738  0.0941  1.5537
 8719SOL     OW37618   3.784   0.987   6.500  0.1834 -0.5749  0.5069
 8719SOL    HW137619   3.763   0.895   6.515  0.7456 -0.6639  0.7261
 8719SOL    HW237620   3.775   1.013   6.591  0.2892  0.3927  0.2456
 8720SOL     OW37621   1.624   1.874  16.001  0.2797  0.1784  0.2325
 8720SOL    HW137622   1.543   1.824  16.006  0.0099  0.4865 -1.0183
 8720SOL    HW237623   1.689   1.804  16.011 -1.0435 -0.8123  1.9663
 8721SOL     OW37624   0.928   2.621  11.933 -0.1000  0.0834  0.1347
 8721SOL    HW137625   0.914   2.541  11.985 -1.3032  0.3525  0.2200
 8721SOL    HW237626   0.921   2.689  12.000 -0.9345  4.7670 -4.7329
 8722SOL     OW37627   0.555   0.306   1.672  0.3085  0.0214 -0.6843
 8722SOL    HW137628   0.651   0.310   1.675  0.2921  0.0253 -0.1713
 8722SOL    HW237629   0.532   0.240   1.737  0.3384 -0.6853 -1.3809
 8723SOL     OW37630   0.455   4.508   6.642 -0.7148  0.4220 -0.4271
 8723SOL    HW137631   0.493   4.438   6.588  0.5044 -0.0020  0.9875
 8723SOL    HW237632   0.366   4.476   6.658  0.1528 -1.0658  1.5153
 8724SOL     OW37633   0.061   0.754   4.291 -0.0671  0.2193  0.5163
 8724SOL    HW137634   0.025   0.806   4.363  1.8516 -1.3245  2.5858
 8724SOL    HW237635   0.145   0.799   4.285  1.7384 -3.1838  0.0265
 8725SOL     OW37636   2.348   0.329   1.827  0.4351  0.2851 -0.4800
 8725SOL    HW137637   2.286   0.283   1.884  0.9126  0.3529  0.0992
 8725SOL    HW237638   2.389   0.256   1.783  0.4237  1.4901 -2.4632
 8726SOL     OW37639   1.324   2.207   8.935  0.3540  0.0351 -0.1049
 8726SOL    HW137640   1.234   2.238   8.948  0.5235 -0.2111  1.5830
 8726SOL    HW237641   1.303   2.114   8.950 -4.3969  0.5978 -3.1836
 8727SOL     OW37642   0.711   3.282  10.593 -0.0825 -0.6248  0.0105
 8727SOL    HW137643   0.681   3.306  10.506  1.1041 -1.0258 -0.5175
 8727SOL    HW237644   0.651   3.209  10.608  0.5588 -0.8711  1.3449
 8728SOL     OW37645   3.343   2.660   8.694 -0.2862 -0.2722  0.0662
 8728SOL    HW137646   3.286   2.734   8.673 -0.2794  0.1287  1.4593
 8728SOL    HW237647   3.322   2.593   8.629  3.5196 -0.8735 -0.5754
 8729SOL     OW37648   0.632   1.322   9.743  0.1945  0.4498 -0.6787
 8729SOL    HW137649   0.715   1.369   9.736  0.4891 -0.2655 -2.0040
 8729SOL    HW237650   0.577   1.373   9.802 -0.8300 -2.8330  1.2149
 8730SOL     OW37651   2.768   4.133  15.464  0.2069 -0.3216 -0.2309
 8730SOL    HW137652   2.802   4.176  15.542 -0.7603  1.8570 -1.0009
 8730SOL    HW237653   2.731   4.200  15.406  0.4308 -1.3121 -1.5326
 8731SOL     OW37654   3.128   1.821   4.521 -0.3560 -1.0625 -0.6086
 8731SOL    HW137655   3.117   1.771   4.441  1.6460 -1.2886 -0.7370
 8731SOL    HW237656   3.144   1.748   4.581  0.2464 -1.3418 -1.1078
 8732SOL     OW37657   3.835   2.153   8.164 -0.4565 -0.0255  0.6013
 8732SOL    HW137658   3.862   2.200   8.243  0.3263 -0.4385  0.5780
 8732SOL    HW237659   3.741   2.174   8.161 -0.2255  0.7309 -1.1708
 8733SOL     OW37660   2.542   3.017   6.759 -0.5403  0.3693  0.2022
 8733SOL    HW137661   2.590   3.099   6.766  2.0814 -1.0466 -0.9405
 8733SOL    HW237662   2.608   2.952   6.734 -1.5675 -0.5138 -0.2143
 8734SOL     OW37663   3.738   3.800   8.952  0.5455  0.9049 -0.2840
 8734SOL    HW137664   3.810   3.822   9.010  0.3803  1.1664 -0.1777
 8734SOL    HW237665   3.663   3.799   9.011 -0.2954 -1.2640 -1.3808
 8735SOL     OW37666   3.873   3.024   8.734  0.1528 -0.3278 -0.1188
 8735SOL    HW137667   3.879   2.942   8.686  2.1204 -0.4351  0.3300
 8735SOL    HW237668   3.795   3.014   8.789  0.3614 -0.4871  0.1437
 8736SOL     OW37669   1.687   0.566   6.432  0.0333 -0.0830 -0.1573
 8736SOL    HW137670   1.648   0.538   6.515  2.1926  0.2305  0.9777
 8736SOL    HW237671   1.617   0.583   6.369 -0.9474  1.9179  1.4570
 8737SOL     OW37672   2.072   0.740   6.589  0.7493  0.2193 -0.2392
 8737SOL    HW137673   2.004   0.707   6.530  0.8874  0.0997 -0.3340
 8737SOL    HW237674   2.013   0.747   6.664 -0.5575 -2.1296 -1.0115
 8738SOL     OW37675   0.302   2.174   8.412  0.3457 -0.1911  0.1842
 8738SOL    HW137676   0.310   2.183   8.318  1.3895 -2.4009  0.0376
 8738SOL    HW237677   0.323   2.265   8.432 -1.4602 -0.1447  1.8949
 8739SOL     OW37678   3.353   1.555   3.554 -0.0763  0.1869 -0.1385
 8739SOL    HW137679   3.397   1.489   3.499  0.4637 -0.0835  0.6136
 8739SOL    HW237680   3.314   1.612   3.488 -1.4156 -0.4282  0.1231
 8740SOL     OW37681   2.875   3.196   9.174  0.1177  0.1787  0.1361
 8740SOL    HW137682   2.850   3.243   9.255  0.9418  1.7962 -0.5496
 8740SOL    HW237683   2.940   3.250   9.130  0.6888 -1.5987 -1.1878
 8741SOL     OW37684   2.108   0.741   0.675  0.5035 -0.2459 -0.5345
 8741SOL    HW137685   2.094   0.791   0.594  0.8326 -2.7494 -2.1252
 8741SOL    HW237686   2.100   0.648   0.654 -0.4878 -0.0990 -0.8281
 8742SOL     OW37687   3.568   3.244   8.095  0.2338 -0.5272 -0.0210
 8742SOL    HW137688   3.517   3.258   8.175  0.0947 -0.4035 -0.1315
 8742SOL    HW237689   3.635   3.182   8.123 -0.6800 -0.8290  1.4760
 8743SOL     OW37690   1.480   0.238  13.886 -0.0824  0.3571 -0.1703
 8743SOL    HW137691   1.397   0.191  13.890 -0.7070  1.6271  1.6918
 8743SOL    HW237692   1.518   0.203  13.805 -2.7429  1.8677 -2.0736
 8744SOL     OW37693   2.915   3.222   4.478  0.3957  0.2001 -0.0888
 8744SOL    HW137694   2.904   3.294   4.417  1.9575  0.3971 -0.1260
 8744SOL    HW237695   2.981   3.258   4.536  0.8697  0.0020 -0.5068
 8745SOL     OW37696   2.244   3.287   9.416 -0.0315  0.0764 -0.0880
 8745SOL    HW137697   2.250   3.347   9.490 -1.9717 -2.2334  1.9269
 8745SOL    HW237698   2.158   3.310   9.382  0.8400 -0.7115 -2.8392
 8746SOL     OW37699   1.434   2.342  10.357  0.4087  0.5061 -0.1945
 8746SOL    HW137700   1.502   2.340  10.424 -0.2868 -3.4308  0.3762
 8746SOL    HW237701   1.492   2.310  10.287 -0.6935 -0.8115 -0.4899
 8747SOL     OW37702   0.087   2.075   6.790  0.0624  0.0031 -0.3604
 8747SOL    HW137703   0.020   2.143   6.789  0.5088  0.4794  1.7197
 8747SOL    HW237704   0.029   2.002   6.812 -0.5265  0.0148 -1.9073
 8748SOL     OW37705   2.290   4.102   4.172  0.0601 -0.1910  0.8425
 8748SOL    HW137706   2.362   4.127   4.114 -0.3920  1.3543  0.9554
 8748SOL    HW237707   2.234   4.180   4.168  0.8281  0.3281  0.2647
 8749SOL     OW37708   1.108   3.155   4.916 -0.4662 -0.3887  0.0724
 8749SOL    HW137709   1.018   3.131   4.892 -0.3867 -2.1286  1.5361
 8749SOL    HW237710   1.136   3.226   4.859 -0.5944 -1.1852 -0.9897
 8750SOL     OW37711   1.752   1.161   1.544 -0.1566 -0.1829 -0.2285
 8750SOL    HW137712   1.671   1.118   1.514 -0.0294 -0.6370  0.0657
 8750SOL    HW237713   1.718   1.243   1.579 -1.2330 -0.6409 -0.1868
 8751SOL     OW37714   0.029   0.593   9.210  0.7824 -0.1249 -0.0655
 8751SOL    HW137715   0.023   0.615   9.303 -0.1919 -0.5407 -0.0175
 8751SOL    HW237716   4.702   0.662   9.168 -2.0717 -1.0746  1.8050
 8752SOL     OW37717   0.426   3.341   5.884 -0.2855  0.0284  0.3072
 8752SOL    HW137718   0.385   3.303   5.806 -0.7922  0.8096  0.1992
 8752SOL    HW237719   0.365   3.410   5.909  2.3318  2.1724  0.7094
 8753SOL     OW37720   2.546   1.990  13.333  0.0521 -0.3734 -0.1153
 8753SOL    HW137721   2.559   2.068  13.387 -0.0002 -0.1452 -0.4274
 8753SOL    HW237722   2.612   1.932  13.370  0.6370  0.3828  0.0314
 8754SOL     OW37723   3.058   4.408   0.658  0.1109 -0.1762 -1.0539
 8754SOL    HW137724   3.062   4.371   0.746 -0.0276 -1.2697 -1.5029
 8754SOL    HW237725   3.140   4.390   0.611  0.2431  1.7472 -1.5528
 8755SOL     OW37726   1.435   0.996   7.035 -0.7124  0.0871 -0.5495
 8755SOL    HW137727   1.508   1.012   7.096  0.5841 -2.3178 -1.4849
 8755SOL    HW237728   1.403   1.083   7.010 -0.8127 -0.0061 -0.7399
 8756SOL     OW37729   0.928   1.499   1.308  0.3965  0.0380  0.1460
 8756SOL    HW137730   0.912   1.455   1.224  1.3346  1.1506 -0.6159
 8756SOL    HW237731   0.878   1.449   1.373 -0.3952  0.8286  0.1392
 8757SOL     OW37732   0.011   0.736   9.469 -0.3150  0.2851  0.1335
 8757SOL    HW137733   0.006   0.816   9.417  0.2948  0.6927  0.6983
 8757SOL    HW237734   4.672   0.752   9.539 -0.1013 -0.7802  0.5686
 8758SOL     OW37735   1.609   0.422  10.000 -0.5213 -0.7607  0.0283
 8758SOL    HW137736   1.552   0.363   9.951 -1.2993  0.2814 -0.3223
 8758SOL    HW237737   1.686   0.367  10.016 -0.9504 -0.4195  3.3024
 8759SOL     OW37738   1.338   4.248  11.922  0.4481  0.0005  0.2357
 8759SOL    HW137739   1.343   4.259  11.827  1.0038  0.3153  0.2991
 8759SOL    HW237740   1.260   4.193  11.927  0.8148 -0.1780  4.3704
 8760SOL     OW37741   0.667   0.265   2.919 -0.2907  0.3169  0.0828
 8760SOL    HW137742   0.668   0.335   2.984 -0.6396  1.7835 -1.5052
 8760SOL    HW237743   0.665   0.307   2.833  0.1078 -1.0066 -0.5715
 8761SOL     OW37744   4.667   2.290   3.956 -0.4561  0.1277  0.2300
 8761SOL    HW137745   4.580   2.259   3.981 -1.2065  2.0627  0.0600
 8761SOL    HW237746   4.633   2.323   3.872 -4.0777 -1.2382  1.1322
 8762SOL     OW37747   3.283   3.733   8.635 -0.0239  0.0132 -0.3537
 8762SOL    HW137748   3.247   3.812   8.675  1.7018 -1.5761  4.3448
 8762SOL    HW237749   3.313   3.673   8.704 -0.4392 -2.3436 -2.2113
 8763SOL     OW37750   3.644   3.811   4.850  0.3823  0.3727  0.5305
 8763SOL    HW137751   3.670   3.876   4.916 -0.8859  1.1005  0.3157
 8763SOL    HW237752   3.555   3.794   4.881 -0.7448  2.8643 -1.3603
 8764SOL     OW37753   2.398   4.441  11.740  0.6174 -0.8269  0.0960
 8764SOL    HW137754   2.358   4.355  11.730 -0.5770 -0.1171 -1.2073
 8764SOL    HW237755   2.436   4.459  11.654  0.8116  1.7103  0.7030
 8765SOL     OW37756   3.225   3.191  15.082  0.3643  0.1866  0.3786
 8765SOL    HW137757   3.260   3.213  14.996 -0.2003 -0.3815  0.0037
 8765SOL    HW237758   3.133   3.181  15.059  0.6521 -0.0527 -0.6585
 8766SOL     OW37759   3.093   1.454  14.902  0.0228 -0.5876  0.0401
 8766SOL    HW137760   3.024   1.517  14.924  0.4540 -0.5805  1.3848
 8766SOL    HW237761   3.107   1.488  14.813  0.1901  0.3685  0.4282
 8767SOL     OW37762   1.693   4.163   3.541 -0.5130 -0.1057 -0.2541
 8767SOL    HW137763   1.705   4.130   3.452  1.8409  0.8038 -0.2825
 8767SOL    HW237764   1.777   4.168   3.587  0.4787 -0.3721 -2.0619
 8768SOL     OW37765   0.162   2.509   9.148  0.6918 -0.0732  0.2246
 8768SOL    HW137766   0.226   2.452   9.106 -0.4210 -2.1217  1.3372
 8768SOL    HW237767   0.206   2.526   9.232 -0.5741 -1.1334  1.1043
 8769SOL     OW37768   3.142   0.514   4.770 -0.7408 -0.1714  0.1306
 8769SOL    HW137769   3.132   0.480   4.859  1.1081 -0.5053  0.2052
 8769SOL    HW237770   3.233   0.545   4.774  0.0471 -2.5571  0.7137
 8770SOL     OW37771   3.095   3.682   6.958 -0.0274 -0.8655 -0.0236
 8770SOL    HW137772   3.148   3.759   6.939  0.9624 -0.7580  3.1163
 8770SOL    HW237773   3.043   3.682   6.877  1.6503 -0.8213 -1.0942
 8771SOL     OW37774   3.526   2.267   8.648 -0.8246 -0.0288 -0.4757
 8771SOL    HW137775   3.500   2.249   8.739  0.7278 -0.7575 -0.1683
 8771SOL    HW237776   3.488   2.184   8.619 -1.0366  0.5020 -1.7150
 8772SOL     OW37777   0.788   1.794   8.192  0.1422  0.2889 -0.3914
 8772SOL    HW137778   0.808   1.880   8.156  1.8007 -0.3850 -1.0764
 8772SOL    HW237779   0.859   1.776   8.253  0.9568  0.8932 -1.1800
 8773SOL     OW37780   1.251   2.603   4.580 -0.0515 -0.1717  0.1330
 8773SOL    HW137781   1.257   2.508   4.582 -1.1533 -0.2814 -1.2133
 8773SOL    HW237782   1.164   2.614   4.619 -0.5976 -1.2564 -0.7731
 8774SOL     OW37783   3.283   0.433   3.717 -0.2651  0.7444 -0.8000
 8774SOL    HW137784   3.348   0.461   3.781 -0.0438 -1.6480 -0.0074
 8774SOL    HW237785   3.232   0.362   3.754 -0.8486  2.0836  0.9741
 8775SOL     OW37786   4.434   0.383  17.301  0.0357  0.6112 -0.7786
 8775SOL    HW137787   4.427   0.421  17.389  0.4244  3.2321 -1.9100
 8775SOL    HW237788   4.360   0.429  17.261 -0.7117  1.6021  1.7435
 8776SOL     OW37789   4.390   0.703   3.825 -0.1075  0.5957 -0.5203
 8776SOL    HW137790   4.310   0.652   3.829  0.1218  0.2455 -0.3709
 8776SOL    HW237791   4.392   0.725   3.732 -2.3223  1.5108 -0.3539
 8777SOL     OW37792   4.175   0.142   1.378  0.1729  0.1222 -0.6822
 8777SOL    HW137793   4.149   0.229   1.347 -2.2907 -0.6054 -0.6440
 8777SOL    HW237794   4.092   0.095   1.373  0.7782 -0.8379 -1.6950
 8778SOL     OW37795   1.013   1.623   8.322  0.1774 -0.0947 -0.1107
 8778SOL    HW137796   1.013   1.657   8.411 -1.3971 -1.9493  0.5781
 8778SOL    HW237797   1.039   1.532   8.338  1.0580  0.1729 -0.0302
 8779SOL     OW37798   0.362   2.036   8.650  0.5470 -0.3398 -0.6615
 8779SOL    HW137799   0.319   2.092   8.585  0.6240  2.0943  1.4256
 8779SOL    HW237800   0.422   2.102   8.684 -0.0726  0.1056 -0.4354
 8780SOL     OW37801   0.422   3.826  12.261  0.1946 -0.2474 -0.0606
 8780SOL    HW137802   0.457   3.844  12.348 -0.5518 -0.6105  0.3159
 8780SOL    HW237803   0.398   3.909  12.221  0.2264 -0.4820 -0.5723
 8781SOL     OW37804   4.043   0.028   1.674 -0.3189  0.1476  0.5345
 8781SOL    HW137805   4.065   0.121   1.676 -0.1583  0.0652  2.5342
 8781SOL    HW237806   3.995   0.015   1.592  1.0509  1.1885 -0.4275
 8782SOL     OW37807   1.576   0.937   1.709  0.4551 -0.3531 -0.5399
 8782SOL    HW137808   1.484   0.919   1.730  0.9527 -2.6437 -0.2601
 8782SOL    HW237809   1.561   0.988   1.629 -0.2101 -0.5567 -0.5490
 8783SOL     OW37810   1.127   4.110   3.947  0.1461 -0.1991 -0.3520
 8783SOL    HW137811   1.045   4.158   3.940 -0.0425 -0.5557 -0.6029
 8783SOL    HW237812   1.183   4.187   3.952 -1.3539  0.8848 -0.3539
 8784SOL     OW37813   4.320   2.128   5.510  0.1062  0.3615  0.1801
 8784SOL    HW137814   4.326   2.134   5.415 -1.4439  2.8180  0.2514
 8784SOL    HW237815   4.366   2.209   5.533 -3.8235  1.9787  2.3847
 8785SOL     OW37816   4.254   0.171  13.951  0.8008  0.2528 -0.2515
 8785SOL    HW137817   4.300   0.138  14.028  1.4663  1.1707 -0.2523
 8785SOL    HW237818   4.179   0.115  13.933  0.5625 -0.0388  1.6495
 8786SOL     OW37819   0.209   1.693   7.456 -0.5334  0.9126 -0.5226
 8786SOL    HW137820   0.256   1.738   7.385 -0.1792 -0.0046 -0.8611
 8786SOL    HW237821   0.118   1.696   7.424  0.7234 -0.4595 -4.2986
 8787SOL     OW37822   2.102   4.515   8.974  0.4930  0.2435 -0.6310
 8787SOL    HW137823   2.028   4.454   8.966  1.6991 -1.4754  1.0866
 8787SOL    HW237824   2.125   4.500   9.066 -0.7865 -1.5828 -0.6006
 8788SOL     OW37825   3.203   2.760  15.459  0.0907  0.5222  0.1012
 8788SOL    HW137826   3.177   2.831  15.400 -0.6092 -0.9772 -1.4067
 8788SOL    HW237827   3.298   2.768  15.466  0.1805  0.5032 -1.0157
 8789SOL     OW37828   3.279   0.740   3.700  0.1090 -0.4727 -0.0465
 8789SOL    HW137829   3.333   0.665   3.724  0.1465 -0.6373 -0.6290
 8789SOL    HW237830   3.342   0.780   3.640  0.1729 -0.4962  0.0047
 8790SOL     OW37831   3.399   0.781   4.045 -0.4313  0.1489 -0.6736
 8790SOL    HW137832   3.322   0.807   3.995  0.2073 -0.1153 -1.8043
 8790SOL    HW237833   3.471   0.841   4.025 -1.7539  2.0159  0.2112
 8791SOL     OW37834   1.281   1.286   7.473  0.4852  0.4901 -0.2045
 8791SOL    HW137835   1.286   1.365   7.526  2.6173 -1.0736  1.9621
 8791SOL    HW237836   1.373   1.258   7.477  0.4083  0.1832 -0.5328
 8792SOL     OW37837   0.936   0.839   8.693  0.7745  0.3551  0.5069
 8792SOL    HW137838   0.986   0.764   8.727  1.2335  0.7325  0.6697
 8792SOL    HW237839   0.925   0.881   8.779 -0.4483 -1.3635  1.1946
 8793SOL     OW37840   2.836   3.012  12.651 -0.1683  0.0296  0.6487
 8793SOL    HW137841   2.799   2.956  12.582 -0.1193 -0.1116  0.7387
 8793SOL    HW237842   2.758   3.034  12.702  0.4883 -0.7401  1.9894
 8794SOL     OW37843   1.059   2.183  12.129  0.1958 -0.1012  0.2485
 8794SOL    HW137844   1.123   2.112  12.127  0.7270  0.3984 -0.7422
 8794SOL    HW237845   1.026   2.174  12.219  0.0401 -4.6203 -0.2642
 8795SOL     OW37846   0.094   1.317   6.539  0.4715 -0.1261  0.2768
 8795SOL    HW137847   0.062   1.230   6.564  1.7800 -0.5694  0.4170
 8795SOL    HW237848   0.046   1.329   6.457  1.0571  1.5901  0.1902
 8796SOL     OW37849   1.658   0.983  11.546 -0.4573  1.0020  0.2560
 8796SOL    HW137850   1.749   0.997  11.523 -0.8129  1.0876 -1.1012
 8796SOL    HW237851   1.658   1.005  11.639  0.1797 -1.6725  0.8830
 8797SOL     OW37852   0.024   1.150  17.632  0.1276  0.1849  0.1131
 8797SOL    HW137853   0.025   1.214  17.561  0.1105 -0.2324 -0.2606
 8797SOL    HW237854   0.042   1.202   0.010 -0.8654  1.5300 -0.5664
 8798SOL     OW37855   1.365   0.334   7.888 -0.0280  0.4064 -0.5837
 8798SOL    HW137856   1.362   0.388   7.966  0.1927 -1.7117  0.8931
 8798SOL    HW237857   1.442   0.285   7.915  1.3440  2.9157  0.0277
 8799SOL     OW37858   1.927   1.749   1.991  0.1224  0.4767 -0.2069
 8799SOL    HW137859   1.839   1.785   2.002  1.0466  2.1707  1.6977
 8799SOL    HW237860   1.959   1.780   1.907  1.8504 -0.5955  0.0708
 8800SOL     OW37861   0.645   2.512   9.807 -0.1465 -0.1022  0.3975
 8800SOL    HW137862   0.552   2.532   9.794  0.1337 -0.2792 -2.0379
 8800SOL    HW237863   0.659   2.544   9.895 -0.4056 -3.8724  1.8167
 8801SOL     OW37864   1.413   0.695   3.754 -0.4873  0.3881 -0.6336
 8801SOL    HW137865   1.500   0.734   3.757  0.0755 -0.8633 -0.4378
 8801SOL    HW237866   1.423   0.637   3.679 -2.0002 -0.9910  0.2034
 8802SOL     OW37867   2.439   1.518   7.559  0.0388  1.1159  0.3608
 8802SOL    HW137868   2.352   1.557   7.572 -0.1743  0.3491  1.2749
 8802SOL    HW237869   2.463   1.490   7.647  2.0416  1.8670  0.0309
 8803SOL     OW37870   1.185   1.036  11.589  0.1261 -0.4126 -0.2676
 8803SOL    HW137871   1.230   0.953  11.573 -0.7399 -0.7908 -0.7557
 8803SOL    HW237872   1.251   1.103  11.602 -1.9326  1.1689  2.0316
 8804SOL     OW37873   0.699   0.884   0.856  0.0823 -0.0492  0.4127
 8804SOL    HW137874   0.605   0.898   0.870  0.0548 -1.4642  1.6721
 8804SOL    HW237875   0.722   0.838   0.938  1.3630  2.9040  1.7137
 8805SOL     OW37876   2.754   4.492   1.348 -0.1334  0.1802  0.1762
 8805SOL    HW137877   2.742   4.537   1.264 -0.0534  1.8083  1.0243
 8805SOL    HW237878   2.731   4.401   1.333  3.2233 -1.2301  3.6657
 8806SOL     OW37879   2.592   1.758  12.572  0.0317  0.0406 -1.0184
 8806SOL    HW137880   2.555   1.691  12.515  0.0976  0.7262 -1.8676
 8806SOL    HW237881   2.645   1.703  12.630 -0.4128  0.9166  0.2304
 8807SOL     OW37882   2.706   3.225   7.227 -0.2185  0.1337  0.4555
 8807SOL    HW137883   2.619   3.201   7.196  0.1072  1.1232 -1.2197
 8807SOL    HW237884   2.723   3.300   7.171  0.9250 -1.1034 -0.8684
 8808SOL     OW37885   2.582   3.789  15.960  0.1064  0.2167 -0.1127
 8808SOL    HW137886   2.596   3.704  15.917 -0.5218  1.1695 -2.2298
 8808SOL    HW237887   2.645   3.778  16.031  1.7140 -1.0582 -1.7244
 8809SOL     OW37888   1.443   4.296  14.823 -0.4086 -0.1041  0.0824
 8809SOL    HW137889   1.537   4.294  14.805 -0.3867  1.3317  0.0679
 8809SOL    HW237890   1.417   4.383  14.853 -0.6149 -0.1732  0.1080
 8810SOL     OW37891   2.710   4.397  16.601  0.2984 -0.2451 -0.2241
 8810SOL    HW137892   2.757   4.371  16.522  1.7223  3.5094 -0.5987
 8810SOL    HW237893   2.621   4.373  16.575  1.0269 -1.0658 -2.0109
 8811SOL     OW37894   0.555   4.597   2.039 -0.2075  0.0479 -0.2410
 8811SOL    HW137895   0.489   4.556   1.982 -0.7621 -1.0413  1.1767
 8811SOL    HW237896   0.498   4.631   2.108 -1.0263  0.7556 -1.2606
 8812SOL     OW37897   3.247   3.640  14.185  0.4644 -0.0157 -0.2702
 8812SOL    HW137898   3.328   3.598  14.215  1.4175  0.5839 -1.9647
 8812SOL    HW237899   3.182   3.621  14.251  0.0308  2.4262 -0.0035
 8813SOL     OW37900   1.149   2.485   8.615 -0.2259  0.7685 -0.1402
 8813SOL    HW137901   1.170   2.398   8.650 -3.5105 -0.9307 -2.3622
 8813SOL    HW237902   1.201   2.537   8.675 -0.9385  0.7269  0.5183
 8814SOL     OW37903   1.578   4.647   1.653  0.3214  0.1286  0.3060
 8814SOL    HW137904   1.539   4.631   1.739 -2.3629  0.7389 -0.8085
 8814SOL    HW237905   1.639   4.574   1.642 -0.4696 -0.5530  0.3883
 8815SOL     OW37906   1.712   2.182  10.731  0.0434  0.0601 -0.5066
 8815SOL    HW137907   1.689   2.214  10.643 -0.6727  0.2718 -0.2487
 8815SOL    HW237908   1.640   2.122  10.750  0.8539 -0.6352  0.3588
 8816SOL     OW37909   2.391   1.971   0.714  0.2264 -0.1560 -0.4405
 8816SOL    HW137910   2.392   2.009   0.802  3.0398 -1.0240 -0.0779
 8816SOL    HW237911   2.436   1.889   0.735 -0.8893 -0.6173  0.1134
 8817SOL     OW37912   3.763   4.253   6.536 -0.1076  0.3217  0.3285
 8817SOL    HW137913   3.673   4.267   6.565 -0.4715  0.1344 -0.6952
 8817SOL    HW237914   3.792   4.344   6.534 -1.3050  0.6786 -1.0804
 8818SOL     OW37915   0.671   1.436   3.583  0.2356 -0.5446 -0.6390
 8818SOL    HW137916   0.727   1.359   3.599  0.6627  0.2847  1.8880
 8818SOL    HW237917   0.739   1.503   3.589  0.3052 -0.5628 -1.1867
 8819SOL     OW37918   0.913   2.782   8.348  0.0430  0.0533  0.2074
 8819SOL    HW137919   0.947   2.791   8.437 -0.9597 -0.6883  0.6765
 8819SOL    HW237920   0.823   2.815   8.345  0.5555  1.4819  0.8831
 8820SOL     OW37921   4.281   4.294   9.367  0.1683  0.2651 -0.3495
 8820SOL    HW137922   4.286   4.363   9.433  0.9338  2.2047 -2.4292
 8820SOL    HW237923   4.205   4.245   9.399  2.1953 -1.4439  1.8259
 8821SOL     OW37924   4.669   1.633  13.314  0.4754  0.8752  0.7286
 8821SOL    HW137925   4.653   1.601  13.403 -0.4592  0.0078  0.2429
 8821SOL    HW237926   0.011   1.580  13.270  1.4643  1.3217  1.6926
 8822SOL     OW37927   4.141   2.246   3.947  0.5570 -0.2964 -0.1072
 8822SOL    HW137928   4.053   2.257   3.911  0.3616  2.8493  1.3186
 8822SOL    HW237929   4.134   2.169   4.004 -0.5050  0.6850  1.1037
 8823SOL     OW37930   4.615   4.211   7.116 -0.2639 -0.5958 -0.2254
 8823SOL    HW137931   4.621   4.222   7.211 -3.9061 -0.4105 -0.0199
 8823SOL    HW237932   4.554   4.275   7.081  0.9912  2.7792  3.7469
 8824SOL     OW37933   1.558   1.097   4.218 -0.0135 -0.2446 -0.0159
 8824SOL    HW137934   1.466   1.092   4.191  0.0958 -0.4630 -0.3533
 8824SOL    HW237935   1.596   1.065   4.136 -0.9810 -1.5598  0.0363
 8825SOL     OW37936   2.356   1.605   2.166 -0.0551 -0.4216  0.1126
 8825SOL    HW137937   2.290   1.674   2.155 -0.7235 -1.1229 -0.2692
 8825SOL    HW237938   2.371   1.614   2.260  2.8304  0.5634 -0.4420
 8826SOL     OW37939   4.683   3.581   1.308  0.2658 -0.2168  0.0204
 8826SOL    HW137940   4.636   3.621   1.235  1.0311  0.1517 -0.2728
 8826SOL    HW237941   4.687   3.489   1.284 -0.3860 -0.0388 -0.7753
 8827SOL     OW37942   2.956   2.338   3.238  0.2392 -0.2603  0.4323
 8827SOL    HW137943   2.942   2.413   3.180  0.8163 -0.4977 -0.0036
 8827SOL    HW237944   2.869   2.330   3.279  0.2959 -0.5350  0.5020
 8828SOL     OW37945   1.680   3.803   9.052  0.2654  0.0707 -0.1822
 8828SOL    HW137946   1.638   3.854   8.983 -1.4911 -1.5890 -0.3385
 8828SOL    HW237947   1.697   3.870   9.119 -0.1358  0.8609 -0.8805
 8829SOL     OW37948   3.479   3.430  10.150  0.7791  0.3773  0.7748
 8829SOL    HW137949   3.554   3.461  10.200  0.0197  2.1593  0.8162
 8829SOL    HW237950   3.415   3.486  10.196  0.9668  0.0653  1.4149
 8830SOL     OW37951   0.514   0.253   4.069 -0.0090  0.2732  0.5517
 8830SOL    HW137952   0.554   0.298   4.144 -1.6732  1.6288  0.6250
 8830SOL    HW237953   0.589   0.200   4.040  0.1354  0.4795  0.5451
 8831SOL     OW37954   0.873   0.214   4.742  0.4626 -0.0342 -0.4677
 8831SOL    HW137955   0.920   0.297   4.732  1.2631 -0.4994 -0.5247
 8831SOL    HW237956   0.945   0.153   4.758  1.3221  0.8603 -0.9268
 8832SOL     OW37957   3.379   0.681   8.416 -0.3175 -0.5979 -0.0846
 8832SOL    HW137958   3.420   0.724   8.341 -0.5308  1.3094  0.8865
 8832SOL    HW237959   3.292   0.686   8.376 -0.4590 -0.4461  0.2396
 8833SOL     OW37960   3.544   2.538   0.073  0.2341  0.0530 -0.2903
 8833SOL    HW137961   3.459   2.540   0.117  0.6757  0.7020  0.5238
 8833SOL    HW237962   3.556   2.448   0.041 -0.5678 -0.3392  0.5264
 8834SOL     OW37963   1.927   1.594  10.402  0.3172 -0.0539 -0.3054
 8834SOL    HW137964   1.940   1.647  10.323 -0.2289 -1.3378 -1.2538
 8834SOL    HW237965   2.005   1.615  10.453  0.5098  0.5689 -0.8551
 8835SOL     OW37966   2.681   0.694   5.858 -0.0657  0.0097 -0.1432
 8835SOL    HW137967   2.732   0.762   5.815  1.3336 -0.7278  0.3590
 8835SOL    HW237968   2.616   0.667   5.792  2.7949 -2.1526 -2.0641
 8836SOL     OW37969   1.227   1.484   4.270 -0.2336 -0.0875 -0.9568
 8836SOL    HW137970   1.184   1.507   4.188 -2.3483  0.2160  0.2359
 8836SOL    HW237971   1.238   1.570   4.309  0.1877 -0.9028  0.7129
 8837SOL     OW37972   3.713   3.954   5.066  0.0973  0.3397 -0.2980
 8837SOL    HW137973   3.801   3.986   5.087 -0.2906  1.2269 -0.0220
 8837SOL    HW237974   3.672   3.960   5.152 -1.3726 -1.3202 -0.8901
 8838SOL     OW37975   3.437   2.992   9.221  0.0447  0.2397 -0.3377
 8838SOL    HW137976   3.385   2.968   9.144  0.6591  0.7795 -0.9213
 8838SOL    HW237977   3.505   2.925   9.223 -0.1449  0.0811  0.5553
 8839SOL     OW37978   4.427   2.783  14.666  0.0131  0.2112 -0.2091
 8839SOL    HW137979   4.514   2.747  14.684  0.0350  1.1147  1.4683
 8839SOL    HW237980   4.382   2.716  14.717  1.8357  0.3684  1.5662
 8840SOL     OW37981   2.975   3.970   0.902 -0.4055  0.3659 -0.2557
 8840SOL    HW137982   2.976   3.888   0.853 -3.0082  0.2414 -0.1171
 8840SOL    HW237983   2.901   4.014   0.860  0.5138  2.0012 -0.1862
 8841SOL     OW37984   3.992   3.712   2.250 -0.8896  0.1879 -0.8848
 8841SOL    HW137985   4.015   3.629   2.209  0.4676  0.1448 -0.0324
 8841SOL    HW237986   4.069   3.718   2.306 -1.3626 -0.5469 -0.1438
 8842SOL     OW37987   2.427   4.400   5.434 -0.1312 -0.2710  0.4740
 8842SOL    HW137988   2.396   4.324   5.385 -1.0171 -0.2110  0.9347
 8842SOL    HW237989   2.364   4.397   5.507 -0.3228 -0.0330  0.3223
 8843SOL     OW37990   4.124   3.653  13.886  0.5290  0.4108 -0.1265
 8843SOL    HW137991   4.189   3.627  13.950  0.5040 -1.4748 -0.8729
 8843SOL    HW237992   4.148   3.589  13.819  0.3724  0.2891 -0.0679
 8844SOL     OW37993   2.049   1.850   1.716 -0.2744  0.5537  0.6225
 8844SOL    HW137994   2.133   1.809   1.737 -0.6757  1.3615  3.7692
 8844SOL    HW237995   2.076   1.923   1.660 -0.4163  0.2756  0.1937
 8845SOL     OW37996   2.403   1.701   3.150  0.5262 -0.0876 -0.3840
 8845SOL    HW137997   2.432   1.610   3.150 -2.2887 -0.9662  2.0330
 8845SOL    HW237998   2.483   1.750   3.131 -0.5081  1.9442  0.5310
 8846SOL     OW37999   1.340   0.831  11.543 -0.2892 -0.2027  0.0772
 8846SOL    HW138000   1.396   0.846  11.620  0.5380  1.2725 -0.8009
 8846SOL    HW238001   1.414   0.807  11.487  0.6544  0.5661  0.9761
 8847SOL     OW38002   4.634   1.015   6.374 -0.0260 -0.6198 -0.2006
 8847SOL    HW138003   4.649   1.056   6.289  1.1200  2.2730  1.3766
 8847SOL    HW238004   4.562   0.958   6.346 -0.4638  1.2513 -2.8892
 8848SOL     OW38005   1.077   3.830   0.674  0.0806  0.4363  0.2989
 8848SOL    HW138006   1.041   3.773   0.606  3.3597  1.8208 -2.5895
 8848SOL    HW238007   1.132   3.899   0.636  0.3968 -0.1742 -0.3471
 8849SOL     OW38008   0.656   1.521   4.225 -0.6775  0.2629 -0.0928
 8849SOL    HW138009   0.655   1.526   4.130  0.6045 -1.3160 -0.1878
 8849SOL    HW238010   0.735   1.469   4.242  0.4955  1.6364 -1.4258
 8850SOL     OW38011   2.713   1.045  13.852  0.4523  1.0207  0.0096
 8850SOL    HW138012   2.625   1.063  13.887  0.3660  3.4031 -1.4094
 8850SOL    HW238013   2.742   1.136  13.840 -1.4338  1.3028 -2.4191
 8851SOL     OW38014   0.696   4.088   2.719 -0.1806  0.2607  0.2366
 8851SOL    HW138015   0.640   4.095   2.795 -3.1082  0.7133 -1.9660
 8851SOL    HW238016   0.750   4.167   2.731  0.5557  0.3193 -3.2917
 8852SOL     OW38017   3.967   1.090   5.048 -0.3724 -0.6266 -0.0259
 8852SOL    HW138018   4.020   1.024   5.094 -0.4287 -1.2542 -0.8724
 8852SOL    HW238019   3.926   1.043   4.976  1.6395 -0.4401 -1.2869
 8853SOL     OW38020   2.157   0.178  11.076  0.2265 -0.3026 -0.0770
 8853SOL    HW138021   2.205   0.221  11.147  0.1396 -0.3481  0.0090
 8853SOL    HW238022   2.209   0.208  11.001 -1.2793  0.8788 -0.6412
 8854SOL     OW38023   1.038   2.204  15.956 -0.1769 -0.1606 -0.2041
 8854SOL    HW138024   0.969   2.138  15.946 -0.2413 -0.2474  0.9045
 8854SOL    HW238025   0.990   2.286  15.962  1.3635  0.6902  0.3924
 8855SOL     OW38026   3.867   1.759  11.003 -0.3513 -0.1533  0.4116
 8855SOL    HW138027   3.807   1.696  11.043  0.3434 -1.6137 -0.8338
 8855SOL    HW238028   3.835   1.786  10.917 -0.7183 -0.7212  0.3734
 8856SOL     OW38029   1.158   3.176   8.541  0.2774  0.3009 -0.3516
 8856SOL    HW138030   1.176   3.263   8.504 -2.7960  0.2872 -1.8827
 8856SOL    HW238031   1.167   3.193   8.634 -0.9190  3.1265 -0.7533
 8857SOL     OW38032   2.339   4.198  15.388 -0.4209 -0.4370 -0.2607
 8857SOL    HW138033   2.310   4.240  15.469 -0.2898  0.5584 -0.7280
 8857SOL    HW238034   2.338   4.265  15.319 -0.5853  0.1464  0.3122
 8858SOL     OW38035   4.268   1.096   1.929 -0.0057 -0.8103 -0.2089
 8858SOL    HW138036   4.333   1.124   1.993  0.7792 -0.6101 -1.0828
 8858SOL    HW238037   4.185   1.106   1.975 -0.6161  1.9442 -1.8701
 8859SOL     OW38038   1.332   1.902   3.755  0.3653 -0.1698  0.1189
 8859SOL    HW138039   1.346   1.832   3.819  0.1148 -0.1714  0.1718
 8859SOL    HW238040   1.299   1.858   3.677  1.4790  1.0646 -1.0334
 8860SOL     OW38041   4.341   0.828  12.316  0.1160  0.2259 -0.5277
 8860SOL    HW138042   4.248   0.809  12.325  0.5407 -1.1450  1.0246
 8860SOL    HW238043   4.347   0.819  12.221 -1.2024 -1.7538 -0.4197
 8861SOL     OW38044   1.283   4.289   3.175 -0.1779  0.6220  0.4121
 8861SOL    HW138045   1.355   4.244   3.130  0.9530  0.8880  1.9354
 8861SOL    HW238046   1.225   4.292   3.100  2.3848 -0.2521 -1.6140
 8862SOL     OW38047   3.068   3.233   8.748 -0.3860  0.2735  0.4660
 8862SOL    HW138048   3.055   3.316   8.701  2.6631  0.6732  0.3176
 8862SOL    HW238049   3.056   3.261   8.839  0.6647  0.9407  0.3960
 8863SOL     OW38050   1.177   1.248   1.418 -0.2574 -0.1550  0.8497
 8863SOL    HW138051   1.203   1.302   1.492  2.0375  1.5586 -1.2042
 8863SOL    HW238052   1.204   1.309   1.349  0.2174 -0.6935  0.5617
 8864SOL     OW38053   4.328   4.670   4.566  0.3420  0.2978 -0.1137
 8864SOL    HW138054   4.233   4.680   4.559  0.5556  2.8404  0.6057
 8864SOL    HW238055   4.336   4.577   4.548 -0.6390  0.0512  0.7833
 8865SOL     OW38056   1.039   4.565   5.323  0.2079 -0.0973  0.3462
 8865SOL    HW138057   1.014   4.528   5.238 -0.7446  1.4992 -0.0598
 8865SOL    HW238058   0.986   4.510   5.380 -0.5344  0.4399  0.1667
 8866SOL     OW38059   0.605   1.601   8.157 -0.1322  0.0028  0.2793
 8866SOL    HW138060   0.618   1.601   8.062 -3.8246  1.2125 -0.2261
 8866SOL    HW238061   0.680   1.658   8.175  0.9526 -1.5431  0.5480
 8867SOL     OW38062   0.277   0.776   3.070 -0.1584 -0.1515 -0.2324
 8867SOL    HW138063   0.263   0.742   3.158  1.9379  0.9786  0.5460
 8867SOL    HW238064   0.253   0.866   3.091  0.1612 -0.6075  2.0607
 8868SOL     OW38065   3.976   0.395  15.018 -0.3206  0.4130  0.0730
 8868SOL    HW138066   4.013   0.461  15.077  1.5487 -1.5798  1.0994
 8868SOL    HW238067   3.958   0.443  14.937  1.7168  0.4812 -0.3377
 8869SOL     OW38068   0.135   3.244   2.924  0.2629 -0.1618 -0.0215
 8869SOL    HW138069   0.116   3.171   2.983  1.3423  1.4387  2.2760
 8869SOL    HW238070   0.064   3.238   2.859  0.3771  2.2405 -0.3706
 8870SOL     OW38071   4.378   4.469   1.865 -0.2361 -0.0883  0.5727
 8870SOL    HW138072   4.440   4.430   1.804 -2.7502 -5.4756  1.4536
 8870SOL    HW238073   4.387   4.564   1.856 -1.0958 -0.0320  0.2822
 8871SOL     OW38074   2.482   1.596   3.765  0.2260 -0.5031 -0.1922
 8871SOL    HW138075   2.536   1.540   3.822  1.7208 -0.8068 -1.9123
 8871SOL    HW238076   2.468   1.537   3.691  1.4813  0.0934 -0.9039
 8872SOL     OW38077   1.415   4.119   1.518 -0.2811 -0.8046  0.6140
 8872SOL    HW138078   1.381   4.150   1.602  1.2136 -0.1376  0.9707
 8872SOL    HW238079   1.339   4.139   1.464  0.3224 -3.3776 -1.1953
 8873SOL     OW38080   1.986   0.156  15.004  0.3080  0.8125 -0.2402
 8873SOL    HW138081   1.998   0.249  14.987  2.7540  1.1104  2.9498
 8873SOL    HW238082   1.922   0.143  14.934 -1.1562 -0.3553  1.3024
 8874SOL     OW38083   0.773   0.652   5.320  0.0782 -0.3543 -0.3396
 8874SOL    HW138084   0.793   0.727   5.376 -1.5380  1.1239 -1.7450
 8874SOL    HW238085   0.841   0.594   5.353  0.8617 -0.6401 -2.4893
 8875SOL     OW38086   0.004   2.197  11.292  0.9503  0.6867  0.7567
 8875SOL    HW138087   0.070   2.232  11.352  1.4443  1.4646 -0.2510
 8875SOL    HW238088   0.061   2.163  11.223  0.2654  0.8660  0.0999
 8876SOL     OW38089   1.238   2.338   5.089  0.2713  0.1026  0.2231
 8876SOL    HW138090   1.281   2.391   5.021  0.4626  1.3222  1.2925
 8876SOL    HW238091   1.309   2.333   5.152  0.6529 -1.8186 -0.3767
 8877SOL     OW38092   3.499   2.459   6.458 -0.1992 -0.2079 -0.3677
 8877SOL    HW138093   3.483   2.366   6.439 -1.1951 -0.0689 -0.2193
 8877SOL    HW238094   3.516   2.456   6.552  0.6057 -1.8490 -0.5678
 8878SOL     OW38095   1.801   0.192   2.919 -0.0348  0.0993 -1.1008
 8878SOL    HW138096   1.828   0.281   2.895 -1.2834  0.3867 -1.4533
 8878SOL    HW238097   1.819   0.150   2.835  0.0753 -1.8621 -0.0765
 8879SOL     OW38098   2.744   3.447  12.888 -0.2637 -0.2132  0.5907
 8879SOL    HW138099   2.676   3.513  12.875 -0.9879 -0.1441  4.7746
 8879SOL    HW238100   2.709   3.407  12.967  0.3622  0.2099  1.0806
 8880SOL     OW38101   3.272   1.582   6.050 -0.1104  0.3267 -0.0876
 8880SOL    HW138102   3.254   1.675   6.061  0.7055  0.2011  2.1794
 8880SOL    HW238103   3.189   1.551   6.013 -0.7002  0.4679  1.1463
 8881SOL     OW38104   1.745   0.107   9.579  0.2561 -0.5998  0.2380
 8881SOL    HW138105   1.654   0.119   9.550 -0.8204 -2.2604  2.8915
 8881SOL    HW238106   1.765   0.200   9.581 -0.8856 -0.4192  2.5413
 8882SOL     OW38107   1.884   0.804   2.919  0.9576 -0.4220  0.0199
 8882SOL    HW138108   1.940   0.844   2.853 -1.6629  2.7366 -0.2770
 8882SOL    HW238109   1.909   0.711   2.916  0.1916 -0.6601  1.2567
 8883SOL     OW38110   2.802   1.396   7.174  0.2393  0.8390 -0.2247
 8883SOL    HW138111   2.839   1.409   7.087 -2.2331 -0.2989 -1.4337
 8883SOL    HW238112   2.853   1.465   7.216  1.2152 -1.8089  2.9810
 8884SOL     OW38113   2.095   2.152   7.597 -0.6816  0.0478 -0.2386
 8884SOL    HW138114   2.032   2.216   7.629  1.1092  0.9473  1.4533
 8884SOL    HW238115   2.052   2.144   7.511 -0.7044  0.2261 -0.2440
 8885SOL     OW38116   1.576   3.054   3.274  0.1202 -0.5181  0.0181
 8885SOL    HW138117   1.652   3.009   3.311 -0.3832  0.4298  2.2128
 8885SOL    HW238118   1.547   3.105   3.349  0.8805  0.3461 -0.2743
 8886SOL     OW38119   0.075   3.741   1.548 -0.5057 -0.6010  0.1171
 8886SOL    HW138120   0.083   3.715   1.457  2.6775 -2.7818  1.0246
 8886SOL    HW238121   0.086   3.836   1.544  0.5429 -0.7321 -0.0524
 8887SOL     OW38122   0.756   0.306   3.610  0.1753 -0.0347  0.3027
 8887SOL    HW138123   0.669   0.270   3.598 -0.0176 -0.2042  2.1462
 8887SOL    HW238124   0.752   0.343   3.698 -1.4412 -1.1252  0.6705
 8888SOL     OW38125   2.248   1.331   4.123  0.4189 -0.0203 -0.2667
 8888SOL    HW138126   2.195   1.390   4.070  0.4706  0.6077  0.3729
 8888SOL    HW238127   2.185   1.259   4.127  2.5317 -1.8770 -0.0760
 8889SOL     OW38128   0.721   2.087   9.191  0.0670  0.3054 -0.2355
 8889SOL    HW138129   0.773   2.122   9.264 -0.4824 -0.8693  0.7353
 8889SOL    HW238130   0.776   2.012   9.168  0.2710 -0.0177  1.2634
 8890SOL     OW38131   1.214   1.484   5.548  0.3576  0.4145  0.1384
 8890SOL    HW138132   1.213   1.391   5.568  2.7394  0.4178  0.2512
 8890SOL    HW238133   1.165   1.524   5.621  0.4173 -0.2735  0.5558
 8891SOL     OW38134   0.827   0.487   5.075 -0.4724  0.0188  0.3488
 8891SOL    HW138135   0.741   0.494   5.117 -0.7744 -0.5310 -0.1851
 8891SOL    HW238136   0.883   0.472   5.151 -2.9768 -1.0940  1.9689
 8892SOL     OW38137   2.255   1.952   1.192 -0.1322 -0.8078  0.1285
 8892SOL    HW138138   2.165   1.972   1.167  0.2060 -0.8946 -1.1560
 8892SOL    HW238139   2.299   2.000   1.122  0.2199  2.0404  2.3089
 8893SOL     OW38140   1.042   2.833  15.438  0.4285  0.1350 -0.3738
 8893SOL    HW138141   1.123   2.879  15.417  0.1135  1.7727  2.0555
 8893SOL    HW238142   1.057   2.829  15.532  2.3352  1.5192 -0.6239
 8894SOL     OW38143   3.859   4.234   3.791  0.0604  0.2378  0.3311
 8894SOL    HW138144   3.931   4.290   3.821 -0.1039  0.5621  0.1260
 8894SOL    HW238145   3.863   4.270   3.702 -1.2033  1.7631  0.8857
 8895SOL     OW38146   1.394   0.517   5.929  0.0167 -0.3385  0.2440
 8895SOL    HW138147   1.331   0.495   5.861 -1.4426 -1.7532  2.0539
 8895SOL    HW238148   1.349   0.469   5.999 -2.8722  0.0550 -1.3373
 8896SOL     OW38149   4.168   3.867  17.191  0.0316  0.3099  0.0375
 8896SOL    HW138150   4.257   3.831  17.188  0.3087  1.1742 -2.7542
 8896SOL    HW238151   4.149   3.832  17.277 -1.7717  0.6837 -0.2189
 8897SOL     OW38152   2.530   0.819   9.864  0.1858 -0.4312  0.9413
 8897SOL    HW138153   2.545   0.878   9.938 -0.2805  2.7767 -1.4985
 8897SOL    HW238154   2.459   0.862   9.816  0.9646  0.6201  0.7080
 8898SOL     OW38155   4.329   0.690  16.275  0.6607 -0.0540  0.4196
 8898SOL    HW138156   4.412   0.643  16.272 -0.4456 -2.0654  0.4783
 8898SOL    HW238157   4.272   0.617  16.302  0.1735 -1.0345 -3.1789
 8899SOL     OW38158   4.098   2.348   9.020 -0.1476  0.0919 -0.1463
 8899SOL    HW138159   4.168   2.392   9.069 -0.8115 -1.7235  2.4803
 8899SOL    HW238160   4.133   2.261   9.036 -1.3408 -0.3225  0.2491
 8900SOL     OW38161   3.937   2.452   6.944  0.2334 -0.1599  0.0150
 8900SOL    HW138162   3.938   2.470   7.038 -1.2851  0.1233 -0.0352
 8900SOL    HW238163   3.873   2.515   6.913 -0.3635 -1.7921 -2.0208
 8901SOL     OW38164   0.863   1.062  14.750 -0.3074  0.7828  0.1132
 8901SOL    HW138165   0.809   1.019  14.816  1.4700 -0.7407  0.5837
 8901SOL    HW238166   0.847   1.154  14.772  1.8441  1.1494  0.1392
 8902SOL     OW38167   0.901   3.449  11.724 -0.3164 -0.1268  0.2826
 8902SOL    HW138168   0.814   3.431  11.760 -0.2459  0.3548  0.6944
 8902SOL    HW238169   0.940   3.390  11.788  1.2982 -0.9489 -1.4671
 8903SOL     OW38170   0.822   2.519   9.287  0.1702  0.5334  0.0209
 8903SOL    HW138171   0.785   2.539   9.373  1.1133  2.9281 -0.1319
 8903SOL    HW238172   0.906   2.565   9.281  0.9162 -1.0667 -2.1293
 8904SOL     OW38173   3.509   2.822   7.941  0.4455 -0.0690  0.7075
 8904SOL    HW138174   3.466   2.905   7.924  0.0026 -0.5830 -0.7028
 8904SOL    HW238175   3.505   2.786   7.852 -1.7861  0.3496  0.6530
 8905SOL     OW38176   0.462   1.551   3.771 -0.2108 -0.2086  0.8453
 8905SOL    HW138177   0.511   1.630   3.749  0.8639 -0.9834  0.4555
 8905SOL    HW238178   0.496   1.487   3.709 -1.0503 -2.0909  2.3356
 8906SOL     OW38179   4.263   1.067   6.474  0.6568 -0.5960  0.2095
 8906SOL    HW138180   4.236   1.136   6.413  1.4162 -1.2412 -0.8677
 8906SOL    HW238181   4.199   1.084   6.543 -1.7631 -0.0821 -2.1748
 8907SOL     OW38182   1.050   4.369   9.325  0.1375  0.2816 -0.0782
 8907SOL    HW138183   1.012   4.324   9.250 -0.6383 -0.8649  1.0161
 8907SOL    HW238184   1.138   4.332   9.326 -0.2834 -0.6109  1.7661
 8908SOL     OW38185   0.791   3.204   8.154 -0.2071 -0.3040 -0.1989
 8908SOL    HW138186   0.741   3.280   8.124  0.2045  0.4344  0.9566
 8908SOL    HW238187   0.724   3.138   8.169  0.2301 -0.0480  2.8894
 8909SOL     OW38188   0.271   0.830  16.481  0.1784  0.3398  0.4277
 8909SOL    HW138189   0.208   0.858  16.415 -0.0773 -2.9123 -0.7222
 8909SOL    HW238190   0.335   0.800  16.417  0.2504 -0.1477  0.7258
 8910SOL     OW38191   4.624   3.271   2.689  1.0306  0.3518 -0.3582
 8910SOL    HW138192   4.652   3.269   2.598  1.1840 -0.5014 -0.2890
 8910SOL    HW238193   4.571   3.351   2.685 -0.0666 -0.2059  3.2300
 8911SOL     OW38194   0.370   0.987  16.172 -0.2916 -0.2964  0.7665
 8911SOL    HW138195   0.443   1.047  16.185  0.2231  0.0560 -3.7314
 8911SOL    HW238196   0.380   0.976  16.077 -3.6102  0.8980  0.2757
 8912SOL     OW38197   2.571   0.887   2.962 -0.0909 -0.1674 -0.2085
 8912SOL    HW138198   2.635   0.906   3.031  2.1343 -0.4863 -2.1962
 8912SOL    HW238199   2.493   0.912   3.013  1.6757  2.9135  0.9916
 8913SOL     OW38200   1.353   1.601   6.988  0.0991 -0.1251 -0.3239
 8913SOL    HW138201   1.429   1.657   7.006 -1.4844  1.1045  2.4081
 8913SOL    HW238202   1.325   1.559   7.069 -0.3708 -1.3009 -1.0935
 8914SOL     OW38203   0.739   2.358   1.531  0.2844  0.4836 -0.3380
 8914SOL    HW138204   0.783   2.279   1.499 -1.7075 -0.9576  0.5184
 8914SOL    HW238205   0.811   2.421   1.537 -0.8121  1.5129  1.6976
 8915SOL     OW38206   2.180   3.128  16.763  0.6846  0.3906 -0.4180
 8915SOL    HW138207   2.151   3.171  16.843  2.2124  0.2584  0.2132
 8915SOL    HW238208   2.207   3.207  16.717 -1.3588  1.0539 -0.4605
 8916SOL     OW38209   4.436   0.561   6.095  0.1928  0.4971  0.0598
 8916SOL    HW138210   4.390   0.644   6.109  2.8279  1.7773  1.1856
 8916SOL    HW238211   4.528   0.586   6.099 -0.0877  1.3439  1.3516
 8917SOL     OW38212   2.022   4.712  12.047  0.2985  0.3187 -0.4784
 8917SOL    HW138213   2.090   4.647  12.028  0.5226  0.5731 -0.5602
 8917SOL    HW238214   1.997   4.666  12.127 -0.9900  3.7537  1.0990
 8918SOL     OW38215   4.254   3.086  15.678 -0.0239  0.5532 -0.2231
 8918SOL    HW138216   4.282   3.096  15.587 -0.0088  1.9037 -0.0727
 8918SOL    HW238217   4.316   3.136  15.731  1.7243 -0.8173 -0.9950
 8919SOL     OW38218   0.904   0.417   4.120  0.7298  0.0278  0.2352
 8919SOL    HW138219   0.991   0.379   4.129 -0.2357 -1.9718  1.1434
 8919SOL    HW238220   0.926   0.510   4.122 -0.4888  0.2831  2.6164
 8920SOL     OW38221   3.886   2.540   0.249  0.2059 -0.0975 -0.2492
 8920SOL    HW138222   3.969   2.586   0.263 -0.9095  1.3461  1.6391
 8920SOL    HW238223   3.842   2.606   0.196  0.6303  0.8891  0.6364
 8921SOL     OW38224   4.593   4.149  15.431  0.0903  0.3740  0.1617
 8921SOL    HW138225   4.618   4.087  15.362 -3.7041 -1.9314  0.8080
 8921SOL    HW238226   4.525   4.102  15.481 -1.2651 -0.0317 -2.0377
 8922SOL     OW38227   3.883   0.003   8.993  0.6100  0.4409 -0.3413
 8922SOL    HW138228   3.836   0.083   8.972 -1.2991 -0.8516 -0.9964
 8922SOL    HW238229   3.825   4.672   9.046  0.8828 -2.9573 -3.6051
 8923SOL     OW38230   1.933   1.008   1.386  0.3118 -0.0769  0.0966
 8923SOL    HW138231   1.866   1.062   1.429  1.4724  1.3644  0.0588
 8923SOL    HW238232   1.906   0.922   1.419 -0.3302 -0.4635 -1.4470
 8924SOL     OW38233   2.601   1.596   5.986 -0.3980 -0.2986 -0.4877
 8924SOL    HW138234   2.647   1.574   5.905 -0.5309  0.6738 -0.8216
 8924SOL    HW238235   2.525   1.538   5.976 -0.2228 -0.4641 -0.8526
 8925SOL     OW38236   0.329   3.568   1.494 -0.0789  0.5609  0.0201
 8925SOL    HW138237   0.377   3.555   1.575 -2.2296  0.4077  1.2619
 8925SOL    HW238238   0.290   3.481   1.482 -1.1309  1.1091 -0.5904
 8926SOL     OW38239   4.167   2.583   5.007  0.0054  0.2776 -0.6374
 8926SOL    HW138240   4.073   2.568   5.010 -0.1629  1.8692  1.7612
 8926SOL    HW238241   4.201   2.539   4.928  0.4604  0.0632 -0.3224
 8927SOL     OW38242   4.658   0.066   6.856 -0.5495 -0.1943 -0.4925
 8927SOL    HW138243   4.669   4.698   6.836 -2.1890  0.1113 -2.8156
 8927SOL    HW238244   4.590   0.074   6.923 -0.7761 -2.2072 -0.4950
 8928SOL     OW38245   1.442   4.687   3.023 -0.2748 -0.1706  0.1047
 8928SOL    HW138246   1.533   4.718   3.020 -0.8495  1.4991 -0.2212
 8928SOL    HW238247   1.404   0.023   3.087  0.7908 -1.4376  1.9412
 8929SOL     OW38248   0.064   4.584   7.939  0.6290 -0.1492 -0.3605
 8929SOL    HW138249   0.008   4.653   7.902  0.0614 -1.2885 -1.6101
 8929SOL    HW238250   0.156   4.610   7.926  0.2099  1.0036 -1.0975
 8930SOL     OW38251   3.137   3.306   5.575 -0.6352 -0.2559  0.4221
 8930SOL    HW138252   3.172   3.329   5.661  1.7794  1.9125 -1.1840
 8930SOL    HW238253   3.212   3.316   5.517 -1.0255 -0.6362 -0.1568
 8931SOL     OW38254   3.006   4.642  10.306  0.3448 -0.6647  0.1548
 8931SOL    HW138255   2.923   4.596  10.297  0.0643  0.1680 -1.5948
 8931SOL    HW238256   2.996   4.675  10.395  1.0513  1.0539 -0.3956
 8932SOL     OW38257   0.925   2.171   6.047  0.7308 -0.3155 -0.5407
 8932SOL    HW138258   0.990   2.204   5.985  0.7813 -1.7577 -1.2497
 8932SOL    HW238259   0.923   2.230   6.122  0.4888 -0.4062 -0.4755
 8933SOL     OW38260   3.008   3.338  12.094 -0.6723  0.1697 -0.5293
 8933SOL    HW138261   2.998   3.307  12.184  0.3706  0.5467 -0.2730
 8933SOL    HW238262   2.931   3.394  12.086 -0.1436  0.8854 -0.6257
 8934SOL     OW38263   1.097   3.559   5.382 -0.4162  0.1467 -0.4019
 8934SOL    HW138264   1.175   3.541   5.330  0.3042  1.9135  0.0781
 8934SOL    HW238265   1.040   3.486   5.354 -0.9829 -0.1557  1.5116
 8935SOL     OW38266   2.940   2.993  17.067 -0.0747  0.0392  0.5346
 8935SOL    HW138267   2.889   3.027  17.141  0.9453 -1.3340  1.8585
 8935SOL    HW238268   2.965   3.068  17.012 -0.0262 -0.0299  0.4632
 8936SOL     OW38269   1.705   4.649   6.208  0.3727  0.4962  0.1979
 8936SOL    HW138270   1.721   4.555   6.209 -0.7032  0.3093 -2.0886
 8936SOL    HW238271   1.796   4.672   6.228  0.0203  1.0901  1.1785
 8937SOL     OW38272   2.351   0.081   2.609 -0.4219  0.4153 -0.8994
 8937SOL    HW138273   2.445   0.072   2.626 -0.6599  1.6939  1.1652
 8937SOL    HW238274   2.327   4.712   2.608  0.8903  0.0508  0.8050
 8938SOL     OW38275   4.652   0.057   7.811 -0.3385 -0.1011  0.3782
 8938SOL    HW138276   4.641   0.011   7.728 -1.1915 -3.0835  2.1198
 8938SOL    HW238277   4.569   0.094   7.841 -0.4217 -1.3003  1.6589
 8939SOL     OW38278   4.059   3.817   4.766  0.5881 -0.1964 -0.4286
 8939SOL    HW138279   4.089   3.745   4.712 -3.3923 -1.7629 -0.5191
 8939SOL    HW238280   3.975   3.786   4.802  0.2073 -1.1124 -2.1389
 8940SOL     OW38281   1.374   0.500   0.335  0.1611  0.3097  0.2698
 8940SOL    HW138282   1.287   0.497   0.295  0.9371  1.4165 -1.4805
 8940SOL    HW238283   1.433   0.531   0.267 -0.4582  0.9530  0.0251
 8941SOL     OW38284   1.001   0.589  17.652 -0.0563 -0.5273 -1.1696
 8941SOL    HW138285   0.961   0.582  17.565 -0.7663 -2.0263 -0.7311
 8941SOL    HW238286   0.934   0.632   0.006  0.9002  1.3643 -1.4922
 8942SOL     OW38287   1.537   2.210   3.315  0.1482 -0.8511  0.2318
 8942SOL    HW138288   1.537   2.168   3.229 -0.0806 -0.9421  0.2758
 8942SOL    HW238289   1.553   2.140   3.378 -1.5375 -1.5191 -0.0907
 8943SOL     OW38290   1.078   1.929   8.438 -0.4084 -0.3346  0.6190
 8943SOL    HW138291   1.047   1.853   8.487  0.3679  0.2864  2.0965
 8943SOL    HW238292   1.165   1.941   8.475 -0.7940  0.4692  1.2867
 8944SOL     OW38293   1.018   2.149   0.042 -0.0603  0.0391  0.2424
 8944SOL    HW138294   1.008   2.239   0.009 -0.0601  0.1886  0.6533
 8944SOL    HW238295   1.047   2.155   0.133 -1.6853 -0.2357  0.7717
 8945SOL     OW38296   2.673   3.385  17.256  0.1955 -0.2753 -0.1687
 8945SOL    HW138297   2.756   3.429  17.277 -1.0456  1.5589  0.9441
 8945SOL    HW238298   2.701   3.295  17.240 -1.5957 -0.7042 -0.8448
 8946SOL     OW38299   3.864   2.691   4.766  0.0268  0.3128 -0.6003
 8946SOL    HW138300   3.900   2.648   4.843  0.8633  0.3170 -0.9972
 8946SOL    HW238301   3.780   2.723   4.800  1.2640  2.0536  0.7801
 8947SOL     OW38302   0.340   1.716   1.096 -0.2235  0.2906 -0.0380
 8947SOL    HW138303   0.289   1.660   1.156 -1.1302  1.3500  0.1823
 8947SOL    HW238304   0.422   1.667   1.090 -0.2401  0.2204  0.3297
 8948SOL     OW38305   3.431   1.617  14.824  0.3507  0.0717 -0.1033
 8948SOL    HW138306   3.346   1.594  14.787  0.9456 -1.3728 -0.5682
 8948SOL    HW238307   3.405   1.645  14.911  0.1140 -1.2940  0.2634
 8949SOL     OW38308   4.280   3.384   7.828  0.4827 -0.2884  0.5489
 8949SOL    HW138309   4.209   3.345   7.878 -0.8826 -0.6478 -1.6524
 8949SOL    HW238310   4.357   3.369   7.883 -0.7048  0.0438  2.2897
 8950SOL     OW38311   1.195   4.197   5.986 -0.3437  0.0781 -0.3149
 8950SOL    HW138312   1.234   4.255   5.920 -0.4156  1.3139  0.7253
 8950SOL    HW238313   1.150   4.265   6.036 -2.4923 -0.1699 -1.9175
 8951SOL     OW38314   3.858   4.346   3.545 -0.2593  0.3199 -0.0874
 8951SOL    HW138315   3.927   4.380   3.488 -0.3925  0.2637 -0.2825
 8951SOL    HW238316   3.787   4.384   3.493  0.5238  0.4015 -1.1077
 8952SOL     OW38317   2.382   4.720   8.096  0.4080 -0.5897 -0.6792
 8952SOL    HW138318   2.457   0.048   8.066  0.0838 -0.1948 -0.8070
 8952SOL    HW238319   2.301   0.044   8.077 -0.0880 -1.3960 -0.6161
 8953SOL     OW38320   2.826   3.970  12.636 -0.3139 -0.4843  0.1573
 8953SOL    HW138321   2.845   3.985  12.544 -1.5575 -0.1464 -0.0453
 8953SOL    HW238322   2.831   4.054  12.681 -0.4745  1.3681 -3.2757
 8954SOL     OW38323   0.114   0.326   5.962  0.1069 -0.0714 -0.0665
 8954SOL    HW138324   0.019   0.331   5.968  0.0228 -0.2578 -1.3633
 8954SOL    HW238325   0.109   0.234   5.987  0.1483  0.6167  2.5369
 8955SOL     OW38326   2.965   4.178   5.547 -0.1531 -0.0190  0.0422
 8955SOL    HW138327   2.909   4.179   5.469  1.0696 -3.7730 -0.9125
 8955SOL    HW238328   2.995   4.269   5.551 -0.9087  0.3735 -3.1167
 8956SOL     OW38329   1.269   1.760   9.922  0.0168 -0.1184 -0.5026
 8956SOL    HW138330   1.347   1.726   9.879  1.3844  1.5055  0.6844
 8956SOL    HW238331   1.309   1.844   9.944 -1.0179  0.8169 -2.1873
 8957SOL     OW38332   2.645   4.558   3.889 -0.3582 -0.1509 -0.2766
 8957SOL    HW138333   2.567   4.513   3.855  0.2091 -1.0590 -0.3872
 8957SOL    HW238334   2.636   4.548   3.983 -3.3434 -0.0764 -0.5600
 8958SOL     OW38335   2.641   2.412   4.996 -0.4389  0.0317  0.2147
 8958SOL    HW138336   2.607   2.425   4.907 -1.9324 -2.7262  0.3960
 8958SOL    HW238337   2.664   2.502   5.022 -0.3971  0.4076 -1.1389
 8959SOL     OW38338   1.827   2.326   6.112  0.0147 -0.0216 -0.1572
 8959SOL    HW138339   1.865   2.269   6.046  0.0740 -0.0698 -0.0817
 8959SOL    HW238340   1.833   2.273   6.192  3.3520  0.1399 -0.3075
 8960SOL     OW38341   3.331   0.156  13.112  0.6249 -0.6985  0.1352
 8960SOL    HW138342   3.408   0.209  13.134  0.3863 -0.8657  1.3478
 8960SOL    HW238343   3.339   0.078  13.167 -0.1564  0.2946  1.6451
 8961SOL     OW38344   0.399   3.618   7.362  0.4223 -0.5453  0.4846
 8961SOL    HW138345   0.312   3.659   7.358  1.1110  0.8008 -0.6068
 8961SOL    HW238346   0.361   3.534   7.334  0.1029 -0.1568 -0.2628
 8962SOL     OW38347   2.487   1.068  10.326 -0.0867  0.0168 -0.0344
 8962SOL    HW138348   2.507   0.975  10.337  1.2918  0.4961  1.4260
 8962SOL    HW238349   2.400   1.063  10.364 -0.3658  1.2097 -0.5076
 8963SOL     OW38350   4.213   0.330   7.464 -0.3182 -0.2353  0.1733
 8963SOL    HW138351   4.249   0.404   7.513  1.5010 -1.6707  0.9909
 8963SOL    HW238352   4.287   0.279   7.434 -1.9667 -2.3188 -0.3734
 8964SOL     OW38353   0.612   2.359   9.139  0.7795 -0.3490  0.2487
 8964SOL    HW138354   0.635   2.414   9.213  0.9320  0.1556 -0.1696
 8964SOL    HW238355   0.667   2.281   9.148  1.4159 -0.0863 -1.2021
 8965SOL     OW38356   0.920   4.077   1.880  0.2150  0.0697  0.3585
 8965SOL    HW138357   0.842   4.032   1.847 -1.0093 -0.0059  3.3088
 8965SOL    HW238358   0.971   3.997   1.866  1.4151  1.1679 -1.4891
 8966SOL     OW38359   2.168   1.141   5.187  0.1162 -0.1869  0.1359
 8966SOL    HW138360   2.238   1.082   5.160 -0.0658  0.2676 -1.3098
 8966SOL    HW238361   2.153   1.206   5.118  0.9383  0.4626  0.5726
 8967SOL     OW38362   1.205   4.505   1.056 -0.4143  0.2494 -0.8254
 8967SOL    HW138363   1.119   4.541   1.076 -0.1704  0.4211 -0.0801
 8967SOL    HW238364   1.188   4.411   1.052 -2.1933  0.6154 -1.5237
 8968SOL     OW38365   3.454   3.141   8.578 -0.1664 -0.2987 -0.3653
 8968SOL    HW138366   3.542   3.140   8.539 -0.6771  1.5904 -1.5717
 8968SOL    HW238367   3.471   3.175   8.666 -3.5556 -0.9017  0.5180
 8969SOL     OW38368   1.276   3.226   1.639  0.3956  0.2678 -0.8809
 8969SOL    HW138369   1.310   3.312   1.616 -1.1307  0.9095 -0.7344
 8969SOL    HW238370   1.213   3.213   1.568  0.4281 -0.6723 -0.7419
 8970SOL     OW38371   1.454   4.431   1.301 -0.4634 -0.1817  0.4548
 8970SOL    HW138372   1.451   4.514   1.254  1.9217 -0.5705 -0.3916
 8970SOL    HW238373   1.371   4.436   1.348 -0.8073 -0.0756 -0.1742
 8971SOL     OW38374   4.627   0.322  13.675  0.2028  0.6243  0.8686
 8971SOL    HW138375   4.606   0.335  13.582 -1.2494 -0.5172  1.0386
 8971SOL    HW238376   4.564   0.377  13.723 -0.7321  0.9369 -0.6912
 8972SOL     OW38377   1.963   3.472   7.258  0.4492 -0.1816 -0.2228
 8972SOL    HW138378   2.021   3.544   7.233 -0.3124  1.1341  1.8510
 8972SOL    HW238379   1.922   3.467   7.171  2.1215  1.1905 -1.0826
 8973SOL     OW38380   3.272   0.576   2.992 -0.3012 -0.8655  0.2565
 8973SOL    HW138381   3.210   0.589   3.063 -1.1602  0.9061 -0.8139
 8973SOL    HW238382   3.214   0.602   2.920  1.4460  1.0665 -0.4368
 8974SOL     OW38383   0.823   4.207  13.162 -0.3020  0.7630  0.0263
 8974SOL    HW138384   0.915   4.225  13.141 -0.6098  0.3924 -1.6486
 8974SOL    HW238385   0.819   4.111  13.158  0.5314  0.7327 -0.0983
 8975SOL     OW38386   1.422   3.771   3.505 -0.0386  0.0690  0.1009
 8975SOL    HW138387   1.462   3.801   3.423 -1.4036  0.7272 -0.3243
 8975SOL    HW238388   1.467   3.827   3.568  1.6807 -2.4572  1.0719
 8976SOL     OW38389   3.969   0.070  15.039 -0.0325  0.4094  0.2772
 8976SOL    HW138390   3.999   0.075  14.948 -1.5553 -0.3084 -0.2523
 8976SOL    HW238391   4.056   0.049  15.074 -0.8058 -0.8957  1.3915
 8977SOL     OW38392   4.579   4.643   4.210 -0.4823  0.1992  0.2917
 8977SOL    HW138393   4.494   4.688   4.207 -0.2481  0.5492 -0.8121
 8977SOL    HW238394   4.638   4.709   4.175  0.5459 -0.2650  1.1594
 8978SOL     OW38395   2.487   3.394   4.971  0.2513 -0.5971 -0.3403
 8978SOL    HW138396   2.494   3.318   5.028  1.0073  0.5092  1.0462
 8978SOL    HW238397   2.574   3.433   4.984 -0.2212  0.4765 -0.3773
 8979SOL     OW38398   3.183   3.466  15.165 -0.3658 -0.0532  0.3430
 8979SOL    HW138399   3.212   3.375  15.170  1.6894  0.5377 -0.7477
 8979SOL    HW238400   3.122   3.467  15.092 -0.4838 -0.3596  0.4393
 8980SOL     OW38401   2.101   4.592   2.231 -0.2436  0.4750 -0.2561
 8980SOL    HW138402   2.136   4.511   2.268 -0.3393  0.6374  0.1799
 8980SOL    HW238403   2.038   4.556   2.168 -0.8829 -1.9833  1.7809
 8981SOL     OW38404   1.649   2.491   6.546 -0.2647  0.5569 -0.7583
 8981SOL    HW138405   1.651   2.419   6.484 -0.7806 -0.8420  0.8692
 8981SOL    HW238406   1.559   2.472   6.571 -0.4510 -1.5631 -3.0703
 8982SOL     OW38407   0.022   1.564   4.331  0.1969  0.5922 -0.4267
 8982SOL    HW138408   4.695   1.640   4.306 -0.5273  0.0787 -0.4773
 8982SOL    HW238409   0.116   1.579   4.316  0.1584  0.3549 -0.9185
 8983SOL     OW38410   3.425   2.573   7.097  0.3229 -0.2764  0.4947
 8983SOL    HW138411   3.505   2.605   7.056  0.6766 -1.4260  0.2887
 8983SOL    HW238412   3.434   2.478   7.090  0.2263 -0.1362 -1.4037
 8984SOL     OW38413   2.217   2.679  13.364  0.1637  0.5809  0.4021
 8984SOL    HW138414   2.157   2.607  13.382 -0.1023  0.9222  0.8783
 8984SOL    HW238415   2.182   2.745  13.424  2.5566 -0.1767  2.6577
 8985SOL     OW38416   4.423   4.515   8.845 -0.2305 -0.1220  0.2688
 8985SOL    HW138417   4.356   4.457   8.808 -0.5208  0.2016  0.2868
 8985SOL    HW238418   4.493   4.451   8.856  1.1616  1.0709 -1.5438
 8986SOL     OW38419   2.340   1.964   7.546 -0.2026 -0.0987  0.2017
 8986SOL    HW138420   2.273   2.015   7.501 -1.1141 -1.3048  0.1922
 8986SOL    HW238421   2.304   1.983   7.633 -1.5440 -0.6451 -0.2316
 8987SOL     OW38422   0.605   1.239   5.073  0.0163 -0.3194  0.1944
 8987SOL    HW138423   0.683   1.209   5.119  0.0278 -2.3671 -1.1627
 8987SOL    HW238424   0.542   1.228   5.145 -0.9353  0.8499 -0.4455
 8988SOL     OW38425   2.284   3.493  12.410  0.1058  0.1290  0.1386
 8988SOL    HW138426   2.211   3.431  12.421  0.6720 -0.7093 -0.8722
 8988SOL    HW238427   2.249   3.557  12.348 -1.8816  0.4130  1.5483
 8989SOL     OW38428   1.613   2.512   6.158  0.7871 -0.4379  0.2793
 8989SOL    HW138429   1.698   2.468   6.147  0.9069  0.2568 -1.4282
 8989SOL    HW238430   1.557   2.435   6.160  2.0496 -1.3410  2.0034
 8990SOL     OW38431   4.312   0.787   6.142  0.1374 -0.1885 -0.2396
 8990SOL    HW138432   4.289   0.762   6.231  0.1261 -0.4564 -0.3146
 8990SOL    HW238433   4.356   0.871   6.150  0.8172 -0.6829  1.1580
 8991SOL     OW38434   4.246   0.435   3.050 -0.1467  0.0557 -0.4036
 8991SOL    HW138435   4.322   0.390   3.089  1.5034  2.9176 -0.3075
 8991SOL    HW238436   4.199   0.368   2.999  0.1145 -0.4859  0.0601
 8992SOL     OW38437   3.026   4.048  11.621 -0.7696 -0.4186 -0.3136
 8992SOL    HW138438   2.982   4.133  11.631  0.2524  0.1254 -0.3966
 8992SOL    HW238439   3.091   4.075  11.556  1.1046  0.8072  2.0779
 8993SOL     OW38440   3.048   3.305   1.136 -0.4881  1.0024 -0.0258
 8993SOL    HW138441   2.953   3.307   1.122 -0.7304  0.9032  1.6382
 8993SOL    HW238442   3.051   3.394   1.169  0.0202  0.3655  1.6136
 8994SOL     OW38443   3.477   0.441  17.630 -0.4230  0.2299 -0.1563
 8994SOL    HW138444   3.468   0.487  17.546 -1.5191  0.6660  0.2063
 8994SOL    HW238445   3.563   0.400  17.642 -1.4942 -2.1333 -0.6300
 8995SOL     OW38446   2.632   3.222  13.483 -0.2253 -0.4160 -0.2623
 8995SOL    HW138447   2.640   3.128  13.496  0.1315 -0.4155 -0.4948
 8995SOL    HW238448   2.592   3.258  13.562 -0.7799 -1.7467  0.0673
 8996SOL     OW38449   0.881   4.022   3.504  0.0005 -0.9711  0.2042
 8996SOL    HW138450   0.837   3.937   3.500 -0.9962 -0.4954  1.1694
 8996SOL    HW238451   0.971   4.003   3.531  0.6194  0.2150 -1.0535
 8997SOL     OW38452   1.950   4.132   7.398  0.3628 -0.3523 -0.0467
 8997SOL    HW138453   1.999   4.112   7.319 -0.2960 -0.3941 -0.4445
 8997SOL    HW238454   1.941   4.045   7.438  1.7093 -0.8018 -0.7395
 8998SOL     OW38455   3.445   0.634   1.148  0.1086  0.4773 -0.3452
 8998SOL    HW138456   3.460   0.635   1.243 -1.6401  3.6379 -0.0849
 8998SOL    HW238457   3.379   0.701   1.127 -1.4917 -1.3428 -1.1076
 8999SOL     OW38458   0.813   2.518   6.103  0.1065  0.4359  0.7727
 8999SOL    HW138459   0.863   2.564   6.036 -0.5073  0.1938  0.1495
 8999SOL    HW238460   0.886   2.469   6.142 -0.1853 -0.5677  0.0534
 9000SOL     OW38461   1.842   0.195  14.772  0.0369 -0.0461  0.3498
 9000SOL    HW138462   1.786   0.201  14.695 -0.8691  0.2130  1.0353
 9000SOL    HW238463   1.915   0.251  14.743 -0.2112  1.0761  1.9080
 9001SOL     OW38464   4.677   0.893   8.443 -0.4422 -0.0264  0.3360
 9001SOL    HW138465   4.647   0.819   8.496 -2.4755 -0.8002 -1.8935
 9001SOL    HW238466   0.048   0.883   8.454 -0.4617 -0.0562  0.4732
 9002SOL     OW38467   2.706   0.452  11.766  0.1759 -0.8524  0.4307
 9002SOL    HW138468   2.712   0.419  11.676  1.3676 -0.2992  0.3082
 9002SOL    HW238469   2.791   0.438  11.807  1.2826  2.1995 -0.8278
 9003SOL     OW38470   3.777   4.506   6.422 -0.1369 -0.3353  0.5158
 9003SOL    HW138471   3.708   4.524   6.358 -1.2767 -0.9801  1.5733
 9003SOL    HW238472   3.837   4.464   6.360  1.6632  0.3050  1.8024
 9004SOL     OW38473   1.164   2.031   0.429  0.3566 -0.3000 -0.1116
 9004SOL    HW138474   1.193   2.094   0.362 -1.7084 -1.5178 -2.1273
 9004SOL    HW238475   1.190   2.083   0.505 -0.1312 -1.5274  0.8860
 9005SOL     OW38476   0.712   4.205   3.387 -0.0270  0.3517 -0.0306
 9005SOL    HW138477   0.759   4.130   3.423 -0.4710  0.5660  0.9941
 9005SOL    HW238478   0.764   4.279   3.418  3.0034 -2.0439  0.6000
 9006SOL     OW38479   2.630   4.073   6.703  0.1946  0.0544 -0.1959
 9006SOL    HW138480   2.701   4.091   6.641  1.6597  0.5956  1.6156
 9006SOL    HW238481   2.619   3.981   6.681  1.8906 -0.2720  0.3215
 9007SOL     OW38482   0.918   1.156   0.236 -0.6127 -0.0577  0.0212
 9007SOL    HW138483   0.852   1.204   0.287 -0.3359 -1.7416  1.9679
 9007SOL    HW238484   0.961   1.112   0.310  1.3366  3.3979  0.9476
 9008SOL     OW38485   4.607   3.111   8.388  0.0502 -0.2984  0.0533
 9008SOL    HW138486   4.693   3.076   8.409 -0.2740 -0.2390  1.4255
 9008SOL    HW238487   4.546   3.038   8.383 -0.1850 -0.1041  0.1086
 9009SOL     OW38488   0.489   1.117   6.836  0.0101 -1.1629  0.5321
 9009SOL    HW138489   0.423   1.143   6.772 -0.3176 -1.3192  0.7993
 9009SOL    HW238490   0.528   1.047   6.785  0.8018 -2.5830  3.0900
 9010SOL     OW38491   0.343   3.121  12.754 -0.4966  0.0672  0.0343
 9010SOL    HW138492   0.435   3.130  12.776 -0.9494  1.4550  1.3726
 9010SOL    HW238493   0.299   3.128  12.839  0.7358  1.8781  0.5155
 9011SOL     OW38494   4.150   1.038  14.115  0.1119  0.0558 -0.3626
 9011SOL    HW138495   4.071   1.031  14.061 -0.2523 -1.3315  0.3256
 9011SOL    HW238496   4.218   1.059  14.051  0.4479  0.7727  0.2357
 9012SOL     OW38497   4.632   1.616  14.918  0.1662  0.2005 -0.2485
 9012SOL    HW138498   4.581   1.588  14.993 -1.5333  0.3856 -1.3338
 9012SOL    HW238499   4.564   1.668  14.875 -0.0321  0.5771  0.5270
 9013SOL     OW38500   1.765   3.504   7.729 -0.3177  0.5583 -0.6039
 9013SOL    HW138501   1.759   3.410   7.715 -0.7975  0.0987  2.6928
 9013SOL    HW238502   1.775   3.537   7.640 -0.5387 -0.2914 -0.9458
 9014SOL     OW38503   3.838   0.285   1.223  0.2335  0.1761  0.2335
 9014SOL    HW138504   3.861   0.225   1.151 -0.8876 -0.8667  0.7310
 9014SOL    HW238505   3.742   0.281   1.220  0.2132  1.0426 -0.1279
 9015SOL     OW38506   1.655   4.670   3.393  0.2047 -0.0434 -0.4572
 9015SOL    HW138507   1.684   4.597   3.449  0.1256  0.6705  0.5200
 9015SOL    HW238508   1.718   4.673   3.321  1.1947 -0.4033  0.3819
 9016SOL     OW38509   3.317   4.100   4.697  0.1378 -0.2214 -0.3168
 9016SOL    HW138510   3.387   4.140   4.747 -1.5229  2.2312  0.0444
 9016SOL    HW238511   3.297   4.174   4.639  0.0567  0.3191  0.3990
 9017SOL     OW38512   1.859   1.886   7.783 -0.2017  0.7116  0.1157
 9017SOL    HW138513   1.948   1.893   7.818 -0.5596 -0.1228  1.2009
 9017SOL    HW238514   1.856   1.977   7.754  0.7146  0.7210  0.0451
 9018SOL     OW38515   0.087   2.378   7.139  0.3242 -0.0385  0.1298
 9018SOL    HW138516   0.127   2.292   7.123  0.3392  0.1073 -0.6107
 9018SOL    HW238517   0.055   2.412   7.055 -0.9953 -0.7135  0.3571
 9019SOL     OW38518   2.711   1.785   4.526  0.1064  0.1658  0.0199
 9019SOL    HW138519   2.740   1.770   4.616 -1.9951 -1.2317  0.4529
 9019SOL    HW238520   2.769   1.720   4.485  0.1370 -0.6309  1.3364
 9020SOL     OW38521   1.899   1.840   4.768  0.1435 -0.4093 -0.5749
 9020SOL    HW138522   1.813   1.847   4.726 -0.2927 -1.8480  0.0776
 9020SOL    HW238523   1.958   1.793   4.709  0.5228 -0.9154  0.2053
 9021SOL     OW38524   1.562   0.900   6.417  0.1462 -0.3311  0.2733
 9021SOL    HW138525   1.490   0.839   6.432 -0.1581 -0.5832 -2.2157
 9021SOL    HW238526   1.567   0.903   6.322  0.0783 -0.4740  0.2649
 9022SOL     OW38527   1.341   3.317   5.938 -0.4609  0.2082  0.2240
 9022SOL    HW138528   1.335   3.351   6.027  1.3833 -1.0743  0.8229
 9022SOL    HW238529   1.340   3.222   5.952 -0.4243  0.2690  0.6402
 9023SOL     OW38530   0.178   3.658   2.513 -0.3661  0.0843  0.5597
 9023SOL    HW138531   0.242   3.701   2.570  0.1336  0.3225 -0.1813
 9023SOL    HW238532   0.211   3.568   2.516 -1.5908 -0.3468  0.8066
 9024SOL     OW38533   2.625   0.008  11.395 -0.6446 -0.4275 -0.0407
 9024SOL    HW138534   2.619   0.067  11.320  1.5157  0.7534  0.7181
 9024SOL    HW238535   2.671   0.064  11.458 -1.5990 -1.6328  1.7524
 9025SOL     OW38536   0.776   3.649   2.141 -0.3709 -0.4905 -0.7762
 9025SOL    HW138537   0.818   3.596   2.208  3.1723  1.8993 -1.1297
 9025SOL    HW238538   0.723   3.715   2.187  0.2295  1.8888 -3.5059
 9026SOL     OW38539   2.750   1.470  10.818  0.2558 -0.0504  0.7866
 9026SOL    HW138540   2.842   1.456  10.798  0.6889  1.2990  1.8717
 9026SOL    HW238541   2.756   1.517  10.901 -2.9897  1.1045  0.3621
 9027SOL     OW38542   4.208   0.907   8.036 -0.3899  0.0082 -0.1524
 9027SOL    HW138543   4.201   0.996   8.072 -0.5772  0.5457 -1.5091
 9027SOL    HW238544   4.266   0.863   8.098  1.1516  0.2663 -1.4374
 9028SOL     OW38545   0.248   4.401  10.571 -0.2791  0.1652  0.0402
 9028SOL    HW138546   0.302   4.339  10.523 -0.2798  0.0564  0.1819
 9028SOL    HW238547   0.211   4.436  10.490  1.2314 -1.3034 -1.2918
 9029SOL     OW38548   4.347   0.211   8.526  0.1408 -0.1723  0.0437
 9029SOL    HW138549   4.256   0.235   8.544  0.6836  1.1285  1.0581
 9029SOL    HW238550   4.365   0.170   8.611 -0.1492  1.0152  0.6809
 9030SOL     OW38551   2.792   1.549   3.070 -0.1464 -0.0725  0.2170
 9030SOL    HW138552   2.778   1.454   3.068 -0.2162 -0.0824  1.1202
 9030SOL    HW238553   2.808   1.572   2.978  1.6749 -0.0960  0.5238
 9031SOL     OW38554   3.497   0.299   5.169 -0.2318  0.4511  0.3769
 9031SOL    HW138555   3.443   0.220   5.165  0.9521 -0.1965 -3.5121
 9031SOL    HW238556   3.503   0.312   5.263 -0.8277 -0.0721  0.4894
 9032SOL     OW38557   1.821   0.197   9.288 -0.0102 -0.0086  0.1131
 9032SOL    HW138558   1.744   0.141   9.299 -0.7562  1.1612  0.8694
 9032SOL    HW238559   1.803   0.264   9.354 -0.9371 -0.6542  0.5135
 9033SOL     OW38560   3.502   3.968  12.191  0.4843 -0.3070 -0.2405
 9033SOL    HW138561   3.549   4.038  12.146 -0.9903 -0.0138 -1.3534
 9033SOL    HW238562   3.418   3.957  12.146  0.8427 -0.0315 -0.9737
 9034SOL     OW38563   4.203   4.355   8.735 -0.4157  0.1942  0.3622
 9034SOL    HW138564   4.237   4.286   8.792 -0.7006 -0.8222 -0.6941
 9034SOL    HW238565   4.126   4.391   8.778 -0.3706  0.1075  0.5167
 9035SOL     OW38566   4.451   1.544  17.169 -0.1547  0.1768 -0.0070
 9035SOL    HW138567   4.507   1.554  17.246  0.4238 -0.1324 -0.3838
 9035SOL    HW238568   4.360   1.572  17.180 -0.6311 -1.1817 -0.5442
 9036SOL     OW38569   1.224   0.182  11.755  0.1955 -0.0406 -0.0827
 9036SOL    HW138570   1.223   0.086  11.765  1.2675 -0.3706 -3.3481
 9036SOL    HW238571   1.185   0.188  11.668  2.4196 -0.5380 -1.1334
 9037SOL     OW38572   1.063   1.633   7.679  0.4385 -0.2804  0.2708
 9037SOL    HW138573   1.068   1.555   7.735  3.0045 -0.2194  0.1585
 9037SOL    HW238574   1.019   1.689   7.742 -0.7320  0.4644 -1.1855
 9038SOL     OW38575   4.187   1.961  16.807  0.1582  0.0227  0.1961
 9038SOL    HW138576   4.096   1.945  16.833  0.2093 -0.7216 -0.0618
 9038SOL    HW238577   4.185   1.954  16.711  0.6097 -0.3133  0.2070
 9039SOL     OW38578   4.325   2.732  17.354 -0.8079 -0.0302  0.1630
 9039SOL    HW138579   4.232   2.748  17.371 -1.1143 -1.4139 -0.1843
 9039SOL    HW238580   4.342   2.772  17.269  0.5732 -0.1779  0.3721
 9040SOL     OW38581   3.778   2.888   9.018 -0.4604  0.0704  0.3984
 9040SOL    HW138582   3.840   2.815   9.011 -0.5060 -0.0873  1.6660
 9040SOL    HW238583   3.807   2.928   9.099  0.1075  1.6438 -0.5913
 9041SOL     OW38584   0.098   4.117   8.432 -0.5669  0.0639  0.1727
 9041SOL    HW138585   0.011   4.157   8.429  0.4092  2.1511 -0.6229
 9041SOL    HW238586   0.080   4.041   8.486  0.3928 -0.6126 -0.4604
 9042SOL     OW38587   0.159   0.153  15.996  0.3914  0.1631  0.5862
 9042SOL    HW138588   0.082   0.129  16.048  0.5239 -0.1285  0.6477
 9042SOL    HW238589   0.110   0.180  15.919  0.4206  0.2788  0.6081
 9043SOL     OW38590   2.415   0.459   3.569 -0.0832  0.3962 -0.4695
 9043SOL    HW138591   2.461   0.400   3.509  1.6445  3.5199 -2.2696
 9043SOL    HW238592   2.333   0.414   3.587  1.0420 -1.4820 -0.0458
 9044SOL     OW38593   0.131   4.424  13.699  0.0323 -0.2186 -0.2067
 9044SOL    HW138594   0.124   4.519  13.710  0.0929 -0.2689  0.2817
 9044SOL    HW238595   0.094   4.412  13.612  1.9061 -0.6322 -0.9508
 9045SOL     OW38596   1.688   1.408   8.247  0.2924  0.0839 -0.8842
 9045SOL    HW138597   1.664   1.316   8.235  1.5872 -0.6513  2.2135
 9045SOL    HW238598   1.707   1.426   8.155 -0.3510 -1.7025 -1.3618
 9046SOL     OW38599   3.841   1.413  11.671  0.7186 -0.5310 -0.5446
 9046SOL    HW138600   3.836   1.501  11.634  0.9182 -0.5192 -0.5414
 9046SOL    HW238601   3.930   1.404  11.706  0.2562 -0.0092  0.7947
 9047SOL     OW38602   1.444   4.143   7.625 -0.4905  0.2857 -0.9726
 9047SOL    HW138603   1.376   4.173   7.685  0.2692 -0.9162  0.5044
 9047SOL    HW238604   1.473   4.063   7.669 -1.9392  0.0710 -0.4137
 9048SOL     OW38605   4.230   0.392   0.743 -0.0644  0.5781 -0.4320
 9048SOL    HW138606   4.168   0.459   0.772  0.7646  1.3465 -0.4147
 9048SOL    HW238607   4.276   0.440   0.674  0.9970 -1.3398 -1.0533
 9049SOL     OW38608   3.016   4.705  15.358 -0.3030 -0.1456  0.0366
 9049SOL    HW138609   3.065   0.050  15.315 -0.3312 -0.0668  0.1318
 9049SOL    HW238610   2.928   0.003  15.329  0.1509  0.7858 -0.5839
 9050SOL     OW38611   0.237   4.622  10.107 -0.6212 -0.0494 -0.0264
 9050SOL    HW138612   0.182   4.585  10.037 -0.4567  0.5486 -0.4773
 9050SOL    HW238613   0.221   4.714  10.085  1.0682 -0.2551 -2.0827
 9051SOL     OW38614   3.209   0.895   4.755 -0.0360 -0.7474  0.0128
 9051SOL    HW138615   3.237   0.819   4.805 -1.1183 -0.7071  0.6881
 9051SOL    HW238616   3.273   0.895   4.684  0.5212 -2.9888  0.5373
 9052SOL     OW38617   2.292   1.706   6.122  0.2167 -0.1871 -0.0955
 9052SOL    HW138618   2.201   1.679   6.132  0.2889  0.0494  1.1073
 9052SOL    HW238619   2.329   1.617   6.116  1.4397  0.4851 -2.7582
 9053SOL     OW38620   4.278   2.844  13.873 -0.6055  0.3126  0.1591
 9053SOL    HW138621   4.313   2.926  13.908 -1.1679  0.6534 -0.0750
 9053SOL    HW238622   4.341   2.818  13.806  0.1868  0.7334  0.7355
 9054SOL     OW38623   3.467   3.319   2.559 -0.1496 -0.4529  0.3278
 9054SOL    HW138624   3.444   3.404   2.595 -1.4595 -0.5700 -0.2374
 9054SOL    HW238625   3.514   3.297   2.639  0.7520  1.8699  0.4361
 9055SOL     OW38626   4.676   0.264   8.175  0.9890  0.1043 -0.3618
 9055SOL    HW138627   4.682   0.168   8.169 -3.6111 -0.3004  1.3252
 9055SOL    HW238628   4.581   0.273   8.178  0.8121 -2.4942  1.6219
 9056SOL     OW38629   2.850   2.793   9.946  0.3133 -0.1982  0.3127
 9056SOL    HW138630   2.756   2.779   9.943  0.5278 -1.7443  0.9853
 9056SOL    HW238631   2.894   2.709   9.961  0.7920  0.1231  0.7471
 9057SOL     OW38632   3.539   3.788   4.298 -0.3812  0.0928  0.1553
 9057SOL    HW138633   3.491   3.838   4.365  0.2004  2.4507 -1.2218
 9057SOL    HW238634   3.551   3.850   4.227  0.3901 -0.6196 -0.3328
 9058SOL     OW38635   3.783   2.398   4.321  0.3831 -0.0275 -0.6685
 9058SOL    HW138636   3.872   2.384   4.287  0.5861  2.0112 -0.9540
 9058SOL    HW238637   3.782   2.490   4.346  0.4656  0.0922 -1.0992
 9059SOL     OW38638   2.623   1.243   5.821  0.0012  0.0713 -0.0123
 9059SOL    HW138639   2.685   1.315   5.830 -2.6127  1.8671  3.4386
 9059SOL    HW238640   2.543   1.295   5.832  0.5044  0.9329 -0.4197
 9060SOL     OW38641   2.133   3.672   6.971  0.1297  0.1383 -0.2878
 9060SOL    HW138642   2.104   3.621   6.896 -1.1431  0.9143 -0.3168
 9060SOL    HW238643   2.085   3.753   6.954  0.5459  0.3700 -0.3574
 9061SOL     OW38644   3.419   0.881   3.496 -0.6138 -0.3318 -0.5028
 9061SOL    HW138645   3.502   0.904   3.456  0.8382 -1.4071  1.9191
 9061SOL    HW238646   3.361   0.937   3.443  0.0589  1.1177  0.2856
 9062SOL     OW38647   0.509   2.144   2.667  0.2759 -0.2188  0.0999
 9062SOL    HW138648   0.532   2.161   2.758  0.6131 -1.3471  0.2211
 9062SOL    HW238649   0.428   2.094   2.671  0.1381  0.0520  0.6360
 9063SOL     OW38650   4.444   3.677   7.853 -0.5063 -0.5642  0.4707
 9063SOL    HW138651   4.525   3.639   7.888 -1.4931 -3.1797 -0.1601
 9063SOL    HW238652   4.461   3.670   7.759  1.2331  0.9107  0.6561
 9064SOL     OW38653   3.510   0.072   6.459 -0.3618 -0.3712 -0.4571
 9064SOL    HW138654   3.602   0.050   6.474  0.0044  0.3111 -1.6603
 9064SOL    HW238655   3.529   0.134   6.388  1.0636 -2.0970 -1.5807
 9065SOL     OW38656   3.130   3.443   1.842 -0.5466 -0.0956 -1.3434
 9065SOL    HW138657   3.161   3.370   1.896  1.8557  1.5079 -0.5477
 9065SOL    HW238658   3.049   3.424   1.796 -1.4809 -0.2526  0.3498
 9066SOL     OW38659   1.706   0.379   7.490 -0.5689  0.3541  0.0157
 9066SOL    HW138660   1.778   0.336   7.444 -1.6191  0.5194 -1.7720
 9066SOL    HW238661   1.770   0.441   7.524  0.1024  0.6996 -1.9075
 9067SOL     OW38662   3.995   0.272  14.672  0.7783  0.4194 -0.4704
 9067SOL    HW138663   3.945   0.350  14.696 -2.3247 -1.1164 -2.0697
 9067SOL    HW238664   3.983   0.211  14.744  0.3124  2.4412  1.1555
 9068SOL     OW38665   2.350   2.306  12.441  0.5668  0.0709 -0.1376
 9068SOL    HW138666   2.402   2.231  12.471 -0.5675  0.5710  3.0804
 9068SOL    HW238667   2.410   2.352  12.384  0.2410 -0.1172 -0.6274
 9069SOL     OW38668   2.443   4.327   7.043  0.1233 -0.0720 -0.1459
 9069SOL    HW138669   2.502   4.252   7.033  0.1144 -0.2011  0.8080
 9069SOL    HW238670   2.490   4.363   7.118  0.3050  1.1695 -0.8513
 9070SOL     OW38671   3.475   0.085   8.325 -0.5741 -0.5749  0.2992
 9070SOL    HW138672   3.401   0.145   8.334 -0.2887 -0.1044 -0.4842
 9070SOL    HW238673   3.469   0.059   8.233  0.5049 -0.5380  0.2124
 9071SOL     OW38674   3.574   4.021  11.758 -0.5201  0.1230 -0.0583
 9071SOL    HW138675   3.489   4.048  11.723 -1.4620 -1.1200  1.2867
 9071SOL    HW238676   3.591   3.933  11.724  3.1098  0.1183  1.7710
 9072SOL     OW38677   4.686   1.849   3.179  0.2302 -0.9837 -0.5109
 9072SOL    HW138678   4.686   1.943   3.158  1.8663 -1.2667 -1.7215
 9072SOL    HW238679   0.032   1.824   3.238 -0.3246 -0.9202  0.1862
 9073SOL     OW38680   3.541   3.394   3.375  0.1629  0.4732 -0.0738
 9073SOL    HW138681   3.609   3.355   3.430  0.1511  0.5278 -0.0205
 9073SOL    HW238682   3.485   3.430   3.443 -0.8352  1.9768 -1.6892
 9074SOL     OW38683   1.931   1.210   7.201 -0.2284  0.3017  0.5473
 9074SOL    HW138684   2.020   1.229   7.170 -0.7351 -0.1271 -1.1875
 9074SOL    HW238685   1.911   1.158   7.123 -1.3788  2.5726 -0.7059
 9075SOL     OW38686   3.710   1.210   3.213 -0.0069 -0.6241 -0.2509
 9075SOL    HW138687   3.786   1.204   3.156  0.9050 -1.7617  1.0868
 9075SOL    HW238688   3.669   1.141   3.162 -1.4070 -1.7049  2.3028
 9076SOL     OW38689   1.721   1.550   6.810 -0.2724 -0.1186 -0.0571
 9076SOL    HW138690   1.706   1.458   6.831  0.6017 -0.6482 -1.7244
 9076SOL    HW238691   1.783   1.536   6.738  0.0689 -1.2322  0.4484
 9077SOL     OW38692   4.270   3.442   6.075 -0.2029  0.0166 -0.7172
 9077SOL    HW138693   4.351   3.455   6.027 -0.0328  3.4955  0.5305
 9077SOL    HW238694   4.265   3.346   6.079  0.0452  0.0810  1.2310
 9078SOL     OW38695   3.065   3.951   5.662  0.4878 -0.3140  0.7884
 9078SOL    HW138696   3.055   4.037   5.622 -4.4836 -0.9559  0.7285
 9078SOL    HW238697   2.989   3.911   5.620 -1.5134  1.3430  2.8335
 9079SOL     OW38698   1.081   4.219   2.362 -0.2531 -0.1690 -0.1057
 9079SOL    HW138699   1.033   4.302   2.368  0.9889  0.5198  0.5780
 9079SOL    HW238700   1.049   4.198   2.275 -2.9896  0.7177  0.6855
 9080SOL     OW38701   3.268   0.177   3.928  0.4071 -0.4257  0.5506
 9080SOL    HW138702   3.179   0.189   3.896 -0.8769 -0.3776  4.1295
 9080SOL    HW238703   3.263   0.085   3.954 -0.4527 -0.1684  1.3077
 9081SOL     OW38704   4.657   2.296   6.768  0.1443  0.6810 -0.1855
 9081SOL    HW138705   4.696   2.382   6.782  0.3739  0.7000 -0.9256
 9081SOL    HW238706   4.569   2.315   6.799  0.2514 -1.5576  1.5195
 9082SOL     OW38707   1.764   2.099   9.975  0.5303 -0.1027 -0.5897
 9082SOL    HW138708   1.833   2.100   9.908  2.3483  0.9692  1.2938
 9082SOL    HW238709   1.741   2.008   9.996  0.5569 -0.4343 -1.9975
 9083SOL     OW38710   2.166   1.721   6.585  0.0352 -0.1020 -0.1548
 9083SOL    HW138711   2.251   1.692   6.619 -0.4077  0.7676  1.7129
 9083SOL    HW238712   2.202   1.766   6.509  0.1532 -0.1877 -0.1498
 9084SOL     OW38713   1.513   2.022   3.085  0.5246 -0.0281  0.0017
 9084SOL    HW138714   1.442   1.970   3.046  1.0828 -0.0109 -1.0558
 9084SOL    HW238715   1.542   2.054   2.999  1.4547  0.2454  0.4243
 9085SOL     OW38716   0.711   1.651  11.529 -0.6336  0.2607 -0.3091
 9085SOL    HW138717   0.749   1.641  11.442  0.0490  0.9578 -0.0972
 9085SOL    HW238718   0.778   1.600  11.576 -0.6764 -0.9599 -1.5663
 9086SOL     OW38719   3.224   2.116   2.337  0.4044  0.3209 -0.4016
 9086SOL    HW138720   3.164   2.107   2.263  0.0086  1.3454 -0.2021
 9086SOL    HW238721   3.266   2.031   2.324 -0.5920 -0.0790 -1.0274
 9087SOL     OW38722   2.190   0.621   5.664  0.2280 -0.1202  0.2559
 9087SOL    HW138723   2.140   0.553   5.709  0.4142  0.4316  1.3055
 9087SOL    HW238724   2.248   0.570   5.608  2.1774  0.3405  1.8350
 9088SOL     OW38725   0.227   4.401  17.156  0.0494  0.3827  0.5138
 9088SOL    HW138726   0.244   4.310  17.181 -1.0078 -0.2580 -1.1493
 9088SOL    HW238727   0.157   4.428  17.216 -1.2085 -0.3133 -0.6406
 9089SOL     OW38728   4.440   0.218  15.326  0.8033 -0.2261 -0.2660
 9089SOL    HW138729   4.429   0.301  15.372  0.3094 -0.7386  0.5430
 9089SOL    HW238730   4.521   0.184  15.364 -0.4046 -0.5604  2.0323
 9090SOL     OW38731   4.149   4.320   3.127  0.8484  0.2131  0.1814
 9090SOL    HW138732   4.149   4.238   3.078 -0.2437  1.5077 -1.9618
 9090SOL    HW238733   4.243   4.338   3.134  0.8098  0.0441  1.1842
 9091SOL     OW38734   1.215   1.306  10.462  0.1947  0.4708 -0.0495
 9091SOL    HW138735   1.205   1.384  10.406 -0.9876  0.3906  0.0582
 9091SOL    HW238736   1.272   1.260  10.401  0.9571  2.0443 -0.5255
 9092SOL     OW38737   0.426   3.288   5.390 -0.2780 -0.2446 -0.0903
 9092SOL    HW138738   0.415   3.295   5.485  0.1545 -0.8107  0.0053
 9092SOL    HW238739   0.520   3.271   5.382  0.0607  1.5689  0.0195
 9093SOL     OW38740   0.376   2.127   1.417 -0.7782  0.8643  0.1443
 9093SOL    HW138741   0.297   2.080   1.440 -0.1722  0.2905  1.0251
 9093SOL    HW238742   0.422   2.126   1.501 -1.5199 -1.6915  0.4984
 9094SOL     OW38743   3.874   0.445   4.417 -0.4394  0.0592  0.5269
 9094SOL    HW138744   3.939   0.383   4.450 -0.4612  0.5798  1.5427
 9094SOL    HW238745   3.921   0.486   4.345 -0.7324 -2.0934 -0.9005
 9095SOL     OW38746   2.901   2.631   9.113 -0.4548 -0.0978  0.0904
 9095SOL    HW138747   2.946   2.704   9.071 -1.3480 -0.3429 -1.3110
 9095SOL    HW238748   2.907   2.670   9.200  0.0306  1.5896 -0.6913
 9096SOL     OW38749   3.244   4.356   4.876  0.1667 -0.6336 -0.0510
 9096SOL    HW138750   3.224   4.435   4.926  0.1116  0.0999 -1.2317
 9096SOL    HW238751   3.201   4.375   4.793  0.9171 -3.0660 -0.9753
 9097SOL     OW38752   2.885   0.355   6.549 -0.2471 -0.1515  0.6217
 9097SOL    HW138753   2.810   0.394   6.505 -0.1515 -1.8038 -1.0073
 9097SOL    HW238754   2.897   0.293   6.477  0.2066  0.3470  0.2617
 9098SOL     OW38755   2.403   3.963   8.300  0.0127 -0.5652 -0.2226
 9098SOL    HW138756   2.355   3.909   8.362  0.2575 -0.7405 -0.1825
 9098SOL    HW238757   2.474   3.910   8.263 -0.0192 -0.3540 -0.5886
 9099SOL     OW38758   2.661   1.824   6.530  0.3697  0.1822  0.5709
 9099SOL    HW138759   2.682   1.750   6.473 -2.6524 -1.5014  1.6789
 9099SOL    HW238760   2.571   1.804   6.553  0.0266  1.0583 -0.0110
 9100SOL     OW38761   1.001   3.853  16.963  0.2612 -0.8356 -0.1346
 9100SOL    HW138762   1.069   3.787  16.980 -0.2759 -1.5519 -0.7358
 9100SOL    HW238763   1.062   3.927  16.960 -0.7741  0.0055 -0.3237
 9101SOL     OW38764   3.567   3.568   1.666 -0.0768 -0.1083 -0.1313
 9101SOL    HW138765   3.483   3.581   1.622 -0.6900 -1.2091  0.7076
 9101SOL    HW238766   3.621   3.504   1.621  3.1237  0.7098  2.5414
 9102SOL     OW38767   3.879   2.278   1.157 -0.0119 -0.3632  0.0891
 9102SOL    HW138768   3.861   2.365   1.122  3.8005  0.3949  0.0103
 9102SOL    HW238769   3.947   2.297   1.222 -0.3463  0.0704  0.3047
 9103SOL     OW38770   3.351   0.039   4.209  0.3410 -0.0166  1.2640
 9103SOL    HW138771   3.383   0.124   4.239  2.1574  0.4564 -2.0076
 9103SOL    HW238772   3.259   0.046   4.234  0.4617  0.4763  1.5947
 9104SOL     OW38773   2.824   1.366  15.980  0.1028 -0.0199  0.4518
 9104SOL    HW138774   2.755   1.309  16.014 -1.4322  1.6978  0.2010
 9104SOL    HW238775   2.854   1.327  15.898  1.3756  0.0690  0.8701
 9105SOL     OW38776   0.740   3.522   3.511  0.1428  0.4566  0.1402
 9105SOL    HW138777   0.834   3.529   3.528  0.2431  1.1814 -0.7022
 9105SOL    HW238778   0.708   3.513   3.601 -0.2163  1.4193  0.1138
 9106SOL     OW38779   0.770   3.589   0.669  0.2978  0.2764 -0.1189
 9106SOL    HW138780   0.767   3.556   0.759  1.5394 -1.7139 -0.7846
 9106SOL    HW238781   0.711   3.663   0.671 -0.4001 -0.2034 -3.3652
 9107SOL     OW38782   0.618   1.227   5.501  0.2178  0.0875 -1.4465
 9107SOL    HW138783   0.540   1.211   5.448  0.0935  1.8583 -1.7787
 9107SOL    HW238784   0.584   1.302   5.548  2.4300  0.8031 -0.9862
 9108SOL     OW38785   1.145   1.133   2.533 -0.7839  0.3058  0.1927
 9108SOL    HW138786   1.225   1.109   2.487 -0.2881  0.7398  0.8264
 9108SOL    HW238787   1.087   1.094   2.468  0.9050  2.2335 -2.4778
 9109SOL     OW38788   3.438   0.562  12.996  0.0323  0.1815 -0.2256
 9109SOL    HW138789   3.458   0.650  13.029 -0.1402  0.3665 -0.6155
 9109SOL    HW238790   3.372   0.528  13.056 -3.3539  3.0717 -2.3205
 9110SOL     OW38791   0.414   2.695  15.105 -0.7785  0.2040  0.2858
 9110SOL    HW138792   0.442   2.776  15.147 -1.8817 -1.0867  3.5140
 9110SOL    HW238793   0.475   2.631  15.140 -1.7224 -0.0860  1.3860
 9111SOL     OW38794   4.513   0.737  17.529  0.5870  0.2767 -0.2953
 9111SOL    HW138795   4.514   0.825  17.567  1.1638  1.3877 -2.8406
 9111SOL    HW238796   4.509   0.742  17.433  1.1456  1.2963 -0.2638
 9112SOL     OW38797   0.591   0.034   3.666  0.1849 -0.4481 -0.0310
 9112SOL    HW138798   0.638   4.704   3.603  1.6046  0.2073  0.4579
 9112SOL    HW238799   0.532   0.094   3.619 -1.4577 -2.2124 -0.2032
 9113SOL     OW38800   2.352   0.308   6.307 -0.1199  0.5736  0.6345
 9113SOL    HW138801   2.402   0.296   6.225  1.4965  0.8941  1.5763
 9113SOL    HW238802   2.331   0.401   6.302 -0.4128  0.4687 -0.0945
 9114SOL     OW38803   2.143   1.035   4.384 -0.3979  1.1008 -0.0063
 9114SOL    HW138804   2.103   0.962   4.430  1.1343  0.1286 -0.2060
 9114SOL    HW238805   2.119   1.017   4.293  0.6730  0.8088 -0.2259
 9115SOL     OW38806   1.552   2.139  11.640 -0.6436 -0.0199 -0.3248
 9115SOL    HW138807   1.538   2.135  11.735 -0.0455  0.0286 -0.2296
 9115SOL    HW238808   1.468   2.110  11.605  0.4391 -2.8461 -0.5630
 9116SOL     OW38809   2.524   2.407   8.461 -0.0946 -0.1519  0.2733
 9116SOL    HW138810   2.550   2.335   8.405 -0.9107  1.0947 -1.7249
 9116SOL    HW238811   2.500   2.475   8.398  1.1249  1.4706  1.5611
 9117SOL     OW38812   1.869   2.260   3.019 -0.0981 -0.1285 -0.4844
 9117SOL    HW138813   1.912   2.279   3.103 -0.9619 -1.1309  0.1986
 9117SOL    HW238814   1.880   2.345   2.978  1.5614 -0.0412  0.1083
 9118SOL     OW38815   2.397   0.293   2.808  0.1353  0.4719 -0.2033
 9118SOL    HW138816   2.354   0.241   2.739  0.9313 -0.3089 -0.1137
 9118SOL    HW238817   2.319   0.314   2.859 -0.1987  1.1843 -1.0069
 9119SOL     OW38818   3.764   4.031   2.643  0.0540  1.1047 -0.3730
 9119SOL    HW138819   3.727   4.086   2.573 -0.6623  0.1931 -0.7142
 9119SOL    HW238820   3.839   4.086   2.666 -0.2261  1.1406  0.4527
 9120SOL     OW38821   2.261   1.699   3.843  0.5348 -0.2844 -0.0600
 9120SOL    HW138822   2.336   1.643   3.822  1.1648  0.4508  0.2181
 9120SOL    HW238823   2.306   1.783   3.849  0.6489 -0.4405  1.3185
 9121SOL     OW38824   3.640   1.982   4.808 -0.3119  0.7613 -1.1369
 9121SOL    HW138825   3.627   1.927   4.885 -0.9164 -0.1873 -1.9075
 9121SOL    HW238826   3.549   1.992   4.780 -0.6985 -1.0882 -0.5738
 9122SOL     OW38827   1.829   0.256  10.089 -0.0384  0.1031 -0.1362
 9122SOL    HW138828   1.918   0.280  10.116  1.2935 -3.4522 -1.2617
 9122SOL    HW238829   1.786   0.267  10.174 -0.1295  1.9461 -0.4266
 9123SOL     OW38830   2.827   0.578   2.098  0.6282  0.3197 -0.2579
 9123SOL    HW138831   2.892   0.607   2.035  1.5523 -0.9300  0.1258
 9123SOL    HW238832   2.866   0.523   2.165 -0.1053  0.7749  0.5422
 9124SOL     OW38833   3.747   0.504   7.924 -0.4730  0.0175 -0.0827
 9124SOL    HW138834   3.841   0.523   7.924 -0.4981  0.1494 -1.0433
 9124SOL    HW238835   3.725   0.508   7.831 -1.6098  0.5633  0.1994
 9125SOL     OW38836   3.401   3.803  10.519 -0.3030 -0.1112 -0.6171
 9125SOL    HW138837   3.399   3.780  10.612  0.6056 -0.5150 -0.7025
 9125SOL    HW238838   3.309   3.786  10.498 -0.5168 -0.6040  0.7124
 9126SOL     OW38839   3.647   1.268   0.846 -0.2129 -0.1194  0.3196
 9126SOL    HW138840   3.679   1.206   0.912 -0.4679 -0.9954 -0.3889
 9126SOL    HW238841   3.576   1.223   0.801 -0.4912 -1.1561  1.7892
 9127SOL     OW38842   2.456   0.820   0.705  0.6712 -0.8206 -0.1156
 9127SOL    HW138843   2.479   0.907   0.673  0.6321 -0.6790  0.2386
 9127SOL    HW238844   2.394   0.862   0.765 -0.5120 -0.1742 -1.7919
 9128SOL     OW38845   2.805   2.715  11.412  0.1213  0.1379  0.1921
 9128SOL    HW138846   2.857   2.752  11.483  1.2043 -1.1756  0.0926
 9128SOL    HW238847   2.733   2.778  11.420 -1.2723 -0.9669 -3.5378
 9129SOL     OW38848   2.082   4.650   3.228  0.2950  0.0482 -0.6363
 9129SOL    HW138849   2.117   4.601   3.153 -1.2174 -0.9934 -0.6596
 9129SOL    HW238850   2.078   4.580   3.294  0.0684  3.0025  2.4411
 9130SOL     OW38851   4.351   1.050  14.591 -0.6805 -0.5325 -0.0750
 9130SOL    HW138852   4.276   0.991  14.589 -0.5094 -0.7892  1.1243
 9130SOL    HW238853   4.314   1.134  14.617  0.0779 -0.0133 -0.6396
 9131SOL     OW38854   4.165   2.703   0.578 -0.3387 -0.0976 -0.3080
 9131SOL    HW138855   4.089   2.675   0.629  0.1398 -1.4652 -0.3446
 9131SOL    HW238856   4.224   2.711   0.653  1.4525  1.6038 -1.8859
 9132SOL     OW38857   0.841   3.236   1.956  0.1221  0.4685 -0.2511
 9132SOL    HW138858   0.796   3.256   1.874  0.9228  2.8689 -0.0880
 9132SOL    HW238859   0.933   3.255   1.939 -0.1260  1.7543 -0.1354
 9133SOL     OW38860   3.215   0.710   8.948  0.0854  0.4441 -0.2142
 9133SOL    HW138861   3.229   0.803   8.931  0.3527  0.4814  0.2010
 9133SOL    HW238862   3.304   0.675   8.948  0.2486  0.8692 -1.2469
 9134SOL     OW38863   3.567   2.337   9.320 -0.2380  0.5974 -0.3467
 9134SOL    HW138864   3.564   2.424   9.280  0.9455  0.4790 -0.7033
 9134SOL    HW238865   3.622   2.349   9.397 -0.6280  0.8689 -0.1104
 9135SOL     OW38866   3.279   0.749   6.362 -0.2207 -0.1145 -0.6169
 9135SOL    HW138867   3.321   0.798   6.432  0.6745 -1.8635  0.0849
 9135SOL    HW238868   3.351   0.692   6.331  0.8293  1.4445 -1.0506
 9136SOL     OW38869   2.699   2.033   6.900  0.0553  1.2315 -0.0308
 9136SOL    HW138870   2.740   2.103   6.850 -0.6395  2.2588  0.8471
 9136SOL    HW238871   2.606   2.050   6.885 -0.4696  1.8488  3.7312
 9137SOL     OW38872   2.191   3.755   4.260  0.4186 -0.3134 -0.2326
 9137SOL    HW138873   2.241   3.810   4.320  1.1113 -0.1299 -0.9742
 9137SOL    HW238874   2.152   3.687   4.316  0.5873 -0.7610 -0.6594
 9138SOL     OW38875   0.261   0.074   8.032 -0.7703 -0.1272 -0.0234
 9138SOL    HW138876   0.202   0.107   7.965 -1.6514 -0.2555  0.6765
 9138SOL    HW238877   0.331   0.138   8.038 -0.9693  0.3003 -2.4072
 9139SOL     OW38878   4.148   1.985   4.619  0.0134 -0.1089  0.7419
 9139SOL    HW138879   4.148   1.890   4.604 -2.5696  0.1246 -0.7419
 9139SOL    HW238880   4.069   2.001   4.670  0.0147  2.1355  0.0168
 9140SOL     OW38881   3.405   3.593   4.455 -0.3147  0.0713  0.0670
 9140SOL    HW138882   3.433   3.662   4.396  1.5096 -0.3016  0.5071
 9140SOL    HW238883   3.315   3.577   4.424  0.0460 -2.1033  0.1039
 9141SOL     OW38884   2.164   2.963   7.936 -0.8815  0.0368 -0.0609
 9141SOL    HW138885   2.164   3.056   7.957  0.0313  0.3665 -1.5105
 9141SOL    HW238886   2.132   2.975   7.846 -1.8659  1.4843  0.4914
 9142SOL     OW38887   1.625   0.877   7.214  0.9872 -0.4848  0.2201
 9142SOL    HW138888   1.710   0.859   7.255  0.6570 -0.2765  0.9860
 9142SOL    HW238889   1.627   0.810   7.145  1.8723 -0.5470  0.3102
 9143SOL     OW38890   2.924   4.179   1.387 -0.2180  0.5841 -0.2071
 9143SOL    HW138891   2.853   4.115   1.394 -1.0801  1.6440  0.8080
 9143SOL    HW238892   2.914   4.217   1.474  1.3903 -1.6930  0.9649
 9144SOL     OW38893   2.246   0.908   6.945 -0.2464  0.6051  0.1946
 9144SOL    HW138894   2.216   0.999   6.941  0.5946  0.9066  0.6768
 9144SOL    HW238895   2.287   0.900   7.031 -1.5064 -1.2679  0.6290
 9145SOL     OW38896   0.394   3.179   1.738  0.5521  0.7164 -0.2691
 9145SOL    HW138897   0.363   3.106   1.791  2.4715  1.0351  1.2905
 9145SOL    HW238898   0.326   3.245   1.755 -1.9217 -2.4795  2.1874
 9146SOL     OW38899   0.393   4.209   0.402 -0.1317 -0.5472  0.8013
 9146SOL    HW138900   0.461   4.182   0.464 -0.6384  0.3755  1.7453
 9146SOL    HW238901   0.418   4.165   0.320  0.2127  1.7891 -0.3399
 9147SOL     OW38902   3.691   3.361   2.197  0.9320  0.3327 -0.2674
 9147SOL    HW138903   3.607   3.317   2.210  0.4489  1.0850 -0.8158
 9147SOL    HW238904   3.739   3.291   2.152  0.5817 -0.8229  1.1579
 9148SOL     OW38905   2.000   0.444  16.029 -0.5561 -0.7215  0.5170
 9148SOL    HW138906   1.977   0.492  15.949  1.6621 -0.8230 -0.1658
 9148SOL    HW238907   2.064   0.376  16.007 -0.5541  0.0330 -1.8382
 9149SOL     OW38908   1.357   4.353   7.169 -0.5073  0.1673 -0.2683
 9149SOL    HW138909   1.450   4.364   7.187 -0.0439 -0.8665 -2.0423
 9149SOL    HW238910   1.310   4.382   7.247  2.6325  2.1710  0.8760
 9150SOL     OW38911   2.827   0.796  13.336 -0.2221  0.5600  0.2541
 9150SOL    HW138912   2.816   0.715  13.285  0.6638 -0.0405  1.0080
 9150SOL    HW238913   2.741   0.833  13.316  0.6153  2.6232  0.4683
 9151SOL     OW38914   3.375   2.647  13.005  0.3865  0.3587 -0.0583
 9151SOL    HW138915   3.298   2.596  12.978 -1.2652  2.5949  0.4234
 9151SOL    HW238916   3.392   2.597  13.085  1.1533  0.4642 -0.1566
 9152SOL     OW38917   4.499   4.265   5.383  0.0777  0.1872 -0.2607
 9152SOL    HW138918   4.424   4.302   5.430  0.4824  1.4267 -0.5804
 9152SOL    HW238919   4.450   4.225   5.311  0.5918 -0.8709 -0.0090
 9153SOL     OW38920   4.631   3.205  10.311 -0.4064 -0.2183  0.0120
 9153SOL    HW138921   4.591   3.290  10.292 -1.4968 -0.4381  1.3090
 9153SOL    HW238922   4.720   3.213  10.278 -1.9002  0.6293 -3.9408
 9154SOL     OW38923   2.221   2.760   9.273 -0.0388  0.1162 -0.6670
 9154SOL    HW138924   2.206   2.817   9.349  1.0763 -1.2548  0.5704
 9154SOL    HW238925   2.254   2.822   9.208  1.2315  0.8227  0.6603
 9155SOL     OW38926   2.538   1.696   8.075  0.0617  0.0484  0.8761
 9155SOL    HW138927   2.587   1.679   8.156 -0.3126  1.7845  1.4932
 9155SOL    HW238928   2.609   1.692   8.011 -1.0142  3.9869 -0.6060
 9156SOL     OW38929   1.974   0.887   7.748  0.3665 -0.1156 -0.3895
 9156SOL    HW138930   1.910   0.848   7.690  1.3106 -3.7095  0.9812
 9156SOL    HW238931   1.967   0.979   7.721  1.0570  0.3920  1.1003
 9157SOL     OW38932   3.615   4.459  12.174 -0.4067  0.4913  0.5644
 9157SOL    HW138933   3.637   4.531  12.115 -3.2007 -0.2541 -1.4180
 9157SOL    HW238934   3.616   4.506  12.257  1.0099 -1.8677  1.8628
 9158SOL     OW38935   1.054   2.198  12.427  0.1210  0.4128 -0.5609
 9158SOL    HW138936   1.065   2.280  12.474  0.1425  0.3282 -0.4192
 9158SOL    HW238937   1.140   2.164  12.450  0.6392  0.8942 -1.7895
 9159SOL     OW38938   0.008   0.815   5.331  0.1358  0.4914  0.2637
 9159SOL    HW138939   4.649   0.769   5.339  1.4534 -1.8534  0.3385
 9159SOL    HW238940   0.036   0.803   5.241 -0.1388  3.6510 -0.2616
 9160SOL     OW38941   2.318   2.806   3.377  0.0182  0.0002 -0.1486
 9160SOL    HW138942   2.225   2.784   3.387  0.6169 -2.1097  0.5500
 9160SOL    HW238943   2.312   2.854   3.294  0.4823  0.2603 -0.0307
 9161SOL     OW38944   1.673   2.669   9.093 -0.0281 -0.0878  0.0830
 9161SOL    HW138945   1.595   2.615   9.111 -0.1135  0.5474  1.6475
 9161SOL    HW238946   1.748   2.610   9.103 -1.0811 -1.0020  2.6711
 9162SOL     OW38947   1.052   1.342   0.040 -0.1775 -0.3086  0.4058
 9162SOL    HW138948   1.081   1.251   0.039  0.6348 -0.0761  1.7528
 9162SOL    HW238949   0.957   1.343   0.031 -0.2003 -2.3118  0.4273
 9163SOL     OW38950   1.667   3.634   7.969 -0.1891  0.0402  0.3160
 9163SOL    HW138951   1.723   3.574   7.920 -0.0821  2.6491 -2.7195
 9163SOL    HW238952   1.599   3.570   7.991 -1.4063  1.3366  0.2940
 9164SOL     OW38953   0.234   0.804  12.977  0.3576  1.0865  0.2092
 9164SOL    HW138954   0.260   0.772  12.890 -1.1659 -0.3178  0.2685
 9164SOL    HW238955   0.296   0.755  13.031  0.4173  0.9260 -0.0068
 9165SOL     OW38956   2.071   2.664   6.194 -0.0815  0.4566  0.0886
 9165SOL    HW138957   2.110   2.658   6.282  1.5001 -0.9153 -0.6848
 9165SOL    HW238958   1.996   2.716   6.223 -0.7703 -0.1676 -0.5817
 9166SOL     OW38959   0.544   4.482   3.755 -0.4290  0.4004  0.1160
 9166SOL    HW138960   0.533   4.576   3.744  0.2106  0.4239 -0.3253
 9166SOL    HW238961   0.580   4.464   3.668 -1.6032 -1.1625 -0.0436
 9167SOL     OW38962   0.310   0.338   9.947  0.2800  0.6638  0.2899
 9167SOL    HW138963   0.273   0.257   9.982  0.1019  0.7342  0.2638
 9167SOL    HW238964   0.366   0.373  10.015 -0.5223  0.6972  0.9406
 9168SOL     OW38965   2.926   2.466   4.285 -0.7531  0.1063 -0.3852
 9168SOL    HW138966   2.862   2.484   4.354 -2.0756 -1.0453 -1.2757
 9168SOL    HW238967   2.988   2.536   4.301 -0.6342 -0.2695  0.8226
 9169SOL     OW38968   3.920   2.509  10.074 -0.3573 -0.2347 -0.2269
 9169SOL    HW138969   3.873   2.549  10.000 -0.9793  1.6802  1.1821
 9169SOL    HW238970   3.905   2.577  10.140  1.6765  2.3729 -2.4660
 9170SOL     OW38971   3.773   1.818   5.889 -0.2052  0.0301 -0.2893
 9170SOL    HW138972   3.826   1.769   5.826 -0.0806  1.0297 -0.9557
 9170SOL    HW238973   3.758   1.754   5.958  0.5228  1.1648  0.9080
 9171SOL     OW38974   2.008   3.602  14.230  0.1002 -0.2752 -0.4120
 9171SOL    HW138975   2.018   3.697  14.237 -0.2231 -0.1180 -1.9660
 9171SOL    HW238976   2.045   3.576  14.314  0.8784 -1.9939 -1.2710
 9172SOL     OW38977   2.866   4.714  13.149 -0.3049 -0.9650  0.4826
 9172SOL    HW138978   2.796   0.051  13.170 -0.5682 -1.4560  1.0193
 9172SOL    HW238979   2.900   0.032  13.070 -0.9238  0.9655  1.2552
 9173SOL     OW38980   0.836   4.376  12.339  0.1908 -0.5157  0.5347
 9173SOL    HW138981   0.851   4.470  12.325  1.1328 -0.6255  0.7948
 9173SOL    HW238982   0.742   4.374  12.357  0.1674  0.2165  0.5262
 9174SOL     OW38983   2.808   4.242   2.173 -0.1608 -0.1343  0.1048
 9174SOL    HW138984   2.767   4.323   2.203  0.9755 -0.2073  1.8448
 9174SOL    HW238985   2.768   4.177   2.230  1.2120 -0.6118  0.5373
 9175SOL     OW38986   1.897   1.321  17.309  0.5301  0.0106  0.9905
 9175SOL    HW138987   1.894   1.397  17.251  1.4293 -0.5087  0.2820
 9175SOL    HW238988   1.865   1.253  17.250  1.4449 -0.0195  0.5265
 9176SOL     OW38989   1.438   3.084   6.272 -0.1518  0.1326  0.6853
 9176SOL    HW138990   1.354   3.091   6.317  0.5689  0.0343  2.0182
 9176SOL    HW238991   1.431   3.013   6.207 -0.2658  2.1273 -1.5044
 9177SOL     OW38992   1.309   3.897   7.844  0.6871 -0.4583 -0.0067
 9177SOL    HW138993   1.248   3.970   7.838  1.7791  0.4887  0.2598
 9177SOL    HW238994   1.277   3.852   7.922  0.8461  1.7905  1.3461
 9178SOL     OW38995   4.078   3.756  17.430 -0.2927 -0.6502  0.1141
 9178SOL    HW138996   4.005   3.694  17.435 -1.0218  0.1789 -0.3405
 9178SOL    HW238997   4.046   3.834  17.475  0.6952  0.2063 -0.6833
 9179SOL     OW38998   0.865   0.081  15.961  0.0981  0.1600 -0.4165
 9179SOL    HW138999   0.924   0.041  16.024  2.3403  1.9724 -1.3776
 9179SOL    HW239000   0.782   0.034  15.973  0.0412  0.6160  0.9674
 9180SOL     OW39001   4.298   2.834   4.968  0.2114 -0.8769  0.2116
 9180SOL    HW139002   4.350   2.796   4.898  1.5806  1.5368 -0.0957
 9180SOL    HW239003   4.244   2.760   4.994 -0.5007 -1.0819 -1.8651
 9181SOL     OW39004   3.331   2.229   2.749  0.0663  0.1416  0.0254
 9181SOL    HW139005   3.285   2.306   2.780 -0.9253 -0.0071 -1.0563
 9181SOL    HW239006   3.350   2.264   2.662  0.9699  0.5507  0.3926
 9182SOL     OW39007   0.962   4.521   3.691 -0.5270  0.1276  0.6223
 9182SOL    HW139008   0.991   4.562   3.772  1.5645  0.1122 -0.1051
 9182SOL    HW239009   1.046   4.511   3.646 -0.6630  1.4484  0.0624
 9183SOL     OW39010   3.843   0.381  13.189 -0.0390 -0.1637 -0.4102
 9183SOL    HW139011   3.928   0.403  13.225  0.0662 -0.2766 -0.5925
 9183SOL    HW239012   3.800   0.465  13.208 -0.7675 -0.7538  0.5367
 9184SOL     OW39013   4.534   1.421  11.127  0.0894  0.0123 -0.0453
 9184SOL    HW139014   4.619   1.386  11.154  0.2385 -0.5307 -1.2357
 9184SOL    HW239015   4.504   1.354  11.066 -1.2217  1.9999 -1.6028
 9185SOL     OW39016   1.799   0.157  11.984  0.2954  0.0095  0.6887
 9185SOL    HW139017   1.878   0.103  11.984 -0.3308 -0.8907 -0.2955
 9185SOL    HW239018   1.833   0.234  12.030 -1.7744 -0.6191  3.2887
 9186SOL     OW39019   0.970   3.498   5.640  0.3181 -0.1200  0.3810
 9186SOL    HW139020   1.035   3.453   5.695  0.1642 -1.6435 -0.6688
 9186SOL    HW239021   1.025   3.509   5.562 -0.3311  0.0354 -0.0573
 9187SOL     OW39022   4.598   3.755  13.956 -0.0424 -0.4119  0.1433
 9187SOL    HW139023   4.549   3.715  13.883 -0.0162 -4.0027  2.0878
 9187SOL    HW239024   4.637   3.831  13.913 -0.4490 -0.6273 -0.6151
 9188SOL     OW39025   0.356   1.476   4.529  0.4642  0.3605  0.1870
 9188SOL    HW139026   0.450   1.469   4.542  0.3442 -2.2299 -0.4152
 9188SOL    HW239027   0.346   1.565   4.495 -1.6719  0.2459  0.4658
 9189SOL     OW39028   0.460   2.996   3.308  0.3432 -0.4670  0.7309
 9189SOL    HW139029   0.435   2.914   3.352  2.1529 -0.4826  1.7800
 9189SOL    HW239030   0.555   3.000   3.325  0.7915 -3.7456 -0.8501
 9190SOL     OW39031   3.026   2.384   4.951  0.2512 -0.5559  0.2031
 9190SOL    HW139032   3.108   2.417   4.916  0.8817 -1.7895  0.5190
 9190SOL    HW239033   2.963   2.416   4.886  0.8137 -2.4544 -1.2710
 9191SOL     OW39034   1.651   4.434  11.606  0.3687  0.6812 -0.5520
 9191SOL    HW139035   1.597   4.476  11.540 -2.5268 -1.8156  0.2100
 9191SOL    HW239036   1.695   4.362  11.560  0.6906 -0.5362  1.6606
 9192SOL     OW39037   0.038   0.813   8.733 -0.7643  0.0085  0.0870
 9192SOL    HW139038   4.702   0.769   8.673 -1.0343  1.2638 -0.5633
 9192SOL    HW239039   0.011   0.903   8.752 -0.7847 -0.2329  1.1955
 9193SOL     OW39040   4.186   2.629  15.740 -0.0045 -0.3685 -0.3874
 9193SOL    HW139041   4.241   2.640  15.663  0.8523 -2.3928 -0.0637
 9193SOL    HW239042   4.139   2.713  15.736  1.1776  0.3158  0.0459
 9194SOL     OW39043   0.345   4.016  16.097 -0.1899 -0.4554 -0.1279
 9194SOL    HW139044   0.313   4.076  16.164 -0.4002 -1.4588  0.6803
 9194SOL    HW239045   0.271   4.008  16.038 -0.9589 -2.5211  1.1051
 9195SOL     OW39046   2.550   3.917   7.476 -0.4153 -0.8404  0.3504
 9195SOL    HW139047   2.528   3.834   7.519  1.8755 -0.6994  1.7986
 9195SOL    HW239048   2.465   3.955   7.454  0.2771 -0.9148 -2.4375
 9196SOL     OW39049   4.147   3.803  16.933 -0.4637 -0.0750 -0.3315
 9196SOL    HW139050   4.131   3.834  17.022 -0.4796  2.8609 -1.3767
 9196SOL    HW239051   4.071   3.744  16.926 -0.0331 -0.3825 -2.2397
 9197SOL     OW39052   0.439   3.110   6.654 -0.1431 -0.0038 -0.1060
 9197SOL    HW139053   0.444   3.155   6.738  0.7023  0.2057 -0.2712
 9197SOL    HW239054   0.486   3.172   6.597  1.2300 -1.5235 -0.6094
 9198SOL     OW39055   0.741   2.353   5.615  0.4173  0.4553  0.0507
 9198SOL    HW139056   0.733   2.387   5.526 -0.5354 -0.3331 -0.1599
 9198SOL    HW239057   0.681   2.409   5.666 -1.7983 -0.3759 -1.6494
 9199SOL     OW39058   4.280   1.207  14.814 -0.3825  0.6463  0.0584
 9199SOL    HW139059   4.304   1.118  14.839  1.0368  0.1559 -3.0007
 9199SOL    HW239060   4.357   1.261  14.836  1.1186 -1.7265  0.6542
 9200SOL     OW39061   0.996   0.759  14.364  0.0258  0.1175 -0.5230
 9200SOL    HW139062   0.904   0.776  14.345  0.5759  1.1493 -2.3135
 9200SOL    HW239063   1.001   0.825  14.433  3.1941  2.6228 -3.1202
 9201SOL     OW39064   2.689   3.650  16.422  0.3486  0.5896  0.0238
 9201SOL    HW139065   2.594   3.636  16.426  0.5096 -0.6094 -0.2134
 9201SOL    HW239066   2.714   3.712  16.490  0.0152  2.4178 -1.5291
 9202SOL     OW39067   1.761   0.360   2.681  0.0314  0.7083 -0.3462
 9202SOL    HW139068   1.849   0.323   2.679  0.6728  2.3549 -2.0703
 9202SOL    HW239069   1.714   0.300   2.623  1.1074  1.4946 -2.0384
 9203SOL     OW39070   0.268   1.636   0.604  0.3123 -0.2240  0.3167
 9203SOL    HW139071   0.256   1.670   0.693 -0.8383  0.3316 -0.0553
 9203SOL    HW239072   0.328   1.704   0.572 -3.0208  3.0780  1.0331
 9204SOL     OW39073   2.631   3.101  15.936 -0.2098 -0.0994  0.1318
 9204SOL    HW139074   2.617   3.156  15.859  0.8927  2.1543  1.5407
 9204SOL    HW239075   2.712   3.052  15.918 -1.2862 -2.1629  0.9078
 9205SOL     OW39076   2.798   3.461   3.127  0.0036  0.0310  0.6411
 9205SOL    HW139077   2.732   3.402   3.090  0.1663 -0.5155  1.2165
 9205SOL    HW239078   2.873   3.431   3.077 -0.3146  0.1462  0.0997
 9206SOL     OW39079   3.019   4.284   0.892 -0.5261  0.1571 -0.1743
 9206SOL    HW139080   3.009   4.307   0.985 -1.4863  0.1538 -0.2754
 9206SOL    HW239081   3.047   4.194   0.908 -0.3849  0.2592  0.1615
 9207SOL     OW39082   2.651   1.773   5.296 -0.5470  0.7560 -0.1763
 9207SOL    HW139083   2.563   1.811   5.293 -1.3565 -0.8472  2.9117
 9207SOL    HW239084   2.687   1.855   5.332  1.7844  0.5568 -2.0420
 9208SOL     OW39085   2.638   1.672  16.172 -0.1740  0.0175  0.0802
 9208SOL    HW139086   2.718   1.624  16.151  0.7688  1.4834  0.3750
 9208SOL    HW239087   2.588   1.659  16.092  2.5645  1.5981 -1.8579
 9209SOL     OW39088   0.964   3.204   7.800  0.0895 -0.1447 -0.2358
 9209SOL    HW139089   0.960   3.164   7.714 -2.3240 -0.8219  0.1981
 9209SOL    HW239090   0.871   3.225   7.813 -0.0067 -0.4529 -0.4290
 9210SOL     OW39091   2.358   1.179   8.446 -0.2338  0.1474  0.1062
 9210SOL    HW139092   2.274   1.134   8.448  0.7370 -1.6091  0.9017
 9210SOL    HW239093   2.387   1.162   8.536  3.6653  1.0096 -1.0068
 9211SOL     OW39094   2.345   0.905   5.119  0.5074 -0.6282 -0.0404
 9211SOL    HW139095   2.384   0.823   5.150 -0.8936 -0.5962  1.8015
 9211SOL    HW239096   2.387   0.923   5.035 -0.4033  1.5761 -0.0327
 9212SOL     OW39097   4.142   1.801  10.980 -0.1764  0.3684 -0.3648
 9212SOL    HW139098   4.061   1.762  11.012 -1.3137  0.8355 -2.6645
 9212SOL    HW239099   4.110   1.888  10.954  0.9120  0.6238 -0.8383
 9213SOL     OW39100   3.761   2.147   0.739  0.3386  0.2294  0.0549
 9213SOL    HW139101   3.781   2.237   0.713 -2.2800  1.0714  1.0266
 9213SOL    HW239102   3.840   2.108   0.777  1.9893  2.4069 -1.1341
 9214SOL     OW39103   0.702   2.795  17.446  0.5886  0.2290  0.0685
 9214SOL    HW139104   0.662   2.728  17.502 -0.1874  0.0175 -0.7283
 9214SOL    HW239105   0.795   2.775  17.439  0.7082  1.2953 -1.3275
 9215SOL     OW39106   0.106   0.834   2.367  0.0752 -0.5033  0.1233
 9215SOL    HW139107   0.162   0.798   2.435  1.8232  2.4992  0.2674
 9215SOL    HW239108   0.021   0.794   2.387 -0.0176 -0.0093  0.7169
 9216SOL     OW39109   4.719   4.513   9.918 -0.5071  0.1246  0.4661
 9216SOL    HW139110   4.654   4.549   9.979 -0.1080  1.2638  0.2150
 9216SOL    HW239111   4.692   4.569   9.846  0.0801  2.4444  2.0704
 9217SOL     OW39112   1.060   4.530   6.631  0.2367 -0.0205 -0.3092
 9217SOL    HW139113   0.971   4.548   6.602  0.6813 -0.5176 -1.9573
 9217SOL    HW239114   1.039   4.498   6.719  0.7083 -2.0478 -0.9371
 9218SOL     OW39115   3.415   0.674   5.843  0.7964 -0.5022  0.0968
 9218SOL    HW139116   3.406   0.620   5.921 -2.7648  0.5989  0.4188
 9218SOL    HW239117   3.483   0.736   5.872  0.2034  0.4600 -0.5709
 9219SOL     OW39118   3.638   0.795   5.271  0.0236 -0.6858 -0.8096
 9219SOL    HW139119   3.717   0.817   5.220 -0.5750  1.3476 -0.8454
 9219SOL    HW239120   3.572   0.852   5.232  0.8337 -0.5367 -1.9787
 9220SOL     OW39121   1.794   2.799   6.505 -0.2700  0.1238  0.0641
 9220SOL    HW139122   1.702   2.824   6.504 -0.4397 -0.4391  2.2809
 9220SOL    HW239123   1.822   2.816   6.595 -4.0180 -2.5738  1.7446
 9221SOL     OW39124   3.583   3.875  15.344 -0.4554  0.7208  0.2051
 9221SOL    HW139125   3.525   3.896  15.271  0.6969 -0.7877 -1.1160
 9221SOL    HW239126   3.557   3.948  15.401  1.3451  1.7255 -0.2433
 9222SOL     OW39127   0.634   3.345  17.460 -0.4056 -0.0038 -0.5028
 9222SOL    HW139128   0.677   3.265  17.429 -0.3493 -0.2933  0.3210
 9222SOL    HW239129   0.673   3.349  17.547 -0.2328  0.6363 -0.6067
 9223SOL     OW39130   2.392   2.023   7.159 -0.4547 -0.1239  0.4813
 9223SOL    HW139131   2.452   2.097   7.148 -0.2225 -0.6711 -2.0505
 9223SOL    HW239132   2.321   2.051   7.101  0.5787  0.9970 -0.2667
 9224SOL     OW39133   0.375   0.492   5.051  0.5070 -0.2208  0.0107
 9224SOL    HW139134   0.394   0.547   4.976  1.3236  0.1973  0.5207
 9224SOL    HW239135   0.448   0.512   5.111 -0.1360 -0.5756  0.9198
 9225SOL     OW39136   0.040   1.540   8.252  0.2646 -0.7402 -0.1850
 9225SOL    HW139137   0.017   1.519   8.162 -0.0842  1.0097 -0.5194
 9225SOL    HW239138   0.113   1.600   8.235 -0.6647  0.2390 -0.7233
 9226SOL     OW39139   2.732   2.045   7.563 -0.1679 -0.0772  0.0469
 9226SOL    HW139140   2.777   2.126   7.540  1.3868 -1.4645 -1.8475
 9226SOL    HW239141   2.643   2.069   7.537  0.5871  0.9001 -1.6359
 9227SOL     OW39142   3.363   1.770   1.892 -0.2324 -0.1005 -0.7221
 9227SOL    HW139143   3.318   1.820   1.823 -0.2402  2.3974  1.0891
 9227SOL    HW239144   3.329   1.682   1.880 -1.6918  0.4657 -0.7953
 9228SOL     OW39145   3.829   2.271   6.260 -0.3766  0.0487 -0.3599
 9228SOL    HW139146   3.918   2.282   6.227 -0.6949  0.2556 -1.1652
 9228SOL    HW239147   3.809   2.187   6.218  1.6218 -0.0452 -1.0941
 9229SOL     OW39148   1.039   0.040   1.932 -0.3661 -0.2772 -0.8863
 9229SOL    HW139149   0.948   0.011   1.925 -1.0497  0.9769  2.7591
 9229SOL    HW239150   1.080   4.723   1.856 -0.3301 -1.7122 -0.0846
 9230SOL     OW39151   1.529   3.142   8.392  0.0006  0.0522  0.0996
 9230SOL    HW139152   1.462   3.074   8.400 -0.9706  1.0612  0.3963
 9230SOL    HW239153   1.475   3.217   8.419  2.6690  2.1358 -0.3662
 9231SOL     OW39154   0.007   3.109   6.335 -0.5348 -0.3669 -0.4921
 9231SOL    HW139155   4.709   3.059   6.256 -1.1657 -1.2552  0.2603
 9231SOL    HW239156   0.090   3.064   6.354  0.4379  1.0759 -1.2654
 9232SOL     OW39157   1.915   3.557   8.850 -0.2709 -0.0286  0.4658
 9232SOL    HW139158   1.938   3.594   8.765  0.0433  0.2492  0.6678
 9232SOL    HW239159   1.827   3.590   8.868  0.1370  2.4353 -2.0508
 9233SOL     OW39160   2.897   1.071  14.907  0.1401 -0.1056 -0.6742
 9233SOL    HW139161   2.911   0.983  14.872 -1.2092 -1.5426  2.4209
 9233SOL    HW239162   2.802   1.080  14.908  0.1236 -0.3671  0.0968
 9234SOL     OW39163   3.811   0.776   3.548 -0.6359  0.3638  0.0621
 9234SOL    HW139164   3.797   0.861   3.506 -0.8454  0.1434 -0.3138
 9234SOL    HW239165   3.743   0.727   3.501  1.6443 -1.9275 -0.8636
 9235SOL     OW39166   0.023   0.480   3.164  0.3509 -0.0832  0.1568
 9235SOL    HW139167   4.720   0.408   3.108 -0.0717  1.5160 -1.6579
 9235SOL    HW239168   0.107   0.505   3.127 -1.0711  2.2564 -1.4434
 9236SOL     OW39169   3.518   2.755  16.564  0.3872  0.4932  0.2763
 9236SOL    HW139170   3.503   2.812  16.639  0.4271  0.2477  0.4716
 9236SOL    HW239171   3.517   2.822  16.496 -0.4919  1.7784  1.5605
 9237SOL     OW39172   2.380   1.094  11.810 -0.3167 -0.2343 -0.3304
 9237SOL    HW139173   2.470   1.061  11.813  0.5627  2.1420 -0.8543
 9237SOL    HW239174   2.334   1.018  11.847  0.8740 -0.3335  0.9508
 9238SOL     OW39175   3.008   3.202  12.728 -0.0386  0.4484 -0.7112
 9238SOL    HW139176   2.957   3.139  12.676 -0.9025  1.7419 -1.4253
 9238SOL    HW239177   2.965   3.278  12.687  0.3375 -0.3838 -2.6520
 9239SOL     OW39178   0.987   0.389  16.192 -0.1774 -0.0986 -0.2476
 9239SOL    HW139179   0.921   0.439  16.240 -0.1953  0.5110 -0.9177
 9239SOL    HW239180   0.964   0.407  16.101 -0.2135 -0.9474 -0.4058
 9240SOL     OW39181   4.366   1.346   7.325 -0.9559  0.5070  0.1521
 9240SOL    HW139182   4.447   1.323   7.281 -1.1086 -2.0661  1.1972
 9240SOL    HW239183   4.310   1.278   7.287 -1.2211  0.5627  0.4469
 9241SOL     OW39184   3.541   4.144   1.478 -0.0281 -1.3640  0.0149
 9241SOL    HW139185   3.487   4.107   1.547  0.4441 -1.9958  0.0397
 9241SOL    HW239186   3.528   4.237   1.498 -2.2435 -1.2277 -1.9210
 9242SOL     OW39187   1.096   0.433  11.715 -0.0933  0.2626 -0.1933
 9242SOL    HW139188   1.025   0.370  11.703  0.5951 -0.4749 -0.4338
 9242SOL    HW239189   1.108   0.466  11.626  3.0560  0.7551  0.4267
 9243SOL     OW39190   3.614   1.813   5.029  0.5797  0.3427 -0.5613
 9243SOL    HW139191   3.662   1.736   4.998 -0.1942 -0.7542  0.9798
 9243SOL    HW239192   3.627   1.808   5.124  1.3834 -0.4564 -0.7095
 9244SOL     OW39193   1.567   3.417  11.741 -0.5986  0.3811 -0.1217
 9244SOL    HW139194   1.615   3.497  11.762  2.2462 -1.0217 -1.3671
 9244SOL    HW239195   1.578   3.406  11.647  1.7699  1.7267 -0.0146
 9245SOL     OW39196   2.016   3.372   9.264 -0.8514  0.3845  0.1000
 9245SOL    HW139197   1.994   3.459   9.231  0.5071 -0.2039 -2.3420
 9245SOL    HW239198   2.031   3.335   9.178  0.8466  2.7651 -0.6180
 9246SOL     OW39199   1.961   3.702   7.765 -0.3335  0.2056  0.2332
 9246SOL    HW139200   2.040   3.715   7.712 -1.0510  0.3048 -0.8279
 9246SOL    HW239201   1.894   3.691   7.697  2.2435  1.6207 -2.5559
 9247SOL     OW39202   3.562   1.245   4.379  0.1837 -0.3961  0.5978
 9247SOL    HW139203   3.631   1.178   4.372 -0.9408 -1.5039  0.0286
 9247SOL    HW239204   3.506   1.197   4.440  1.5459 -1.4004  1.0621
 9248SOL     OW39205   1.194   1.000  11.920 -0.5174  0.2415  0.1825
 9248SOL    HW139206   1.289   0.994  11.927 -0.3070  1.6375 -1.4516
 9248SOL    HW239207   1.180   1.083  11.966 -1.4371  0.0151  0.3186
 9249SOL     OW39208   2.794   1.283   2.071 -0.1454 -0.1844 -0.1005
 9249SOL    HW139209   2.761   1.274   1.982 -1.0757 -1.4539  0.3730
 9249SOL    HW239210   2.768   1.374   2.086 -0.5766 -0.8719  3.3109
 9250SOL     OW39211   0.352   2.347   9.050 -0.5255  0.1317 -0.2672
 9250SOL    HW139212   0.356   2.260   9.089  0.4741  0.1047 -0.4182
 9250SOL    HW239213   0.445   2.371   9.054 -0.5017  0.1513 -0.9427
 9251SOL     OW39214   4.032   0.053   4.594  0.5133 -0.3743 -1.0113
 9251SOL    HW139215   4.061   0.049   4.685 -0.0207 -0.1968 -0.8282
 9251SOL    HW239216   3.937   0.065   4.599  0.3556 -2.7156  1.1965
 9252SOL     OW39217   2.647   2.654   8.829 -0.3216  0.2477 -1.3027
 9252SOL    HW139218   2.708   2.644   8.755  0.0669 -2.5969 -0.6154
 9252SOL    HW239219   2.619   2.743   8.808  0.0638  0.6023 -0.3160
 9253SOL     OW39220   3.129   4.483   9.063  0.3832  0.1705 -0.2928
 9253SOL    HW139221   3.095   4.505   8.976 -0.3064  0.8987  0.1573
 9253SOL    HW239222   3.058   4.451   9.119  0.7938 -0.4606 -0.1431
 9254SOL     OW39223   2.875   4.498   9.330  0.0841  0.1729 -0.4532
 9254SOL    HW139224   2.838   4.411   9.313 -1.2977  0.6296  0.2647
 9254SOL    HW239225   2.789   4.537   9.344 -0.1572  0.3353 -2.3413
 9255SOL     OW39226   3.163   0.420   5.017 -0.2838 -0.1878  0.2873
 9255SOL    HW139227   3.127   0.332   5.024  1.9249 -0.9341  2.0632
 9255SOL    HW239228   3.240   0.405   5.072  0.1327  2.1683  0.3844
 9256SOL     OW39229   2.033   4.100   0.912  0.2649 -0.1218  0.2981
 9256SOL    HW139230   2.044   4.119   1.005 -1.7880 -1.1760  0.7526
 9256SOL    HW239231   2.117   4.083   0.869  1.0485  1.6813  1.1294
 9257SOL     OW39232   2.014   1.206   3.290  0.2203 -0.2956  0.1093
 9257SOL    HW139233   2.061   1.277   3.246  1.5662  0.4438  2.7201
 9257SOL    HW239234   1.938   1.257   3.315 -0.5441 -0.7127 -1.3570
 9258SOL     OW39235   4.464   4.395   6.271  0.6141 -0.0579 -0.1498
 9258SOL    HW139236   4.545   4.348   6.290  1.2307  1.1739  0.2626
 9258SOL    HW239237   4.488   4.460   6.205  2.3290 -0.8175 -0.2706
 9259SOL     OW39238   3.582   3.064  12.943  0.7014  0.8469  0.1312
 9259SOL    HW139239   3.495   3.085  12.976  0.6952  2.0725 -0.6918
 9259SOL    HW239240   3.623   3.031  13.023 -1.0030 -2.4157 -0.3163
 9260SOL     OW39241   1.039   1.601   4.997 -0.5181  1.0715 -0.7673
 9260SOL    HW139242   0.988   1.612   5.078 -0.5839  0.9564 -0.7934
 9260SOL    HW239243   0.969   1.573   4.939 -0.3100 -1.6786  0.3316
 9261SOL     OW39244   4.395   2.951   8.395 -0.0789  0.1421  0.0456
 9261SOL    HW139245   4.303   2.970   8.380 -0.6553 -0.3241  2.9795
 9261SOL    HW239246   4.401   2.917   8.484  0.2522 -1.0839 -0.4477
 9262SOL     OW39247   3.322   2.925   8.903  0.3347 -0.0919  0.0701
 9262SOL    HW139248   3.252   2.946   8.842 -0.0824 -1.3581  0.1243
 9262SOL    HW239249   3.396   2.971   8.862  1.1699 -1.3118  0.2398
 9263SOL     OW39250   3.857   0.863  14.150  0.6068  0.2892  0.4667
 9263SOL    HW139251   3.890   0.809  14.078 -0.9954 -0.4236  0.2739
 9263SOL    HW239252   3.765   0.880  14.129  0.7036  0.0905 -0.1153
 9264SOL     OW39253   0.991   2.700   6.353 -0.2326  0.3516 -0.0718
 9264SOL    HW139254   1.080   2.670   6.371 -0.9061 -1.5860  0.0158
 9264SOL    HW239255   1.002   2.684   6.260 -3.3876  0.9444 -0.5460
 9265SOL     OW39256   2.938   0.440   1.462  0.5759 -0.4084 -0.4868
 9265SOL    HW139257   2.903   0.362   1.504 -1.3808  0.0245 -1.3097
 9265SOL    HW239258   2.944   0.500   1.536  0.0830 -1.7342  0.6155
 9266SOL     OW39259   1.543   4.063   5.835 -0.5650  0.2892 -0.6362
 9266SOL    HW139260   1.499   4.020   5.908 -0.5295  2.6052  0.7629
 9266SOL    HW239261   1.629   4.022   5.841 -0.0318  1.7622  1.7203
 9267SOL     OW39262   1.907   4.157   4.611  0.4129 -0.7951 -0.1338
 9267SOL    HW139263   1.909   4.102   4.689  1.1655  0.7626  0.9509
 9267SOL    HW239264   1.997   4.150   4.579  0.0509 -2.1998 -0.8453
 9268SOL     OW39265   1.861   3.123   6.591  0.2640 -0.3397  0.1259
 9268SOL    HW139266   1.935   3.062   6.585  0.4697 -0.0957  0.1773
 9268SOL    HW239267   1.828   3.114   6.680  1.6291  2.6543  0.9129
 9269SOL     OW39268   1.885   4.518  13.919  0.8756 -0.1865  0.2144
 9269SOL    HW139269   1.968   4.545  13.879 -0.0911  1.8530 -0.3742
 9269SOL    HW239270   1.854   4.597  13.961  1.0646 -0.0373  0.0731
 9270SOL     OW39271   2.820   3.075   8.919 -0.1151 -0.6743  0.1191
 9270SOL    HW139272   2.853   2.985   8.909 -2.2628 -1.4144 -0.2824
 9270SOL    HW239273   2.851   3.105   9.004 -2.0032  0.6424  0.3415
 9271SOL     OW39274   2.763   1.549   8.533 -0.0850 -0.3216 -0.1801
 9271SOL    HW139275   2.752   1.567   8.439 -1.1954 -0.4305 -0.0635
 9271SOL    HW239276   2.859   1.553   8.537  0.0862 -2.3728 -2.2655
 9272SOL     OW39277   2.166   1.564  17.464  0.5101 -0.1552  0.3606
 9272SOL    HW139278   2.180   1.655  17.491  1.7015 -0.2649  0.0982
 9272SOL    HW239279   2.208   1.556  17.379 -0.3176 -0.3706 -0.0385
 9273SOL     OW39280   0.736   0.202   0.078 -0.4996  0.0315 -0.4375
 9273SOL    HW139281   0.807   0.265   0.089 -0.7624  0.2626 -0.0763
 9273SOL    HW239282   0.680   0.254   0.021  1.5357  0.7947 -1.7263
 9274SOL     OW39283   4.224   1.223   3.913 -0.3659 -0.1137  0.1580
 9274SOL    HW139284   4.293   1.196   3.853 -1.4455  0.3104 -1.2790
 9274SOL    HW239285   4.269   1.222   3.997  2.4864 -2.1728 -1.4174
 9275SOL     OW39286   0.503   1.406   1.349 -0.4540  0.2766  0.1738
 9275SOL    HW139287   0.455   1.457   1.415  0.4424 -0.2576  1.2533
 9275SOL    HW239288   0.532   1.478   1.293 -0.3046 -2.3585 -3.1326
 9276SOL     OW39289   1.287   0.567   8.052  0.5348  0.9215 -0.6682
 9276SOL    HW139290   1.290   0.658   8.022  1.1436  1.3185  0.6134
 9276SOL    HW239291   1.195   0.555   8.026 -0.2353  3.5393  0.8100
 9277SOL     OW39292   1.224   1.465   6.728  0.1742  0.4573 -0.4218
 9277SOL    HW139293   1.208   1.453   6.821 -0.4068 -1.0088 -0.7030
 9277SOL    HW239294   1.135   1.479   6.695 -0.2919 -0.7633  0.3262
 9278SOL     OW39295   0.628   2.881   1.469 -0.0709 -0.2960  0.3700
 9278SOL    HW139296   0.651   2.900   1.378  1.1817 -2.2538  0.2601
 9278SOL    HW239297   0.590   2.967   1.483  1.0816  0.2663  0.0260
 9279SOL     OW39298   4.033   1.725   4.545  0.3865  0.6173 -0.9740
 9279SOL    HW139299   3.950   1.766   4.520 -0.4851 -0.7742 -0.3693
 9279SOL    HW239300   4.002   1.647   4.591  1.2494 -0.6463 -2.5402
 9280SOL     OW39301   2.274   3.751   9.193 -0.0602 -0.5497 -0.8009
 9280SOL    HW139302   2.220   3.803   9.134 -0.4238 -0.3546 -0.3019
 9280SOL    HW239303   2.284   3.671   9.142  2.3113 -1.6983  1.4708
 9281SOL     OW39304   4.531   2.516  13.917  0.0036  0.5532 -0.2682
 9281SOL    HW139305   4.466   2.498  13.985  0.5352 -0.2922  0.0136
 9281SOL    HW239306   4.601   2.454  13.936  0.7576  1.7621  0.9644
 9282SOL     OW39307   0.783   2.541  14.303 -0.2614 -0.1299 -0.3662
 9282SOL    HW139308   0.831   2.621  14.324 -0.5211 -0.3748  1.1315
 9282SOL    HW239309   0.699   2.543  14.348  1.2425  1.6611  2.3433
 9283SOL     OW39310   3.968   0.259  11.129 -0.4527 -0.1847 -0.2951
 9283SOL    HW139311   3.960   0.190  11.195  0.6224 -0.3845 -0.3643
 9283SOL    HW239312   3.995   0.203  11.055  0.7898 -1.1670  0.9010
 9284SOL     OW39313   2.584   0.566  10.159 -0.4684  0.1039 -0.1285
 9284SOL    HW139314   2.662   0.526  10.198 -0.2010  0.6992 -0.0531
 9284SOL    HW239315   2.595   0.550  10.066  0.1886  0.5445 -0.1176
 9285SOL     OW39316   3.548   1.038  13.523  0.1587 -0.3456  0.2854
 9285SOL    HW139317   3.465   1.041  13.570 -0.0911  0.9770 -0.2246
 9285SOL    HW239318   3.549   1.133  13.511 -1.0062 -0.8228 -3.7538
 9286SOL     OW39319   1.515   3.273   6.921  0.2316  0.1603 -0.1869
 9286SOL    HW139320   1.489   3.251   6.831  1.2659 -0.8822 -0.2281
 9286SOL    HW239321   1.526   3.367   6.912 -0.3204  0.0006 -2.7235
 9287SOL     OW39322   1.219   0.701   1.437  0.0615 -0.5241 -0.2864
 9287SOL    HW139323   1.160   0.653   1.379  0.6696  0.2193 -1.5136
 9287SOL    HW239324   1.187   0.791   1.437 -2.3183 -1.3751  0.4080
 9288SOL     OW39325   0.569   0.613   0.389  0.4366  0.3385 -0.0463
 9288SOL    HW139326   0.519   0.548   0.339  0.6533  0.3125 -0.2266
 9288SOL    HW239327   0.523   0.619   0.473  1.5453  1.3834  0.4962
 9289SOL     OW39328   1.557   0.650   0.568  0.4833 -0.2204 -0.4132
 9289SOL    HW139329   1.612   0.646   0.647  0.0442  0.3020 -0.0771
 9289SOL    HW239330   1.516   0.565   0.584 -0.6352 -0.0435 -2.4219
 9290SOL     OW39331   3.230   3.870   0.191  0.1474  0.6585  0.1671
 9290SOL    HW139332   3.319   3.857   0.223 -0.3404 -0.3640  1.1034
 9290SOL    HW239333   3.173   3.832   0.258 -0.1190 -2.3229 -1.7742
 9291SOL     OW39334   4.584   0.779   2.486 -0.0989  0.0679  0.7455
 9291SOL    HW139335   4.536   0.799   2.406  2.2675  2.3902 -0.1063
 9291SOL    HW239336   4.546   0.855   2.530  1.2966  0.7971  0.7148
 9292SOL     OW39337   2.831   3.872  11.134  0.4900 -0.0628  0.4451
 9292SOL    HW139338   2.795   3.933  11.070 -0.4239  0.7682  1.7409
 9292SOL    HW239339   2.758   3.846  11.191 -0.9466 -0.1420 -1.4431
 9293SOL     OW39340   1.484   1.125   1.499 -0.7917  0.5760  0.0558
 9293SOL    HW139341   1.448   1.203   1.540 -1.8261  0.3525 -0.4292
 9293SOL    HW239342   1.405   1.083   1.464 -0.3777 -0.2797  0.1495
 9294SOL     OW39343   2.947   0.162   7.712  0.3959 -0.0372  0.0154
 9294SOL    HW139344   3.032   0.137   7.676 -0.8988  0.0287 -3.0619
 9294SOL    HW239345   2.929   0.247   7.672 -2.2430  0.3807  2.1040
 9295SOL     OW39346   2.823   4.323   9.021  0.1414  0.3963  0.1951
 9295SOL    HW139347   2.861   4.284   8.942  0.1301  0.8947 -0.0554
 9295SOL    HW239348   2.758   4.377   8.977 -0.6548 -0.6306  0.1095
 9296SOL     OW39349   0.659   4.261   0.861 -0.1912 -0.0060 -0.0548
 9296SOL    HW139350   0.721   4.294   0.796  1.6794 -1.0728  1.1830
 9296SOL    HW239351   0.708   4.202   0.918  0.4643  1.5068  0.9732
 9297SOL     OW39352   1.853   1.132   4.719  0.1407 -0.1831 -0.1873
 9297SOL    HW139353   1.840   1.106   4.628 -3.3090  0.9010 -0.0215
 9297SOL    HW239354   1.761   1.134   4.745  0.1657 -4.5937  0.3521
 9298SOL     OW39355   4.081   3.611   5.998  0.1495 -0.0228 -0.1223
 9298SOL    HW139356   4.126   3.675   5.943 -1.7967 -0.4677 -2.2239
 9298SOL    HW239357   4.141   3.538   6.012  0.8827  0.6644  0.2567
 9299SOL     OW39358   2.406   1.621   2.435 -0.2254 -0.2112 -0.0874
 9299SOL    HW139359   2.480   1.604   2.494 -1.1846  0.0275  1.1590
 9299SOL    HW239360   2.371   1.688   2.493  0.6384  0.2054 -0.0372
 9300SOL     OW39361   0.215   2.035   2.329 -0.5326  0.6085 -0.3781
 9300SOL    HW139362   0.222   1.999   2.240  1.9677  0.5441 -0.1459
 9300SOL    HW239363   0.290   1.989   2.367 -0.1238  1.0484 -0.6597
 9301SOL     OW39364   3.660   4.210   1.805  0.5116 -0.1394  0.1042
 9301SOL    HW139365   3.580   4.242   1.763  1.1264 -0.3378 -1.1870
 9301SOL    HW239366   3.723   4.281   1.813  3.3467 -2.6922  0.4459
 9302SOL     OW39367   2.983   3.424  13.269 -0.2996  0.4357 -0.1194
 9302SOL    HW139368   3.025   3.504  13.300 -1.2258  0.4427  1.0769
 9302SOL    HW239369   2.970   3.446  13.176 -0.4112 -0.2269 -0.2651
 9303SOL     OW39370   2.922   0.003   3.566  0.1527  0.4161 -0.4155
 9303SOL    HW139371   2.851   0.006   3.502 -2.1516  1.0754  2.1734
 9303SOL    HW239372   2.984   4.667   3.525 -1.0688 -1.0687 -0.0544
 9304SOL     OW39373   0.344   2.600   5.154  0.5829  0.3675  0.7471
 9304SOL    HW139374   0.361   2.693   5.172 -4.2198  1.8641 -2.2820
 9304SOL    HW239375   0.430   2.564   5.174  0.0730 -1.5148 -0.5116
 9305SOL     OW39376   1.049   4.283   1.689  0.6326  0.2064  0.0626
 9305SOL    HW139377   1.104   4.215   1.729 -1.0764 -0.5003  1.1985
 9305SOL    HW239378   1.047   4.334   1.769 -2.2139 -0.3321  0.3379
 9306SOL     OW39379   3.761   1.455   3.576  0.0925 -0.4200  0.2885
 9306SOL    HW139380   3.759   1.359   3.580 -1.0481 -0.4243 -0.5575
 9306SOL    HW239381   3.768   1.472   3.482  1.5357  0.3351  0.5323
 9307SOL     OW39382   0.503   2.368  16.146  0.0578 -1.0972 -0.1808
 9307SOL    HW139383   0.462   2.310  16.082  0.9125 -0.7092 -1.0986
 9307SOL    HW239384   0.428   2.403  16.194  0.7301 -0.7999  0.6567
 9308SOL     OW39385   1.382   2.619   9.149 -0.5921 -0.0302  0.3071
 9308SOL    HW139386   1.369   2.662   9.234 -1.7330 -0.2206  0.2334
 9308SOL    HW239387   1.358   2.530   9.174 -4.2608  0.7579 -0.3874
 9309SOL     OW39388   3.081   2.762  12.230 -0.0447 -0.1628 -0.0445
 9309SOL    HW139389   3.046   2.695  12.288  1.3587 -0.8854 -0.0318
 9309SOL    HW239390   3.089   2.831  12.296 -1.1578  0.6347 -0.7582
 9310SOL     OW39391   3.891   2.536   5.006 -0.2746 -0.1669  0.4487
 9310SOL    HW139392   3.822   2.474   4.983 -2.0515  1.6853  0.6752
 9310SOL    HW239393   3.847   2.594   5.069  0.3181 -0.7222  1.3585
 9311SOL     OW39394   4.498   3.654   4.688  0.4342 -0.1074  0.6920
 9311SOL    HW139395   4.451   3.625   4.609  1.3728 -3.5457  1.4082
 9311SOL    HW239396   4.495   3.566   4.725 -1.6172 -1.0056 -1.5924
 9312SOL     OW39397   1.974   0.528   0.889  0.2040  0.1389  0.1092
 9312SOL    HW139398   1.972   0.469   0.814 -0.1344  0.8969 -0.4782
 9312SOL    HW239399   1.984   0.617   0.854  0.1836  0.0135 -0.2124
 9313SOL     OW39400   4.394   3.800   2.295 -0.4923  0.0121  0.5922
 9313SOL    HW139401   4.336   3.742   2.343 -0.5265 -0.4032  0.0549
 9313SOL    HW239402   4.466   3.744   2.266 -1.2052 -0.3731 -0.4382
 9314SOL     OW39403   4.071   3.572   7.795  0.3091  0.4889 -0.3637
 9314SOL    HW139404   4.088   3.648   7.740 -0.3368 -1.5903 -3.4125
 9314SOL    HW239405   4.142   3.512   7.772  0.1850  0.5371 -0.8794
 9315SOL     OW39406   2.207   1.856   3.076  0.1782  0.2773  0.1432
 9315SOL    HW139407   2.165   1.797   3.014 -1.3342  1.8595 -0.3511
 9315SOL    HW239408   2.284   1.803   3.095 -1.2671 -0.4762  4.0082
 9316SOL     OW39409   1.354   2.659   5.101  0.2048  0.6611 -0.6120
 9316SOL    HW139410   1.283   2.714   5.134  0.5059  1.2422 -0.9361
 9316SOL    HW239411   1.417   2.728   5.082 -1.1024  1.7617 -0.9640
 9317SOL     OW39412   1.185   1.311   1.881  0.2670 -0.4201 -0.3883
 9317SOL    HW139413   1.269   1.276   1.910 -0.6685 -2.0642  0.2991
 9317SOL    HW239414   1.207   1.318   1.788 -1.6658 -0.6921 -0.8628
 9318SOL     OW39415   1.776   0.116   7.784  0.1856  0.1612 -0.2905
 9318SOL    HW139416   1.772   0.175   7.859 -1.9248  0.7265 -0.8522
 9318SOL    HW239417   1.846   0.055   7.808  1.0118  1.0866 -0.3653
 9319SOL     OW39418   1.515   1.676  17.635  0.0519 -0.1064  0.3463
 9319SOL    HW139419   1.537   1.593  17.594 -2.9270 -0.7268 -0.0501
 9319SOL    HW239420   1.500   1.653   0.027  1.1341  0.1263  0.5727
 9320SOL     OW39421   0.690   1.898  12.120 -0.4131 -0.0293  0.0499
 9320SOL    HW139422   0.632   1.836  12.075 -1.8753 -1.0990  3.4392
 9320SOL    HW239423   0.769   1.883  12.067 -0.6375  1.3034 -0.6807
 9321SOL     OW39424   3.035   0.893   5.091 -0.8724  0.0400 -0.0615
 9321SOL    HW139425   2.950   0.902   5.134  0.4375  3.9428  1.7021
 9321SOL    HW239426   3.076   0.979   5.098 -1.0714 -0.0173  1.7691
 9322SOL     OW39427   2.613   4.263  17.624  0.0248 -0.6517 -0.0059
 9322SOL    HW139428   2.525   4.237  17.650 -0.3046 -0.8839 -1.3517
 9322SOL    HW239429   2.674   4.190  17.634  3.3619  1.6483 -3.8387
 9323SOL     OW39430   1.955   4.685   8.209 -0.4745  0.7679 -0.6854
 9323SOL    HW139431   1.901   4.606   8.201 -0.2333  0.4457  0.8848
 9323SOL    HW239432   2.039   4.663   8.250 -1.1497  1.5117  1.1331
 9324SOL     OW39433   0.612   3.667   4.441  0.4471  0.3049  0.5002
 9324SOL    HW139434   0.586   3.590   4.492  1.4491 -0.3222  0.0554
 9324SOL    HW239435   0.670   3.715   4.500  0.3463  1.3693 -0.2735
 9325SOL     OW39436   4.229   3.803   7.414 -0.0437  0.7612 -0.3519
 9325SOL    HW139437   4.257   3.895   7.418 -0.6553  0.9237  0.2272
 9325SOL    HW239438   4.249   3.784   7.506 -1.5638 -0.9153 -0.3683
 9326SOL     OW39439   2.872   1.986   5.649 -0.2184  0.0369  0.4927
 9326SOL    HW139440   2.818   1.985   5.570 -1.9994  0.1509  1.7125
 9326SOL    HW239441   2.831   2.056   5.701 -1.2382  1.5892 -2.4012
 9327SOL     OW39442   4.278   3.127   6.107 -0.2858 -0.4383 -0.2693
 9327SOL    HW139443   4.334   3.131   6.184  0.4223 -1.2152 -0.7416
 9327SOL    HW239444   4.298   3.036   6.084 -3.4795 -1.8563  2.4778
 9328SOL     OW39445   1.924   1.776   6.730  0.2335  0.0303  0.3669
 9328SOL    HW139446   1.948   1.777   6.823  1.9698 -1.7744 -0.0513
 9328SOL    HW239447   2.007   1.765   6.684  0.0141 -0.5685  0.1212
 9329SOL     OW39448   4.239   3.080   5.680 -0.6626 -0.2319  0.0043
 9329SOL    HW139449   4.192   3.123   5.752 -0.6044 -0.5946  0.2615
 9329SOL    HW239450   4.197   3.113   5.601  0.4781  0.0031 -0.5002
 9330SOL     OW39451   4.148   3.518   6.720 -0.3203 -0.4481  0.2740
 9330SOL    HW139452   4.171   3.571   6.796 -1.4694 -1.3993  1.2834
 9330SOL    HW239453   4.194   3.567   6.651 -2.8276  2.7410  0.8822
 9331SOL     OW39454   4.326   1.006   7.378 -0.3193  0.1174  0.4779
 9331SOL    HW139455   4.262   1.063   7.334  0.1130 -0.0501 -0.3750
 9331SOL    HW239456   4.272   0.927   7.379  0.6564 -0.5401  0.9972
 9332SOL     OW39457   2.486   3.154  12.489  0.2491  0.4002  0.6842
 9332SOL    HW139458   2.469   3.129  12.579  0.3468  0.2376  0.6570
 9332SOL    HW239459   2.462   3.081  12.433 -1.9879  0.3343  1.7693
 9333SOL     OW39460   3.012   2.298   1.878 -0.2553 -0.3178 -0.0101
 9333SOL    HW139461   2.964   2.229   1.831  1.5877 -2.6236  1.5317
 9333SOL    HW239462   3.087   2.255   1.919 -1.4876  0.2001  2.7470
 9334SOL     OW39463   1.046   3.572   3.020 -0.2082  0.0267  0.4479
 9334SOL    HW139464   1.049   3.544   2.929 -2.8282 -1.6458  0.8670
 9334SOL    HW239465   1.018   3.663   3.007  2.0897  0.6686  0.0220
 9335SOL     OW39466   1.231   2.007   6.682 -0.2124 -0.6429 -0.3639
 9335SOL    HW139467   1.257   2.011   6.774 -0.9814 -0.4781 -0.1611
 9335SOL    HW239468   1.306   2.047   6.636  0.2881  1.0523  1.8777
 9336SOL     OW39469   4.238   1.328   3.097 -0.0814 -0.4676  0.7185
 9336SOL    HW139470   4.292   1.281   3.161  0.1756 -1.5371 -0.2821
 9336SOL    HW239471   4.277   1.298   3.015 -1.8117 -0.7388  0.0069
 9337SOL     OW39472   3.188   4.350   6.120 -0.5592 -0.5533  0.2651
 9337SOL    HW139473   3.182   4.441   6.152  2.2408 -0.5224  0.6822
 9337SOL    HW239474   3.103   4.362   6.077 -0.4332 -1.4568 -0.2314
 9338SOL     OW39475   2.308   0.369   8.225 -0.1402 -0.1044  0.1891
 9338SOL    HW139476   2.397   0.362   8.260  0.3697  0.2495 -1.0112
 9338SOL    HW239477   2.253   0.312   8.278 -0.3077 -0.5984 -0.5165
 9339SOL     OW39478   3.862   0.496  11.834  0.0093  0.4495  0.1867
 9339SOL    HW139479   3.888   0.407  11.809  0.5337  0.3988  0.9269
 9339SOL    HW239480   3.783   0.512  11.782  1.0099 -0.3120 -1.5815
 9340SOL     OW39481   1.623   4.298  17.491 -0.3963  0.2290  0.2222
 9340SOL    HW139482   1.659   4.218  17.452  1.6029  1.0865  0.2832
 9340SOL    HW239483   1.671   4.308  17.573  1.9180  1.1439 -1.2241
 9341SOL     OW39484   0.532   4.393   6.234 -0.0677  0.6557 -0.4654
 9341SOL    HW139485   0.449   4.437   6.255 -1.2250 -1.8401  0.1584
 9341SOL    HW239486   0.529   4.411   6.140  2.3733  0.5936 -0.5545
 9342SOL     OW39487   4.080   3.717   9.001 -0.2222 -0.3098  0.2055
 9342SOL    HW139488   4.023   3.641   8.984 -0.7862  0.3317 -0.7259
 9342SOL    HW239489   4.013   3.786   9.004 -0.3669 -0.5452  2.8070
 9343SOL     OW39490   4.535   1.379   8.749 -0.7088  0.4357  0.2088
 9343SOL    HW139491   4.603   1.344   8.806 -1.0159 -0.4301  0.0486
 9343SOL    HW239492   4.572   1.364   8.662 -0.5428  1.3655  0.1278
 9344SOL     OW39493   3.372   0.974  12.299  1.0269 -0.3012  0.2107
 9344SOL    HW139494   3.356   1.022  12.380  1.1399  1.0594 -0.5691
 9344SOL    HW239495   3.328   1.020  12.228  0.9667  0.5207  0.7834
 9345SOL     OW39496   3.496   3.910   8.449  0.1300 -0.3739  0.5643
 9345SOL    HW139497   3.402   3.903   8.463  0.4185  0.7504  3.1330
 9345SOL    HW239498   3.525   3.920   8.540  2.8410  0.3660 -0.3941
 9346SOL     OW39499   4.506   1.422   5.647 -0.2180 -0.2408 -0.3056
 9346SOL    HW139500   4.525   1.332   5.621 -1.0807 -0.4113 -0.3373
 9346SOL    HW239501   4.463   1.457   5.569 -1.0794 -0.7911 -0.0757
 9347SOL     OW39502   1.338   2.307   7.078 -0.3334 -0.2131  0.1766
 9347SOL    HW139503   1.292   2.313   7.161  1.0368  1.0653  0.8267
 9347SOL    HW239504   1.357   2.400   7.065  1.2564 -0.5427  0.0588
 9348SOL     OW39505   3.533   4.019   1.234  0.6521 -0.0069 -0.0437
 9348SOL    HW139506   3.478   4.050   1.163 -1.4841 -2.0002  0.7450
 9348SOL    HW239507   3.515   4.074   1.310 -0.2846 -0.5454  0.1238
 9349SOL     OW39508   1.743   3.471   6.365  1.4026  0.3121  0.5797
 9349SOL    HW139509   1.773   3.518   6.288 -0.0146 -0.3221 -0.3802
 9349SOL    HW239510   1.667   3.422   6.331  0.6633 -0.1931  2.9505
 9350SOL     OW39511   2.772   4.182   8.768  0.2469 -0.6646  0.3843
 9350SOL    HW139512   2.760   4.088   8.776 -2.0062 -0.5711 -1.8161
 9350SOL    HW239513   2.680   4.207   8.765 -0.1922 -1.7910  4.0485
 9351SOL     OW39514   3.799   2.750   5.139 -0.6722 -1.0011  0.3773
 9351SOL    HW139515   3.738   2.823   5.140 -0.1533 -0.5318 -1.1685
 9351SOL    HW239516   3.878   2.792   5.173  0.3645 -2.2551 -0.4690
 9352SOL     OW39517   2.576   3.078   5.847  0.5592  0.0319  0.1770
 9352SOL    HW139518   2.647   3.119   5.798  0.6712 -0.1923  0.1545
 9352SOL    HW239519   2.631   3.014   5.892 -0.1646 -0.6888  0.0436
 9353SOL     OW39520   2.076   2.762   3.495 -0.0464  0.2692 -0.8588
 9353SOL    HW139521   2.016   2.689   3.508 -1.3829  1.5581  0.1893
 9353SOL    HW239522   2.049   2.824   3.562  1.6298  0.1873 -0.0949
 9354SOL     OW39523   1.338   0.193  10.864  0.3961  0.4368  0.2480
 9354SOL    HW139524   1.265   0.182  10.925 -0.5350  1.5811 -0.6695
 9354SOL    HW239525   1.326   0.283  10.835  2.8753 -0.3956 -3.3934
 9355SOL     OW39526   4.276   2.842  12.670  0.2075  0.1252  0.5312
 9355SOL    HW139527   4.252   2.910  12.607  0.3367  0.8552  1.2856
 9355SOL    HW239528   4.279   2.889  12.752  0.4075 -1.2053  1.2938
 9356SOL     OW39529   2.682   1.515   4.932 -0.4845  0.2491 -0.2278
 9356SOL    HW139530   2.610   1.572   4.907 -0.7415 -0.2199 -0.5711
 9356SOL    HW239531   2.679   1.522   5.027 -0.9229 -0.6781 -0.1700
 9357SOL     OW39532   4.550   4.564  13.591  0.3822 -0.1261 -0.5047
 9357SOL    HW139533   4.588   4.650  13.571 -1.1940  0.1990 -2.1619
 9357SOL    HW239534   4.503   4.595  13.668  1.5619 -0.2279  0.2477
 9358SOL     OW39535   4.318   2.133   2.725 -0.0496 -0.1983  0.1008
 9358SOL    HW139536   4.337   2.227   2.718 -0.2919 -0.0418  1.5946
 9358SOL    HW239537   4.390   2.100   2.672 -1.5679 -0.6210 -1.6704
 9359SOL     OW39538   2.687   2.450   9.151  0.2423 -0.7274 -0.3274
 9359SOL    HW139539   2.627   2.477   9.221 -1.1295 -1.6861 -1.1418
 9359SOL    HW239540   2.739   2.530   9.142 -1.3940  0.3996  0.1604
 9360SOL     OW39541   0.359   3.213   4.067  0.0301  0.3973 -0.5251
 9360SOL    HW139542   0.340   3.248   4.154 -4.4646 -1.8432 -0.6299
 9360SOL    HW239543   0.342   3.120   4.082 -0.3676  0.5286 -0.1616
 9361SOL     OW39544   1.689   4.558  13.360  0.4242 -0.4031 -0.4606
 9361SOL    HW139545   1.730   4.511  13.433 -1.3768  0.7691  1.3098
 9361SOL    HW239546   1.596   4.566  13.382  0.1687 -0.1344 -1.6230
 9362SOL     OW39547   4.174   1.364  16.210  0.6056  0.7245  0.2566
 9362SOL    HW139548   4.202   1.284  16.253 -0.6521  0.5647  0.7889
 9362SOL    HW239549   4.255   1.375  16.160  0.5718 -1.8353 -0.3670
 9363SOL     OW39550   3.243   2.923   8.525  0.0997  0.6762 -0.0226
 9363SOL    HW139551   3.273   2.930   8.434 -2.2697  2.1959 -0.6647
 9363SOL    HW239552   3.299   2.996   8.552  0.3940  0.9287 -1.3128
 9364SOL     OW39553   0.234   0.012   9.707 -0.6083 -0.0716  0.1562
 9364SOL    HW139554   0.325   0.037   9.723 -1.3841  1.6753  1.8311
 9364SOL    HW239555   0.241   4.688   9.625 -2.5852 -0.4239  0.1887
 9365SOL     OW39556   3.020   0.782  10.994  0.2817  0.4123  0.0560
 9365SOL    HW139557   2.997   0.768  11.086  1.8479  2.1391  0.7029
 9365SOL    HW239558   3.044   0.695  10.962  0.5830  0.2269  0.8067
 9366SOL     OW39559   2.524   4.495  12.257  0.2191  0.1991 -0.1723
 9366SOL    HW139560   2.578   4.475  12.181  0.8963 -3.0307  1.1506
 9366SOL    HW239561   2.583   4.541  12.317  2.3544  0.4731 -2.5043
 9367SOL     OW39562   4.014   3.820   4.164  0.0236 -0.0863 -0.5247
 9367SOL    HW139563   3.973   3.796   4.247 -2.0557  1.1822 -1.1873
 9367SOL    HW239564   4.013   3.915   4.159  1.9439  0.0650  1.9932
 9368SOL     OW39565   2.970   1.691  15.857 -0.7647 -0.1348 -0.0256
 9368SOL    HW139566   3.043   1.753  15.845 -1.3669  0.8329  1.3292
 9368SOL    HW239567   2.911   1.704  15.783  0.7120 -0.6358 -1.3038
 9369SOL     OW39568   1.664   1.332   5.848  0.0981  0.4371 -0.5328
 9369SOL    HW139569   1.752   1.298   5.835  0.2265 -0.1470  1.9375
 9369SOL    HW239570   1.619   1.301   5.769 -1.3201  1.8757 -0.2936
 9370SOL     OW39571   1.652   4.301   8.689 -0.1159  0.2775  0.0065
 9370SOL    HW139572   1.685   4.366   8.751  1.7496 -1.0531  0.3996
 9370SOL    HW239573   1.657   4.349   8.607 -0.3573 -1.7189 -1.1539
 9371SOL     OW39574   1.686   0.943   2.473 -0.2964 -0.2273  0.0483
 9371SOL    HW139575   1.620   0.896   2.525 -0.6789 -2.0470 -2.0595
 9371SOL    HW239576   1.766   0.897   2.499 -0.8851 -1.7728 -0.8655
 9372SOL     OW39577   1.915   0.535   1.174  0.0789  0.2298  0.5101
 9372SOL    HW139578   1.951   0.544   1.086  0.9350 -2.8129  0.5579
 9372SOL    HW239579   1.852   0.607   1.166  0.7738  0.4643 -2.9151
 9373SOL     OW39580   0.803   1.015  11.523  0.1228  0.5958 -0.2363
 9373SOL    HW139581   0.822   0.987  11.613  2.0081 -0.3102 -0.9339
 9373SOL    HW239582   0.707   1.006  11.526  0.0771  1.2938  0.6607
 9374SOL     OW39583   2.301   0.110  14.497 -0.2594  0.3764  0.2276
 9374SOL    HW139584   2.293   0.073  14.585 -3.3549  0.4428 -0.0252
 9374SOL    HW239585   2.287   0.038  14.436  0.9190 -1.0427  1.6256
 9375SOL     OW39586   3.806   1.128  16.325 -0.4333 -0.2137 -0.1762
 9375SOL    HW139587   3.840   1.139  16.414 -2.2920  0.6664  0.4289
 9375SOL    HW239588   3.735   1.064  16.322 -0.4063 -0.1328 -2.1742
 9376SOL     OW39589   2.970   2.285  16.812 -0.4572  0.3528 -0.2054
 9376SOL    HW139590   2.956   2.242  16.727  2.6474 -0.4626 -0.2813
 9376SOL    HW239591   3.009   2.220  16.870 -1.7627 -1.0553 -0.8775
 9377SOL     OW39592   0.760   3.860   5.008 -0.4848  0.8720 -0.3083
 9377SOL    HW139593   0.687   3.877   4.948 -0.4904 -0.8120 -0.7844
 9377SOL    HW239594   0.835   3.887   4.956  0.5263 -0.1540  0.6301
 9378SOL     OW39595   0.816   2.349   2.261 -0.2887 -0.2001 -0.1368
 9378SOL    HW139596   0.907   2.341   2.290  0.1300  1.3832 -0.9955
 9378SOL    HW239597   0.802   2.443   2.273 -0.6802 -0.0193 -1.9334
 9379SOL     OW39598   2.917   2.176  16.582 -0.0588 -0.5076 -0.0097
 9379SOL    HW139599   2.967   2.098  16.557  1.0538  1.0305 -2.4837
 9379SOL    HW239600   2.901   2.217  16.498  0.8713 -0.6505 -0.2621
 9380SOL     OW39601   1.215   4.230   2.917  0.2691  0.1086  0.1274
 9380SOL    HW139602   1.241   4.252   2.828  1.2803  1.5419  0.7725
 9380SOL    HW239603   1.212   4.134   2.911  0.8254 -0.0146  1.6689
 9381SOL     OW39604   2.900   4.385   4.332 -0.2526  0.2190 -0.1917
 9381SOL    HW139605   2.931   4.441   4.261  2.6410 -1.0949  0.0301
 9381SOL    HW239606   2.936   4.300   4.307  1.9089  1.7734 -2.3587
 9382SOL     OW39607   1.330   3.244   9.603  0.0784  0.0149  0.3696
 9382SOL    HW139608   1.322   3.174   9.538  0.1080  1.4686 -1.1991
 9382SOL    HW239609   1.366   3.310   9.543  1.4604 -0.8227  0.2705
 9383SOL     OW39610   0.496   3.771  13.494  0.4714  0.2385  0.2402
 9383SOL    HW139611   0.531   3.860  13.491 -1.0911  0.6771 -3.8427
 9383SOL    HW239612   0.492   3.757  13.589  1.9972  0.1218  0.2895
 9384SOL     OW39613   0.374   2.558   6.817 -0.6241 -0.0077 -0.1161
 9384SOL    HW139614   0.453   2.602   6.847 -0.1708 -0.5868 -0.4574
 9384SOL    HW239615   0.395   2.467   6.838 -0.1717  0.8425  3.0933
 9385SOL     OW39616   0.132   3.609   6.968 -0.4685 -0.3212  0.5856
 9385SOL    HW139617   0.218   3.626   7.007 -1.6854  1.2640  2.5644
 9385SOL    HW239618   0.075   3.597   7.044 -0.0667  0.4596  1.0165
 9386SOL     OW39619   3.807   3.447   6.371 -0.0042  0.2945  0.1597
 9386SOL    HW139620   3.892   3.425   6.411 -0.0691 -0.4496 -0.1172
 9386SOL    HW239621   3.807   3.540   6.394 -3.4044 -0.0874  1.6732
 9387SOL     OW39622   1.560   3.523   5.407  0.0772 -0.0493  0.0571
 9387SOL    HW139623   1.601   3.504   5.492 -1.9232  0.3056  1.1029
 9387SOL    HW239624   1.614   3.483   5.339 -0.4324  0.2200 -0.5107
 9388SOL     OW39625   2.066   3.448  16.216  0.3129  1.0477  0.3315
 9388SOL    HW139626   2.100   3.471  16.129 -0.0516 -0.7824 -0.2812
 9388SOL    HW239627   2.026   3.530  16.247  0.3249  1.7540 -1.4991
 9389SOL     OW39628   0.507   1.708   8.398  0.4585  0.3508 -0.3363
 9389SOL    HW139629   0.474   1.791   8.365 -0.8913  0.8298  2.2309
 9389SOL    HW239630   0.527   1.658   8.319  0.6353  0.5881 -0.4389
 9390SOL     OW39631   3.091   4.421   0.167 -0.2823  0.5335 -0.3434
 9390SOL    HW139632   3.102   4.446   0.075  0.3277 -1.4158 -0.8190
 9390SOL    HW239633   2.999   4.440   0.182 -0.7254 -0.7925 -1.3524
 9391SOL     OW39634   1.002   4.042   5.422 -0.4665 -0.0317  0.2787
 9391SOL    HW139635   0.921   4.088   5.399 -2.3474 -4.1185 -1.2994
 9391SOL    HW239636   0.978   3.952   5.399 -1.4295 -0.0497  1.3337
 9392SOL     OW39637   4.064   4.484   8.102 -1.0627  0.0368 -0.2135
 9392SOL    HW139638   3.975   4.465   8.073 -0.1427 -1.6992 -1.9134
 9392SOL    HW239639   4.115   4.477   8.021  0.5874  4.2550  0.4569
 9393SOL     OW39640   1.524   3.160  17.426  0.3213  0.2127 -1.0500
 9393SOL    HW139641   1.487   3.222  17.489 -0.1626 -0.6251 -0.4965
 9393SOL    HW239642   1.581   3.103  17.478 -0.5771  0.6989  0.4488
 9394SOL     OW39643   2.315   1.189  12.582 -0.6185 -0.4925 -0.2942
 9394SOL    HW139644   2.376   1.245  12.630 -3.1804  2.0583  0.0450
 9394SOL    HW239645   2.291   1.121  12.645  0.7006  0.8183  1.6367
 9395SOL     OW39646   1.213   0.411   3.384  0.6698 -0.1212  0.0345
 9395SOL    HW139647   1.145   0.390   3.320  0.5864 -0.2987  0.1812
 9395SOL    HW239648   1.155   0.461   3.442 -0.7180  0.5465 -1.9386
 9396SOL     OW39649   3.925   2.334   4.682  0.2105  0.4188 -0.2156
 9396SOL    HW139650   3.860   2.289   4.628  0.3424  0.6787 -0.5884
 9396SOL    HW239651   3.896   2.312   4.771 -0.3768  0.3874 -0.4156
 9397SOL     OW39652   1.402   1.172   1.936  0.3018 -0.0014  0.2100
 9397SOL    HW139653   1.354   1.155   2.017 -1.0128  2.9432  0.0814
 9397SOL    HW239654   1.452   1.093   1.920  1.7345  0.6259  1.6709
 9398SOL     OW39655   4.628   0.106   2.756 -0.5379 -0.3539 -0.1217
 9398SOL    HW139656   4.689   0.063   2.697  0.8152  1.2483  0.1201
 9398SOL    HW239657   4.564   0.036   2.765 -0.7622 -0.2098 -0.5930
 9399SOL     OW39658   3.871   0.615   4.624  0.0920  0.0921 -0.4009
 9399SOL    HW139659   3.935   0.589   4.691  0.5132 -0.6072 -1.0660
 9399SOL    HW239660   3.893   0.548   4.559  0.7095  0.4300 -0.5482
 9400SOL     OW39661   1.357   4.118  11.511  0.2747  0.2229  0.3917
 9400SOL    HW139662   1.433   4.060  11.517  0.1462 -0.0309 -0.3722
 9400SOL    HW239663   1.381   4.177  11.439 -0.4039  0.6065  0.4826
 9401SOL     OW39664   2.661   3.991   1.170 -0.2246 -0.8343  0.7872
 9401SOL    HW139665   2.678   3.980   1.263 -3.7677  0.7445  1.6353
 9401SOL    HW239666   2.568   3.971   1.161 -0.4192  0.2899  0.2739
 9402SOL     OW39667   1.377   2.170  14.078  0.9994  0.3205 -0.5187
 9402SOL    HW139668   1.370   2.079  14.108 -0.1338 -0.0482 -1.8659
 9402SOL    HW239669   1.424   2.154  13.996  0.5352 -0.3921 -0.6554
 9403SOL     OW39670   2.005   3.773   3.820 -0.2839  0.1312  0.1802
 9403SOL    HW139671   1.991   3.680   3.803 -0.9102  0.0943  0.9031
 9403SOL    HW239672   1.996   3.811   3.733  0.6656  1.1732  0.5287
 9404SOL     OW39673   1.174   1.947   4.313  0.3891 -0.2578 -1.2165
 9404SOL    HW139674   1.167   1.924   4.220  1.3096  0.4424 -1.4582
 9404SOL    HW239675   1.253   1.897   4.337  0.5692  1.0137  0.8671
 9405SOL     OW39676   3.929   4.119   5.711 -0.3589  0.1528 -0.4499
 9405SOL    HW139677   3.930   4.033   5.668 -0.6678 -0.2056  0.2733
 9405SOL    HW239678   3.951   4.182   5.643  1.1201 -0.9469 -1.0132
 9406SOL     OW39679   2.488   1.864   3.923 -0.3931 -0.2703 -0.6016
 9406SOL    HW139680   2.524   1.791   3.974  0.6879 -0.3278 -1.4465
 9406SOL    HW239681   2.562   1.901   3.876  0.8142  0.0418  1.5543
 9407SOL     OW39682   3.085   4.259   7.942 -0.3962  0.5505 -0.2081
 9407SOL    HW139683   3.073   4.343   7.897  1.0398  0.8062 -0.1206
 9407SOL    HW239684   3.134   4.278   8.022 -0.5613  0.4190 -0.0739
 9408SOL     OW39685   0.514   2.089  14.671  0.1489  0.5596  0.6472
 9408SOL    HW139686   0.428   2.128  14.688  0.2099  0.5180  1.0473
 9408SOL    HW239687   0.520   2.089  14.575  3.3150 -1.6940  0.8455
 9409SOL     OW39688   4.176   4.724   9.012  0.1529 -0.2411  0.1155
 9409SOL    HW139689   4.091   4.682   9.022 -0.4780  1.4917  1.9431
 9409SOL    HW239690   4.161   0.072   8.952  1.4285 -1.6159 -1.8750
 9410SOL     OW39691   1.823   1.367   3.787  0.2657  0.2924 -0.2876
 9410SOL    HW139692   1.900   1.406   3.744  0.2214  0.9239  0.2112
 9410SOL    HW239693   1.813   1.438   3.850  1.0576 -1.7743  2.1564
 9411SOL     OW39694   1.251   2.964   6.615 -0.4938  0.0019  0.0537
 9411SOL    HW139695   1.212   2.994   6.533 -0.6643  2.1297  0.8984
 9411SOL    HW239696   1.179   2.916   6.655 -0.0646 -0.9091 -0.2817
 9412SOL     OW39697   4.088   3.633   2.853 -0.1713  0.5049 -0.0859
 9412SOL    HW139698   4.037   3.714   2.857 -1.6457 -0.4719  1.0048
 9412SOL    HW239699   4.108   3.618   2.946 -0.0119  0.1467 -0.1779
 9413SOL     OW39700   1.110   2.913   2.335  0.0634 -0.9664  0.6579
 9413SOL    HW139701   1.084   2.905   2.244  0.3852  1.9314  0.3191
 9413SOL    HW239702   1.205   2.919   2.324 -0.2707  3.9643  0.6164
 9414SOL     OW39703   2.682   3.915  12.859  0.3330  0.1540  0.3631
 9414SOL    HW139704   2.689   4.008  12.880 -1.3405  0.4735 -0.4503
 9414SOL    HW239705   2.741   3.912  12.783 -0.8042  1.0154 -0.5638
 9415SOL     OW39706   1.808   0.474  15.061  0.4293 -0.2970  0.3539
 9415SOL    HW139707   1.748   0.466  14.987 -0.4088 -0.4237  1.0458
 9415SOL    HW239708   1.893   0.467  15.018  0.2290  0.9315 -0.2180
 9416SOL     OW39709   1.025   3.318  11.933  0.1184  0.6489  0.6243
 9416SOL    HW139710   1.120   3.313  11.929  0.0733  0.5939 -0.3675
 9416SOL    HW239711   1.017   3.315  12.028  0.9946 -1.5648  0.6339
 9417SOL     OW39712   0.268   3.692   1.777 -0.1080 -0.1398  0.2301
 9417SOL    HW139713   0.198   3.684   1.712  0.1400 -1.0424  0.0742
 9417SOL    HW239714   0.274   3.788   1.781  0.4026 -0.1280 -0.7134
 9418SOL     OW39715   3.596   1.940   8.520  0.1798  0.7021  0.3427
 9418SOL    HW139716   3.638   1.855   8.538  0.8263  0.8972 -0.2505
 9418SOL    HW239717   3.504   1.930   8.543 -0.2783  0.4588 -1.5902
 9419SOL     OW39718   3.935   3.406   3.909  0.5203 -0.1948 -0.4137
 9419SOL    HW139719   3.867   3.350   3.947  1.0293 -1.8057 -1.8878
 9419SOL    HW239720   3.950   3.362   3.825 -1.0826 -0.3654 -0.6060
 9420SOL     OW39721   1.567   2.638   5.320 -0.6248  0.4378 -0.7197
 9420SOL    HW139722   1.591   2.688   5.243 -0.2617  0.8879 -0.3131
 9420SOL    HW239723   1.644   2.638   5.376 -1.1735 -2.5658  0.0632
 9421SOL     OW39724   3.273   3.364  13.576  0.7648  0.3902  0.0410
 9421SOL    HW139725   3.339   3.348  13.508 -1.5421 -1.8693 -1.6311
 9421SOL    HW239726   3.224   3.434  13.533 -2.9933 -2.1208  0.3011
 9422SOL     OW39727   2.955   0.623  15.364 -0.0794  0.2188  0.2239
 9422SOL    HW139728   2.906   0.660  15.291  0.1328 -0.6158 -0.3389
 9422SOL    HW239729   2.878   0.578  15.399  0.4411  0.3183  1.5082
 9423SOL     OW39730   2.598   2.998   0.378 -0.1820 -0.0394 -0.0749
 9423SOL    HW139731   2.513   3.006   0.421  1.3703  1.1375  2.7464
 9423SOL    HW239732   2.656   3.002   0.454 -0.9652 -0.5924  0.5474
 9424SOL     OW39733   1.055   4.379   8.312 -0.0714 -0.0430 -0.5604
 9424SOL    HW139734   0.984   4.326   8.276 -1.1034  0.5573  0.5941
 9424SOL    HW239735   1.091   4.324   8.382 -0.4333 -2.6894 -2.4598
 9425SOL     OW39736   1.875   2.711   3.719  0.3250  0.3576  0.6635
 9425SOL    HW139737   1.891   2.657   3.642 -2.0804  0.4094  0.1408
 9425SOL    HW239738   1.876   2.649   3.791  1.4588  0.9546  1.1628
 9426SOL     OW39739   2.659   2.004   3.760 -0.2387  0.0721 -0.0125
 9426SOL    HW139740   2.653   2.065   3.834  1.5867 -1.1078  1.1199
 9426SOL    HW239741   2.752   1.996   3.742 -0.8172 -0.7350 -2.5833
 9427SOL     OW39742   0.404   0.432   5.480  0.2135 -0.0413  1.0310
 9427SOL    HW139743   0.325   0.457   5.432  1.0882  0.2567 -0.2587
 9427SOL    HW239744   0.396   0.489   5.557 -3.2113  1.1645 -0.2192
 9428SOL     OW39745   4.211   2.827   5.369 -0.1134 -0.3554  0.1298
 9428SOL    HW139746   4.151   2.760   5.337 -0.5098  0.6030 -1.1373
 9428SOL    HW239747   4.203   2.801   5.461  2.9320 -0.9965  0.2231
 9429SOL     OW39748   0.075   0.558   3.806  0.1028 -0.5930  0.2616
 9429SOL    HW139749   0.065   0.616   3.881  0.2576  1.1842 -1.0716
 9429SOL    HW239750   0.017   0.484   3.826 -1.5652  1.1644  1.8814
 9430SOL     OW39751   2.616   3.578   3.721 -0.0785  0.2898  0.5664
 9430SOL    HW139752   2.555   3.632   3.771  0.9499  1.4366  0.5716
 9430SOL    HW239753   2.566   3.533   3.652  1.3266 -0.6002  0.1342
 9431SOL     OW39754   0.193   1.814   3.959  0.4375  0.1547  0.5427
 9431SOL    HW139755   0.144   1.897   3.957 -2.2794 -1.4474  0.5798
 9431SOL    HW239756   0.128   1.759   3.916  0.9888 -0.1824  0.1637
 9432SOL     OW39757   1.682   0.857  17.546  0.0059  0.7444 -0.3197
 9432SOL    HW139758   1.731   0.858  17.628  0.6047  0.9091 -0.6812
 9432SOL    HW239759   1.600   0.812  17.571  0.3926  0.3349  0.2223
 9433SOL     OW39760   0.586   0.458   5.252  0.6274  0.2434  0.0159
 9433SOL    HW139761   0.518   0.436   5.316 -1.2807 -1.1042 -2.4551
 9433SOL    HW239762   0.631   0.532   5.292 -0.0796 -0.6171  2.3596
 9434SOL     OW39763   3.347   0.906   2.684  0.1399  0.2191  0.2111
 9434SOL    HW139764   3.279   0.854   2.641  0.3742  0.5071 -0.5097
 9434SOL    HW239765   3.289   0.981   2.700 -0.4743 -0.7101  2.3040
 9435SOL     OW39766   4.393   4.436   3.890 -0.0155 -0.7307  0.2795
 9435SOL    HW139767   4.410   4.515   3.839  0.8592 -0.5123  0.9127
 9435SOL    HW239768   4.482   4.409   3.911 -0.6496 -0.8015  2.8724
 9436SOL     OW39769   2.213   0.889  15.208 -0.3895 -0.2309  0.0282
 9436SOL    HW139770   2.268   0.815  15.233 -0.4840 -0.6370 -0.9561
 9436SOL    HW239771   2.132   0.842  15.189  0.6356 -1.4888 -1.2073
 9437SOL     OW39772   0.526   1.795   9.330  0.1129 -0.5903  0.0863
 9437SOL    HW139773   0.498   1.775   9.420 -1.2906 -1.0208 -0.4533
 9437SOL    HW239774   0.511   1.890   9.330  1.0830 -0.4224  2.4044
 9438SOL     OW39775   4.471   0.956   6.717 -0.1227  0.5833 -0.0089
 9438SOL    HW139776   4.490   1.039   6.673 -1.3285  0.8263 -0.0667
 9438SOL    HW239777   4.426   0.982   6.797 -1.5146 -0.1505 -0.5420
 9439SOL     OW39778   1.503   2.122   3.851  0.1941 -0.4973  0.1547
 9439SOL    HW139779   1.578   2.081   3.809 -0.8819 -3.2711  0.9543
 9439SOL    HW239780   1.432   2.060   3.834 -0.0876 -0.6596  1.9236
 9440SOL     OW39781   3.491   2.206   0.798  0.5500  0.2837 -0.4760
 9440SOL    HW139782   3.571   2.166   0.762 -0.9464 -1.9371 -1.4001
 9440SOL    HW239783   3.495   2.290   0.753 -1.1610  0.5238 -0.1533
 9441SOL     OW39784   0.890   2.116   6.806  0.1316  0.5206 -0.3649
 9441SOL    HW139785   0.865   2.024   6.815  0.9357  0.2392 -1.0511
 9441SOL    HW239786   0.918   2.150   6.891  1.2937 -1.9180  0.2204
 9442SOL     OW39787   0.901   0.907   9.305 -0.1068  0.1798  0.3294
 9442SOL    HW139788   0.845   0.831   9.321 -1.8483  1.6171  1.0084
 9442SOL    HW239789   0.908   0.915   9.210 -1.7269  1.0465  0.2953
 9443SOL     OW39790   2.935   3.725   2.663  0.4678  0.3978  0.1734
 9443SOL    HW139791   2.925   3.726   2.568  2.8825  0.5320 -0.0769
 9443SOL    HW239792   2.881   3.653   2.694  0.6256  0.2757  0.1613
 9444SOL     OW39793   4.581   3.007   4.641  0.0013  0.0677 -0.4996
 9444SOL    HW139794   4.628   2.924   4.645  0.7742  0.6670  2.7676
 9444SOL    HW239795   4.514   3.007   4.709 -0.8445  0.3010 -1.3400
 9445SOL     OW39796   4.426   1.050  17.173  0.6897  0.4539 -0.0923
 9445SOL    HW139797   4.504   1.094  17.140 -0.0939  1.9691  0.1013
 9445SOL    HW239798   4.357   1.092  17.121  2.4044  1.5621 -1.4721
 9446SOL     OW39799   4.435   1.211   4.090 -0.1622 -0.1112  0.4763
 9446SOL    HW139800   4.508   1.244   4.039  0.1083  0.0408  0.9600
 9446SOL    HW239801   4.451   1.116   4.095  3.0369  0.3460 -1.5399
 9447SOL     OW39802   0.730   4.391   2.474 -0.0197 -0.3820  0.2708
 9447SOL    HW139803   0.637   4.401   2.493 -0.3479  0.0640 -1.5453
 9447SOL    HW239804   0.740   4.297   2.457 -1.5128 -0.8493  2.0307
 9448SOL     OW39805   0.631   0.211   1.408  0.2373 -0.1066  0.6651
 9448SOL    HW139806   0.636   0.172   1.321  0.6699  1.5907 -0.0702
 9448SOL    HW239807   0.683   0.146   1.455 -0.3871 -1.7082 -0.8962
 9449SOL     OW39808   4.529   4.698   4.963  0.0129  0.2076 -0.2100
 9449SOL    HW139809   4.468   0.042   4.935 -1.3400 -1.9772 -2.6766
 9449SOL    HW239810   4.476   4.624   4.932 -0.2948  0.2005  0.3243
 9450SOL     OW39811   3.820   1.309  15.446 -0.0987  0.1292  0.3303
 9450SOL    HW139812   3.832   1.214  15.447 -2.0335 -0.1278  0.6396
 9450SOL    HW239813   3.773   1.322  15.529 -0.6109  0.0292  0.0602
 9451SOL     OW39814   0.986   2.846   8.830  0.3002  0.2312 -0.1724
 9451SOL    HW139815   0.945   2.790   8.896  0.8788 -0.0687 -0.0716
 9451SOL    HW239816   1.042   2.899   8.887 -1.1959 -0.6407  2.1086
 9452SOL     OW39817   0.320   3.407   2.544 -0.2611 -0.3093 -0.0040
 9452SOL    HW139818   0.404   3.390   2.500 -0.7943 -0.8958 -0.7920
 9452SOL    HW239819   0.254   3.360   2.493  0.1941 -0.0447 -0.8306
 9453SOL     OW39820   2.710   4.263   5.369  0.2655  0.0871 -0.5703
 9453SOL    HW139821   2.621   4.232   5.383 -0.2633  2.2251  0.8188
 9453SOL    HW239822   2.730   4.202   5.298  1.0489 -0.1623 -0.1403
 9454SOL     OW39823   0.652   1.410   3.956 -0.0703  0.4043  0.0663
 9454SOL    HW139824   0.641   1.315   3.952  0.3664  0.2900  1.4866
 9454SOL    HW239825   0.566   1.439   3.927 -0.2337 -2.0218 -1.8348
 9455SOL     OW39826   1.979   0.844   6.828 -0.8796  0.0658 -0.0155
 9455SOL    HW139827   1.923   0.916   6.801 -2.3994 -1.0658  0.1066
 9455SOL    HW239828   2.047   0.891   6.875 -1.4192 -1.0070  1.8283
 9456SOL     OW39829   2.247   2.967   2.184 -0.7536  0.0197  0.0804
 9456SOL    HW139830   2.284   3.054   2.168 -2.7555  0.5533 -1.5672
 9456SOL    HW239831   2.282   2.955   2.272  0.4871 -0.0627 -0.4312
 9457SOL     OW39832   3.867   0.271  12.414  0.1986  0.2352 -0.1959
 9457SOL    HW139833   3.838   0.253  12.503  0.1400 -1.5457 -0.5657
 9457SOL    HW239834   3.890   0.363  12.426  0.7010  0.1936 -0.8642
 9458SOL     OW39835   3.663   4.559   1.462 -0.1297  0.3082  0.2532
 9458SOL    HW139836   3.686   4.552   1.369 -0.7924  1.3018  0.0108
 9458SOL    HW239837   3.721   4.491   1.495  0.5601  1.4580  1.3899
 9459SOL     OW39838   2.377   2.773   7.425 -0.1486 -0.7456 -0.4243
 9459SOL    HW139839   2.288   2.758   7.456 -0.0633 -0.8143 -0.2162
 9459SOL    HW239840   2.414   2.821   7.499 -2.3430 -0.1100  0.2588
 9460SOL     OW39841   3.657   1.783   5.302  0.6845  0.4047 -0.8063
 9460SOL    HW139842   3.598   1.708   5.289 -1.0168  1.5520  0.2230
 9460SOL    HW239843   3.719   1.732   5.355  1.9342  1.3193 -1.4052
 9461SOL     OW39844   0.551   2.475   4.915  0.0211  0.4810 -0.3055
 9461SOL    HW139845   0.461   2.504   4.930 -0.1412  1.9093 -3.8829
 9461SOL    HW239846   0.601   2.554   4.937 -1.2755  1.5890 -1.2656
 9462SOL     OW39847   4.259   3.935   4.518  0.9184 -0.1995  0.2273
 9462SOL    HW139848   4.208   3.859   4.489 -1.8405  1.5068  0.6571
 9462SOL    HW239849   4.316   3.893   4.583  0.8673  0.2984  0.5889
 9463SOL     OW39850   1.825   1.751   3.256 -0.3632 -0.0370  0.4023
 9463SOL    HW139851   1.730   1.738   3.249 -0.0626 -1.3460 -1.2600
 9463SOL    HW239852   1.837   1.714   3.343  1.4999 -0.1234  0.1043
 9464SOL     OW39853   2.027   1.777   4.114  0.0904  0.0879  0.4125
 9464SOL    HW139854   2.097   1.714   4.128  0.3247  0.0331 -0.9641
 9464SOL    HW239855   1.976   1.732   4.047  0.3794 -0.3494  0.4860
 9465SOL     OW39856   0.077   2.533   6.891 -0.3033 -0.4874 -0.2457
 9465SOL    HW139857   0.070   2.616   6.938 -1.7110 -1.1512  0.7221
 9465SOL    HW239858   0.170   2.532   6.866  0.3748 -1.8477  2.3192
 9466SOL     OW39859   0.924   0.672  10.058 -0.1434 -0.0603  1.1924
 9466SOL    HW139860   0.915   0.760  10.096 -2.2406  0.2014  0.0888
 9466SOL    HW239861   0.968   0.625  10.128 -0.0796 -3.1540 -0.9466
 9467SOL     OW39862   1.263   1.917   4.051  0.3604 -0.4248  0.0545
 9467SOL    HW139863   1.311   1.996   4.077 -0.4303  0.4196 -1.0384
 9467SOL    HW239864   1.221   1.954   3.974 -0.9760 -1.9672  0.0252
 9468SOL     OW39865   3.539   2.945  16.354 -0.4216  0.0335  0.7664
 9468SOL    HW139866   3.629   2.939  16.321 -0.4199 -0.2349  0.8176
 9468SOL    HW239867   3.549   3.023  16.409 -1.4827  1.9176 -1.7504
 9469SOL     OW39868   4.233   1.222   4.857  0.2072 -0.2929 -0.1124
 9469SOL    HW139869   4.264   1.204   4.946 -1.7074  3.0036  1.2146
 9469SOL    HW239870   4.270   1.306   4.830 -2.5245  0.7880 -0.5292
 9470SOL     OW39871   0.426   0.511   1.795 -0.3855 -0.2840 -0.3520
 9470SOL    HW139872   0.449   0.451   1.724  0.0644 -0.3131 -0.1803
 9470SOL    HW239873   0.462   0.478   1.877 -0.0392  0.6967 -0.1157
 9471SOL     OW39874   1.877   0.831   7.259 -0.0744  0.3985  0.0239
 9471SOL    HW139875   1.869   0.737   7.271  2.8002  0.1496  0.0455
 9471SOL    HW239876   1.973   0.832   7.261 -0.1235 -1.7469  3.0774
 9472SOL     OW39877   1.360   3.222   5.592  0.3813 -0.4732 -0.2182
 9472SOL    HW139878   1.429   3.242   5.656  1.5889  1.6259 -2.1783
 9472SOL    HW239879   1.401   3.155   5.537 -0.9557 -0.4176 -1.2763
 9473SOL     OW39880   1.765   2.689   2.264 -0.2300 -0.1401  0.1550
 9473SOL    HW139881   1.771   2.781   2.290 -1.9934 -0.1055  0.4759
 9473SOL    HW239882   1.853   2.655   2.277 -0.0502  0.1032 -0.4294
 9474SOL     OW39883   4.261   3.906   6.221 -0.1265 -0.6139  0.6453
 9474SOL    HW139884   4.309   3.980   6.258  1.5413 -2.2139  1.7017
 9474SOL    HW239885   4.307   3.835   6.266 -1.0011 -0.4960  1.7265
 9475SOL     OW39886   2.722   2.989   5.002  0.4452  0.4311 -0.1673
 9475SOL    HW139887   2.660   2.943   5.058 -0.4162  2.8005  0.8135
 9475SOL    HW239888   2.664   3.031   4.938  0.5680  0.0311 -0.5414
 9476SOL     OW39889   0.109   0.312   8.427 -0.3090 -0.0357 -0.3319
 9476SOL    HW139890   0.034   0.286   8.373 -2.3708 -1.5456  3.2557
 9476SOL    HW239891   0.121   0.403   8.401  0.0179  0.5960  2.0228
 9477SOL     OW39892   0.200   3.187   6.155 -0.5685  0.1444  0.0024
 9477SOL    HW139893   0.128   3.201   6.217 -1.5827  2.5213 -1.7430
 9477SOL    HW239894   0.268   3.250   6.180 -0.0642  0.4173 -2.0871
 9478SOL     OW39895   0.265   3.736   5.583 -0.3823 -0.4950 -0.1390
 9478SOL    HW139896   0.205   3.673   5.623 -1.2274 -0.7827 -1.8982
 9478SOL    HW239897   0.289   3.688   5.504  1.8713  0.0186  0.2186
 9479SOL     OW39898   1.013   2.635   7.599  0.1669 -0.4825  0.2283
 9479SOL    HW139899   1.063   2.714   7.621  0.0083 -0.2104 -0.3991
 9479SOL    HW239900   1.002   2.600   7.688 -3.0336  2.3962  0.9485
 9480SOL     OW39901   2.800   4.094   7.515 -0.2095 -0.4273 -0.4698
 9480SOL    HW139902   2.823   4.145   7.593 -2.1377 -1.0431  0.5145
 9480SOL    HW239903   2.801   4.002   7.539 -0.0006 -1.2409 -3.5947
 9481SOL     OW39904   3.588   2.582   8.039 -0.6837 -0.0786 -0.1235
 9481SOL    HW139905   3.569   2.665   7.994 -0.2500 -0.9771 -1.9989
 9481SOL    HW239906   3.673   2.611   8.070  0.7555 -3.7611 -0.6668
 9482SOL     OW39907   4.467   3.972   7.829 -0.2462 -0.3164  0.1171
 9482SOL    HW139908   4.485   3.878   7.837  0.2837 -0.1221  1.2875
 9482SOL    HW239909   4.499   3.987   7.918 -2.1252  2.5724  0.3031
 9483SOL     OW39910   2.304   0.851   8.669  0.3506 -0.2854  0.1385
 9483SOL    HW139911   2.219   0.808   8.669  1.2250 -1.9998  0.1549
 9483SOL    HW239912   2.328   0.858   8.576  1.5240  1.1583  0.5467
 9484SOL     OW39913   1.551   0.206   6.947  0.1837  0.3924  0.2403
 9484SOL    HW139914   1.611   0.269   6.987  0.7534  0.0872 -0.1263
 9484SOL    HW239915   1.598   0.133   6.987 -0.4484 -0.6715 -0.9821
 9485SOL     OW39916   1.912   1.686  11.952  0.1052  0.1362 -0.5576
 9485SOL    HW139917   1.817   1.677  11.951  0.1980 -1.0679  0.9627
 9485SOL    HW239918   1.948   1.598  11.966 -0.7796 -0.4596 -1.9946
 9486SOL     OW39919   1.574   3.414   9.142 -0.0750  0.6132  0.5211
 9486SOL    HW139920   1.492   3.366   9.127  0.2144 -0.1348  1.3176
 9486SOL    HW239921   1.631   3.360   9.086  0.8267  1.3478  0.7388
 9487SOL     OW39922   2.434   2.195  17.628 -0.0954  0.1674  0.3463
 9487SOL    HW139923   2.513   2.217  17.677  0.3898 -1.2067  0.1989
 9487SOL    HW239924   2.469   2.116  17.586 -2.4022  0.1062 -1.4393
 9488SOL     OW39925   3.887   4.313  13.923  0.0002 -0.2823  0.0040
 9488SOL    HW139926   3.868   4.224  13.893  0.1417 -0.3193  0.0267
 9488SOL    HW239927   3.812   4.340  13.977  0.3382  1.5514 -0.4631
 9489SOL     OW39928   3.701   4.711   4.112  0.0807 -0.1548 -0.1755
 9489SOL    HW139929   3.761   4.664   4.169 -0.6530 -1.7140 -0.7086
 9489SOL    HW239930   3.701   0.071   4.158  3.2307 -2.0339  3.2573
 9490SOL     OW39931   2.371   3.390   1.900  0.0691  0.0854  0.2808
 9490SOL    HW139932   2.466   3.396   1.899  0.0724 -0.2151 -0.7957
 9490SOL    HW239933   2.351   3.353   1.814  1.4063  0.4600 -0.1865
 9491SOL     OW39934   0.788   0.801   2.070  0.3779 -0.0616  0.2778
 9491SOL    HW139935   0.701   0.760   2.066  0.2416  0.2595 -0.0317
 9491SOL    HW239936   0.776   0.855   1.992 -0.0544 -0.1611  0.2712
 9492SOL     OW39937   2.826   0.644   2.401  0.4997  0.0968  0.1675
 9492SOL    HW139938   2.852   0.653   2.309  2.2744 -0.3428  0.6425
 9492SOL    HW239939   2.870   0.569   2.440  0.3876 -0.9523 -1.7343
 9493SOL     OW39940   3.896   0.277   4.828  0.0283  0.4049  0.6042
 9493SOL    HW139941   3.818   0.305   4.877 -0.3689  1.1195 -0.4163
 9493SOL    HW239942   3.907   0.184   4.847  0.3763  0.1051 -1.1016
 9494SOL     OW39943   2.037   1.745   4.549  0.0616 -0.0597 -0.0353
 9494SOL    HW139944   2.052   1.661   4.594 -0.7504 -0.9357 -1.3961
 9494SOL    HW239945   2.126   1.782   4.545  1.0271 -2.4726 -1.1182
 9495SOL     OW39946   2.146   3.217   7.981  0.7868 -0.1645  0.3134
 9495SOL    HW139947   2.089   3.289   7.955  0.9168  0.3153  1.3222
 9495SOL    HW239948   2.143   3.225   8.077 -0.0934  0.9737  0.1928
 9496SOL     OW39949   1.373   2.707   7.571  0.1234 -0.6101  0.0503
 9496SOL    HW139950   1.384   2.796   7.604  2.2096 -0.6162 -0.6249
 9496SOL    HW239951   1.291   2.683   7.614 -0.2219  0.8237  0.1918
 9497SOL     OW39952   1.572   0.083   3.885  0.1112  0.1884 -0.4258
 9497SOL    HW139953   1.585   0.014   3.819  0.3976 -0.2776  0.1198
 9497SOL    HW239954   1.649   0.082   3.941  0.8366  1.0446 -1.4120
 9498SOL     OW39955   4.456   0.870   8.164 -0.1460 -0.0714 -0.0697
 9498SOL    HW139956   4.444   0.806   8.233 -1.3133  0.9579  0.6813
 9498SOL    HW239957   4.546   0.898   8.179 -0.1341 -0.5759  0.7426
 9499SOL     OW39958   4.227   1.979   0.099 -0.0718 -0.1737 -0.3294
 9499SOL    HW139959   4.222   2.074   0.113  1.8005 -0.3254  1.3998
 9499SOL    HW239960   4.251   1.946   0.185  1.2512 -0.5944 -0.8535
 9500SOL     OW39961   2.118   3.814   0.485  0.6213 -0.1646  0.5127
 9500SOL    HW139962   2.185   3.778   0.427  0.7872  0.4946  0.3030
 9500SOL    HW239963   2.111   3.750   0.556 -1.8676 -0.6738 -0.2114
 9501SOL     OW39964   0.878   2.585   8.593  0.5577 -0.4327 -0.0051
 9501SOL    HW139965   0.967   2.558   8.617  0.3294  0.3860  1.7238
 9501SOL    HW239966   0.862   2.555   8.503  1.3578 -0.2405 -0.2154
 9502SOL     OW39967   3.342   2.042   1.488  0.2219 -0.2121 -0.6770
 9502SOL    HW139968   3.416   1.983   1.500  0.0540  0.0128  1.4665
 9502SOL    HW239969   3.341   2.031   1.393  0.1302  3.7703 -1.1656
 9503SOL     OW39970   2.447   2.748   6.427  0.0396  0.0718  0.6666
 9503SOL    HW139971   2.367   2.770   6.475 -0.9107 -0.8617 -0.4966
 9503SOL    HW239972   2.434   2.775   6.336 -0.4529 -0.7465  0.4904
 9504SOL     OW39973   2.865   1.336   6.447 -0.8753  0.0371 -0.3425
 9504SOL    HW139974   2.774   1.365   6.444 -1.5929 -2.2538 -0.8664
 9504SOL    HW239975   2.846   1.244   6.467 -1.1384 -0.5161 -3.2158
 9505SOL     OW39976   1.620   2.902   5.200  0.2300  0.1896  0.3105
 9505SOL    HW139977   1.581   2.957   5.268  1.3960  1.4134 -0.0099
 9505SOL    HW239978   1.616   2.959   5.123 -2.7131  0.3746  0.6074
 9506SOL     OW39979   0.850   1.252   5.222 -0.2229  0.1443  0.9609
 9506SOL    HW139980   0.911   1.235   5.150  0.0515 -1.6256  1.6158
 9506SOL    HW239981   0.909   1.235   5.295 -1.2610  0.6616  1.9132
 9507SOL     OW39982   4.172   2.525   3.970 -0.1944 -0.0866  0.1491
 9507SOL    HW139983   4.159   2.430   3.960 -1.5405  0.2025 -0.8117
 9507SOL    HW239984   4.183   2.528   4.065  1.5063  1.4391 -0.0901
 9508SOL     OW39985   4.672   3.797  11.227  0.2114 -0.3193 -0.0728
 9508SOL    HW139986   4.626   3.880  11.243  0.8259 -0.2814  1.5372
 9508SOL    HW239987   4.677   3.793  11.132 -2.1628  1.9526 -0.2904
 9509SOL     OW39988   3.108   3.279   9.359 -0.0816 -0.4856 -0.1458
 9509SOL    HW139989   3.193   3.294   9.319 -1.1021  0.0487 -2.1219
 9509SOL    HW239990   3.126   3.293   9.452  1.1711  1.4524 -0.7024
 9510SOL     OW39991   3.929   4.074   8.613  0.6670 -0.4962 -0.6126
 9510SOL    HW139992   4.004   4.105   8.563 -0.3145  1.6009 -0.7495
 9510SOL    HW239993   3.964   4.045   8.697 -0.8759  0.6977  0.4269
 9511SOL     OW39994   2.567   3.037   4.521  0.2183 -0.1935 -0.5632
 9511SOL    HW139995   2.537   3.125   4.501 -1.5049 -1.2498 -2.5794
 9511SOL    HW239996   2.483   3.006   4.555  0.0116 -1.6266 -2.3737
 9512SOL     OW39997   3.059   2.478   8.273 -0.1335 -0.7388 -0.0963
 9512SOL    HW139998   3.038   2.547   8.336  1.6257 -0.2000 -0.0889
 9512SOL    HW239999   3.100   2.531   8.205  2.5197 -0.2643  1.8414
 9513SOL     OW40000   3.298   0.961   2.328  0.1175  0.1590  0.2488
 9513SOL    HW140001   3.255   1.029   2.276  0.6543 -0.8379 -1.5220
 9513SOL    HW240002   3.234   0.923   2.388  2.3142  0.0460  2.5323
 9514SOL     OW40003   0.570   3.354   3.371 -0.3468  0.4281  0.2646
 9514SOL    HW140004   0.601   3.357   3.281 -2.8954  1.1583 -0.5741
 9514SOL    HW240005   0.636   3.404   3.421  1.2102  0.4538 -1.8297
 9515SOL     OW40006   2.594   0.066   7.456  0.1632  0.1898 -0.3406
 9515SOL    HW140007   2.601   0.087   7.549 -1.3867  3.0285 -0.8515
 9515SOL    HW240008   2.682   0.083   7.423  0.1267 -0.6047 -0.8325
 9516SOL     OW40009   1.964   0.595   6.383  0.2240 -0.2475  0.5055
 9516SOL    HW140010   1.868   0.595   6.392 -0.2281  0.1115 -4.0971
 9516SOL    HW240011   1.983   0.586   6.289 -1.3075 -0.0753  0.1783
 9517SOL     OW40012   1.429   4.682   3.667  0.4033  0.2062  0.6419
 9517SOL    HW140013   1.499   0.019   3.642  1.0827 -0.1615  1.6274
 9517SOL    HW240014   1.357   0.002   3.623 -1.0635 -2.8186  0.0338
 9518SOL     OW40015   1.826   3.282   2.096 -0.1761 -0.5860  0.3923
 9518SOL    HW140016   1.808   3.205   2.042 -1.8192 -1.2319  1.8530
 9518SOL    HW240017   1.915   3.311   2.075 -0.0522  1.2238  3.4440
 9519SOL     OW40018   2.248   3.044  14.237  0.3368 -0.6359 -0.2295
 9519SOL    HW140019   2.255   3.107  14.165 -2.7840 -1.6620 -1.4236
 9519SOL    HW240020   2.243   2.967  14.180  5.1226  1.3306 -3.3983
 9520SOL     OW40021   1.250   2.197   5.695 -0.1707 -0.1694  0.1126
 9520SOL    HW140022   1.241   2.112   5.652 -1.0058  0.7745 -1.6058
 9520SOL    HW240023   1.159   2.225   5.683  0.6251  2.2296 -0.3967
 9521SOL     OW40024   3.714   3.193   0.161  0.6990  0.1424 -0.0234
 9521SOL    HW140025   3.645   3.180   0.226  0.8343  0.2158  0.1378
 9521SOL    HW240026   3.684   3.266   0.107  0.6665 -0.1583 -0.4110
 9522SOL     OW40027   0.055   4.376   0.382  0.1239 -0.2029 -0.7969
 9522SOL    HW140028   0.130   4.340   0.429 -1.1608  2.0233  3.0192
 9522SOL    HW240029   4.714   4.329   0.435 -0.2170 -0.1017 -1.1327
 9523SOL     OW40030   0.091   0.515   0.491  0.1454  0.2969 -0.9954
 9523SOL    HW140031   0.153   0.451   0.454 -0.8641 -0.1416 -1.9210
 9523SOL    HW240032   0.158   0.576   0.520 -1.6965  2.8617 -2.1973
 9524SOL     OW40033   0.682   2.379   7.115  0.1053  0.2659  0.1174
 9524SOL    HW140034   0.737   2.417   7.183  0.5332  1.8300 -1.1137
 9524SOL    HW240035   0.671   2.286   7.135 -2.8113  0.2165 -1.7300
 9525SOL     OW40036   1.840   2.833  16.947 -0.1062 -0.3520 -0.1208
 9525SOL    HW140037   1.855   2.922  16.981  1.7562 -1.5282  2.1376
 9525SOL    HW240038   1.868   2.776  17.019 -0.4002 -0.6733 -0.2623
 9526SOL     OW40039   1.657   1.956   3.627 -0.4158 -0.1373  0.5929
 9526SOL    HW140040   1.583   1.980   3.571 -1.3546 -0.4556  1.6743
 9526SOL    HW240041   1.659   1.861   3.617 -1.5704  0.0592 -1.4746
 9527SOL     OW40042   0.834   0.595  16.355 -0.2393  0.1594 -0.6131
 9527SOL    HW140043   0.901   0.661  16.339  0.5782 -0.6645 -0.5675
 9527SOL    HW240044   0.778   0.641  16.418 -1.1859  0.4275 -1.6608
 9528SOL     OW40045   3.296   1.059   3.745 -0.2466 -0.4370  0.5175
 9528SOL    HW140046   3.375   1.050   3.693  0.5656  1.6734  1.3904
 9528SOL    HW240047   3.301   1.152   3.767  0.3841 -0.6409  1.2259
 9529SOL     OW40048   3.840   1.705   2.423  0.1412 -0.0527 -0.2046
 9529SOL    HW140049   3.828   1.754   2.504  0.9722 -1.7495  0.9415
 9529SOL    HW240050   3.912   1.754   2.383  0.5574  0.7977  1.5850
 9530SOL     OW40051   0.241   4.409  16.797 -0.5779 -0.3436 -0.1106
 9530SOL    HW140052   0.161   4.448  16.833  0.8300  1.4424  1.0628
 9530SOL    HW240053   0.230   4.331  16.853  2.6642 -1.0842 -0.4754
 9531SOL     OW40054   0.900   2.451   3.971 -0.3650  0.4690  0.0491
 9531SOL    HW140055   0.967   2.471   3.906 -2.0629  0.3031 -1.7436
 9531SOL    HW240056   0.949   2.398   4.034  1.5778  0.7850 -1.1763
 9532SOL     OW40057   4.232   0.102  11.759 -0.3166 -0.0692 -0.0178
 9532SOL    HW140058   4.249   0.071  11.848  0.8806 -0.1768 -0.2766
 9532SOL    HW240059   4.319   0.120  11.724 -0.1155 -0.6063  0.2028
 9533SOL     OW40060   1.606   2.301   8.964 -0.0451 -1.0737  0.0107
 9533SOL    HW140061   1.577   2.388   8.936 -3.8040 -1.7928  1.6061
 9533SOL    HW240062   1.535   2.238   8.954 -0.1550 -0.4151 -3.2340
 9534SOL     OW40063   0.634   3.377   3.074 -0.4761  0.0957  0.0397
 9534SOL    HW140064   0.729   3.388   3.074 -0.6987  1.7795 -3.5219
 9534SOL    HW240065   0.613   3.463   3.110 -0.9711 -0.6755  1.6262
 9535SOL     OW40066   1.221   1.793   5.182 -0.2573 -0.3794 -0.3038
 9535SOL    HW140067   1.192   1.761   5.097  1.3752  1.5760 -1.6124
 9535SOL    HW240068   1.142   1.832   5.220  0.2676  0.1467  0.2622
 9536SOL     OW40069   1.006   0.209  14.469 -0.3390  0.3534  0.8172
 9536SOL    HW140070   1.082   0.171  14.424  1.2581  2.6296  1.5839
 9536SOL    HW240071   1.034   0.301  14.467  1.3653 -0.1980 -1.2366
 9537SOL     OW40072   3.065   2.301   2.857 -0.3988  0.2301 -0.8003
 9537SOL    HW140073   3.087   2.379   2.806 -0.0003  0.8949  0.3978
 9537SOL    HW240074   3.053   2.234   2.789 -0.3117 -1.4988  0.9051
 9538SOL     OW40075   0.413   1.172   5.311  0.2550 -0.0666 -0.0521
 9538SOL    HW140076   0.381   1.095   5.265  3.4701 -0.2046 -2.0139
 9538SOL    HW240077   0.333   1.225   5.307  0.3059  0.1061  1.0912
 9539SOL     OW40078   4.462   4.348   8.023 -0.3976 -0.1520  0.0137
 9539SOL    HW140079   4.466   4.315   8.113  3.2058 -2.1295 -0.8520
 9539SOL    HW240080   4.555   4.370   8.012  0.1037 -2.4191 -0.3288
 9540SOL     OW40081   3.424   4.178   4.966  0.3584  1.0334 -0.2399
 9540SOL    HW140082   3.502   4.216   4.927  0.5708  1.0612  0.2234
 9540SOL    HW240083   3.354   4.241   4.946 -0.7974 -0.9062 -2.3094
 9541SOL     OW40084   3.459   1.628   8.024 -0.3803  0.1452 -0.0065
 9541SOL    HW140085   3.521   1.628   7.951 -0.5313 -0.6607 -0.1282
 9541SOL    HW240086   3.406   1.705   8.005 -0.9252 -0.1081  0.4928
 9542SOL     OW40087   4.184   0.469  14.571 -0.1636 -0.0525  0.7241
 9542SOL    HW140088   4.232   0.498  14.649 -1.0772  1.3027  0.7927
 9542SOL    HW240089   4.120   0.410  14.610  1.6241 -1.7470  1.0839
 9543SOL     OW40090   1.927   0.589  13.891 -0.7515  0.7456  0.1869
 9543SOL    HW140091   1.976   0.613  13.813  0.0205 -1.9280 -0.1674
 9543SOL    HW240092   1.846   0.560  13.850  1.1584  0.4624 -3.3678
 9544SOL     OW40093   2.775   4.466   7.755 -0.9299  0.2344 -0.1616
 9544SOL    HW140094   2.783   4.373   7.777  1.4803  0.1064 -1.6616
 9544SOL    HW240095   2.768   4.506   7.842  1.7813 -0.3779  0.3241
 9545SOL     OW40096   1.608   0.144  10.644  0.2489  0.4762  0.0883
 9545SOL    HW140097   1.694   0.103  10.636  0.0300 -0.2699  1.6655
 9545SOL    HW240098   1.628   0.237  10.635  3.9885 -0.3029  0.4039
 9546SOL     OW40099   3.827   3.057   1.496 -0.1803 -0.3693  0.8740
 9546SOL    HW140100   3.895   3.117   1.527 -1.1496  0.8485  0.6596
 9546SOL    HW240101   3.865   3.039   1.410  0.3331 -0.7102  1.1719
 9547SOL     OW40102   2.653   0.059  17.067 -0.9039  0.0378 -0.0638
 9547SOL    HW140103   2.730   0.002  17.066 -0.2678  0.9002  0.8918
 9547SOL    HW240104   2.603   0.029  17.143  1.2198 -1.3361  0.7927
 9548SOL     OW40105   0.590   0.697   9.581 -0.5212  0.1272  0.4623
 9548SOL    HW140106   0.550   0.659   9.659 -1.0328  0.3629  0.3154
 9548SOL    HW240107   0.617   0.781   9.616 -1.0137  0.7798 -0.7240
 9549SOL     OW40108   3.290   2.335   7.384 -0.5034  0.8570  0.0412
 9549SOL    HW140109   3.255   2.253   7.416  0.1825  0.5366 -0.0250
 9549SOL    HW240110   3.375   2.340   7.429 -1.6129 -1.5162  2.3726
 9550SOL     OW40111   1.200   2.536   7.291 -0.3185 -0.0259  0.4359
 9550SOL    HW140112   1.249   2.511   7.369 -0.8543  1.3263  1.1931
 9550SOL    HW240113   1.230   2.626   7.285 -1.1538  0.1019 -2.0388
 9551SOL     OW40114   4.062   3.284   1.937 -0.1375 -0.0288 -0.2362
 9551SOL    HW140115   4.026   3.212   1.989 -0.4565  1.6966  1.9445
 9551SOL    HW240116   4.028   3.261   1.850  2.0323 -1.5230 -0.6668
 9552SOL     OW40117   2.084   2.440   5.088  0.2518  0.8538 -0.1401
 9552SOL    HW140118   2.145   2.398   5.028 -0.1990 -0.6685  0.4766
 9552SOL    HW240119   2.032   2.363   5.112  0.2007  1.2704  1.0754
 9553SOL     OW40120   1.736   4.073   9.732 -0.0089  0.0187  0.0269
 9553SOL    HW140121   1.734   3.985   9.694 -1.6441 -0.1360  0.4809
 9553SOL    HW240122   1.822   4.074   9.773 -0.3023  1.5184  0.6109
 9554SOL     OW40123   0.922   2.194   2.843 -0.1466  0.2794 -0.0007
 9554SOL    HW140124   0.882   2.148   2.770 -1.4547  1.2963  0.0793
 9554SOL    HW240125   0.851   2.225   2.899  0.6837 -1.6001  2.1207
 9555SOL     OW40126   4.533   1.082   7.536  0.1671 -0.0581  0.2443
 9555SOL    HW140127   4.524   1.172   7.567  0.3186  0.3428 -0.8597
 9555SOL    HW240128   4.443   1.049   7.534 -0.3984  1.3978  1.1798
 9556SOL     OW40129   3.679   1.753   8.778  0.4434 -0.2914 -0.7954
 9556SOL    HW140130   3.673   1.822   8.845  0.8770 -2.4268  1.4402
 9556SOL    HW240131   3.595   1.715   8.801 -0.5655  1.6752 -1.2465
 9557SOL     OW40132   1.919   2.412   6.615  0.4075  0.0283 -0.0078
 9557SOL    HW140133   1.847   2.473   6.598  1.5763  1.4233  0.1454
 9557SOL    HW240134   1.889   2.365   6.694  0.1204 -0.6576 -0.5247
 9558SOL     OW40135   2.360   1.472  14.606 -0.3182  0.1124 -0.3065
 9558SOL    HW140136   2.324   1.396  14.559 -0.8237 -1.8070  3.2027
 9558SOL    HW240137   2.348   1.535  14.535  1.3432  1.0509  0.2763
 9559SOL     OW40138   2.482   0.798  16.041 -0.4886  0.7304  0.6629
 9559SOL    HW140139   2.464   0.715  16.085 -1.6014  0.2098 -0.7778
 9559SOL    HW240140   2.503   0.769  15.952  0.0622  0.6412  0.8174
 9560SOL     OW40141   3.235   3.913  17.627  0.2845 -0.2217 -0.0590
 9560SOL    HW140142   3.228   3.887   0.019  0.9111  0.1077  0.0800
 9560SOL    HW240143   3.324   3.884  17.608  0.4170  0.1776 -0.0414
 9561SOL     OW40144   2.124   2.950  13.899  0.1447  0.4578 -0.5358
 9561SOL    HW140145   2.208   2.958  13.945  0.6759 -1.0660 -1.2200
 9561SOL    HW240146   2.081   3.034  13.910  2.5132  1.6159 -0.0714
 9562SOL     OW40147   4.388   0.173   7.864  0.1727 -0.6480  0.2346
 9562SOL    HW140148   4.336   0.119   7.804 -0.4115  3.6422 -3.1151
 9562SOL    HW240149   4.315   0.190   7.924 -1.6993  2.3787 -2.9055
 9563SOL     OW40150   0.484   0.621   1.039  0.2942 -1.4336  0.1676
 9563SOL    HW140151   0.567   0.664   1.017  0.3563 -1.2311  0.7922
 9563SOL    HW240152   0.522   0.535   1.055  1.3642 -0.4289  3.0799
 9564SOL     OW40153   1.467   3.709  15.360 -0.7506 -0.0514 -0.0843
 9564SOL    HW140154   1.419   3.648  15.415  0.0857 -0.1973  0.4779
 9564SOL    HW240155   1.512   3.644  15.307 -0.6092 -1.2054  1.4565
 9565SOL     OW40156   1.377   1.287   6.489 -0.4869 -0.2262 -0.4904
 9565SOL    HW140157   1.383   1.351   6.418 -1.6957 -1.2439 -1.5039
 9565SOL    HW240158   1.375   1.344   6.565 -2.7411 -0.0956 -0.6662
 9566SOL     OW40159   1.187   1.150   6.797  0.0709  0.4589  0.1692
 9566SOL    HW140160   1.219   1.191   6.877  0.8926 -0.4865  0.3295
 9566SOL    HW240161   1.187   1.226   6.739 -1.7021 -0.0545 -0.4955
 9567SOL     OW40162   1.175   0.871   4.385 -0.6284 -0.4019  0.1382
 9567SOL    HW140163   1.123   0.952   4.382 -2.3130 -1.5066 -0.4825
 9567SOL    HW240164   1.212   0.864   4.298 -0.0309  0.3095  0.3385
 9568SOL     OW40165   4.063   2.914   2.103  0.1809 -0.1071 -0.1760
 9568SOL    HW140166   4.111   2.951   2.030  1.1749 -1.7377 -0.3527
 9568SOL    HW240167   4.002   2.851   2.064  0.3691 -0.2176 -0.2927
   4.72457   4.72457  17.69978
