Membrane in water
40167
    1TCq1    O1    1   2.796   1.767  11.705 -0.3429  0.3601  0.1768
    1TCq1    C1    2   2.770   1.653  11.765 -0.2478  0.0352  0.2697
    1TCq1    O2    3   2.834   1.605  11.856  0.2985  0.5545  0.1987
    1TCq1    C2    4   2.629   1.643  11.767 -0.0778 -0.1449  0.3008
    1TCq1    C3    5   2.558   1.719  11.673  0.6105  0.6470  0.2868
    1TCq1    C4    6   2.425   1.746  11.702 -0.0266  0.2205 -0.5896
    1TCq1    C5    7   2.369   1.691  11.810  0.2605 -0.0717 -0.1943
    1TCq1    C6    8   2.443   1.621  11.904  0.4471 -0.0773 -0.5340
    1TCq1    C7    9   2.582   1.599  11.885 -0.2960 -0.1623  0.7216
    1TCq1    C8   10   2.374   1.566  12.017 -0.5922 -0.0210 -0.3124
    1TCq1    O4   11   2.258   1.594  12.032  0.3318  0.2142 -0.1460
    1TCq1    C9   12   2.343   1.818  11.603  0.6150  0.2459  0.1530
    1TCq1    O5   13   2.226   1.839  11.643  0.4606 -0.1023 -0.3961
    1TCq1    O6   14   2.386   1.829  11.484  0.0642 -0.3081 -0.1410
    1TCq1    H1   15   2.714   1.814  11.680 -0.5844 -0.0935  0.1107
    1TCq1    H2   16   2.597   1.738  11.574  0.0200 -3.3713 -0.7235
    1TCq1    H3   17   2.261   1.702  11.817  0.2827  0.9640 -1.5513
    1TCq1    H4   18   2.638   1.531  11.949  0.0730 -0.1821  0.3750
    2MPD2     C   19   2.330   1.336  12.463 -0.1306 -0.4185 -0.1041
    2MPD2    C1   20   2.236   1.350  12.362 -0.4388 -0.2371 -0.2989
    2MPD2    C2   21   2.284   1.402  12.242  0.5660 -0.2462 -0.3429
    2MPD2    C3   22   2.417   1.444  12.235  0.2033 -0.1722  0.1914
    2MPD2    C4   23   2.506   1.431  12.338  0.5359 -0.8766 -0.4509
    2MPD2    C5   24   2.460   1.376  12.451  0.6185  0.1974 -1.5401
    2MPD2     H   25   2.215   1.418  12.161 -1.4366  2.3024  1.8857
    2MPD2    H1   26   2.611   1.457  12.334 -0.2048  1.9994 -1.4709
    2MPD2    H2   27   2.303   1.314  12.566  2.1997  1.1286  0.8355
    2MPD2    H3   28   2.514   1.361  12.544  1.7529  0.6958 -2.1251
    2MPD2     N   29   2.458   1.508  12.116  0.8697  0.0679  0.0165
    2MPD2    H5   30   2.558   1.519  12.100  0.5719 -2.5026 -3.6919
    2MPD2    N1   31   2.105   1.303  12.373 -0.2018  0.4686 -0.6904
    2MPD2    H7   32   2.051   1.317  12.288  0.8346 -0.8594 -1.5713
    3TCq1    O1   33   1.549   2.270  10.513  0.1315  0.2939 -0.4746
    3TCq1    C1   34   1.468   2.289  10.405 -0.3051 -0.9174  0.2000
    3TCq1    O2   35   1.430   2.197  10.340  0.6282  0.0981  0.4927
    3TCq1    C2   36   1.379   2.377  10.469  0.1853 -0.0152  0.2736
    3TCq1    C3   37   1.425   2.485  10.536 -0.0499  0.1529 -0.3134
    3TCq1    C4   38   1.351   2.549  10.637 -0.1584  0.3350  0.6231
    3TCq1    C5   39   1.235   2.491  10.688 -0.4154 -0.4398  0.1853
    3TCq1    C6   40   1.200   2.371  10.632 -0.5062  0.4656  0.1882
    3TCq1    C7   41   1.270   2.319  10.524 -0.2137 -1.2503  0.1065
    3TCq1    C8   42   1.106   2.288  10.693  0.0953 -0.7836  0.1207
    3TCq1    O4   43   1.080   2.174  10.651 -0.0003 -0.3598 -0.1312
    3TCq1    C9   44   1.410   2.662  10.700  0.5350  0.2552 -0.2628
    3TCq1    O5   45   1.512   2.704  10.641  0.2814 -0.3261  0.0198
    3TCq1    O6   46   1.375   2.685  10.817 -0.1917  0.3744 -0.1379
    3TCq1    H1   47   1.563   2.352  10.565  1.0301  0.2530 -0.6564
    3TCq1    H2   48   1.519   2.531  10.511  1.1977 -3.2610 -1.8530
    3TCq1    H3   49   1.183   2.545  10.766 -1.7449 -1.1263 -0.2280
    3TCq1    H4   50   1.230   2.228  10.480  0.1009 -1.6612  0.6792
    4MPD2     C   51   0.722   2.270  11.017 -0.0512 -0.6364  0.0083
    4MPD2    C1   52   0.808   2.363  11.062 -0.1087  0.3752  0.3183
    4MPD2    C2   53   0.932   2.370  11.005 -0.5176 -0.1688 -0.3498
    4MPD2    C3   54   0.963   2.305  10.890 -0.4383 -0.4122  0.2076
    4MPD2    C4   55   0.872   2.213  10.840 -0.0655  0.1788  0.3046
    4MPD2    C5   56   0.753   2.188  10.907 -0.3393  0.2226  0.7943
    4MPD2     H   57   1.003   2.447  11.035 -1.6589  0.9354 -0.5121
    4MPD2    H1   58   0.870   2.156  10.747  1.7627 -0.2367  0.5158
    4MPD2    H2   59   0.630   2.252  11.072 -1.8890  1.5031 -2.2979
    4MPD2    H3   60   0.678   2.123  10.864  0.0488 -1.1653  2.2049
    4MPD2     N   61   1.081   2.334  10.822 -0.0383  0.1891  0.0146
    4MPD2    H5   62   1.143   2.404  10.862 -0.8059  0.1800  1.2412
    4MPD2    N1   63   0.777   2.462  11.157 -0.0809 -0.0686 -0.4563
    4MPD2    H7   64   0.846   2.534  11.174  0.3594 -0.5219 -0.3184
    5TCq1    O1   65   1.823   4.644  11.529  0.1748  0.5855 -0.4062
    5TCq1    C1   66   1.918   4.628  11.628 -0.7078 -0.2815  0.4541
    5TCq1    O2   67   2.019   4.699  11.648 -0.1503 -0.4850  0.3703
    5TCq1    C2   68   1.861   4.538  11.731  0.2529 -0.0562 -0.0716
    5TCq1    C3   69   1.945   4.515  11.837  0.5578 -0.3405  0.3892
    5TCq1    C4   70   1.913   4.407  11.915 -0.0312 -0.0385  0.7660
    5TCq1    C5   71   1.808   4.327  11.881 -1.0767  0.2075  0.5671
    5TCq1    C6   72   1.734   4.349  11.774  0.0293 -0.2411 -0.3742
    5TCq1    C7   73   1.759   4.455  11.693  0.0521 -0.4943  0.3960
    5TCq1    C8   74   1.657   4.227  11.735 -0.1056 -0.9504  0.1721
    5TCq1    O4   75   1.699   4.117  11.775 -0.3927 -0.4833 -0.0733
    5TCq1    C9   76   2.004   4.362  12.017 -0.9304 -0.1036 -0.0940
    5TCq1    O5   77   1.978   4.247  12.071  0.0642 -0.1487 -0.1964
    5TCq1    O6   78   2.107   4.426  12.030  0.8353  0.0120  0.4067
    5TCq1    H1   79   1.854   4.708  11.461 -1.1917  1.5746 -0.0987
    5TCq1    H2   80   2.025   4.582  11.862 -0.6403  0.5955  1.7010
    5TCq1    H3   81   1.788   4.244  11.948  0.2190  0.0124  0.6974
    5TCq1    H4   82   1.695   4.471  11.607  0.8160  3.0891  0.5340
    6MPD2     C   83   1.367   4.222  11.521 -0.5912 -0.3539 -0.3619
    6MPD2    C1   84   1.469   4.166  11.592 -0.2928  0.6847 -0.0185
    6MPD2    C2   85   1.483   4.027  11.588  0.0269  0.0758  0.2991
    6MPD2    C3   86   1.397   3.947  11.517  0.4667 -0.0938 -0.2511
    6MPD2    C4   87   1.303   4.009  11.443 -0.7373 -0.6890  0.5463
    6MPD2    C5   88   1.286   4.143  11.440 -0.1197 -0.7545  0.4462
    6MPD2     H   89   1.566   3.976  11.635  0.4951 -0.1688 -0.7967
    6MPD2    H1   90   1.226   3.953  11.391 -1.0580 -0.0657  0.3414
    6MPD2    H2   91   1.360   4.330  11.525 -0.8089 -0.3751 -0.1606
    6MPD2    H3   92   1.211   4.189  11.375  0.2422 -0.3025  0.3458
    6MPD2     N   93   1.424   3.811  11.516 -1.0615  0.4051 -0.5747
    6MPD2    H5   94   1.509   3.779  11.563 -2.3255 -1.4004  0.5256
    6MPD2    N1   95   1.549   4.254  11.661 -0.1079  0.1681 -0.2548
    6MPD2    H7   96   1.520   4.351  11.653 -3.2396 -0.8009 -0.7192
    7TCq1    O1   97   4.488   4.040  14.075  0.1273  0.9535 -0.6093
    7TCq1    C1   98   4.513   3.965  13.967 -0.4441  0.7677 -0.4348
    7TCq1    O2   99   4.620   3.924  13.926 -1.1807 -0.2014  0.3127
    7TCq1    C2  100   4.386   3.922  13.904  0.0811 -0.4676 -0.4491
    7TCq1    C3  101   4.286   4.009  13.875 -0.1995 -0.3410 -0.2077
    7TCq1    C4  102   4.160   3.955  13.847 -0.2158 -0.5125 -0.0697
    7TCq1    C5  103   4.151   3.822  13.815 -0.7544 -0.1021 -0.4378
    7TCq1    C6  104   4.253   3.742  13.844  0.3959 -0.2820  0.2690
    7TCq1    C7  105   4.380   3.786  13.881  0.5681 -0.6267 -0.3664
    7TCq1    C8  106   4.232   3.594  13.833 -0.1534 -0.7058 -0.2367
    7TCq1    O4  107   4.117   3.552  13.845  0.1854 -0.3766  0.4986
    7TCq1    C9  108   4.049   4.041  13.829  0.4810 -0.1906  0.6311
    7TCq1    O5  109   3.935   3.996  13.806 -0.8034  0.2513  0.0507
    7TCq1    O6  110   4.073   4.165  13.831  0.5146 -0.2790  0.5052
    7TCq1    H1  111   4.394   4.051  14.101 -0.5047 -0.5419 -2.2401
    7TCq1    H2  112   4.293   4.115  13.899  2.3988 -0.0086 -2.3307
    7TCq1    H3  113   4.061   3.776  13.778 -0.6761 -1.2445  0.7865
    7TCq1    H4  114   4.463   3.727  13.917  1.7706  2.3069  1.6682
    8MPD2     C  115   4.365   3.096  13.839  0.0745  0.6355 -0.2191
    8MPD2    C1  116   4.242   3.156  13.835 -0.7264  0.1698 -0.2953
    8MPD2    C2  117   4.238   3.295  13.839 -0.1225  1.2371 -0.2408
    8MPD2    C3  118   4.348   3.371  13.848 -0.4235 -0.2997  0.1112
    8MPD2    C4  119   4.470   3.308  13.856  0.2037 -0.2988  0.2637
    8MPD2    C5  120   4.481   3.176  13.843  0.3996 -0.0049 -0.2934
    8MPD2     H  121   4.138   3.333  13.821 -1.1468  0.2891  3.3790
    8MPD2    H1  122   4.557   3.373  13.852 -0.3357  0.4882  1.3319
    8MPD2    H2  123   4.376   2.988  13.845  1.2396  0.8883  2.2597
    8MPD2    H3  124   4.578   3.129  13.839  0.2459 -0.3290 -0.2036
    8MPD2     N  125   4.340   3.515  13.843 -0.4453 -0.5266  0.9289
    8MPD2    H5  126   4.430   3.560  13.853 -0.0349 -1.2352  0.4318
    8MPD2    N1  127   4.125   3.074  13.818  0.0948 -0.2179  1.2410
    8MPD2    H7  128   4.150   2.979  13.792  1.1911  0.1395  0.9838
    9TCq1    O1  129   1.790   2.145  10.356 -0.2085 -0.2560  0.4134
    9TCq1    C1  130   1.728   2.026  10.360 -0.5040 -0.4350  0.6342
    9TCq1    O2  131   1.737   1.941  10.270 -0.4923  0.2809 -0.0275
    9TCq1    C2  132   1.715   1.998  10.504 -0.1112  0.6905  0.6573
    9TCq1    C3  133   1.601   1.922  10.512  0.1556 -0.4127  0.8386
    9TCq1    C4  134   1.539   1.920  10.630 -0.5459 -0.5327  0.2015
    9TCq1    C5  135   1.603   1.970  10.745  0.2655 -0.3708  0.0483
    9TCq1    C6  136   1.715   2.043  10.734  0.0753  0.0363  0.5577
    9TCq1    C7  137   1.774   2.063  10.610  0.1682 -0.3795 -1.1952
    9TCq1    C8  138   1.770   2.099  10.857  0.3946 -0.0976 -0.4336
    9TCq1    O4  139   1.863   2.173  10.833  0.0191 -0.1256 -0.1636
    9TCq1    C9  140   1.426   1.839  10.645  0.2914  0.3526 -0.9335
    9TCq1    O5  141   1.370   1.795  10.542  0.5212 -0.5632 -0.0769
    9TCq1    O6  142   1.387   1.812  10.764 -0.4779  0.1650 -0.0583
    9TCq1    H1  143   1.756   2.195  10.433 -0.1318 -1.4562  1.2120
    9TCq1    H2  144   1.561   1.870  10.425  0.2864 -1.1983  1.2456
    9TCq1    H3  145   1.549   1.948  10.836  3.0873 -2.8167  1.1019
    9TCq1    H4  146   1.867   2.120  10.605 -0.1910  0.1410 -2.0805
   10MPD2     C  147   1.817   2.253  11.108 -0.1763 -0.1518 -0.1272
   10MPD2    C1  148   1.727   2.147  11.096 -0.2349  0.1494 -0.3582
   10MPD2    C2  149   1.662   2.103  11.214 -0.5171  0.0933 -0.5103
   10MPD2    C3  150   1.689   2.173  11.335  0.6187  0.6193 -0.1571
   10MPD2    C4  151   1.784   2.278  11.330 -0.2458  0.1070 -0.3023
   10MPD2    C5  152   1.840   2.323  11.215 -0.4863 -0.0127 -0.5071
   10MPD2     H  153   1.589   2.024  11.203 -2.3362  1.0548  4.4702
   10MPD2    H1  154   1.813   2.323  11.424 -0.0829  1.1104 -0.8236
   10MPD2    H2  155   1.864   2.295  11.020 -2.7363  0.2509 -1.3162
   10MPD2    H3  156   1.896   2.416  11.214  1.0273 -0.9087 -0.1039
   10MPD2     N  157   1.646   2.134  11.465 -0.3849 -0.1738 -0.0435
   10MPD2    H5  158   1.683   2.199  11.534  1.2171 -1.1363  0.0148
   10MPD2    N1  159   1.713   2.069  10.980 -0.6494 -0.2855 -0.7319
   10MPD2    H7  160   1.633   2.007  10.977 -1.1807  0.2214  2.0634
   11TCq1    O1  161   3.441   2.118  14.834  0.0842  0.5911 -0.1608
   11TCq1    C1  162   3.352   2.201  14.775  0.2897  0.1344 -0.3239
   11TCq1    O2  163   3.334   2.321  14.795  0.0116  0.3641  0.2083
   11TCq1    C2  164   3.239   2.112  14.755  0.0936  0.0529  0.5364
   11TCq1    C3  165   3.265   2.003  14.673 -0.6099 -0.5534  0.0561
   11TCq1    C4  166   3.168   1.927  14.624 -0.4121  0.3711 -0.7520
   11TCq1    C5  167   3.037   1.951  14.659 -0.3236  0.7268  0.8496
   11TCq1    C6  168   3.012   2.064  14.732  0.3258  0.0292 -0.5279
   11TCq1    C7  169   3.113   2.142  14.791 -0.1134  0.1361 -0.0984
   11TCq1    C8  170   2.874   2.115  14.747 -0.4199 -0.2200  0.3702
   11TCq1    O4  171   2.851   2.230  14.772 -0.1479 -0.0640  0.4642
   11TCq1    C9  172   3.201   1.831  14.522  0.3348 -1.1636 -0.1883
   11TCq1    O5  173   3.109   1.795  14.445  0.3172  0.3272  0.5029
   11TCq1    O6  174   3.323   1.828  14.488 -0.4161  0.4192 -0.1041
   11TCq1    H1  175   3.419   2.023  14.825  0.3507  0.8066 -3.3035
   11TCq1    H2  176   3.369   1.998  14.642 -0.2393  1.6098  0.9633
   11TCq1    H3  177   2.961   1.883  14.624  0.9746  1.1823 -2.8615
   11TCq1    H4  178   3.095   2.225  14.858  1.8561 -0.1868  0.8238
   12MPD2     C  179   2.576   2.171  14.729  0.7071 -0.3490  0.6380
   12MPD2    C1  180   2.639   2.058  14.679 -0.1302 -0.3284 -0.9000
   12MPD2    C2  181   2.559   1.975  14.605 -0.3435 -0.1125 -0.3861
   12MPD2    C3  182   2.426   1.986  14.595 -0.4006  0.1838 -0.1080
   12MPD2    C4  183   2.367   2.094  14.649 -0.4874 -0.0247  0.5141
   12MPD2    C5  184   2.444   2.188  14.712 -0.1930  0.5195  0.4630
   12MPD2     H  185   2.603   1.886  14.561 -0.0407  0.5009 -1.3228
   12MPD2    H1  186   2.264   2.122  14.633 -1.2647 -2.3793  1.3602
   12MPD2    H2  187   2.641   2.249  14.768  0.6009 -0.0662  0.2481
   12MPD2    H3  188   2.393   2.282  14.731  2.2969  1.9135  0.2005
   12MPD2     N  189   2.356   1.893  14.524 -0.4547  0.0048  1.0174
   12MPD2    H5  190   2.416   1.839  14.463 -1.1936 -1.6089  1.7267
   12MPD2    N1  191   2.780   2.035  14.688  0.1157 -0.0808  0.3534
   12MPD2    H7  192   2.815   1.948  14.647  0.2446 -0.4725  1.3027
   13TCq1    O1  193   2.325   1.927  10.727  0.3910  0.4742 -0.6686
   13TCq1    C1  194   2.320   1.827  10.639  0.2642 -0.0299  0.5600
   13TCq1    O2  195   2.418   1.770  10.599  0.7663 -0.0361  0.1939
   13TCq1    C2  196   2.179   1.791  10.624 -0.0677  0.4702  0.7884
   13TCq1    C3  197   2.131   1.743  10.499  0.0787  0.5203 -0.4463
   13TCq1    C4  198   2.005   1.688  10.493 -0.6154  0.3372 -0.0950
   13TCq1    C5  199   1.917   1.691  10.597 -0.1582 -0.6147  0.6051
   13TCq1    C6  200   1.970   1.737  10.715 -0.0993 -0.2064  0.6330
   13TCq1    C7  201   2.100   1.781  10.733  0.5433  0.4729  0.3812
   13TCq1    C8  202   1.877   1.742  10.828 -0.6804  0.2029 -0.0759
   13TCq1    O4  203   1.765   1.689  10.817 -0.3043 -0.0959 -0.2107
   13TCq1    C9  204   1.964   1.645  10.365  0.4465  0.2788 -0.1088
   13TCq1    O5  205   1.854   1.583  10.349 -0.5264  0.3423  0.6043
   13TCq1    O6  206   2.044   1.653  10.273  0.0992 -0.0632  0.3202
   13TCq1    H1  207   2.236   1.953  10.760  0.4661  0.7307 -0.6648
   13TCq1    H2  208   2.199   1.740  10.415 -2.1160  1.7673 -2.2740
   13TCq1    H3  209   1.811   1.672  10.584  0.0904 -0.0178 -2.2482
   13TCq1    H4  210   2.156   1.794  10.825  0.8175 -0.7661  0.3978
   14MPD2     C  211   1.951   1.842  11.181  0.1594 -0.2327  0.0954
   14MPD2    C1  212   1.877   1.792  11.072  0.2482  0.0152  0.1808
   14MPD2    C2  213   1.752   1.736  11.097  0.0873  0.8561 -0.2280
   14MPD2    C3  214   1.708   1.711  11.222 -0.1813 -0.4079 -0.5488
   14MPD2    C4  215   1.787   1.760  11.325 -0.2679  0.6683  0.9062
   14MPD2    C5  216   1.902   1.824  11.307  0.1636 -0.0173  0.1231
   14MPD2     H  217   1.688   1.710  11.013 -0.9277  1.4125  0.3705
   14MPD2    H1  218   1.749   1.760  11.426 -1.8631  0.4550  0.3083
   14MPD2    H2  219   2.034   1.911  11.175  0.7961 -0.9222  0.8096
   14MPD2    H3  220   1.960   1.861  11.391  1.9370 -0.6327 -0.8261
   14MPD2     N  221   1.578   1.664  11.244  0.0250  0.3470  0.1599
   14MPD2    H5  222   1.513   1.668  11.166 -0.9368  0.5659  0.9645
   14MPD2    N1  223   1.932   1.799  10.941 -0.2893 -0.4609 -0.5470
   14MPD2    H7  224   2.026   1.835  10.933 -0.0874 -1.0785 -0.9874
   15TCq1    O1  225   4.045   1.212   2.689  0.5248  0.2343 -0.0484
   15TCq1    C1  226   4.067   1.291   2.580 -0.5719  0.2928 -0.4273
   15TCq1    O2  227   4.161   1.293   2.505 -0.5913 -0.1327  0.1560
   15TCq1    C2  228   3.932   1.316   2.536  0.0803 -0.0326 -0.3524
   15TCq1    C3  229   3.861   1.418   2.596  0.3097  0.4159 -0.5356
   15TCq1    C4  230   3.737   1.434   2.545  0.3647  0.0418 -0.3439
   15TCq1    C5  231   3.688   1.364   2.438 -0.5519 -0.2135 -0.1494
   15TCq1    C6  232   3.771   1.269   2.384 -0.3340 -0.6690  0.2310
   15TCq1    C7  233   3.892   1.238   2.432 -0.0868 -0.1002 -0.0268
   15TCq1    C8  234   3.726   1.174   2.291 -0.1080  0.0887 -0.0863
   15TCq1    O4  235   3.765   1.064   2.310 -0.7091 -0.4480 -0.1129
   15TCq1    C9  236   3.656   1.515   2.627 -0.0220  0.0849  0.3794
   15TCq1    O5  237   3.702   1.572   2.730  0.5677 -0.1093 -0.3395
   15TCq1    O6  238   3.536   1.521   2.593 -0.1179  0.5661 -0.2119
   15TCq1    H1  239   3.956   1.217   2.729  0.5778  0.3209  0.0557
   15TCq1    H2  240   3.884   1.466   2.691  0.3093 -0.1144 -0.2661
   15TCq1    H3  241   3.585   1.383   2.407 -0.7461  0.7363  1.0585
   15TCq1    H4  242   3.947   1.162   2.378  1.1622  0.9418 -0.2534
   16MPD2     C  243   3.512   1.220   2.000 -0.5712 -0.0759  0.1520
   16MPD2    C1  244   3.596   1.152   2.084 -0.2831 -0.4004 -0.2262
   16MPD2    C2  245   3.601   1.019   2.067  0.6421  0.0362  1.3189
   16MPD2    C3  246   3.528   0.949   1.972 -0.3901  0.2340  0.0064
   16MPD2    C4  247   3.454   1.019   1.883 -0.1054 -0.1289 -0.4131
   16MPD2    C5  248   3.440   1.156   1.901 -0.9294 -0.6730 -0.1333
   16MPD2     H  249   3.667   0.966   2.134  1.2481 -0.8860 -0.0105
   16MPD2    H1  250   3.390   0.959   1.820  1.2571 -2.7836  0.7227
   16MPD2    H2  251   3.511   1.327   2.016 -1.8514 -0.0140 -0.3732
   16MPD2    H3  252   3.375   1.211   1.834 -1.1510 -0.3200  0.3714
   16MPD2     N  253   3.534   0.806   1.976  0.1854 -0.4328 -0.4685
   16MPD2    H5  254   3.581   0.777   2.061 -0.2088  3.2504  0.9935
   16MPD2    N1  255   3.663   1.230   2.183  0.3137 -0.3173  0.6471
   16MPD2    H7  256   3.643   1.329   2.192  0.6768 -0.2637  0.8782
   17TCq1    O1  257   1.447   1.371  11.098  0.2533 -0.0444 -0.1936
   17TCq1    C1  258   1.560   1.316  11.164  0.0705 -0.4171 -0.3600
   17TCq1    O2  259   1.550   1.247  11.264  0.0095  0.0034 -0.0796
   17TCq1    C2  260   1.657   1.292  11.064  0.2293  0.4268 -0.0794
   17TCq1    C3  261   1.612   1.272  10.937 -0.5909  0.0236  1.1605
   17TCq1    C4  262   1.690   1.311  10.832 -0.4074  0.8140  0.9417
   17TCq1    C5  263   1.814   1.372  10.861 -0.0142 -0.8611  0.0685
   17TCq1    C6  264   1.855   1.396  10.989 -0.3813  0.3299 -0.3713
   17TCq1    C7  265   1.775   1.362  11.091  0.4639  0.2044 -0.2519
   17TCq1    C8  266   1.979   1.457  11.020  0.0221 -0.1750  0.5624
   17TCq1    O4  267   1.997   1.497  11.136  0.0567 -0.2119  0.4361
   17TCq1    C9  268   1.643   1.294  10.693  0.8253  0.1483  0.8760
   17TCq1    O5  269   1.705   1.363  10.608 -0.2506  0.0925 -0.3238
   17TCq1    O6  270   1.525   1.251  10.677 -0.2373  0.2241 -0.1805
   17TCq1    H1  271   1.474   1.425  11.020 -1.2380 -1.4276 -1.6524
   17TCq1    H2  272   1.523   1.216  10.910  0.3454 -2.3372  3.0003
   17TCq1    H3  273   1.873   1.409  10.778  0.3514 -2.2655 -0.2922
   17TCq1    H4  274   1.792   1.396  11.192  0.1105 -1.1029  0.2521
   18MPD2     C  275   2.245   1.593  10.994 -0.3043 -0.2594 -0.1649
   18MPD2    C1  276   2.199   1.496  10.909 -0.1201 -0.4405 -0.4972
   18MPD2    C2  277   2.288   1.442  10.813 -0.3228  0.1761  0.1219
   18MPD2    C3  278   2.424   1.485  10.808 -0.6293  0.3421  0.3152
   18MPD2    C4  279   2.463   1.579  10.899  0.5408  0.2159  0.5050
   18MPD2    C5  280   2.375   1.627  10.998 -0.2778 -0.2713 -0.1531
   18MPD2     H  281   2.258   1.363  10.745 -1.2799  1.3746 -0.8690
   18MPD2    H1  282   2.566   1.611  10.898  1.0288 -1.3034  1.7641
   18MPD2    H2  283   2.175   1.642  11.061  0.0549  0.9553 -0.6647
   18MPD2    H3  284   2.406   1.705  11.068 -0.3144 -0.9253  0.5905
   18MPD2     N  285   2.519   1.438  10.717  0.6444 -0.1434  0.1372
   18MPD2    H5  286   2.612   1.478  10.724  1.2064 -1.3220 -0.5153
   18MPD2    N1  287   2.069   1.436  10.924  0.1872  0.3962 -0.3055
   18MPD2    H7  288   2.056   1.371  10.847  3.0835  0.4377 -0.8200
   19TMC2    C1  289   3.829   1.514  13.971  0.0082 -0.0229 -0.2726
   19TMC2    C2  290   3.841   1.528  13.832 -0.0318  0.2932 -1.0558
   19TMC2    C3  291   3.734   1.503  13.755  0.3925  0.0281  0.3631
   19TMC2    C4  292   3.710   1.496  14.031 -0.3732  0.3107 -0.4847
   19TMC2    C5  293   3.606   1.481  13.946  0.7030 -0.2645  0.1652
   19TMC2    C6  294   3.617   1.488  13.815  0.7401  0.2075  0.5486
   19TMC2     C  295   3.944   1.530  14.048  0.0531 -0.0111  0.3773
   19TMC2     O  296   4.044   1.578  13.987 -0.3332  0.0281 -0.7988
   19TMC2     H  297   3.939   1.543  13.789  1.4954 -0.1425  2.2279
   19TMC2    H1  298   3.685   1.482  14.136  0.5271  0.5368 -0.2338
   19TMC2    H2  299   3.539   1.459  13.746  2.3228 -3.9321  0.4804
   19TMC2    C7  300   3.475   1.444  13.995 -0.6895  0.2136 -0.4333
   19TMC2    C8  301   3.739   1.517  13.608 -0.3010  0.7967  0.6762
   19TMC2    O1  302   3.472   1.414  14.114  0.0547  0.7843 -0.6428
   19TMC2    O2  303   3.650   1.474  13.535  0.5497  0.2164  0.4047
   19TMC2    O5  304   3.860   1.561  13.572 -0.6462 -0.6646 -0.5325
   19TMC2    H5  305   3.896   1.611  13.648 -0.0961 -1.8315 -0.0304
   20MPD2     C  306   4.153   1.602  14.239  0.6487  0.3497  0.6600
   20MPD2    C1  307   4.042   1.525  14.269 -0.2477  0.3081 -0.2292
   20MPD2    C2  308   4.029   1.476  14.393 -0.1972  0.0423 -0.5165
   20MPD2    C3  309   4.125   1.510  14.494 -0.9820 -0.5869  0.0720
   20MPD2    C4  310   4.226   1.598  14.465  0.4994  0.2778 -0.2520
   20MPD2    C5  311   4.244   1.645  14.335  0.1256 -0.3185  0.4491
   20MPD2     H  312   3.945   1.412  14.419 -0.3023 -0.4222 -2.0354
   20MPD2    H1  313   4.303   1.622  14.538 -1.0437  2.0033  0.8242
   20MPD2    H2  314   4.174   1.650  14.144  2.4106  0.8075  1.2800
   20MPD2    H3  315   4.315   1.723  14.310  0.7764  0.0449  3.4434
   20MPD2     N  316   4.119   1.466  14.625  0.1354 -0.0091 -0.0630
   20MPD2    H5  317   4.189   1.505  14.688  0.4957 -1.6429  0.5617
   20MPD2    N1  318   3.939   1.496  14.175 -0.5525 -0.0279 -0.2943
   20MPD2    H7  319   3.850   1.462  14.212 -0.5973 -1.2366 -1.5131
   21MPD2     C  320   1.625   2.568  14.852  0.1210 -0.1020 -0.2549
   21MPD2    C1  321   1.579   2.461  14.921  0.5040 -0.7779 -0.6648
   21MPD2    C2  322   1.443   2.463  14.955  0.2844  0.2489 -0.7288
   21MPD2    C3  323   1.355   2.559  14.909 -0.5825 -0.3997  0.5965
   21MPD2    C4  324   1.412   2.672  14.845  0.6140 -0.5687  0.1767
   21MPD2    C5  325   1.544   2.672  14.818  0.0728  0.6613 -0.3579
   21MPD2     H  326   1.413   2.374  15.010  1.0748 -0.3613 -1.2789
   21MPD2    H1  327   1.353   2.752  14.802  0.5778 -1.0699 -0.7268
   21MPD2    H2  328   1.725   2.585  14.815  0.1005  0.6315  0.0157
   21MPD2    H3  329   1.585   2.759  14.768  0.6989  1.0180  0.7720
   21MPD2     N  330   1.216   2.551  14.932  0.2609 -0.6781  0.4568
   21MPD2    H5  331   1.167   2.637  14.910  1.7271 -0.1238 -0.6486
   21MPD2    N1  332   1.649   2.340  14.940 -0.1145 -0.3129  0.1211
   21MPD2    H7  333   1.613   2.271  15.005  1.0304  0.3048  1.4166
   22TCq2    C1  334   1.144   2.444  14.986  0.5622 -0.0630 -0.0356
   22TCq2    O2  335   1.177   2.332  15.023  0.3305  0.0561  0.7049
   22TCq2    C2  336   1.007   2.463  14.976 -1.2201  0.1832 -0.6315
   22TCq2    C3  337   0.935   2.346  14.945 -0.5034  0.7557  0.2496
   22TCq2    C4  338   0.815   2.351  14.881  0.0180  0.1691 -0.5931
   22TCq2    C5  339   0.759   2.470  14.850 -0.8632 -0.0329  0.3008
   22TCq2    C6  340   0.834   2.583  14.881 -0.3768 -0.3349  0.6379
   22TCq2    C7  341   0.955   2.587  14.942 -0.1518 -0.0302 -0.0503
   22TCq2    C8  342   0.788   2.702  14.813  0.1278 -1.3623  0.5407
   22TCq2    O4  343   0.868   2.784  14.787  0.2660  0.0945 -0.0583
   22TCq2    C9  344   0.760   2.230  14.829  0.6356  1.0347 -0.7813
   22TCq2    O5  345   0.821   2.123  14.847  0.5699  0.0780 -0.3683
   22TCq2    O6  346   0.640   2.246  14.783 -0.3104  0.1202 -0.1165
   22TCq2    H2  347   0.973   2.247  14.966  0.9493  0.9673 -1.3275
   22TCq2    H3  348   0.666   2.467  14.794 -0.2554  1.2827 -0.7730
   22TCq2    H4  349   1.004   2.679  14.972 -1.1480  0.7824 -0.9058
   23MPD2     C  350   2.362   3.173  14.737 -0.5196  0.1857  0.1700
   23MPD2    C1  351   2.279   3.228  14.838 -0.5439  0.5234 -0.2502
   23MPD2    C2  352   2.235   3.357  14.820 -0.6763 -1.2989  0.5845
   23MPD2    C3  353   2.261   3.431  14.701  0.4891 -0.3224  0.4844
   23MPD2    C4  354   2.344   3.379  14.603 -0.1156 -0.4001 -0.3894
   23MPD2    C5  355   2.389   3.250  14.629 -0.5161 -0.3948 -0.1682
   23MPD2     H  356   2.182   3.405  14.902 -1.8831 -2.4820  0.4968
   23MPD2    H1  357   2.364   3.427  14.508  0.4106 -2.0272 -1.1005
   23MPD2    H2  358   2.416   3.080  14.750  1.0878  0.8168 -1.8728
   23MPD2    H3  359   2.457   3.210  14.555 -0.7866  0.3151 -0.8036
   23MPD2     N  360   2.183   3.544  14.662 -0.3662  0.1717 -0.0426
   23MPD2    H5  361   2.202   3.590  14.573  0.5200  1.1783  0.6601
   23MPD2    N1  362   2.253   3.160  14.961  0.6816  0.2158 -0.3577
   23MPD2    H7  363   2.198   3.220  15.021 -0.8691 -0.2322 -1.3308
   24TCq2    C1  364   2.058   3.562  14.710  0.2680  0.2934  0.1553
   24TCq2    O2  365   1.998   3.506  14.799 -0.5596 -0.4203 -0.2733
   24TCq2    C2  366   1.982   3.648  14.623  0.1744  0.4974  0.5218
   24TCq2    C3  367   2.041   3.736  14.544 -1.3577 -0.0312 -0.9430
   24TCq2    C4  368   1.976   3.798  14.440  0.4292  0.8649 -0.1272
   24TCq2    C5  369   1.858   3.752  14.397  0.1825 -0.1020 -0.5660
   24TCq2    C6  370   1.797   3.660  14.481 -0.1248 -0.1603 -0.7155
   24TCq2    C7  371   1.864   3.593  14.580 -0.1601  0.4918 -0.2712
   24TCq2    C8  372   1.661   3.628  14.453  0.2591  0.0152 -0.5840
   24TCq2    O4  373   1.611   3.533  14.519  0.1520  0.7038  0.0444
   24TCq2    C9  374   2.043   3.898  14.363 -0.3214  0.1704 -0.1929
   24TCq2    O5  375   1.971   3.980  14.304  0.3511 -1.0398  0.0197
   24TCq2    O6  376   2.168   3.898  14.363 -0.1124 -0.1604 -0.1750
   24TCq2    H2  377   2.129   3.791  14.576  0.2944 -2.8712 -0.6549
   24TCq2    H3  378   1.815   3.809  14.317  2.6838  1.6097 -0.6958
   24TCq2    H4  379   1.807   3.522  14.639 -0.7573  1.2768  0.0949
   25TMC2    C1  380   1.648   0.830  11.642 -0.1574  0.5879 -0.7895
   25TMC2    C2  381   1.772   0.884  11.650  0.4622  0.1588  0.4825
   25TMC2    C3  382   1.784   0.995  11.730  0.7122  0.0242  0.6027
   25TMC2    C4  383   1.546   0.880  11.721 -1.0399  0.0213 -0.0318
   25TMC2    C5  384   1.566   0.984  11.807 -0.1098  0.3492  0.9869
   25TMC2    C6  385   1.687   1.043  11.808 -0.2633  0.8313 -0.0329
   25TMC2     C  386   1.643   0.701  11.578  0.2456  0.4594  0.4618
   25TMC2     O  387   1.748   0.645  11.562 -0.0031 -0.1814  0.2036
   25TMC2     H  388   1.854   0.849  11.589  0.6103  0.4687  0.5012
   25TMC2    H1  389   1.449   0.831  11.727 -0.3863 -0.8484  3.2125
   25TMC2    H2  390   1.722   1.109  11.887 -1.4067  0.7851  0.5074
   25TMC2    C7  391   1.467   1.007  11.912 -0.1345 -0.4182  0.2184
   25TMC2    C8  392   1.911   1.063  11.719  0.2699  0.1603 -0.2810
   25TMC2    O1  393   1.508   1.043  12.018 -0.0458 -0.2704 -0.2417
   25TMC2    O2  394   2.019   1.009  11.722 -0.4148  0.3892 -0.8938
   25TMC2    O5  395   1.867   1.183  11.670 -0.2244  0.1515  0.4009
   25TMC2    H5  396   1.773   1.180  11.644 -0.5272 -1.3129  1.6629
   26MPD2     C  397   1.421   0.360  11.270 -0.4775  0.2176  0.0937
   26MPD2    C1  398   1.325   0.430  11.334  0.7938 -0.3258 -0.1803
   26MPD2    C2  399   1.358   0.526  11.428 -0.0292 -0.7579 -0.2261
   26MPD2    C3  400   1.494   0.557  11.451 -0.3056  0.1879  0.2678
   26MPD2    C4  401   1.596   0.482  11.387 -0.1830  0.3918 -0.4858
   26MPD2    C5  402   1.550   0.392  11.295 -0.1469  0.3059  0.3852
   26MPD2     H  403   1.283   0.577  11.488 -1.9500 -4.2350  0.3187
   26MPD2    H1  404   1.701   0.503  11.402 -0.4462  0.0866  1.6908
   26MPD2    H2  405   1.394   0.294  11.189  0.3660 -0.1785  0.1268
   26MPD2    H3  406   1.615   0.327  11.237  1.2882  0.0875  2.2264
   26MPD2     N  407   1.517   0.669  11.530  0.0907  0.0624  0.2512
   26MPD2    H5  408   1.439   0.732  11.544 -0.9758 -1.2293  0.1131
   26MPD2    N1  409   1.189   0.393  11.305 -0.5156  0.4467 -0.2673
   26MPD2    H7  410   1.183   0.314  11.241 -0.8753  1.9758 -2.1143
   27TMC2    C1  411   4.433   3.071  12.284 -0.5263 -0.5660 -0.1999
   27TMC2    C2  412   4.374   3.189  12.317 -1.6412 -0.2200 -0.2478
   27TMC2    C3  413   4.443   3.303  12.299 -0.5966 -0.5200  0.6835
   27TMC2    C4  414   4.565   3.074  12.243 -0.3991  0.2797 -0.6508
   27TMC2    C5  415   4.639   3.186  12.251  0.8233 -0.2668 -0.4521
   27TMC2    C6  416   4.580   3.308  12.258  0.2066  0.2191 -0.2169
   27TMC2     C  417   4.371   2.943  12.277 -0.4163 -0.6187 -0.4620
   27TMC2     O  418   4.434   2.860  12.215  0.2288 -0.3099  0.4761
   27TMC2     H  419   4.266   3.199  12.313 -1.6541 -0.2141  0.1079
   27TMC2    H1  420   4.617   2.981  12.222 -0.5602 -0.0539  0.4203
   27TMC2    H2  421   4.637   3.397  12.282  0.2292 -0.5858  2.7040
   27TMC2    C7  422   0.062   3.164  12.258  0.2033  1.3392  0.6884
   27TMC2    C8  423   4.389   3.421  12.353  1.0539  0.2867  0.0196
   27TMC2    O1  424   0.101   3.050  12.283 -0.3406  0.0404 -0.2344
   27TMC2    O2  425   4.303   3.428  12.438 -0.2151 -0.0379  0.5791
   27TMC2    O5  426   4.414   3.510  12.254  0.3974 -0.0126 -0.5745
   27TMC2    H5  427   4.452   3.470  12.173 -0.7380 -2.0320 -0.1207
   28MPD2     C  428   4.116   2.572  12.524 -0.7589 -0.0236  0.0833
   28MPD2    C1  429   4.084   2.693  12.582 -0.4661 -0.6673  1.1230
   28MPD2    C2  430   4.143   2.809  12.531  0.8515 -0.3786  0.0143
   28MPD2    C3  431   4.225   2.811  12.416 -0.3548  0.0624  0.0051
   28MPD2    C4  432   4.244   2.691  12.354 -0.3291  0.5435 -0.6490
   28MPD2    C5  433   4.194   2.579  12.413  0.2386  0.2372 -0.5970
   28MPD2     H  434   4.106   2.905  12.563 -2.1686 -1.3089 -0.6678
   28MPD2    H1  435   4.293   2.672  12.259  0.4871  0.0482 -0.1188
   28MPD2    H2  436   4.078   2.476  12.557 -0.2711 -1.1633 -2.6927
   28MPD2    H3  437   4.221   2.481  12.375 -0.7289  0.0198 -0.7152
   28MPD2     N  438   4.269   2.934  12.371 -0.9485  0.2480 -0.5002
   28MPD2    H5  439   4.252   3.014  12.432  3.4768 -0.1754  1.3276
   28MPD2    N1  440   4.007   2.683  12.693 -0.0032  0.1141  0.5161
   28MPD2    H7  441   3.980   2.590  12.722  1.3961  0.1553  1.9803
   29MPD2     C  442   3.905   0.282  14.421 -0.0590  0.3529  0.4404
   29MPD2    C1  443   4.014   0.256  14.498  0.4497 -0.0941  0.6284
   29MPD2    C2  444   4.062   0.355  14.588 -0.3085  0.2157 -0.4122
   29MPD2    C3  445   4.004   0.476  14.595 -1.2988  0.4669 -0.2618
   29MPD2    C4  446   3.897   0.507  14.513  0.0174 -0.0344  0.2227
   29MPD2    C5  447   3.848   0.411  14.431  0.9643  0.3252 -0.1498
   29MPD2     H  448   4.150   0.326  14.645 -1.8368 -0.0906  1.7724
   29MPD2    H1  449   3.846   0.602  14.519  2.8457  1.5944 -1.8082
   29MPD2    H2  450   3.865   0.218  14.343  0.2255  0.2215  0.4025
   29MPD2    H3  451   3.759   0.437  14.375 -0.6152 -1.8197  1.3810
   29MPD2     N  452   4.064   0.579  14.673  0.4382  0.0673 -0.4973
   29MPD2    H5  453   4.014   0.667  14.669  1.9155  1.0234  1.6650
   29MPD2    N1  454   4.084   0.129  14.503  0.0427  0.5556 -0.1282
   29MPD2    H7  455   4.158   0.122  14.573 -1.2053  0.3358  1.1547
   30TCq2    C1  456   4.143   0.569  14.779 -0.2451 -0.1598 -0.2415
   30TCq2    O2  457   4.175   0.469  14.846 -0.3546  0.1381  0.3662
   30TCq2    C2  458   4.174   0.705  14.835  0.0737  0.5324  0.3694
   30TCq2    C3  459   4.180   0.708  14.968 -0.5279 -0.3470  0.0943
   30TCq2    C4  460   4.228   0.823  15.018 -0.6493  0.1715  0.3227
   30TCq2    C5  461   4.283   0.923  14.942  0.2453 -0.3583 -0.2553
   30TCq2    C6  462   4.276   0.916  14.807 -0.4398  0.3286 -0.3206
   30TCq2    C7  463   4.221   0.796  14.752 -0.9033 -0.5401 -0.9438
   30TCq2    C8  464   4.334   1.012  14.710 -0.3727  0.7505 -0.2264
   30TCq2    O4  465   4.324   0.977  14.593 -0.3603  0.3213  0.0338
   30TCq2    C9  466   4.204   0.836  15.154  0.6086 -0.5191 -0.4553
   30TCq2    O5  467   4.281   0.907  15.226  0.3317 -0.0021  0.2337
   30TCq2    O6  468   4.089   0.807  15.199  0.1191 -0.0098  0.2337
   30TCq2    H2  469   4.134   0.628  15.025 -0.1864 -1.0154 -0.5668
   30TCq2    H3  470   4.324   1.008  14.995  0.3936  0.6545 -1.9933
   30TCq2    H4  471   4.215   0.780  14.645 -0.2542 -0.6055 -0.9753
   31MPD2     C  472   2.380   3.962  14.737 -0.7665 -0.4383  0.5375
   31MPD2    C1  473   2.286   4.023  14.825 -0.1051  0.2143 -0.7240
   31MPD2    C2  474   2.220   3.953  14.926 -0.2057 -0.5422 -0.4188
   31MPD2    C3  475   2.250   3.821  14.930  0.2691  0.0050  0.6348
   31MPD2    C4  476   2.343   3.763  14.844  0.9209 -0.0065 -0.9237
   31MPD2    C5  477   2.404   3.831  14.740 -0.3223  0.2930  0.7230
   31MPD2     H  478   2.145   3.998  14.990  1.6538  1.6232  0.1959
   31MPD2    H1  479   2.371   3.659  14.855 -2.4676 -0.6519  1.6525
   31MPD2    H2  480   2.424   4.016  14.654  1.1369  3.1888  3.8726
   31MPD2    H3  481   2.475   3.784  14.672  1.1000  2.2377  0.8412
   31MPD2     N  482   2.189   3.739  15.028  0.0626 -0.5397 -0.2667
   31MPD2    H5  483   2.210   3.640  15.020 -0.7263 -0.5242 -2.5215
   31MPD2    N1  484   2.263   4.154  14.794  0.1060  0.1935 -0.6000
   31MPD2    H7  485   2.329   4.194  14.728  2.0440 -1.3324  0.4394
   32TCq2    C1  486   2.125   3.779  15.139 -0.2893 -0.2596  0.3740
   32TCq2    O2  487   2.119   3.889  15.202 -0.0250  0.4024  0.2048
   32TCq2    C2  488   2.062   3.673  15.216 -0.3417 -0.9448 -0.2314
   32TCq2    C3  489   2.028   3.557  15.147  0.4479 -0.1048  0.0925
   32TCq2    C4  490   1.980   3.458  15.219  0.2401  0.5037  0.3407
   32TCq2    C5  491   1.962   3.463  15.353  0.2818  0.3560  0.2745
   32TCq2    C6  492   1.994   3.580  15.418  0.1463 -0.2416  0.0591
   32TCq2    C7  493   2.037   3.688  15.355  0.3430 -0.1113  0.1218
   32TCq2    C8  494   2.001   3.571  15.564 -0.0479 -0.0607 -0.0166
   32TCq2    O4  495   1.976   3.464  15.612  0.3243 -0.0794  0.1960
   32TCq2    C9  496   1.955   3.335  15.155 -0.0064 -1.0040  0.3849
   32TCq2    O5  497   1.986   3.324  15.032 -0.1637  0.3488  0.0991
   32TCq2    O6  498   1.896   3.251  15.228 -0.6489 -0.4573 -0.7366
   32TCq2    H2  499   2.032   3.543  15.039 -1.4973 -3.2839  0.4278
   32TCq2    H3  500   1.945   3.371  15.409 -0.2360  0.2011 -0.1419
   32TCq2    H4  501   2.080   3.768  15.414  1.5045 -0.5354 -0.1286
   33MPD2     C  502   2.346   1.068  10.018 -0.6440 -0.0465 -0.0815
   33MPD2    C1  503   2.462   1.142  10.035 -0.1136 -0.7601  0.5475
   33MPD2    C2  504   2.518   1.211   9.920 -0.4683 -0.2137 -0.6395
   33MPD2    C3  505   2.463   1.203   9.793  0.6135  0.1194  0.2522
   33MPD2    C4  506   2.354   1.123   9.783  0.0738 -0.4081  0.1779
   33MPD2    C5  507   2.301   1.060   9.892 -0.4979  0.5870  0.2505
   33MPD2     H  508   2.606   1.274   9.933 -1.3913  0.8097  0.7221
   33MPD2    H1  509   2.316   1.106   9.683 -1.9914 -1.9150  1.2292
   33MPD2    H2  510   2.289   1.020  10.097  1.6179 -2.5114  0.0669
   33MPD2    H3  511   2.203   1.024   9.861 -0.1836  2.0510 -2.4840
   33MPD2     N  512   2.516   1.272   9.685 -0.4428  0.3291 -0.3182
   33MPD2    H5  513   2.463   1.259   9.600 -2.4776  0.4280  0.9177
   33MPD2    N1  514   2.526   1.144  10.167  0.0867 -0.6329 -0.4329
   33MPD2    H7  515   2.486   1.095  10.246 -1.4105  0.6399 -0.3986
   34TCq2    C1  516   2.637   1.340   9.677  0.0286  0.1860 -0.2239
   34TCq2    O2  517   2.715   1.357   9.769 -0.1811 -0.2089  0.2520
   34TCq2    C2  518   2.653   1.412   9.552  0.0440 -0.3954 -1.0839
   34TCq2    C3  519   2.569   1.396   9.448  0.1086 -0.3482 -0.3655
   34TCq2    C4  520   2.589   1.472   9.336 -0.5407 -0.5924 -0.1844
   34TCq2    C5  521   2.686   1.573   9.331  0.8532  0.4112 -0.9023
   34TCq2    C6  522   2.766   1.590   9.445 -0.6021  0.7648  0.0518
   34TCq2    C7  523   2.746   1.512   9.556 -1.2120 -0.1864  0.2477
   34TCq2    C8  524   2.841   1.709   9.471 -0.5454  0.4996  0.6894
   34TCq2    O4  525   2.884   1.765   9.371 -0.5451 -0.2680 -0.1791
   34TCq2    C9  526   2.505   1.466   9.223 -0.3635  0.1625  0.7748
   34TCq2    O5  527   2.394   1.403   9.236  0.2216 -0.0685 -0.1703
   34TCq2    O6  528   2.532   1.534   9.121 -0.1510 -0.2190 -0.5272
   34TCq2    H2  529   2.492   1.322   9.432 -1.7135  1.2231  1.1547
   34TCq2    H3  530   2.695   1.632   9.240  2.3386 -0.7874 -1.5404
   34TCq2    H4  531   2.809   1.524   9.644  2.8962  1.3005 -2.9370
   35MPD2     C  532   3.735   3.081  12.157  0.2150 -0.2768 -0.3369
   35MPD2    C1  533   3.650   2.992  12.101 -0.6122  0.3197  0.0517
   35MPD2    C2  534   3.608   3.024  11.971 -0.2949  0.2777 -0.1372
   35MPD2    C3  535   3.650   3.142  11.907 -0.1653 -0.2786  0.0699
   35MPD2    C4  536   3.728   3.236  11.977 -0.2741  0.0829 -0.7011
   35MPD2    C5  537   3.768   3.204  12.102  0.3252  0.7458 -0.3601
   35MPD2     H  538   3.538   2.965  11.912  1.7146 -1.5300 -0.6947
   35MPD2    H1  539   3.747   3.337  11.944 -1.4255  0.5048 -0.0865
   35MPD2    H2  540   3.771   3.057  12.256  0.1420  1.6285  0.1684
   35MPD2    H3  541   3.825   3.282  12.151  0.6938 -0.7884  1.6770
   35MPD2     N  542   3.602   3.161  11.775 -0.0460 -0.2413 -0.1694
   35MPD2    H5  543   3.574   3.076  11.728 -1.5256 -1.1693  2.4071
   35MPD2    N1  544   3.613   2.881  12.182  0.3363  0.4788  0.5412
   35MPD2    H7  545   3.656   2.865  12.272  1.7509  2.3248  0.2005
   36TCq2    C1  546   3.627   3.275  11.704 -0.2984 -0.7219  0.6579
   36TCq2    O2  547   3.697   3.372  11.728  0.1365  0.4690 -0.1292
   36TCq2    C2  548   3.578   3.269  11.574  0.1019 -0.5996 -0.2116
   36TCq2    C3  549   3.648   3.336  11.473 -0.0345 -0.3038 -0.7063
   36TCq2    C4  550   3.600   3.309  11.352 -0.4798 -1.5206  0.0250
   36TCq2    C5  551   3.512   3.205  11.324  0.1100  0.2628 -0.0890
   36TCq2    C6  552   3.459   3.140  11.434  0.3478 -0.1993 -0.3066
   36TCq2    C7  553   3.493   3.167  11.557 -0.5745 -0.1675 -0.8877
   36TCq2    C8  554   3.363   3.027  11.424 -0.3985  0.9854 -0.4457
   36TCq2    O4  555   3.354   2.943  11.506 -0.0332  0.5243  0.1887
   36TCq2    C9  556   3.650   3.390  11.245 -0.0419 -0.0630  0.7424
   36TCq2    O5  557   3.735   3.480  11.269 -0.0788  0.2291 -0.7856
   36TCq2    O6  558   3.581   3.392  11.139 -0.4483 -0.0742 -0.1353
   36TCq2    H2  559   3.716   3.420  11.481  2.4168 -2.1666 -1.8540
   36TCq2    H3  560   3.490   3.189  11.219 -2.6930  0.0575  0.5213
   36TCq2    H4  561   3.421   3.135  11.631 -0.5921  0.6442 -0.5637
   37TMC2    C1  562   0.939   2.705  12.049 -0.0867  0.2534  0.0608
   37TMC2    C2  563   0.908   2.595  11.971 -0.4226  0.1815 -0.3931
   37TMC2    C3  564   0.987   2.560  11.863  0.3610  0.1328  0.0297
   37TMC2    C4  565   1.050   2.777  12.023  0.8051 -0.0745  0.3177
   37TMC2    C5  566   1.137   2.731  11.934 -0.1408  0.2310 -0.3330
   37TMC2    C6  567   1.105   2.625  11.851  0.1825 -0.2088 -0.2087
   37TMC2     C  568   0.881   2.710  12.184  0.3290  0.2921  0.1893
   37TMC2     O  569   0.764   2.690  12.199  0.0126 -0.0492 -0.9284
   37TMC2     H  570   0.815   2.540  11.986  0.1369 -0.3790  1.0362
   37TMC2    H1  571   1.073   2.856  12.094  0.9457 -0.0136  0.2030
   37TMC2    H2  572   1.171   2.572  11.784 -0.7807 -3.2229  1.2461
   37TMC2    C7  573   1.258   2.806  11.909 -0.3572 -0.0594  0.0838
   37TMC2    C8  574   0.981   2.423  11.827  0.1425  0.2307  0.2753
   37TMC2    O1  575   1.269   2.898  11.992 -0.4869  0.4418  0.1380
   37TMC2    O2  576   0.979   2.346  11.921 -0.2854  0.6018 -0.0626
   37TMC2    O5  577   0.906   2.418  11.715 -0.7107  0.1114 -0.2473
   37TMC2    H5  578   0.927   2.496  11.659  0.8041  0.2524  0.5305
   38MPD2     C  579   0.942   2.792  12.702  0.2444  0.5504  0.1107
   38MPD2    C1  580   1.065   2.797  12.642  0.0082 -0.0379  0.3226
   38MPD2    C2  581   1.074   2.779  12.500 -0.1751  0.5295 -0.0417
   38MPD2    C3  582   0.960   2.749  12.419 -0.1154  0.1637  0.0056
   38MPD2    C4  583   0.838   2.736  12.490  0.1493  0.2585  0.4448
   38MPD2    C5  584   0.833   2.755  12.623 -0.4032 -0.2837  0.5398
   38MPD2     H  585   1.171   2.793  12.453 -1.5047 -2.0809 -3.5492
   38MPD2    H1  586   0.743   2.708  12.445  0.3506 -0.8534  0.7188
   38MPD2    H2  587   0.936   2.828  12.804 -3.0560  2.0053 -0.6100
   38MPD2    H3  588   0.738   2.756  12.675 -1.0454  2.7344 -0.7339
   38MPD2     N  589   0.980   2.743  12.278  0.3563 -0.8362  0.1150
   38MPD2    H5  590   1.077   2.748  12.247  0.9653  2.6706  2.6776
   38MPD2    N1  591   1.187   2.799  12.717 -0.1206 -0.7279 -0.9576
   38MPD2    H7  592   1.272   2.782  12.665 -0.2447  2.6142 -2.2563
   39MPD2     C  593   3.441   0.496   2.511  0.2097 -0.6060 -0.4095
   39MPD2    C1  594   3.495   0.588   2.434  0.5910  0.3099  0.3832
   39MPD2    C2  595   3.420   0.644   2.335  0.4993 -0.6909 -0.1350
   39MPD2    C3  596   3.297   0.591   2.298 -0.5245 -0.3709  0.3572
   39MPD2    C4  597   3.253   0.482   2.366 -0.4015  0.4054  0.4194
   39MPD2    C5  598   3.324   0.426   2.474  0.1789  0.2798 -0.0877
   39MPD2     H  599   3.464   0.728   2.281 -0.4477 -0.7391 -0.9778
   39MPD2    H1  600   3.162   0.430   2.337 -0.7897  2.0225 -1.2297
   39MPD2    H2  601   3.497   0.453   2.593  2.4698  2.4241 -0.3699
   39MPD2    H3  602   3.294   0.344   2.539 -0.1914  0.5810  0.1222
   39MPD2     N  603   3.208   0.648   2.205 -0.2103 -0.9028  0.1986
   39MPD2    H5  604   3.118   0.603   2.189 -0.8794 -0.0140  1.5085
   39MPD2    N1  605   3.625   0.640   2.461 -0.1810  0.5881  0.1971
   39MPD2    H7  606   3.673   0.615   2.547 -0.3879 -1.4032 -0.2677
   40TCq2    C1  607   3.704   0.711   2.371 -1.0474  0.2489  0.6383
   40TCq2    O2  608   3.696   0.734   2.252  0.4586  0.2263 -0.1949
   40TCq2    C2  609   3.825   0.741   2.438  0.1865 -0.6514 -0.2359
   40TCq2    C3  610   3.822   0.773   2.567  0.4067 -0.7707 -1.0426
   40TCq2    C4  611   3.936   0.779   2.636  0.1363  0.1736  0.0228
   40TCq2    C5  612   4.058   0.767   2.576 -0.4170 -0.0233  0.8522
   40TCq2    C6  613   4.061   0.758   2.440 -0.9165  0.2125 -0.2410
   40TCq2    C7  614   3.948   0.733   2.368  0.2743  0.9572 -0.5774
   40TCq2    C8  615   4.188   0.746   2.375 -0.4101 -0.6650  0.0300
   40TCq2    O4  616   4.284   0.769   2.449  0.1121  0.5034  0.1971
   40TCq2    C9  617   3.921   0.795   2.775  0.4796  0.7789  0.3237
   40TCq2    O5  618   3.807   0.800   2.829  0.1151 -0.5060  0.1841
   40TCq2    O6  619   4.031   0.815   2.835 -0.3819 -0.1329 -0.1745
   40TCq2    H2  620   3.728   0.799   2.616  0.6635 -1.4140 -0.1925
   40TCq2    H3  621   4.151   0.763   2.633 -0.2735 -0.3237  0.5969
   40TCq2    H4  622   3.941   0.709   2.262  1.7697 -0.3692 -0.3633
   41TMC2    C1  623   2.559   3.356  13.876 -0.5825  0.5886 -0.4617
   41TMC2    C2  624   2.509   3.481  13.914 -0.0040 -0.3879 -0.1125
   41TMC2    C3  625   2.435   3.550  13.819 -0.6403  0.6646 -0.4180
   41TMC2    C4  626   2.536   3.304  13.752  0.2802  0.5951  0.4629
   41TMC2    C5  627   2.462   3.377  13.662 -0.4273 -0.3347  0.5166
   41TMC2    C6  628   2.410   3.497  13.695  0.5388  0.0677 -0.4214
   41TMC2     C  629   2.594   3.259  13.984  0.2815  0.4727 -0.2859
   41TMC2     O  630   2.574   3.142  13.950 -0.0345 -0.3455  0.6673
   41TMC2     H  631   2.533   3.523  14.012 -0.7312  0.5095 -0.3227
   41TMC2    H1  632   2.569   3.203  13.733 -0.5359  0.5783 -0.8140
   41TMC2    H2  633   2.361   3.551  13.615  0.1716 -0.4450 -0.5396
   41TMC2    C7  634   2.440   3.325  13.531  0.8891 -0.8703 -0.0930
   41TMC2    C8  635   2.417   3.696  13.838  0.1221 -0.1373 -1.0590
   41TMC2    O1  636   2.343   3.364  13.463 -0.0291  0.4604  0.2525
   41TMC2    O2  637   2.331   3.763  13.778 -0.1287 -0.1433  0.0935
   41TMC2    O5  638   2.533   3.745  13.901  0.3179 -0.2368  0.0198
   41TMC2    H5  639   2.613   3.689  13.896  0.9482  0.7357 -0.8048
   42MPD2     C  640   2.661   3.095  14.235  0.2457  0.0896  0.2447
   42MPD2    C1  641   2.657   3.230  14.225 -0.7923 -0.1307 -0.5542
   42MPD2    C2  642   2.689   3.304  14.341 -0.0543  0.6866  0.2488
   42MPD2    C3  643   2.725   3.246  14.461 -0.0834 -0.0314  0.1846
   42MPD2    C4  644   2.727   3.108  14.464 -1.0918  0.2055  0.0938
   42MPD2    C5  645   2.693   3.036  14.351 -0.1050 -0.0238 -0.6071
   42MPD2     H  646   2.678   3.411  14.328 -1.9816  0.4940  0.2430
   42MPD2    H1  647   2.746   3.061  14.559  1.8582 -0.5582 -0.8684
   42MPD2    H2  648   2.624   3.033  14.155 -2.7152  2.9036 -0.5387
   42MPD2    H3  649   2.668   2.933  14.374  2.7116 -0.0543  2.2796
   42MPD2     N  650   2.740   3.315  14.586 -0.0667 -0.0767  0.3523
   42MPD2    H5  651   2.758   3.263  14.671 -0.1831  1.4827  1.3348
   42MPD2    N1  652   2.623   3.311  14.110 -0.0927 -0.0444 -0.4147
   42MPD2    H7  653   2.626   3.413  14.112  0.7710 -0.0353 -1.9413
   43MPD2     C  654   3.719   1.147   1.090  0.0258 -0.3198  0.0245
   43MPD2    C1  655   3.835   1.189   1.023 -0.2669 -0.7617 -0.4829
   43MPD2    C2  656   3.870   1.324   1.021  0.2971 -0.0262 -0.7356
   43MPD2    C3  657   3.781   1.417   1.069  0.5611 -0.4269  0.6082
   43MPD2    C4  658   3.666   1.375   1.141  0.6819 -0.3323 -0.5135
   43MPD2    C5  659   3.635   1.244   1.146  0.4201 -0.5824  0.5772
   43MPD2     H  660   3.964   1.349   0.975  0.3139  1.7485  0.2766
   43MPD2    H1  661   3.606   1.446   1.197  1.5604  0.2408 -0.3008
   43MPD2    H2  662   3.681   1.045   1.093 -1.3082  0.2337  1.8176
   43MPD2    H3  663   3.542   1.225   1.197  0.0921 -1.5861 -0.3995
   43MPD2     N  664   3.793   1.553   1.042  0.2214  0.1284  0.0751
   43MPD2    H5  665   3.717   1.608   1.080 -0.3350  0.0524 -0.9147
   43MPD2    N1  666   3.925   1.098   0.966 -0.5405 -0.5293  0.1665
   43MPD2    H7  667   4.011   1.138   0.929 -0.9426 -0.2201 -0.4326
   44TCq2    C1  668   4.110   2.039   0.896  0.4611 -0.2049  0.7531
   44TCq2    O2  669   4.195   1.990   0.826 -0.3074 -0.2372 -0.6538
   44TCq2    C2  670   3.993   1.958   0.930 -0.2939  0.0391  0.4844
   44TCq2    C3  671   3.865   2.012   0.930 -0.3523 -0.3536 -0.4249
   44TCq2    C4  672   3.753   1.940   0.961  0.6185 -0.0532 -0.3580
   44TCq2    C5  673   3.766   1.809   0.988  0.3055  0.0925 -0.1996
   44TCq2    C6  674   3.892   1.754   0.973  0.2411 -0.3456 -0.0106
   44TCq2    C7  675   4.006   1.823   0.939  0.3526  0.2612 -0.2341
   44TCq2    C8  676   3.897   1.612   0.970  0.0973 -0.4505  0.1999
   44TCq2    O4  677   3.986   1.558   0.906  0.5330 -0.2395 -0.1231
   44TCq2    C9  678   3.628   2.000   0.948  0.1590  0.8650  0.3329
   44TCq2    O5  679   3.613   2.122   0.972 -0.3325 -0.5043  0.1269
   44TCq2    O6  680   3.534   1.921   0.959 -0.3093  0.2337 -0.5083
   44TCq2    H2  681   3.847   2.113   0.895  0.0358  0.8850  2.8878
   44TCq2    H3  682   3.673   1.753   1.000  0.9444 -0.9067  0.0693
   44TCq2    H4  683   4.102   1.772   0.934 -0.0054 -0.6148  2.0994
   45TMC2    C1  684   0.770   2.932  10.213 -1.0838 -0.5265  0.0646
   45TMC2    C2  685   0.882   2.857  10.180  0.1733  0.0500  0.8398
   45TMC2    C3  686   1.000   2.927  10.194 -0.0873 -0.2461  0.4493
   45TMC2    C4  687   0.768   3.051  10.280 -0.5411  0.0598  0.4902
   45TMC2    C5  688   0.891   3.116  10.288 -0.5535 -0.3088  0.1535
   45TMC2    C6  689   1.001   3.059  10.237  0.0271  0.0397  0.5322
   45TMC2     C  690   0.658   2.926  10.122  0.4865 -0.1628  0.4604
   45TMC2     O  691   0.611   3.033  10.090  0.2451 -0.0526  0.2105
   45TMC2     H  692   0.877   2.755  10.143 -2.0601  0.7009 -0.5867
   45TMC2    H1  693   0.678   3.105  10.308 -2.6961 -2.2659 -1.9680
   45TMC2    H2  694   1.096   3.112  10.231  0.0847 -0.1371 -0.1157
   45TMC2    C7  695   0.893   3.253  10.312 -0.4785 -0.1166 -0.1327
   45TMC2    C8  696   1.117   2.864  10.126  0.0080  0.2325 -0.1764
   45TMC2    O1  697   0.812   3.298  10.391 -0.0051 -0.0398 -0.0540
   45TMC2    O2  698   1.125   2.741  10.123 -0.2581  0.7463  0.1046
   45TMC2    O5  699   1.153   2.941  10.022  0.1256 -0.3002 -0.0787
   45TMC2    H5  700   1.109   3.029  10.022  2.3577  0.8425  0.3029
   46MPD2     C  701   0.575   2.629   9.914  0.4713  1.2277  0.1226
   46MPD2    C1  702   0.558   2.758   9.966  0.3952 -0.7326  0.0822
   46MPD2    C2  703   0.464   2.841   9.909 -0.8758 -0.1436 -0.1527
   46MPD2    C3  704   0.381   2.793   9.813 -0.1870 -0.5229 -0.2313
   46MPD2    C4  705   0.396   2.664   9.759  0.1913 -0.2276 -0.0576
   46MPD2    C5  706   0.504   2.590   9.803  0.7273  0.0080 -0.4444
   46MPD2     H  707   0.457   2.945   9.935 -0.9769  0.4578 -2.5451
   46MPD2    H1  708   0.336   2.630   9.676  0.9037 -0.4123 -0.5041
   46MPD2    H2  709   0.639   2.554   9.959  0.5089 -0.6566 -3.0076
   46MPD2    H3  710   0.511   2.490   9.762 -0.4472  0.7785 -2.5052
   46MPD2     N  711   0.278   2.878   9.762  0.3671  0.1548 -0.5188
   46MPD2    H5  712   0.264   2.970   9.802 -1.6343 -1.6397  2.9934
   46MPD2    N1  713   0.656   2.798  10.063  0.2761  0.0787  0.1212
   46MPD2    H7  714   0.710   2.724  10.106 -0.5325 -0.0945  0.8493
   47TMC2    C1  715   3.316   4.108   9.790 -0.6118  0.0070 -0.1396
   47TMC2    C2  716   3.391   4.060   9.682  1.0114 -0.2426  0.5497
   47TMC2    C3  717   3.312   4.060   9.566 -0.1556  0.0673  0.1661
   47TMC2    C4  718   3.183   4.153   9.788  0.2122 -0.2774  0.1315
   47TMC2    C5  719   3.115   4.142   9.672  0.6293 -0.8688 -0.5101
   47TMC2    C6  720   3.175   4.083   9.566  0.1043  0.6768 -0.3984
   47TMC2     C  721   3.380   4.105   9.915 -0.0730  0.0330  0.8128
   47TMC2     O  722   3.350   4.186  10.002  0.2602  0.1809  0.6314
   47TMC2     H  723   3.497   4.041   9.691  1.3733  1.4850  0.0482
   47TMC2    H1  724   3.136   4.214   9.864 -1.3131 -1.2261 -0.0413
   47TMC2    H2  725   3.120   4.087   9.473  0.4305 -2.3489 -0.6953
   47TMC2    C7  726   2.975   4.173   9.675 -0.8859 -0.4352 -0.3472
   47TMC2    C8  727   3.368   3.979   9.459  0.1693  0.2134  0.0343
   47TMC2    O1  728   2.920   4.221   9.576 -0.2629 -0.2542  0.7927
   47TMC2    O2  729   3.446   3.884   9.476 -0.1202  0.6008 -0.1599
   47TMC2    O5  730   3.322   4.021   9.339 -0.3989  0.4599 -0.0627
   47TMC2    H5  731   3.274   4.106   9.345 -2.4343 -0.4558 -3.4995
   48MPD2     C  732   3.493   3.969  10.172  0.0270  0.2580 -0.0200
   48MPD2    C1  733   3.477   3.912  10.045 -0.0397 -0.0881  0.4671
   48MPD2    C2  734   3.506   3.776  10.036 -0.0894  0.0776  0.0491
   48MPD2    C3  735   3.540   3.698  10.146  0.2374 -0.4117 -0.9591
   48MPD2    C4  736   3.570   3.769  10.262 -0.1627 -0.0695  0.4020
   48MPD2    C5  737   3.545   3.902  10.276 -0.4367  0.3042 -0.2886
   48MPD2     H  738   3.500   3.722   9.942 -2.0452  1.6375 -0.7070
   48MPD2    H1  739   3.604   3.728  10.356 -1.5224  1.0357  1.3830
   48MPD2    H2  740   3.484   4.076  10.186 -2.0086 -0.1077  1.3990
   48MPD2    H3  741   3.561   3.956  10.369 -0.2462 -0.1406 -0.0629
   48MPD2     N  742   3.543   3.555  10.131 -0.2723 -0.0567  0.4439
   48MPD2    H5  743   3.516   3.512  10.043  0.0687  1.3950 -0.3633
   48MPD2    N1  744   3.430   3.977   9.934 -0.7893 -0.0125 -0.0273
   48MPD2    H7  745   3.408   3.916   9.856 -1.6679  1.7040 -1.1265
   49MPD2     C  746   1.828   0.920  10.836  0.5569 -0.4030 -0.7331
   49MPD2    C1  747   1.712   0.941  10.762 -0.1524  0.3349 -0.3881
   49MPD2    C2  748   1.594   0.952  10.834 -0.3002 -0.3651  0.0397
   49MPD2    C3  749   1.588   0.942  10.974 -0.0273 -0.3959 -0.0587
   49MPD2    C4  750   1.705   0.939  11.041 -0.0961  0.5942  0.7062
   49MPD2    C5  751   1.819   0.917  10.971  0.5245  0.3232 -0.0294
   49MPD2     H  752   1.501   0.957  10.780  0.0543 -0.9138 -0.6226
   49MPD2    H1  753   1.715   0.925  11.148 -0.2588  0.6613  0.7298
   49MPD2    H2  754   1.920   0.895  10.785  0.4859  0.9341 -1.5062
   49MPD2    H3  755   1.905   0.892  11.032  1.9262  1.4443 -1.5427
   49MPD2     N  756   1.472   0.949  11.056 -0.6734 -0.4319  0.0452
   49MPD2    H5  757   1.490   0.954  11.156 -0.3739 -0.8886  0.0125
   49MPD2    N1  758   1.707   0.946  10.622 -0.8941  0.4385 -0.5113
   49MPD2    H7  759   1.615   0.941  10.579 -1.2711 -0.4376  0.3807
   50TCq2    C1  760   1.820   0.966  10.550  0.2561  0.0899  0.7090
   50TCq2    O2  761   1.930   1.001  10.585 -0.0807  0.4119 -0.2905
   50TCq2    C2  762   1.784   0.987  10.418 -0.2813  0.2175 -0.4656
   50TCq2    C3  763   1.855   1.088  10.354  0.8291 -0.3972  0.1615
   50TCq2    C4  764   1.851   1.107  10.219 -0.4604  0.1534 -0.3460
   50TCq2    C5  765   1.790   1.014  10.145 -0.5233  0.3631  0.3687
   50TCq2    C6  766   1.722   0.912  10.211  0.0723 -0.3317  0.7575
   50TCq2    C7  767   1.721   0.890  10.348  0.3631  1.0521 -0.1821
   50TCq2    C8  768   1.649   0.823  10.120 -0.2151 -0.1870 -0.5240
   50TCq2    O4  769   1.663   0.836  10.002 -0.7422 -0.3995  0.3351
   50TCq2    C9  770   1.892   1.226  10.147 -0.5441 -0.3381 -0.3161
   50TCq2    O5  771   1.874   1.237  10.027 -0.2127  0.2874  0.2337
   50TCq2    O6  772   1.904   1.326  10.221 -0.1631 -0.6600  0.0480
   50TCq2    H2  773   1.910   1.159  10.414  0.0484 -0.4405  0.9386
   50TCq2    H3  774   1.780   1.026  10.038 -1.7577 -3.3047  0.0477
   50TCq2    H4  775   1.674   0.803  10.393  2.8128 -0.4644 -0.5814
   51MPD2     C  776   1.442   0.015   1.709  0.1937 -0.2190 -0.6978
   51MPD2    C1  777   1.481   4.616   1.753 -0.2275 -0.0777 -0.4488
   51MPD2    C2  778   1.542   4.602   1.875 -0.5587  0.2392  0.1198
   51MPD2    C3  779   1.572   4.718   1.956  0.7754 -0.0885  1.1535
   51MPD2    C4  780   1.522   0.107   1.908 -0.2014 -0.4053  0.1850
   51MPD2    C5  781   1.450   0.118   1.796  0.5200  0.2462  0.1187
   51MPD2     H  782   1.579   4.506   1.909  0.2098  0.3787 -0.3132
   51MPD2    H1  783   1.540   0.201   1.960  0.2348  0.3035 -1.2390
   51MPD2    H2  784   1.370   0.020   1.627 -0.8946  0.9289  0.3275
   51MPD2    H3  785   1.419   0.219   1.770  1.9001  0.2762 -1.4083
   51MPD2     N  786   1.656   4.716   2.074  0.0656 -0.1234 -0.8798
   51MPD2    H5  787   1.706   0.078   2.092 -1.2310  1.0274 -2.8374
   51MPD2    N1  788   1.457   4.499   1.678 -0.4756  0.5432 -0.5652
   51MPD2    H7  789   1.475   4.412   1.727 -0.9568  2.0865  2.3648
   52TCq2    C1  790   1.699   4.599   2.145 -0.1479  0.2272 -0.4843
   52TCq2    O2  791   1.640   4.491   2.134 -0.0598  0.4740  0.2344
   52TCq2    C2  792   1.806   4.615   2.237 -0.0711  0.3713 -0.7800
   52TCq2    C3  793   1.797   4.531   2.350  0.2237  0.2537  0.0505
   52TCq2    C4  794   1.881   4.562   2.455  0.5319 -0.5965 -0.0080
   52TCq2    C5  795   1.962   4.668   2.457 -0.5447 -0.0730 -0.0350
   52TCq2    C6  796   1.963   0.025   2.350 -0.2909  0.3615  0.1038
   52TCq2    C7  797   1.887   4.725   2.237 -0.7071 -0.5879  0.6228
   52TCq2    C8  798   2.050   0.138   2.359 -0.3005 -0.3335 -0.1033
   52TCq2    O4  799   2.079   0.186   2.469  0.5887 -0.5942  0.0085
   52TCq2    C9  800   1.866   4.490   2.578  0.4154  0.4299  0.3773
   52TCq2    O5  801   1.942   4.521   2.669  0.3117 -0.4826 -0.0672
   52TCq2    O6  802   1.793   4.385   2.579 -1.1824 -0.5135 -0.2353
   52TCq2    H2  803   1.752   4.433   2.366  1.5128 -0.6985 -2.0190
   52TCq2    H3  804   2.005   4.695   2.553 -0.6837 -3.1164  0.9002
   52TCq2    H4  805   1.897   0.062   2.149  1.4181 -1.6146  0.1304
   53TMC2    C1  806   1.815   3.243  11.948 -0.5241  0.1338 -0.0610
   53TMC2    C2  807   1.946   3.282  11.979  0.4457  0.1340 -0.2362
   53TMC2    C3  808   1.971   3.359  12.085 -0.1686 -0.2961 -0.0597
   53TMC2    C4  809   1.705   3.296  12.009  0.3512 -0.1642 -0.6389
   53TMC2    C5  810   1.738   3.378  12.109 -0.2884 -0.0004 -0.0707
   53TMC2    C6  811   1.866   3.402  12.153  0.0382 -0.0377 -0.2391
   53TMC2     C  812   1.808   3.139  11.850  0.3063 -0.6047  0.0866
   53TMC2     O  813   1.915   3.095  11.806 -0.1334 -0.1565 -0.5540
   53TMC2     H  814   2.026   3.245  11.917  2.5005 -0.1631  2.5920
   53TMC2    H1  815   1.601   3.270  11.990 -0.0613  0.9258  0.1167
   53TMC2    H2  816   1.892   3.477  12.226 -0.5500 -2.0324  2.0387
   53TMC2    C7  817   1.632   3.434  12.191 -0.1660 -0.5870 -0.1648
   53TMC2    C8  818   2.097   3.391  12.141 -0.2244  0.1351 -0.2267
   53TMC2    O1  819   1.524   3.375  12.186  0.1136 -0.0332  0.2571
   53TMC2    O2  820   2.109   3.461  12.243 -0.4867  0.3704 -0.2408
   53TMC2    O5  821   2.189   3.314  12.079  0.0004 -1.3163  0.1307
   53TMC2    H5  822   2.153   3.239  12.028  1.0571 -1.3837 -0.5124
   54MPD2     C  823   1.724   2.885  11.717 -0.1273 -0.3928 -0.3576
   54MPD2    C1  824   1.646   2.959  11.804  0.3024 -0.1081 -0.3121
   54MPD2    C2  825   1.517   2.917  11.824  0.1785 -0.5425  0.5926
   54MPD2    C3  826   1.462   2.803  11.766  0.0234  0.2173 -0.0668
   54MPD2    C4  827   1.533   2.743  11.665  0.1264 -0.3670  0.2492
   54MPD2    C5  828   1.666   2.782  11.643  0.3436  0.3608  0.4151
   54MPD2     H  829   1.461   2.978  11.894 -3.2560 -2.0073 -0.8744
   54MPD2    H1  830   1.501   2.654  11.612 -1.0873 -0.1071  0.5448
   54MPD2    H2  831   1.824   2.917  11.691 -1.1376  2.4922 -0.7046
   54MPD2    H3  832   1.729   2.745  11.563  1.6658  2.1347  0.6272
   54MPD2     N  833   1.337   2.754  11.804  0.4911  0.1296 -0.3139
   54MPD2    H5  834   1.314   2.673  11.747  0.3251  0.3044 -0.4948
   54MPD2    N1  835   1.690   3.077  11.867  0.0105 -0.6882  0.1609
   54MPD2    H7  836   1.619   3.133  11.914 -0.3217 -0.9848  0.0103
   55MPD2     C  837   2.091   1.814   0.222 -0.2551 -0.3434  0.2659
   55MPD2    C1  838   2.030   1.770   0.332 -0.3607  0.0070 -0.4842
   55MPD2    C2  839   1.955   1.853   0.408  0.0855 -0.0256  0.8738
   55MPD2    C3  840   1.960   1.989   0.371  0.1104  0.2127  0.4573
   55MPD2    C4  841   2.028   2.032   0.257 -0.5343  0.3918  0.1141
   55MPD2    C5  842   2.095   1.942   0.182 -0.1949 -0.1058 -0.7269
   55MPD2     H  843   1.889   1.820   0.487 -0.1648 -1.8038 -0.0818
   55MPD2    H1  844   2.019   2.133   0.220  0.5950 -0.4236 -2.3929
   55MPD2    H2  845   2.144   1.741   0.161 -0.6237 -0.3469 -0.0485
   55MPD2    H3  846   2.128   1.964   0.082 -2.6615 -0.9763 -1.7385
   55MPD2     N  847   1.882   2.076   0.439 -0.7322  0.2731 -0.3414
   55MPD2    H5  848   1.821   2.033   0.508 -0.2466 -1.7670 -1.1828
   55MPD2    N1  849   2.037   1.628   0.356  0.2734 -0.0560 -0.0059
   55MPD2    H7  850   2.095   1.575   0.292 -0.4099 -0.2479 -0.4607
   56TCq2    C1  851   1.977   1.559   0.458  0.3925 -0.0262  0.2567
   56TCq2    O2  852   1.903   1.599   0.545 -0.1165 -0.1325 -0.1355
   56TCq2    C2  853   2.020   1.422   0.466  0.1295 -0.5501 -0.5482
   56TCq2    C3  854   2.074   1.352   0.360 -0.3969 -0.2425 -0.0622
   56TCq2    C4  855   2.100   1.220   0.381  0.5742 -0.0664  0.1282
   56TCq2    C5  856   2.100   1.162   0.503  1.2546 -0.1749 -0.1330
   56TCq2    C6  857   2.039   1.231   0.603  0.4504  0.1598 -0.0652
   56TCq2    C7  858   2.002   1.365   0.585  0.5059  0.2389  0.0954
   56TCq2    C8  859   2.091   1.197   0.737  0.6556 -0.7967  0.6362
   56TCq2    O4  860   2.190   1.126   0.732  0.2975 -0.3903  0.2321
   56TCq2    C9  861   2.162   1.148   0.270 -0.3083 -0.9567 -0.0907
   56TCq2    O5  862   2.201   1.025   0.291 -0.2264 -0.2841 -0.1363
   56TCq2    O6  863   2.176   1.218   0.168 -0.7476 -0.3159 -0.4084
   56TCq2    H2  864   2.088   1.389   0.259 -0.6329 -2.1697 -0.7876
   56TCq2    H3  865   2.140   1.063   0.519 -1.3818 -1.0793  0.9043
   56TCq2    H4  866   1.943   1.414   0.662 -2.2004 -2.4216 -0.2909
   57TMC2    C1  867   1.748   2.139  14.291 -0.4417  0.2293 -0.0183
   57TMC2    C2  868   1.869   2.146  14.354 -0.0322 -0.1352  0.0163
   57TMC2    C3  869   1.985   2.137  14.282 -1.2539  0.2124  0.0006
   57TMC2    C4  870   1.738   2.147  14.156 -0.9966 -0.2542  0.3194
   57TMC2    C5  871   1.854   2.130  14.085 -0.6479  0.2493 -0.3798
   57TMC2    C6  872   1.976   2.125  14.148  0.0556  0.1272  0.2638
   57TMC2     C  873   1.621   2.161  14.358 -0.0214 -1.0466 -0.5713
   57TMC2     O  874   1.531   2.188  14.279 -0.3300  0.1002  0.7060
   57TMC2     H  875   1.880   2.152  14.462  1.7399  0.5947 -0.2035
   57TMC2    H1  876   1.649   2.124  14.098 -0.2410 -1.2875 -0.4418
   57TMC2    H2  877   2.060   2.128  14.080 -0.6041 -0.9407 -0.5848
   57TMC2    C7  878   1.840   2.106  13.947 -0.4332 -0.0083  0.4938
   57TMC2    C8  879   2.116   2.156  14.335  0.5978 -0.0511 -0.1355
   57TMC2    O1  880   1.745   2.159  13.889 -0.3890 -0.2737  0.1328
   57TMC2    O2  881   2.218   2.126  14.274 -0.3696  0.1311 -0.2256
   57TMC2    O5  882   2.105   2.240  14.439  0.6620  0.4086 -0.0062
   57TMC2    H5  883   2.014   2.267  14.463 -0.6238 -1.9403 -2.2162
   58MPD2     C  884   1.285   2.187  14.737  0.7307 -0.1056 -0.1801
   58MPD2    C1  885   1.307   2.260  14.625 -0.1019 -0.5856 -0.5949
   58MPD2    C2  886   1.416   2.253  14.545 -0.6801  0.1833 -0.4389
   58MPD2    C3  887   1.516   2.168  14.580 -0.4499  0.9450 -0.1138
   58MPD2    C4  888   1.501   2.092  14.695 -0.3036  0.0537 -0.0707
   58MPD2    C5  889   1.388   2.105  14.772  0.2005  0.6569  0.2845
   58MPD2     H  890   1.419   2.328  14.466 -2.3665  1.2813  0.5519
   58MPD2    H1  891   1.580   2.027  14.733 -0.2383  0.0926 -0.1407
   58MPD2    H2  892   1.201   2.181  14.805 -0.3220 -0.8390 -1.5685
   58MPD2    H3  893   1.384   2.053  14.867  0.1593  0.2622  0.0656
   58MPD2     N  894   1.628   2.158  14.498 -0.4429 -1.2452 -0.5587
   58MPD2    H5  895   1.718   2.124  14.531 -0.6830 -2.0768 -0.7557
   58MPD2    N1  896   1.214   2.362  14.590 -0.2586  0.2095  0.0584
   58MPD2    H7  897   1.258   2.435  14.535 -1.1836  0.0118 -0.9217
   59MPD2     C  898   4.188   1.969  13.458 -0.3884  0.5306 -0.0860
   59MPD2    C1  899   4.168   2.065  13.361  0.3995  0.2232  0.3786
   59MPD2    C2  900   4.236   2.184  13.367 -0.5325 -0.2378  0.2929
   59MPD2    C3  901   4.309   2.211  13.474 -0.1956  0.2911  0.6448
   59MPD2    C4  902   4.311   2.129  13.584  0.0548  0.2990 -1.1964
   59MPD2    C5  903   4.262   2.003  13.567  0.2002  0.6151 -0.1864
   59MPD2     H  904   4.226   2.260  13.290 -0.2390  0.2549  0.7402
   59MPD2    H1  905   4.359   2.166  13.674 -0.7469 -2.8027  0.5359
   59MPD2    H2  906   4.162   1.864  13.455 -2.9155  1.1688  0.0688
   59MPD2    H3  907   4.281   1.926  13.640  0.4990  1.6731  0.8466
   59MPD2     N  908   4.371   2.330  13.498 -0.0994 -0.0911 -0.6868
   59MPD2    H5  909   4.375   2.367  13.593  1.2049 -0.0337 -0.7623
   59MPD2    N1  910   4.089   2.040  13.252  0.2765 -0.5219  0.1820
   59MPD2    H7  911   4.116   2.102  13.176  0.4591 -1.1463 -0.2687
   60TCq2    C1  912   4.007   1.932  13.232 -0.0223  0.3325  0.5907
   60TCq2    O2  913   3.963   1.852  13.316  0.1203  0.2580 -0.2867
   60TCq2    C2  914   3.969   1.912  13.092 -0.4331  0.3627  0.3020
   60TCq2    C3  915   3.863   1.829  13.076  0.3008 -0.6012 -0.4332
   60TCq2    C4  916   3.794   1.832  12.960  0.2119 -0.0511 -0.5893
   60TCq2    C5  917   3.811   1.930  12.868  0.1741  0.0397 -0.7981
   60TCq2    C6  918   3.920   2.008  12.884 -0.7162 -0.2239 -1.0311
   60TCq2    C7  919   4.005   1.999  12.996 -0.1932  0.0245  0.6421
   60TCq2    C8  920   3.960   2.075  12.765 -0.2923  0.1519 -0.1992
   60TCq2    O4  921   4.080   2.085  12.741  0.5696 -0.0685  0.0102
   60TCq2    C9  922   3.711   1.724  12.926  1.0181  0.5979  0.4597
   60TCq2    O5  923   3.694   1.637  13.012  0.0487  1.0203 -0.0041
   60TCq2    O6  924   3.683   1.713  12.805  0.4143  0.6295 -0.5482
   60TCq2    H2  925   3.843   1.749  13.146 -2.6281 -1.7369 -2.5685
   60TCq2    H3  926   3.743   1.947  12.786 -2.1072  1.4376  1.3503
   60TCq2    H4  927   4.089   2.068  13.000  0.6984 -1.0012 -0.6171
   61MPD2     C  928   3.038   3.615  14.949  0.3014  0.5628  0.5382
   61MPD2    C1  929   3.105   3.710  15.026  0.1257 -0.2161  0.4113
   61MPD2    C2  930   3.158   3.819  14.967  0.7282 -0.5152 -0.5291
   61MPD2    C3  931   3.153   3.838  14.834 -0.0063  0.5022 -0.2605
   61MPD2    C4  932   3.103   3.736  14.756  0.6704 -0.5911 -0.6823
   61MPD2    C5  933   3.045   3.629  14.811  0.0327  0.5757  0.0676
   61MPD2     H  934   3.215   3.892  15.023 -0.1418  1.5043 -2.2849
   61MPD2    H1  935   3.115   3.740  14.648  2.0139  1.6744 -0.4618
   61MPD2    H2  936   2.994   3.525  14.990  0.6833 -1.1416 -2.7651
   61MPD2    H3  937   2.998   3.560  14.741 -0.6819 -0.2761  1.3865
   61MPD2     N  938   3.211   3.956  14.782  0.1490 -0.0848  0.2474
   61MPD2    H5  939   3.263   4.022  14.840  1.2015  0.1819 -0.9912
   61MPD2    N1  940   3.114   3.701  15.170  0.2344  0.2063  1.0221
   61MPD2    H7  941   3.161   3.774  15.222 -0.3753  1.9056 -0.7839
   62TCq2    C1  942   3.054   3.611  15.251  0.1416 -1.0462 -0.7522
   62TCq2    O2  943   3.004   3.501  15.225 -0.1831  0.0450 -0.3432
   62TCq2    C2  944   3.057   3.647  15.395 -0.4170  0.4525 -0.3866
   62TCq2    C3  945   3.067   3.555  15.493 -0.8010 -0.1105 -0.2511
   62TCq2    C4  946   3.070   3.593  15.618 -1.0081  0.3247  0.2611
   62TCq2    C5  947   3.047   3.716  15.659 -0.4321 -0.3948  0.1777
   62TCq2    C6  948   3.050   3.808  15.557  0.3640 -0.3393 -1.0430
   62TCq2    C7  949   3.056   3.780  15.429  0.0657 -0.8808  0.6009
   62TCq2    C8  950   3.081   3.948  15.590  0.5611  0.7619 -0.1956
   62TCq2    O4  951   3.089   4.028  15.499 -0.2095 -0.0574  0.4133
   62TCq2    C9  952   3.089   3.495  15.721  0.1308  0.1616  0.5020
   62TCq2    O5  953   3.111   3.541  15.834  0.3057  0.2344 -0.4532
   62TCq2    O6  954   3.112   3.376  15.683  0.5960 -0.0012 -0.1040
   62TCq2    H2  955   3.080   3.452  15.460  0.7681 -0.2971  0.9706
   62TCq2    H3  956   3.025   3.731  15.763 -1.6180  3.0593 -0.5814
   62TCq2    H4  957   3.064   3.855  15.352  0.0883  0.6476  2.1054
   63TMC2    C1  958   2.842   3.648  11.052  0.1170  0.6290  0.5288
   63TMC2    C2  959   2.978   3.637  11.027  0.3296  0.0437  0.4401
   63TMC2    C3  960   3.034   3.709  10.927  0.3956 -0.2417 -0.7335
   63TMC2    C4  961   2.758   3.725  10.980  0.0192 -0.4114 -0.4331
   63TMC2    C5  962   2.815   3.784  10.870 -1.0133  0.9291  0.1818
   63TMC2    C6  963   2.951   3.777  10.849  0.4104 -0.4550  0.8484
   63TMC2     C  964   2.791   3.542  11.136 -0.2594  0.3604  0.4793
   63TMC2     O  965   2.737   3.576  11.243 -0.3410  0.1305 -0.3345
   63TMC2     H  966   3.046   3.583  11.092  1.7327 -0.5853 -1.5509
   63TMC2    H1  967   2.651   3.726  10.998  0.3771  0.1745  1.6107
   63TMC2    H2  968   2.994   3.866  10.803 -2.4091  0.2221 -0.4724
   63TMC2    C7  969   2.734   3.873  10.787  0.1845  0.0422  0.4757
   63TMC2    C8  970   3.178   3.729  10.927 -0.2525  0.3149 -0.4942
   63TMC2    O1  971   2.625   3.906  10.834  0.5425  0.2311  0.2235
   63TMC2    O2  972   3.250   3.701  11.018 -0.6782 -0.0254  0.2083
   63TMC2    O5  973   3.213   3.714  10.798 -0.2225  0.1155 -0.2093
   63TMC2    H5  974   3.136   3.706  10.737 -0.2837 -3.3071  0.3063
   64MPD2     C  975   2.648   3.051  11.158  0.7327  0.2617 -0.0647
   64MPD2    C1  976   2.685   3.076  11.031 -0.4543 -0.1639 -0.2808
   64MPD2    C2  977   2.720   3.206  11.003  0.0363  0.5027  0.5152
   64MPD2    C3  978   2.737   3.306  11.098  0.1988 -0.9382  0.3108
   64MPD2    C4  979   2.703   3.277  11.225 -0.2527 -0.4762  0.4129
   64MPD2    C5  980   2.659   3.148  11.252  0.1353 -1.1406 -0.2613
   64MPD2     H  981   2.739   3.224  10.898 -0.1515 -2.4874 -0.0365
   64MPD2    H1  982   2.708   3.349  11.306  0.6669  0.7485 -0.7337
   64MPD2    H2  983   2.627   2.948  11.182  0.9867 -0.2010 -1.8049
   64MPD2    H3  984   2.639   3.116  11.353 -2.7128 -0.3995 -0.5968
   64MPD2     N  985   2.790   3.431  11.062  0.1352  0.2987 -0.3221
   64MPD2    H5  986   2.822   3.445  10.967 -1.1249 -0.4278 -0.8542
   64MPD2    N1  987   2.693   2.983  10.929 -0.9334 -0.3031 -0.0961
   64MPD2    H7  988   2.741   3.014  10.846 -2.0931 -0.9248 -1.0099
   65MPD2     C  989   4.068   3.185  16.290  0.1054 -0.3442  0.8416
   65MPD2    C1  990   4.087   3.160  16.159  0.5497 -0.1312  0.3516
   65MPD2    C2  991   4.059   3.040  16.100  0.0160  0.3505  0.1794
   65MPD2    C3  992   4.013   2.936  16.169  0.4816  0.4542 -0.2609
   65MPD2    C4  993   3.974   2.963  16.294 -0.4383 -1.4896 -0.3252
   65MPD2    C5  994   3.998   3.085  16.353  0.7704  0.1338  0.1386
   65MPD2     H  995   4.073   3.039  15.992  1.3522  1.0377  0.3369
   65MPD2    H1  996   3.926   2.886  16.353  0.6259 -1.1854  0.9342
   65MPD2    H2  997   4.072   3.281  16.340 -1.2580  0.3916 -0.4554
   65MPD2    H3  998   3.972   3.106  16.456  1.9859 -0.3561  0.5453
   65MPD2     N  999   3.975   2.811  16.110 -0.2295  0.3198  0.1987
   65MPD2    H5 1000   3.920   2.751  16.171 -1.3614  1.3786  0.1968
   65MPD2    N1 1001   4.128   3.265  16.067  0.2599  0.5937  0.2617
   65MPD2    H7 1002   4.155   3.230  15.976  0.2376  2.7306 -0.5688
   66TCq2    C1 1003   4.124   3.398  16.101 -0.3024  0.6299 -0.0625
   66TCq2    O2 1004   4.076   3.450  16.203 -0.2736 -0.5748 -0.2304
   66TCq2    C2 1005   4.167   3.483  15.987 -0.0571  0.1069 -0.5433
   66TCq2    C3 1006   4.190   3.419  15.868  0.3958  0.3425  0.8764
   66TCq2    C4 1007   4.155   3.482  15.750  0.4042  0.1024 -0.0278
   66TCq2    C5 1008   4.111   3.608  15.754 -0.7801  0.8161 -0.1349
   66TCq2    C6 1009   4.091   3.674  15.868  0.0759 -1.1953  0.2602
   66TCq2    C7 1010   4.121   3.612  15.991 -0.2449  0.0844 -0.4504
   66TCq2    C8 1011   4.030   3.805  15.863 -0.2691 -0.0751  0.5400
   66TCq2    O4 1012   4.057   3.869  15.765 -0.6181 -0.0351  0.0331
   66TCq2    C9 1013   4.146   3.409  15.625 -0.6401  0.4379 -0.6322
   66TCq2    O5 1014   4.156   3.285  15.626 -0.6172 -0.5531 -0.1228
   66TCq2    O6 1015   4.087   3.471  15.529 -0.1187  0.5378  0.2608
   66TCq2    H2 1016   4.206   3.313  15.853 -1.8240  0.1295  0.0528
   66TCq2    H3 1017   4.073   3.662  15.668 -0.1775  2.3414  0.5531
   66TCq2    H4 1018   4.117   3.665  16.085 -0.6815 -0.1227 -0.3537
   67MPD2     C 1019   4.273   2.418  14.324  0.0905 -0.1299 -0.3131
   67MPD2    C1 1020   4.191   2.351  14.414 -0.1628 -0.2277 -0.8278
   67MPD2    C2 1021   4.112   2.240  14.369 -0.1994 -0.3708 -0.6828
   67MPD2    C3 1022   4.110   2.213  14.234  0.4114  0.5884  1.0235
   67MPD2    C4 1023   4.194   2.280  14.147 -0.4056  0.6838  0.1320
   67MPD2    C5 1024   4.279   2.381  14.194 -0.3239 -0.2450 -0.6904
   67MPD2     H 1025   4.041   2.197  14.439 -0.1960 -1.3847 -1.3170
   67MPD2    H1 1026   4.208   2.249  14.045 -0.4417  2.1716 -0.3280
   67MPD2    H2 1027   4.325   2.511  14.339  3.4477 -1.7578 -1.8189
   67MPD2    H3 1028   4.337   2.444  14.128  0.1812 -0.5841 -0.5647
   67MPD2     N 1029   4.022   2.120  14.171  0.2048  0.0429  0.0027
   67MPD2    H5 1030   4.045   2.099  14.075  1.4355 -0.1407  0.3403
   67MPD2    N1 1031   4.211   2.377  14.552  0.2202 -0.2123 -0.5079
   67MPD2    H7 1032   4.164   2.315  14.618  0.1211  0.7221  0.3002
   68TCq2    C1 1033   4.279   2.477  14.614  0.0704  0.6126 -0.4841
   68TCq2    O2 1034   4.348   2.570  14.567 -0.1125  0.4364  0.3759
   68TCq2    C2 1035   4.245   2.494  14.755 -0.4108  0.5209 -0.1457
   68TCq2    C3 1036   4.112   2.484  14.793 -0.8750  0.5031  0.7473
   68TCq2    C4 1037   4.082   2.545  14.911  0.4663  0.1050 -0.4960
   68TCq2    C5 1038   4.175   2.616  14.988  0.3294  0.4973  0.1038
   68TCq2    C6 1039   4.307   2.615  14.952 -0.1043  0.2257 -0.2602
   68TCq2    C7 1040   4.341   2.550  14.837  0.7008 -0.7055  0.5058
   68TCq2    C8 1041   4.424   2.648  15.037 -0.9068 -0.0585 -0.0620
   68TCq2    O4 1042   4.532   2.626  14.988 -1.2647 -0.0615 -0.1905
   68TCq2    C9 1043   3.943   2.552  14.937 -0.2444  0.5071 -0.5203
   68TCq2    O5 1044   3.864   2.483  14.866  0.4096  0.1455  0.1584
   68TCq2    O6 1045   3.913   2.652  15.010  0.2472 -0.5728  0.5567
   68TCq2    H2 1046   4.039   2.440  14.727 -1.3606  2.5824 -0.1048
   68TCq2    H3 1047   4.129   2.658  15.077 -0.5634 -0.1434 -0.0558
   68TCq2    H4 1048   4.445   2.540  14.808  0.6234  4.3221 -1.5556
   69TMC2    C1 1049   1.207   4.069  12.916  0.3582 -0.0657  0.0225
   69TMC2    C2 1050   1.081   4.110  12.884  0.1272 -0.6469  0.7459
   69TMC2    C3 1051   1.066   4.185  12.775 -0.2667  0.1192  0.1926
   69TMC2    C4 1052   1.318   4.094  12.838 -0.0546 -0.3435  0.1572
   69TMC2    C5 1053   1.294   4.164  12.723  0.1170  0.1626 -0.4813
   69TMC2    C6 1054   1.170   4.213  12.694  0.0832  0.6980  0.6137
   69TMC2     C 1055   1.208   3.955  13.004 -1.2471  0.2449  0.3469
   69TMC2     O 1056   1.110   3.878  13.011  0.0455 -0.4643 -0.4828
   69TMC2     H 1057   0.994   4.074  12.937  1.1635 -2.6225  1.0900
   69TMC2    H1 1058   1.410   4.041  12.860  0.7180  0.9451  0.0226
   69TMC2    H2 1059   1.149   4.255  12.596  0.0599 -3.9907 -1.4112
   69TMC2    C7 1060   1.411   4.177  12.633 -0.0833  0.2996 -0.6423
   69TMC2    C8 1061   0.938   4.195  12.716 -0.6833  0.5437 -0.0145
   69TMC2    O1 1062   1.505   4.110  12.661  0.3270  0.0000  0.5194
   69TMC2    O2 1063   0.838   4.212  12.787 -0.6365 -0.3589  0.1201
   69TMC2    O5 1064   0.940   4.112  12.616 -0.4501 -0.3321 -0.5623
   69TMC2    H5 1065   1.026   4.069  12.593  0.4527  1.4813 -0.5824
   70MPD2     C 1066   1.506   3.839  13.172  0.4992  0.0318  0.1834
   70MPD2    C1 1067   1.381   3.835  13.127  0.6347  0.2837 -0.0862
   70MPD2    C2 1068   1.309   3.714  13.163  0.1852  0.3708 -0.5371
   70MPD2    C3 1069   1.375   3.609  13.226 -0.4303 -0.3428 -0.9107
   70MPD2    C4 1070   1.510   3.617  13.266 -0.1913 -0.2247 -0.2240
   70MPD2    C5 1071   1.570   3.739  13.243 -0.4095  1.1728  0.6184
   70MPD2     H 1072   1.204   3.702  13.138 -0.2969 -1.8097  2.4870
   70MPD2    H1 1073   1.556   3.536  13.321 -0.7975  0.1756  0.8909
   70MPD2    H2 1074   1.567   3.929  13.170  1.0052 -0.3494 -1.0833
   70MPD2    H3 1075   1.669   3.763  13.280  0.4751 -0.3712 -0.7535
   70MPD2     N 1076   1.323   3.479  13.236  0.3948  0.3209 -0.0515
   70MPD2    H5 1077   1.389   3.402  13.229  2.3602  2.0430 -0.1495
   70MPD2    N1 1078   1.330   3.945  13.056 -0.0506 -0.1277  0.0260
   70MPD2    H7 1079   1.392   4.024  13.045  0.2001 -0.2807  0.3265
   71TMC2    C1 1080   1.893   3.976   2.033 -0.4664 -0.1588 -0.5012
   71TMC2    C2 1081   1.838   3.853   2.061 -0.3269  0.0769 -0.2570
   71TMC2    C3 1082   1.745   3.806   1.974  0.4234  0.3775  0.5822
   71TMC2    C4 1083   1.851   4.050   1.922  0.0866  0.1673  0.4811
   71TMC2    C5 1084   1.768   3.992   1.830 -0.1615  0.3527  0.2311
   71TMC2    C6 1085   1.715   3.865   1.849  0.1597  0.2093 -0.8669
   71TMC2     C 1086   1.942   4.056   2.144 -0.2810  0.9139 -0.0749
   71TMC2     O 1087   1.922   4.015   2.261 -0.8547 -0.2789  0.1212
   71TMC2     H 1088   1.875   3.785   2.138 -0.2930  1.0624  0.5955
   71TMC2    H1 1089   1.900   4.143   1.898 -1.9002  0.6620 -1.6680
   71TMC2    H2 1090   1.662   3.813   1.770  1.1148 -1.1340 -0.6381
   71TMC2    C7 1091   1.757   4.052   1.695 -0.0213 -0.1574  0.4987
   71TMC2    C8 1092   1.729   3.663   2.003 -0.7272  0.3124  0.1993
   71TMC2    O1 1093   1.718   3.978   1.606  0.2725 -0.0477 -0.3026
   71TMC2    O2 1094   1.717   3.622   2.115 -0.3462  0.4562  0.4226
   71TMC2    O5 1095   1.783   3.593   1.906 -0.7592 -0.5778 -0.0846
   71TMC2    H5 1096   1.801   3.644   1.824 -0.4129 -0.1883  0.2361
   72MPD2     C 1097   2.212   4.447   2.334  0.4075  0.2475  0.1441
   72MPD2    C1 1098   2.226   4.440   2.197  0.3776  0.6734  0.5348
   72MPD2    C2 1099   2.159   4.352   2.123 -0.1874  0.4564 -0.3878
   72MPD2    C3 1100   2.083   4.259   2.182 -0.5804 -1.0678 -0.4300
   72MPD2    C4 1101   2.071   4.259   2.320 -0.8609  0.1664  0.2398
   72MPD2    C5 1102   2.134   4.354   2.394 -0.1148 -0.1078 -0.1739
   72MPD2     H 1103   2.177   4.357   2.016 -1.0990  0.2075 -0.5536
   72MPD2    H1 1104   2.011   4.185   2.372 -0.1989  0.0360  0.8135
   72MPD2    H2 1105   2.260   4.517   2.401  1.0315  0.4250 -0.4932
   72MPD2    H3 1106   2.131   4.355   2.502 -0.5518  1.4205 -0.2005
   72MPD2     N 1107   2.020   4.158   2.102  0.1326 -0.5242 -0.2975
   72MPD2    H5 1108   2.042   4.160   2.003  0.7695 -2.9992 -0.2025
   72MPD2    N1 1109   2.308   4.533   2.123  0.3678  0.4004 -0.2735
   72MPD2    H7 1110   2.322   4.515   2.024  4.3240  1.1272  0.1454
   73TMC2    C1 1111   3.635   1.073  14.116 -0.6429  0.1815 -0.0102
   73TMC2    C2 1112   3.565   1.159  14.198  0.3661 -0.4991  0.1362
   73TMC2    C3 1113   3.610   1.190  14.323 -1.0033 -0.7059  0.0724
   73TMC2    C4 1114   3.764   1.027  14.160  0.4406  1.3407  0.2121
   73TMC2    C5 1115   3.814   1.081  14.273  0.4350  0.2760  0.9942
   73TMC2    C6 1116   3.735   1.148  14.366 -0.7651  0.1418 -0.3497
   73TMC2     C 1117   3.653   1.131  13.983  0.4937 -0.3140 -0.3580
   73TMC2     O 1118   3.768   1.167  13.957 -0.3307 -0.1931 -0.5416
   73TMC2     H 1119   3.470   1.193  14.158  1.3247  0.3098 -1.4445
   73TMC2    H1 1120   3.817   0.970  14.085 -1.5012 -0.5950  0.2913
   73TMC2    H2 1121   3.771   1.189  14.460 -1.0337  2.4619 -1.2861
   73TMC2    C7 1122   3.951   1.132  14.254  0.1663 -0.4504 -0.3725
   73TMC2    C8 1123   3.525   1.250  14.419 -0.4267 -0.8473 -0.5524
   73TMC2    O1 1124   4.006   1.157  14.356 -0.0200  0.3662  0.1024
   73TMC2    O2 1125   3.549   1.238  14.540  0.2488 -0.1605 -0.9079
   73TMC2    O5 1126   3.466   1.358  14.369 -0.3754  0.1346  0.0479
   73TMC2    H5 1127   3.469   1.360  14.271 -0.6405 -0.5721  0.0250
   74MPD2     C 1128   3.568   1.080  13.490  0.1523  0.0503 -0.9439
   74MPD2    C1 1129   3.674   1.136  13.551  0.4864 -0.4608 -0.4168
   74MPD2    C2 1130   3.663   1.155  13.692  0.1960 -0.0002  0.0433
   74MPD2    C3 1131   3.556   1.113  13.759  0.1685 -0.7563 -0.0578
   74MPD2    C4 1132   3.444   1.057  13.693 -0.5289  0.5728  0.1381
   74MPD2    C5 1133   3.456   1.043  13.556 -0.1975 -0.0364 -0.4610
   74MPD2     H 1134   3.744   1.196  13.751  1.2613 -0.0944 -1.3392
   74MPD2    H1 1135   3.368   1.009  13.755 -0.7327  0.3191 -0.3097
   74MPD2    H2 1136   3.568   1.068  13.382 -2.0296  2.8713 -1.2616
   74MPD2    H3 1137   3.375   0.991  13.505 -0.1979  0.0415 -0.5388
   74MPD2     N 1138   3.549   1.106  13.901 -0.1774  0.0537 -0.5937
   74MPD2    H5 1139   3.464   1.063  13.936  0.2129  0.6370  1.0296
   74MPD2    N1 1140   3.790   1.164  13.477  0.2227  0.5648  0.0292
   74MPD2    H7 1141   3.793   1.124  13.384  4.6762 -1.5345  1.0807
   75TCq2    C1 1142   3.916   2.048  14.230  0.1765 -0.0734 -0.0429
   75TCq2    O2 1143   3.852   2.057  14.334 -0.9297 -0.1663 -0.8858
   75TCq2    C2 1144   3.873   1.944  14.135 -0.4079 -0.3486  0.2476
   75TCq2    C3 1145   3.965   1.899  14.043  0.0747 -0.1217 -0.2153
   75TCq2    C4 1146   3.926   1.869  13.916 -0.9209  0.4828 -0.3264
   75TCq2    C5 1147   3.795   1.833  13.899  0.4670 -0.1735 -0.3986
   75TCq2    C6 1148   3.706   1.869  13.990 -0.1032 -0.0650  0.0105
   75TCq2    C7 1149   3.743   1.926  14.113 -0.4323  0.7298  0.7584
   75TCq2    C8 1150   3.565   1.852  13.948 -0.4460 -0.7901  0.5478
   75TCq2    O4 1151   3.544   1.841  13.831  0.1858  0.1235  0.3556
   75TCq2    C9 1152   4.022   1.834  13.812 -0.0165 -0.5982 -0.1960
   75TCq2    O5 1153   4.141   1.863  13.833 -0.3102  0.2556  0.5806
   75TCq2    O6 1154   3.978   1.764  13.716  0.3045 -0.2288  0.4652
   75TCq2    H2 1155   4.072   1.902  14.062  0.4574  1.4166 -2.6378
   75TCq2    H3 1156   3.761   1.799  13.802 -0.2261  1.0664 -0.5879
   75TCq2    H4 1157   3.663   1.953  14.180  0.0287  1.0567  1.1795
   76MPD2     C 1158   2.506   3.632  12.477 -0.1537 -0.6494 -0.0589
   76MPD2    C1 1159   2.394   3.571  12.429 -0.1184 -0.9927 -0.0887
   76MPD2    C2 1160   2.409   3.439  12.400 -0.1819 -0.1017 -0.1954
   76MPD2    C3 1161   2.531   3.366  12.415 -0.0082 -0.3611  0.8060
   76MPD2    C4 1162   2.639   3.429  12.470  0.3098 -0.5792 -0.2942
   76MPD2    C5 1163   2.623   3.563  12.501  0.4873 -0.2312 -0.7511
   76MPD2     H 1164   2.317   3.396  12.362 -0.9480  0.9942  0.4511
   76MPD2    H1 1165   2.735   3.380  12.484  0.4641 -0.0270  0.5238
   76MPD2    H2 1166   2.512   3.738  12.501 -1.6638 -0.8465  1.2157
   76MPD2    H3 1167   2.707   3.613  12.547 -1.7740  1.2845  1.7668
   76MPD2     N 1168   2.550   3.231  12.372 -0.0389  0.9328  0.3980
   76MPD2    H5 1169   2.647   3.202  12.376 -0.8321 -1.5847  1.0491
   76MPD2    N1 1170   2.277   3.650  12.386  0.0170  0.2283  0.3883
   76MPD2    H7 1171   2.204   3.593  12.343  0.2824  1.3048 -1.4985
   77TCq2    C1 1172   2.452   3.149  12.322  0.0424 -0.6325 -0.6498
   77TCq2    O2 1173   2.332   3.175  12.316 -0.5274 -0.1993 -0.1740
   77TCq2    C2 1174   2.497   3.027  12.258  0.5152  0.5830 -0.2127
   77TCq2    C3 1175   2.434   2.998  12.134  0.0918 -0.7147  0.0119
   77TCq2    C4 1176   2.485   2.890  12.065 -0.2615 -1.0422  0.1466
   77TCq2    C5 1177   2.595   2.823  12.104  0.4136  0.0119 -0.3343
   77TCq2    C6 1178   2.662   2.865  12.217 -0.0283 -0.0565 -0.8905
   77TCq2    C7 1179   2.611   2.964  12.302 -0.3510  0.2505  0.6254
   77TCq2    C8 1180   2.780   2.791  12.255 -0.1400 -0.1150 -0.2077
   77TCq2    O4 1181   2.811   2.688  12.191 -0.1080  0.5862  0.5645
   77TCq2    C9 1182   2.425   2.856  11.938 -0.3659  0.3582 -0.3557
   77TCq2    O5 1183   2.336   2.934  11.896  0.4079 -0.3867 -0.3485
   77TCq2    O6 1184   2.491   2.780  11.865 -0.0597  0.6459  0.2289
   77TCq2    H2 1185   2.348   3.058  12.106  0.2532 -0.9277 -0.9185
   77TCq2    H3 1186   2.637   2.747  12.039  1.2089  0.6538 -0.5806
   77TCq2    H4 1187   2.627   2.971  12.409 -1.6274  0.4480  0.8051
   78MPD1     C 1188   3.475   0.198   1.757  0.3604  0.3726 -0.2500
   78MPD1    C1 1189   3.475   0.091   1.844 -0.3063  1.0579 -0.3725
   78MPD1    C2 1190   3.594   0.065   1.905 -0.2803  0.0399 -0.3062
   78MPD1    C3 1191   3.700   0.150   1.887  0.3749  0.9185 -0.3657
   78MPD1    C4 1192   3.693   0.251   1.797  0.3687 -0.2484 -0.9068
   78MPD1    C5 1193   3.581   0.280   1.730  0.4303 -0.6295 -0.2591
   78MPD1     H 1194   3.600   4.707   1.975 -1.1612 -0.6420 -1.0361
   78MPD1    H1 1195   3.771   0.326   1.789 -0.1218  0.2323 -1.1135
   78MPD1    H2 1196   3.386   0.214   1.697  0.0913 -0.5480 -0.1035
   78MPD1    H3 1197   3.576   0.356   1.652  0.9816  0.0204  0.3358
   78MPD1     N 1198   3.825   0.126   1.951 -0.0016  0.1428  0.3257
   78MPD1    H5 1199   3.903   0.176   1.908 -0.4095 -0.2620 -0.8775
   78MPD1    N1 1200   3.373   4.724   1.851 -0.0790  0.2694  0.2430
   78MPD1    H6 1201   3.286   0.051   1.842 -0.9341 -1.2807 -0.3837
   78MPD1    H7 1202   3.373   4.677   1.941  0.6275  0.2644  0.2428
   79TCq2    C1 1203   3.849   0.041   2.056  0.3313  0.5666 -0.1054
   79TCq2    O2 1204   3.771   4.696   2.120 -0.0856  0.0904  0.4843
   79TCq2    C2 1205   3.987   0.035   2.096 -0.0823 -0.1506  0.3034
   79TCq2    C3 1206   4.017   0.015   2.226 -0.2172  0.3139  0.3008
   79TCq2    C4 1207   4.152   0.012   2.264  0.2183  0.1721  0.0924
   79TCq2    C5 1208   4.255   0.026   2.174 -0.0865 -0.1678  0.0040
   79TCq2    C6 1209   4.220   0.055   2.048  0.6682 -0.2752 -0.9196
   79TCq2    C7 1210   4.086   0.055   2.004 -0.4302  0.9577  0.4655
   79TCq2    C8 1211   4.332   0.073   1.947 -0.9316 -0.3232  0.0372
   79TCq2    O4 1212   4.444   0.042   1.985 -0.2977 -0.1871 -0.4980
   79TCq2    C9 1213   4.181   0.012   2.401  0.2904 -0.6020  0.0762
   79TCq2    O5 1214   4.299   4.702   2.429 -0.1664 -0.9104 -0.4008
   79TCq2    O6 1215   4.091   0.039   2.480 -0.0216  0.7356 -0.1343
   79TCq2    H2 1216   3.938   0.008   2.300 -1.1963  0.9214 -0.6865
   79TCq2    H3 1217   4.358   0.041   2.207 -1.4631  2.0643  3.2789
   79TCq2    H4 1218   4.051   0.053   1.901 -0.8614 -1.8974  0.6711
   80MPD2     C 1219   1.729   2.978  12.218 -0.4589  0.2278 -0.0357
   80MPD2    C1 1220   1.723   2.841  12.228  0.3013 -0.2449 -0.3990
   80MPD2    C2 1221   1.648   2.786  12.335  0.8415 -0.3187  0.2446
   80MPD2    C3 1222   1.609   2.866  12.440 -0.1550 -0.6949  0.4296
   80MPD2    C4 1223   1.605   3.002  12.421  0.1010 -0.1089  0.1598
   80MPD2    C5 1224   1.667   3.056  12.313  0.4411 -0.2022  0.1870
   80MPD2     H 1225   1.626   2.679  12.331 -2.2596  0.3298 -0.2806
   80MPD2    H1 1226   1.565   3.065  12.500  2.8314  2.4352 -0.5026
   80MPD2    H2 1227   1.777   3.033  12.138  0.0939  2.4003  1.8029
   80MPD2    H3 1228   1.672   3.163  12.299  0.8919 -0.6487 -3.1635
   80MPD2     N 1229   1.568   2.822  12.566  0.2621 -0.6654  0.2938
   80MPD2    H5 1230   1.551   2.893  12.637  1.4704  0.0965 -0.1770
   80MPD2    N1 1231   1.768   2.762  12.121 -0.3315 -0.3971 -0.0200
   80MPD2    H7 1232   1.737   2.665  12.123  1.0993 -0.8378  1.0277
   81TCq2    C1 1233   1.862   2.793  12.022  0.2667 -0.4925  0.2133
   81TCq2    O2 1234   1.938   2.887  12.032 -0.1125 -0.0956  0.3304
   81TCq2    C2 1235   1.879   2.695  11.925  0.1199 -0.4039 -0.2653
   81TCq2    C3 1236   2.004   2.677  11.867  0.6683 -0.1117 -0.4682
   81TCq2    C4 1237   2.023   2.573  11.777 -0.1414 -0.4763 -0.2096
   81TCq2    C5 1238   1.924   2.487  11.732 -0.3607 -0.4585 -0.4746
   81TCq2    C6 1239   1.807   2.505  11.792  0.4640 -0.1757 -0.3125
   81TCq2    C7 1240   1.780   2.603  11.887  0.2837 -0.3074 -0.0701
   81TCq2    C8 1241   1.695   2.429  11.735  0.3529  0.0195 -0.7430
   81TCq2    O4 1242   1.707   2.405  11.619 -0.1683 -0.2390 -0.0687
   81TCq2    C9 1243   2.160   2.560  11.723 -0.2074 -0.4271  0.4525
   81TCq2    O5 1244   2.170   2.484  11.624 -0.0855  0.1791  0.6774
   81TCq2    O6 1245   2.247   2.625  11.777 -0.4550  0.3536  0.0848
   81TCq2    H2 1246   2.075   2.757  11.880 -0.6531  0.9191  0.5160
   81TCq2    H3 1247   1.943   2.418  11.650 -0.4599 -0.9275 -0.0986
   81TCq2    H4 1248   1.680   2.609  11.928  0.5948  0.6889  0.5422
   82MPD2     C 1249   4.026   1.904  10.612 -0.0090  0.4613  0.0148
   82MPD2    C1 1250   4.071   2.029  10.643  0.5852  0.4655 -0.3160
   82MPD2    C2 1251   4.144   2.039  10.764 -0.3596 -0.3443 -0.5448
   82MPD2    C3 1252   4.170   1.930  10.846  0.6390  0.3609 -0.6780
   82MPD2    C4 1253   4.100   1.815  10.818 -0.4853 -0.0756  0.1600
   82MPD2    C5 1254   4.035   1.795  10.702 -0.0615  0.0790  0.2327
   82MPD2     H 1255   4.189   2.131  10.797  0.1389 -0.4964 -0.8024
   82MPD2    H1 1256   4.108   1.734  10.890 -0.4999 -1.5435 -1.4964
   82MPD2    H2 1257   3.988   1.876  10.514 -0.4654  0.4235  0.2036
   82MPD2    H3 1258   3.995   1.695  10.687  2.6664 -1.3229  2.3128
   82MPD2     N 1259   4.249   1.919  10.966 -0.1001 -0.1827 -0.3040
   82MPD2    H5 1260   4.243   1.832  11.017 -0.2209 -0.1938 -0.3368
   82MPD2    N1 1261   4.039   2.143  10.557 -0.0076 -0.1789  0.2110
   82MPD2    H7 1262   3.979   2.126  10.477 -0.0115 -1.6182  0.5213
   83TCq2    C1 1263   4.329   2.016  11.020  0.5126 -0.0673 -0.0782
   83TCq2    O2 1264   4.336   2.134  10.987  0.1430 -0.0107 -0.1046
   83TCq2    C2 1265   4.416   1.977  11.134  0.2618 -0.0856  0.2653
   83TCq2    C3 1266   4.481   2.088  11.197  0.1325  0.6729  0.1504
   83TCq2    C4 1267   4.562   2.052  11.301 -0.7422  0.3719  0.1225
   83TCq2    C5 1268   4.588   1.919  11.333  0.3227  0.3308 -0.1855
   83TCq2    C6 1269   4.521   1.818  11.266  0.2193 -0.4616  0.0151
   83TCq2    C7 1270   4.432   1.842  11.165  0.3102  0.5214  0.5504
   83TCq2    C8 1271   4.545   1.678  11.304 -0.3133  0.4613 -0.0005
   83TCq2    O4 1272   4.579   1.658  11.416 -0.0738  0.5335 -1.0561
   83TCq2    C9 1273   4.622   2.162  11.379 -0.1433 -0.0496 -0.0779
   83TCq2    O5 1274   4.575   2.277  11.374  0.2016 -0.1531  0.1527
   83TCq2    O6 1275   4.705   2.121  11.463 -0.1274  0.1796  0.1159
   83TCq2    H2 1276   4.462   2.192  11.176  2.4838  1.1278  0.3697
   83TCq2    H3 1277   4.665   1.898  11.408  1.0043  2.0913 -0.3849
   83TCq2    H4 1278   4.381   1.769  11.103 -0.1010  0.9723  0.3552
   84TCq2    C1 1279   1.348   0.960  11.018 -0.6619  0.0321  0.4061
   84TCq2    O2 1280   1.301   0.950  10.908  0.2146  0.2586 -0.2616
   84TCq2    C2 1281   1.261   0.989  11.133 -0.2049 -0.1168  0.5692
   84TCq2    C3 1282   1.293   0.932  11.256 -0.2733  0.0220 -0.1740
   84TCq2    C4 1283   1.246   0.989  11.362 -0.4857  0.0000  0.0721
   84TCq2    C5 1284   1.167   1.103  11.362  0.4788  0.1534  0.2033
   84TCq2    C6 1285   1.152   1.158  11.240 -0.5120  0.4526  0.0984
   84TCq2    C7 1286   1.192   1.105  11.124  0.1221  0.1441 -0.3079
   84TCq2    C8 1287   1.078   1.282  11.245 -0.1445 -0.2950  0.1118
   84TCq2    O4 1288   0.994   1.290  11.331 -0.5045  0.3473 -0.0456
   84TCq2    C9 1289   1.278   0.945  11.493  0.2194 -0.4785  0.8705
   84TCq2    O5 1290   1.272   1.022  11.594 -0.0376 -0.1008 -0.2210
   84TCq2    O6 1291   1.283   0.818  11.505 -0.3619  1.1052  0.0055
   84TCq2    H2 1292   1.358   0.845  11.260 -0.8872 -0.4710 -0.8076
   84TCq2    H3 1293   1.125   1.137  11.456 -0.1359  3.4858 -1.3031
   84TCq2    H4 1294   1.181   1.152  11.027  0.0337 -1.8257 -1.2566
   85MPD2     C 1295   1.261   4.164  16.587  0.9634  0.2607  0.4276
   85MPD2    C1 1296   1.247   4.150  16.448  0.6277 -0.1059 -0.0633
   85MPD2    C2 1297   1.338   4.221  16.375 -0.4804  0.6440  0.0491
   85MPD2    C3 1298   1.431   4.305  16.420 -0.1998 -1.0534 -0.3990
   85MPD2    C4 1299   1.430   4.323  16.555  0.0097  0.1555 -0.5757
   85MPD2    C5 1300   1.349   4.251  16.640  0.1121 -0.2740  0.4920
   85MPD2     H 1301   1.327   4.200  16.269 -0.3511  0.7376  0.0165
   85MPD2    H1 1302   1.494   4.400  16.595 -1.1826 -0.5137  2.6370
   85MPD2    H2 1303   1.200   4.117  16.663  0.6771  0.7283  0.4803
   85MPD2    H3 1304   1.358   4.271  16.747 -0.5086  0.3131  0.4351
   85MPD2     N 1305   1.513   4.381  16.329 -0.0526 -0.1783  0.1465
   85MPD2    H5 1306   1.482   4.372  16.233 -1.6459  1.1001  0.5601
   85MPD2    N1 1307   1.156   4.061  16.386  0.1335  1.0140  1.1803
   85MPD2    H7 1308   1.159   4.062  16.284 -1.2483 -1.2815  1.1142
   86TCq2    C1 1309   1.617   4.470  16.359  0.1270 -0.3800 -0.1622
   86TCq2    O2 1310   1.679   4.468  16.464 -0.2423  0.2820 -0.3631
   86TCq2    C2 1311   1.686   4.538  16.247  0.4889 -0.4636  0.2217
   86TCq2    C3 1312   1.766   4.644  16.289 -0.4711  0.7087 -0.8497
   86TCq2    C4 1313   1.841   4.711  16.191 -0.8014  0.3514 -0.8719
   86TCq2    C5 1314   1.841   4.662  16.063  0.8518 -0.5970 -0.2145
   86TCq2    C6 1315   1.754   4.564  16.030  0.3076  0.1694  0.4804
   86TCq2    C7 1316   1.674   4.500  16.119 -0.5524 -0.1475 -0.2722
   86TCq2    C8 1317   1.717   4.549  15.889  0.4815  0.1088 -0.4546
   86TCq2    O4 1318   1.660   4.445  15.863  0.2887  0.2578 -0.1941
   86TCq2    C9 1319   1.940   0.076  16.235  0.3800 -0.3893  0.3030
   86TCq2    O5 1320   1.958   0.088  16.358  0.7018  0.6481  0.3263
   86TCq2    O6 1321   2.000   0.149  16.150  0.3721 -0.0537 -0.3234
   86TCq2    H2 1322   1.758   4.669  16.393 -0.0658 -0.3986 -0.5454
   86TCq2    H3 1323   1.911   4.713  15.997  1.7606 -2.0549 -0.3588
   86TCq2    H4 1324   1.598   4.431  16.085  0.6390 -1.2346 -0.7451
   87MPD2     C 1325   0.344   3.883   1.073 -0.2789 -0.3303  0.1050
   87MPD2    C1 1326   0.284   3.814   1.179  0.0623  0.1791 -0.0040
   87MPD2    C2 1327   0.159   3.862   1.225 -0.5547 -0.4485 -0.6021
   87MPD2    C3 1328   0.103   3.972   1.167 -0.4108 -1.3878 -0.1374
   87MPD2    C4 1329   0.174   4.041   1.070  0.4795  0.4873  0.8608
   87MPD2    C5 1330   0.289   3.993   1.018  0.4181 -0.4921 -0.5751
   87MPD2     H 1331   0.115   3.816   1.313 -1.2451  1.2565 -0.0387
   87MPD2    H1 1332   0.133   4.131   1.025 -1.5841 -0.3568  1.0428
   87MPD2    H2 1333   0.441   3.852   1.035  1.0990  0.1318  3.2521
   87MPD2    H3 1334   0.334   4.051   0.939 -0.2753  2.0021  0.8613
   87MPD2     N 1335   4.705   4.033   1.206  0.5107  0.6904  0.1688
   87MPD2    H5 1336   4.677   4.119   1.161  0.7186 -1.2329 -3.5709
   87MPD2    N1 1337   0.353   3.708   1.239  0.5979 -0.0407 -0.4298
   87MPD2    H7 1338   0.448   3.688   1.209  0.1672 -0.3005 -1.5767
   88TCq2    C1 1339   0.294   3.616   1.313 -0.2630 -0.0548  0.2450
   88TCq2    O2 1340   0.176   3.584   1.315 -0.4205  0.2361  0.5067
   88TCq2    C2 1341   0.386   3.508   1.344 -0.7784  0.3774 -0.3225
   88TCq2    C3 1342   0.513   3.538   1.376 -0.1584  0.3128 -0.0552
   88TCq2    C4 1343   0.607   3.442   1.378  0.5866 -0.2987  0.7242
   88TCq2    C5 1344   0.587   3.317   1.328 -0.4099  0.3655 -1.0663
   88TCq2    C6 1345   0.457   3.287   1.299 -0.3309  0.3555  0.0860
   88TCq2    C7 1346   0.359   3.381   1.307 -0.3228 -0.3069  0.0822
   88TCq2    C8 1347   0.437   3.166   1.216  0.0590 -0.1734 -0.0115
   88TCq2    O4 1348   0.539   3.109   1.187  0.4841 -0.0287  0.0760
   88TCq2    C9 1349   0.735   3.477   1.422  0.2073 -0.4925 -0.2624
   88TCq2    O5 1350   0.831   3.402   1.384  0.1942 -0.0265  0.2363
   88TCq2    O6 1351   0.754   3.573   1.497  0.0292 -0.1195 -0.5684
   88TCq2    H2 1352   0.537   3.639   1.408  1.8353 -0.4290  0.8081
   88TCq2    H3 1353   0.663   3.240   1.323  1.8623  2.5761 -0.4927
   88TCq2    H4 1354   0.251   3.369   1.303 -0.3690  0.1319 -0.0399
   89MPD2     C 1355   4.417   0.782   2.166  0.3024 -0.0978 -0.0235
   89MPD2    C1 1356   4.282   0.771   2.144  0.9025  0.2783 -0.0987
   89MPD2    C2 1357   4.245   0.780   2.006  0.5176 -0.2376  0.2987
   89MPD2    C3 1358   4.332   0.788   1.900 -0.0874  0.4262  0.1717
   89MPD2    C4 1359   4.467   0.782   1.932 -0.4683 -0.5262  0.0764
   89MPD2    C5 1360   4.510   0.787   2.065  0.2677  0.1742  0.7330
   89MPD2     H 1361   4.140   0.781   1.979  1.0232 -0.3805 -1.6940
   89MPD2    H1 1362   4.541   0.784   1.853 -0.7283  0.3670 -0.1495
   89MPD2    H2 1363   4.462   0.796   2.263  0.4308  0.5205 -0.1775
   89MPD2    H3 1364   4.612   0.778   2.099  0.0179 -1.0205  1.1802
   89MPD2     N 1365   4.279   0.775   1.773  0.3144  0.0668  0.7835
   89MPD2    H5 1366   4.178   0.784   1.776  0.3842  0.4203  1.8453
   89MPD2    N1 1367   4.179   0.760   2.241 -0.5133  0.2957 -0.6541
   89MPD2    H7 1368   4.087   0.750   2.199  0.1931 -1.3331 -1.8064
   90TCq2    C1 1369   4.353   0.778   1.656 -0.4734  0.7013 -0.0313
   90TCq2    O2 1370   4.472   0.770   1.634 -0.2062 -0.0633  0.6096
   90TCq2    C2 1371   4.274   0.781   1.532 -0.5613 -0.5589  0.6327
   90TCq2    C3 1372   4.138   0.750   1.543 -0.5347  0.5461 -0.1072
   90TCq2    C4 1373   4.058   0.793   1.450 -0.5194  0.5552 -0.1336
   90TCq2    C5 1374   4.105   0.871   1.349  0.0956  0.0252  0.0790
   90TCq2    C6 1375   4.239   0.892   1.339  0.3819  0.4118  0.2585
   90TCq2    C7 1376   4.327   0.842   1.421 -0.0220 -0.0038 -0.9284
   90TCq2    C8 1377   4.293   0.969   1.225  0.3515 -0.3045 -0.4681
   90TCq2    O4 1378   4.231   1.062   1.175  0.2991  0.2600 -0.1872
   90TCq2    C9 1379   3.924   0.746   1.451  0.1818 -0.0758 -0.3372
   90TCq2    O5 1380   3.846   0.804   1.372  0.2896 -0.0196  0.7752
   90TCq2    O6 1381   3.896   0.650   1.528  0.2025  0.1552 -0.2507
   90TCq2    H2 1382   4.108   0.684   1.624  0.1929  2.5247  1.8113
   90TCq2    H3 1383   4.035   0.908   1.276  1.4027  0.3862 -0.9806
   90TCq2    H4 1384   4.429   0.876   1.439 -0.2376  0.1941 -0.0870
   91TMC2    C1 1385   1.854   1.139  17.242  0.2487 -0.4887  0.1990
   91TMC2    C2 1386   1.812   1.226  17.146 -0.6322 -0.2468  0.0490
   91TMC2    C3 1387   1.683   1.224  17.106 -0.5164 -0.7655 -0.1724
   91TMC2    C4 1388   1.769   1.047  17.296 -0.2884 -0.3825 -0.3340
   91TMC2    C5 1389   1.637   1.041  17.251 -0.1543 -1.0666  0.2357
   91TMC2    C6 1390   1.589   1.132  17.155 -0.0516 -0.2520 -0.1025
   91TMC2     C 1391   1.997   1.104  17.246 -0.1194 -0.3953 -0.2012
   91TMC2     O 1392   2.043   1.045  17.345 -0.1045 -0.1945  0.3530
   91TMC2     H 1393   1.878   1.299  17.101 -1.4289  0.0506 -0.6357
   91TMC2    H1 1394   1.816   0.960  17.339 -2.0554 -0.5379  1.2787
   91TMC2    H2 1395   1.488   1.128  17.118  0.0876 -2.2120 -0.2862
   91TMC2    C7 1396   1.562   0.917  17.270  0.0218  0.3438  0.5719
   91TMC2    C8 1397   1.640   1.306  16.992  0.1618 -0.7018 -0.6782
   91TMC2    O1 1398   1.604   0.844  17.353 -0.4932  0.5528  0.6413
   91TMC2    O2 1399   1.725   1.345  16.910 -0.2822 -0.1583 -0.6463
   91TMC2    O5 1400   1.519   1.359  17.004  0.0845  0.5877  0.2689
   91TMC2    H5 1401   1.468   1.336  17.084 -1.2019 -0.2692 -0.8108
   92MPD2     C 1402   2.267   0.985  17.173  0.2228  0.4074 -0.2200
   92MPD2    C1 1403   2.195   1.083  17.101  0.0325  0.2531  0.1742
   92MPD2    C2 1404   2.254   1.122  16.977 -0.2130 -0.4359 -0.3386
   92MPD2    C3 1405   2.374   1.070  16.928 -0.0204  0.0915  0.1385
   92MPD2    C4 1406   2.434   0.969  16.994 -0.2952  0.6513 -0.4730
   92MPD2    C5 1407   2.378   0.931  17.118  0.2047 -0.2768 -0.1416
   92MPD2     H 1408   2.216   1.201  16.913 -0.6146 -1.8090 -1.8281
   92MPD2    H1 1409   2.521   0.916  16.956 -0.3213  0.4460 -0.2498
   92MPD2    H2 1410   2.227   0.931  17.259 -0.9420  0.5721 -0.6603
   92MPD2    H3 1411   2.420   0.845  17.168 -0.7307 -0.4950  0.2752
   92MPD2     N 1412   2.413   1.114  16.800 -0.2683  0.3011  0.0197
   92MPD2    H5 1413   2.353   1.183  16.754 -0.1954 -0.6971 -1.5687
   92MPD2    N1 1414   2.063   1.130  17.131 -0.0621 -0.2720 -0.5881
   92MPD2    H7 1415   2.012   1.189  17.067 -0.1228  0.3641  0.0433
   93MPD2     C 1416   3.077   1.023  13.939 -0.0460 -0.0843  0.6997
   93MPD2    C1 1417   3.062   0.885  13.953  0.1751  0.9300 -0.3304
   93MPD2    C2 1418   2.938   0.831  13.961  0.2701  0.6398 -0.3195
   93MPD2    C3 1419   2.825   0.909  13.953 -0.3907 -0.4025 -0.1884
   93MPD2    C4 1420   2.840   1.042  13.932 -0.3840 -0.0724  0.7748
   93MPD2    C5 1421   2.966   1.099  13.918 -0.2481  0.2773  0.0237
   93MPD2     H 1422   2.930   0.724  13.978 -2.6137  0.9331  0.0989
   93MPD2    H1 1423   2.750   1.102  13.928  0.3634  1.0431  0.5560
   93MPD2    H2 1424   3.173   1.072  13.940 -0.2106  0.2806 -0.7698
   93MPD2    H3 1425   2.980   1.204  13.898  0.4677  0.6449  2.4720
   93MPD2     N 1426   2.701   0.850  13.961  1.0297 -0.0899  0.0582
   93MPD2    H5 1427   2.701   0.749  13.963 -0.1021 -0.0711  1.2736
   93MPD2    N1 1428   3.164   0.794  13.982 -0.0237  0.1044  0.7544
   93MPD2    H7 1429   3.137   0.697  13.994  0.3665 -0.1763 -0.6638
   94TCq2    C1 1430   3.291   0.839  14.014 -0.0319 -1.1434 -0.2905
   94TCq2    O2 1431   3.353   0.942  14.001 -0.4189  0.5163 -0.4465
   94TCq2    C2 1432   3.378   0.723  14.019  0.2269  0.5489  0.8813
   94TCq2    C3 1433   3.333   0.605  14.071 -0.0174  0.5273  0.3174
   94TCq2    C4 1434   3.402   0.492  14.051 -0.3867  0.5109  0.0304
   94TCq2    C5 1435   3.531   0.497  14.003  0.0446  0.5733 -0.0488
   94TCq2    C6 1436   3.578   0.618  13.948 -0.8571  0.3205  0.6301
   94TCq2    C7 1437   3.495   0.728  13.950  0.0659 -0.5027 -0.0211
   94TCq2    C8 1438   3.724   0.637  13.948 -1.4271  0.0123  0.3906
   94TCq2    O4 1439   3.799   0.555  14.003  0.4787  0.0561  0.6204
   94TCq2    C9 1440   3.349   0.365  14.066  0.2764 -0.5508 -0.2562
   94TCq2    O5 1441   3.223   0.350  14.084  0.7687  0.3505 -0.8229
   94TCq2    O6 1442   3.427   0.269  14.045  0.0429  0.0470 -1.1571
   94TCq2    H2 1443   3.232   0.592  14.109 -1.2703  2.2188 -2.3732
   94TCq2    H3 1444   3.596   0.411  14.003  0.0174  0.5492  0.8903
   94TCq2    H4 1445   3.529   0.823  13.908  0.8451 -2.1121 -3.0111
   95TMC2    C1 1446   3.149   2.688  16.562  0.5944 -0.0653  0.3411
   95TMC2    C2 1447   3.180   2.812  16.618  0.5099  0.5194 -0.5696
   95TMC2    C3 1448   3.185   2.823  16.756 -0.5234  0.8251 -0.8633
   95TMC2    C4 1449   3.139   2.577  16.645  0.3726  0.0339  0.1967
   95TMC2    C5 1450   3.146   2.597  16.780  0.8317  0.4934 -0.1684
   95TMC2    C6 1451   3.157   2.718  16.837  0.3201 -0.3452 -0.1315
   95TMC2     C 1452   3.196   2.672  16.425  0.4928 -0.4436 -0.0416
   95TMC2     O 1453   3.274   2.760  16.383  0.2563 -0.0722 -0.4749
   95TMC2     H 1454   3.187   2.903  16.559  0.2529 -0.7766 -2.5942
   95TMC2    H1 1455   3.124   2.475  16.612  0.2915 -0.4973  1.8576
   95TMC2    H2 1456   3.156   2.733  16.944 -0.8769  1.1575 -0.3529
   95TMC2    C7 1457   3.124   2.481  16.856  0.1733 -1.0201  0.1412
   95TMC2    C8 1458   3.210   2.959  16.812 -0.4696  0.4211 -0.0780
   95TMC2    O1 1459   3.094   2.372  16.806 -0.6704 -0.2171  0.3110
   95TMC2    O2 1460   3.160   3.059  16.764  0.4914  0.1246 -0.6617
   95TMC2    O5 1461   3.256   2.946  16.947 -0.4254  0.2748 -0.8422
   95TMC2    H5 1462   3.289   2.855  16.964  0.1718  1.1468  2.7537
   96MPD2     C 1463   3.291   2.334  16.031 -0.3606  1.2012  0.1053
   96MPD2    C1 1464   3.359   2.450  16.069  0.3115  0.1469  0.7861
   96MPD2    C2 1465   3.308   2.529  16.176 -0.7354 -1.1849  0.5046
   96MPD2    C3 1466   3.202   2.481  16.259 -1.2760 -0.4470  0.0588
   96MPD2    C4 1467   3.142   2.364  16.219 -0.0274 -1.0501  0.3653
   96MPD2    C5 1468   3.182   2.290  16.109  0.0027 -0.4189 -0.6225
   96MPD2     H 1469   3.367   2.611  16.214 -3.3477  0.6250  0.6642
   96MPD2    H1 1470   3.061   2.320  16.276  0.1811  1.5929  2.7263
   96MPD2    H2 1471   3.320   2.269  15.949 -1.6442 -0.4170  0.9357
   96MPD2    H3 1472   3.120   2.204  16.086 -0.5137 -0.5238  1.1810
   96MPD2     N 1473   3.155   2.548  16.370 -0.6001 -0.4112 -0.3647
   96MPD2    H5 1474   3.071   2.504  16.406 -0.5017  1.4629  2.1950
   96MPD2    N1 1475   3.468   2.484  15.986  0.6333  0.5069 -0.7873
   96MPD2    H7 1476   3.492   2.418  15.913  0.5764 -0.7500  0.3307
   97MPD2     C 1477   1.150   4.723   0.905  0.9459  0.0914  0.3123
   97MPD2    C1 1478   1.035   0.069   0.947 -0.0187 -0.4967 -0.2440
   97MPD2    C2 1479   0.945   0.116   0.855  0.4992 -0.0766 -0.1982
   97MPD2    C3 1480   0.974   0.101   0.721 -0.5881 -0.8150 -0.2485
   97MPD2    C4 1481   1.082   0.031   0.677  0.1560  0.6075 -0.9065
   97MPD2    C5 1482   1.170   4.699   0.770 -0.7338 -0.2635  0.2794
   97MPD2     H 1483   0.861   0.173   0.892  0.9560  0.3950  0.1187
   97MPD2    H1 1484   1.109   0.035   0.572  0.9311 -3.8795 -0.8871
   97MPD2    H2 1485   1.226   4.678   0.966  2.2228  1.4369 -0.2730
   97MPD2    H3 1486   1.261   4.647   0.743 -0.4686 -0.6504  1.9064
   97MPD2     N 1487   0.892   0.155   0.619  0.6432 -0.2753  0.4746
   97MPD2    H5 1488   0.923   0.149   0.523  0.3608  1.4848  0.2747
   97MPD2    N1 1489   1.010   0.057   1.088 -0.4598 -0.2050  0.1284
   97MPD2    H7 1490   1.076   0.006   1.146 -0.6464 -1.5084 -0.8204
   98TCq2    C1 1491   0.767   0.212   0.643 -0.1110  0.8185 -0.4268
   98TCq2    O2 1492   0.694   0.198   0.738 -0.7552  0.0416  0.0163
   98TCq2    C2 1493   0.706   0.261   0.523 -0.0587 -0.7605 -0.7093
   98TCq2    C3 1494   0.574   0.274   0.527  0.0370  0.6392  0.0363
   98TCq2    C4 1495   0.514   0.346   0.421  0.6742  0.7739  0.4901
   98TCq2    C5 1496   0.585   0.406   0.322 -0.2688 -0.0129  0.5324
   98TCq2    C6 1497   0.720   0.391   0.325 -0.1567  0.7666 -1.4976
   98TCq2    C7 1498   0.782   0.307   0.417 -0.6497 -0.0197 -0.2202
   98TCq2    C8 1499   0.801   0.514   0.308 -0.1509  0.1127 -0.3711
   98TCq2    O4 1500   0.888   0.532   0.387  0.1577  0.0953  0.0419
   98TCq2    C9 1501   0.372   0.350   0.432 -0.6845 -0.1562 -0.5862
   98TCq2    O5 1502   0.307   0.385   0.330  0.2001  0.1239 -0.3417
   98TCq2    O6 1503   0.317   0.287   0.523 -0.4185 -0.2813 -0.3697
   98TCq2    H2 1504   0.515   0.213   0.595 -0.9613  0.1167 -1.3066
   98TCq2    H3 1505   0.534   0.469   0.250  1.8977  0.4111 -0.6346
   98TCq2    H4 1506   0.890   0.305   0.418 -0.6189  0.8216 -1.8983
   99MPD2     C 1507   4.329   2.497   0.818 -0.3030 -0.0526  0.3566
   99MPD2    C1 1508   4.241   2.503   0.924  0.4304  0.0633 -0.6285
   99MPD2    C2 1509   4.158   2.396   0.950 -0.7704  0.0928  0.4141
   99MPD2    C3 1510   4.173   2.278   0.882  0.5105 -0.1603 -0.1470
   99MPD2    C4 1511   4.271   2.262   0.785  0.2253  0.0946 -0.1059
   99MPD2    C5 1512   4.344   2.378   0.753  1.0592 -0.3561 -0.4426
   99MPD2     H 1513   4.076   2.399   1.020 -1.0139 -1.4789  0.2048
   99MPD2    H1 1514   4.302   2.169   0.740 -0.5703 -0.0906 -0.2666
   99MPD2    H2 1515   4.400   2.574   0.789 -0.9240  1.0650  1.8101
   99MPD2    H3 1516   4.419   2.356   0.678  1.1434 -2.5329  0.2729
   99MPD2     N 1517   4.083   2.174   0.923 -0.6381  0.1877  0.0389
   99MPD2    H5 1518   4.005   2.198   0.985 -3.2752 -0.5303 -3.0211
   99MPD2    N1 1519   4.223   2.624   0.998  0.7452  0.2199 -0.3546
   99MPD2    H7 1520   4.160   2.619   1.077 -1.7509  2.3697 -2.2231
  100TCq2    C1 1521   4.288   2.741   0.984 -0.2061 -0.1071 -0.6824
  100TCq2    O2 1522   4.388   2.760   0.916  0.1228 -0.0498  0.2552
  100TCq2    C2 1523   4.270   2.832   1.095 -0.0859 -0.4669  0.5455
  100TCq2    C3 1524   4.382   2.906   1.128 -0.6443  0.5358  0.6916
  100TCq2    C4 1525   4.372   2.993   1.232 -0.6414  0.1751 -0.6103
  100TCq2    C5 1526   4.253   3.017   1.296  0.4673 -0.5110  0.1789
  100TCq2    C6 1527   4.141   2.943   1.251 -0.4050 -0.3289 -0.4416
  100TCq2    C7 1528   4.148   2.847   1.158  0.2297 -0.0880  0.3819
  100TCq2    C8 1529   4.019   2.976   1.309  0.8373 -0.6826  0.2506
  100TCq2    O4 1530   4.014   3.090   1.364 -0.3138  0.5877  0.0335
  100TCq2    C9 1531   4.485   3.063   1.278  0.4139  0.3812  0.5785
  100TCq2    O5 1532   4.590   3.062   1.210 -0.1017 -0.2399  0.2387
  100TCq2    O6 1533   4.484   3.107   1.396  0.2048 -0.0422 -0.3929
  100TCq2    H2 1534   4.482   2.889   1.090 -1.5931 -2.0515 -0.6022
  100TCq2    H3 1535   4.244   3.092   1.374 -1.0198  0.3376 -0.8245
  100TCq2    H4 1536   4.057   2.796   1.126 -0.0166  0.1168  0.7638
  101MPD2     C 1537   4.383   3.360  13.116 -0.2609  0.6206 -0.1241
  101MPD2    C1 1538   4.497   3.347  13.188 -0.1090 -0.6346  0.4697
  101MPD2    C2 1539   4.517   3.231  13.266 -0.8292 -0.3263  0.0767
  101MPD2    C3 1540   4.433   3.130  13.258 -0.6228 -0.3205  0.0106
  101MPD2    C4 1541   4.318   3.146  13.188  0.0549 -1.0357  0.6090
  101MPD2    C5 1542   4.291   3.260  13.122  0.6459  0.0973  0.0361
  101MPD2     H 1543   4.600   3.224  13.335 -0.5978  0.8754 -0.0856
  101MPD2    H1 1544   4.245   3.066  13.176  0.3243 -1.3522  1.0658
  101MPD2    H2 1545   4.351   3.449  13.062 -3.1441  1.2694  2.6004
  101MPD2    H3 1546   4.202   3.264  13.061  1.0081 -2.0455 -0.6421
  101MPD2     N 1547   4.462   3.004  13.325  0.6151 -0.3566 -0.2736
  101MPD2    H5 1548   4.524   3.013  13.405 -0.7151  0.4889  0.6629
  101MPD2    N1 1549   4.582   3.462  13.188 -0.2473  0.1628 -0.2792
  101MPD2    H7 1550   4.542   3.549  13.156 -1.7016 -0.7594 -0.9493
  102TCq2    C1 1551   0.401   3.664  13.134  0.5749  0.9865 -0.3365
  102TCq2    O2 1552   0.466   3.561  13.159  0.1004  0.1413 -0.0179
  102TCq2    C2 1553   0.275   3.681  13.200  0.8623  0.6206 -0.4065
  102TCq2    C3 1554   0.218   3.806  13.216 -0.7292 -0.5450  0.1740
  102TCq2    C4 1555   0.084   3.826  13.250 -0.2102 -0.0010 -0.4008
  102TCq2    C5 1556   0.007   3.706  13.254 -0.0331 -0.2546 -0.0425
  102TCq2    C6 1557   0.068   3.583  13.230  0.4856  0.3622  0.3030
  102TCq2    C7 1558   0.202   3.569  13.218  0.1237  0.3153  0.1624
  102TCq2    C8 1559   4.716   3.461  13.236 -0.1114 -0.1282 -0.1632
  102TCq2    O4 1560   0.050   3.362  13.266  0.0374  0.0285  0.3178
  102TCq2    C9 1561   0.036   3.962  13.260  1.0908  0.4782  0.3498
  102TCq2    O5 1562   4.644   3.963  13.308 -0.4216  0.1867 -0.2521
  102TCq2    O6 1563   0.110   4.053  13.216  0.3216  0.1602 -0.1572
  102TCq2    H2 1564   0.270   3.900  13.202 -0.6533 -0.7820 -1.1107
  102TCq2    H3 1565   4.624   3.717  13.254 -0.0472 -0.3149  1.0990
  102TCq2    H4 1566   0.246   3.470  13.210  0.5825  0.5460 -0.1741
  103TMC2    C1 1567   3.169   3.055  12.907 -0.5545 -0.0028 -0.1790
  103TMC2    C2 1568   3.273   2.979  12.955 -0.2665  0.1945 -0.0183
  103TMC2    C3 1569   3.293   2.975  13.087  0.4684 -1.3046 -0.2978
  103TMC2    C4 1570   3.083   3.117  12.992  0.3973  0.2812  0.3509
  103TMC2    C5 1571   3.090   3.095  13.125 -0.6847  0.3558 -0.1504
  103TMC2    C6 1572   3.202   3.029  13.177 -0.4624 -0.5034  0.4699
  103TMC2     C 1573   3.126   3.028  12.777 -0.5893 -0.2655  0.2489
  103TMC2     O 1574   3.060   3.110  12.716  0.4871 -0.4179 -0.0297
  103TMC2     H 1575   3.341   2.923  12.891  1.0380  0.6594  0.9651
  103TMC2    H1 1576   2.990   3.138  12.941 -0.8775 -0.9460  2.1735
  103TMC2    H2 1577   3.216   3.021  13.284  4.4289  3.2482  0.1303
  103TMC2    C7 1578   2.974   3.121  13.206 -0.1587 -0.2790 -0.5236
  103TMC2    C8 1579   3.390   2.880  13.140 -0.6484  0.1250  0.1469
  103TMC2    O1 1580   2.993   3.119  13.326 -0.5193 -0.3854 -0.3154
  103TMC2    O2 1581   3.386   2.843  13.259 -0.2982 -0.1861 -0.8674
  103TMC2    O5 1582   3.506   2.904  13.066  0.1040  0.4542 -0.0641
  103TMC2    H5 1583   3.509   2.952  12.980  1.6739 -0.8306 -0.7134
  104MPD2     C 1584   3.159   2.707  12.597 -0.0707  0.1558 -0.0666
  104MPD2    C1 1585   3.109   2.833  12.622 -0.1794  0.2207 -0.2742
  104MPD2    C2 1586   3.013   2.881  12.536 -0.2803  0.0583 -0.0683
  104MPD2    C3 1587   2.973   2.819  12.421 -0.0956 -0.4750 -0.1402
  104MPD2    C4 1588   3.025   2.694  12.402 -0.3992  0.0455 -0.2827
  104MPD2    C5 1589   3.120   2.642  12.485 -0.5576 -0.2582 -0.3731
  104MPD2     H 1590   2.968   2.980  12.544 -0.8223 -0.1181 -0.9274
  104MPD2    H1 1591   2.991   2.634  12.318 -0.0816  0.0206 -0.3937
  104MPD2    H2 1592   3.223   2.651  12.664 -0.3023 -0.2412 -0.1741
  104MPD2    H3 1593   3.146   2.537  12.477 -0.0892 -0.2427  1.0793
  104MPD2     N 1594   2.847   2.862  12.353  0.3119 -0.6485  0.0161
  104MPD2    H5 1595   2.802   2.948  12.380 -2.2282 -2.1734  0.6616
  104MPD2    N1 1596   3.155   2.898  12.740  0.4545 -0.3132  0.1170
  104MPD2    H7 1597   3.210   2.837  12.799  0.4686  0.3298  0.7733
  105MPD2     C 1598   0.492   2.576  17.529 -0.2627  0.9681 -0.2714
  105MPD2    C1 1599   0.373   2.598  17.592  0.2047  0.3104  0.0843
  105MPD2    C2 1600   0.377   2.602   0.030 -0.7833 -0.2612  0.0581
  105MPD2    C3 1601   0.497   2.571   0.099 -0.2315  0.9396  0.5052
  105MPD2    C4 1602   0.609   2.541   0.029 -0.2966  0.4616 -0.4429
  105MPD2    C5 1603   0.606   2.548  17.596 -0.2201 -0.7611  0.8323
  105MPD2     H 1604   0.299   2.613   0.105 -0.5095  1.3120  0.1056
  105MPD2    H1 1605   0.709   2.536   0.072  0.1321 -0.7608 -1.5956
  105MPD2    H2 1606   0.514   2.607  17.427 -0.8255  0.5724 -0.5159
  105MPD2    H3 1607   0.701   2.541  17.543 -2.2776 -1.6867 -2.7372
  105MPD2     N 1608   0.495   2.582   0.239 -0.8425  0.2436  0.4932
  105MPD2    H5 1609   0.418   2.633   0.282 -1.5225  0.6353 -1.1988
  105MPD2    N1 1610   0.253   2.616  17.519 -0.0704  0.0350 -0.6889
  105MPD2    H7 1611   0.165   2.625  17.569  0.1336 -1.0463 -0.1202
  106TCq2    C1 1612   0.595   2.543   0.325 -0.6486 -0.5609 -0.3425
  106TCq2    O2 1613   0.682   2.462   0.307  0.3996 -0.3949 -0.0989
  106TCq2    C2 1614   0.583   2.594   0.457  0.7281 -0.0095 -0.2668
  106TCq2    C3 1615   0.621   2.504   0.561  0.3174  0.1539 -0.4092
  106TCq2    C4 1616   0.606   2.552   0.687  1.1824 -0.4522  0.1136
  106TCq2    C5 1617   0.542   2.667   0.711  0.1732  0.0279  0.2084
  106TCq2    C6 1618   0.500   2.745   0.606  0.3164 -0.5978  0.1399
  106TCq2    C7 1619   0.526   2.719   0.474  0.1215 -0.5538  0.0392
  106TCq2    C8 1620   0.394   2.849   0.635 -0.2869  0.0438 -0.3656
  106TCq2    O4 1621   0.307   2.876   0.550 -0.1333  0.1677 -0.3851
  106TCq2    C9 1622   0.636   2.470   0.794  0.1183  0.3662  0.0629
  106TCq2    O5 1623   0.615   2.517   0.906 -0.0425 -0.4894  0.1627
  106TCq2    O6 1624   0.636   2.346   0.768 -0.1234  0.1947 -1.0298
  106TCq2    H2 1625   0.660   2.405   0.537 -0.6844  0.1579 -2.0572
  106TCq2    H3 1626   0.500   2.687   0.809  0.7902 -0.4689  0.5721
  106TCq2    H4 1627   0.500   2.785   0.392  2.4117 -2.5937 -2.3424
  107TMC2    C1 1628   0.566   1.910  11.586  0.0782  0.1467  0.2851
  107TMC2    C2 1629   0.495   1.983  11.492  0.6170  0.4597 -0.3399
  107TMC2    C3 1630   0.507   1.948  11.359 -0.3631  0.4185 -0.4784
  107TMC2    C4 1631   0.660   1.821  11.542  0.1493 -0.5915 -0.2829
  107TMC2    C5 1632   0.677   1.798  11.409  0.2920 -0.1425 -0.0195
  107TMC2    C6 1633   0.600   1.860  11.318  0.4212  0.1704 -0.2676
  107TMC2     C 1634   0.516   1.903  11.726  0.1275 -0.5023 -0.5401
  107TMC2     O 1635   0.563   1.822  11.803 -0.5290  0.5215  0.3448
  107TMC2     H 1636   0.421   2.054  11.526 -1.0545 -0.6860 -1.6428
  107TMC2    H1 1637   0.722   1.765  11.611 -1.4268 -0.0990  1.5387
  107TMC2    H2 1638   0.604   1.835  11.213 -1.2263  0.4716 -0.4029
  107TMC2    C7 1639   0.772   1.702  11.361 -0.1530  0.3958 -0.0449
  107TMC2    C8 1640   0.424   2.003  11.256  0.0743 -0.4727  0.6032
  107TMC2    O1 1641   0.807   1.610  11.434 -0.5987 -0.4131 -0.2259
  107TMC2    O2 1642   0.431   1.977  11.137 -0.0190  0.6127  0.2420
  107TMC2    O5 1643   0.313   2.061  11.308 -0.1857 -0.4090 -0.1339
  107TMC2    H5 1644   0.293   2.042  11.402 -0.2145  2.0214  0.3632
  108MPD2     C 1645   0.228   2.087  11.866  0.5296 -0.0362 -0.1545
  108MPD2    C1 1646   0.324   1.994  11.863  0.0068  0.2554 -0.4598
  108MPD2    C2 1647   0.348   1.913  11.976 -0.0033  0.1003 -0.3425
  108MPD2    C3 1648   0.270   1.929  12.087  0.5672 -0.1172  0.6409
  108MPD2    C4 1649   0.175   2.027  12.088 -0.6352 -0.0815 -0.4018
  108MPD2    C5 1650   0.150   2.104  11.977 -0.0849 -0.0876  0.4354
  108MPD2     H 1651   0.423   1.835  11.975  1.3963  1.4325  0.6026
  108MPD2    H1 1652   0.121   2.043  12.181  0.1025 -1.5318  0.2858
  108MPD2    H2 1653   0.197   2.139  11.776  1.2128  2.1227  0.8524
  108MPD2    H3 1654   0.066   2.172  11.978 -1.3159 -1.5802 -1.5357
  108MPD2     N 1655   0.276   1.845  12.204  0.5679 -0.4312  0.0727
  108MPD2    H5 1656   0.209   1.869  12.277 -0.9946  0.0717 -1.4999
  108MPD2    N1 1657   0.397   1.977  11.743 -0.3347  0.8748  0.1623
  108MPD2    H7 1658   0.364   2.035  11.667 -0.7192 -0.4263 -0.6528
  109MPD2     C 1659   0.277   4.091   1.849  0.0961 -0.3284  0.0975
  109MPD2    C1 1660   0.384   4.177   1.806  0.3646  0.3633  0.0214
  109MPD2    C2 1661   0.517   4.136   1.814  0.5015 -0.6940  0.0757
  109MPD2    C3 1662   0.554   4.010   1.862 -0.3928 -0.3669  0.9870
  109MPD2    C4 1663   0.449   3.929   1.900 -0.3195 -0.2016  0.1862
  109MPD2    C5 1664   0.312   3.967   1.895 -0.3866  0.2644 -0.1493
  109MPD2     H 1665   0.601   4.203   1.801  0.1203 -0.4338 -1.0032
  109MPD2    H1 1666   0.474   3.828   1.930  0.1992  0.3523  1.6241
  109MPD2    H2 1667   0.173   4.117   1.841 -0.2862 -1.7769  0.3914
  109MPD2    H3 1668   0.230   3.902   1.922  1.4050 -0.7460  2.8667
  109MPD2     N 1669   0.689   3.977   1.879  0.0612  0.2240  0.2295
  109MPD2    H5 1670   0.757   4.044   1.845 -0.4413  0.3767 -0.4869
  109MPD2    N1 1671   0.346   4.308   1.760  0.5912 -0.0500 -0.9700
  109MPD2    H7 1672   0.251   4.340   1.780  1.7258  0.8243  2.9521
  110TCq2    C1 1673   0.738   3.871   1.943  0.7272  0.4746  0.8462
  110TCq2    O2 1674   0.688   3.798   2.025  0.5242 -0.1817 -0.1997
  110TCq2    C2 1675   0.880   3.864   1.929 -0.6017  0.1649  0.3693
  110TCq2    C3 1676   0.951   3.828   2.043  0.1016 -0.7470  0.2147
  110TCq2    C4 1677   1.061   3.899   2.084 -0.2311  1.0852  0.1994
  110TCq2    C5 1678   1.106   3.999   2.010 -0.3809 -0.1047 -1.4143
  110TCq2    C6 1679   1.045   4.034   1.894  0.2292  0.4699  0.6780
  110TCq2    C7 1680   0.936   3.967   1.853 -0.5446 -0.6234  0.2801
  110TCq2    C8 1681   1.080   4.163   1.830  0.2991  0.4034 -0.0322
  110TCq2    O4 1682   1.025   4.198   1.725 -0.2433 -0.1002  0.5947
  110TCq2    C9 1683   1.114   3.884   2.214  0.3090  0.5770  0.1224
  110TCq2    O5 1684   1.075   3.796   2.294  0.1550  0.3304  0.1254
  110TCq2    O6 1685   1.193   3.978   2.253  0.1620 -0.3116 -0.3031
  110TCq2    H2 1686   0.907   3.759   2.115  0.0682 -1.8807 -0.8917
  110TCq2    H3 1687   1.198   4.046   2.043 -0.5445 -1.0789  0.3982
  110TCq2    H4 1688   0.902   4.000   1.755  2.1824 -0.5110 -0.6397
  111TMC2    C1 1689   0.476   3.084  12.075 -0.7251 -0.4760 -0.6076
  111TMC2    C2 1690   0.412   3.006  12.169 -0.3387  0.0848 -0.0933
  111TMC2    C3 1691   0.480   2.962  12.270  0.0689  0.0999 -0.0410
  111TMC2    C4 1692   0.614   3.105  12.067  0.4270  0.4844 -0.0247
  111TMC2    C5 1693   0.678   3.045  12.166 -0.5194  0.6694 -0.0282
  111TMC2    C6 1694   0.614   2.969  12.268  0.0971  0.8326 -0.7243
  111TMC2     C 1695   0.401   3.133  11.965  0.2289 -0.2982 -0.6532
  111TMC2     O 1696   0.459   3.223  11.901  0.1649 -0.3716 -0.4676
  111TMC2     H 1697   0.304   3.002  12.177 -0.2766 -0.5519  0.4275
  111TMC2    H1 1698   0.667   3.156  11.987  0.2050 -1.2276 -1.2749
  111TMC2    H2 1699   0.668   2.918  12.347 -0.3652 -0.2977 -1.1316
  111TMC2    C7 1700   0.819   3.050  12.167 -0.1029  0.5142 -0.0174
  111TMC2    C8 1701   0.425   2.851  12.350  0.0157  0.6066 -0.4428
  111TMC2    O1 1702   0.888   3.043  12.065 -0.0664 -0.4710  0.1822
  111TMC2    O2 1703   0.503   2.801  12.435 -0.2685 -0.2464  0.0282
  111TMC2    O5 1704   0.316   2.792  12.301  0.4190  0.0975  0.9276
  111TMC2    H5 1705   0.273   2.848  12.234 -1.8179 -2.0792  0.5300
  112MPD2     C 1706   4.702   3.263  11.743  0.3443  0.2308 -0.6800
  112MPD2    C1 1707   0.105   3.299  11.706 -0.0278 -0.2644  0.0191
  112MPD2    C2 1708   0.206   3.230  11.772  0.4278  0.1157  0.1200
  112MPD2    C3 1709   0.175   3.134  11.873  0.9024 -0.1749  0.9380
  112MPD2    C4 1710   0.050   3.089  11.891 -0.1785 -0.3490 -0.0470
  112MPD2    C5 1711   4.677   3.161  11.832 -0.2866  0.3151  0.0149
  112MPD2     H 1712   0.308   3.262  11.756  0.2212  0.3852 -0.6375
  112MPD2    H1 1713   0.032   3.013  11.966 -0.3733 -0.2501  0.0077
  112MPD2    H2 1714   4.619   3.319  11.701  0.3940  0.6350 -0.2506
  112MPD2    H3 1715   4.576   3.129  11.853 -1.4552  2.2037 -2.6977
  112MPD2     N 1716   0.274   3.084  11.956  0.1004 -0.2266 -0.2167
  112MPD2    H5 1717   0.249   2.997  12.002  0.2975 -0.0062  0.3130
  112MPD2    N1 1718   0.146   3.406  11.622  0.6749  0.3417  0.1925
  112MPD2    H7 1719   0.246   3.418  11.610  0.8832 -2.3442 -0.9073
  113MPD2     C 1720   2.959   2.252   1.211 -0.1772 -0.2757 -0.4980
  113MPD2    C1 1721   2.925   2.354   1.122  0.5304 -0.0036 -0.8951
  113MPD2    C2 1722   2.794   2.371   1.082  0.2119 -0.0523  0.6758
  113MPD2    C3 1723   2.702   2.274   1.130  0.8278 -0.0471  0.9407
  113MPD2    C4 1724   2.739   2.172   1.219  0.7640  0.1287  0.9764
  113MPD2    C5 1725   2.869   2.167   1.258 -0.1035 -0.1243 -0.6000
  113MPD2     H 1726   2.772   2.449   1.010 -0.9693 -0.4325  0.6385
  113MPD2    H1 1727   2.679   2.084   1.237 -0.9941  1.2011  0.4314
  113MPD2    H2 1728   3.061   2.231   1.243  0.6235  2.9560 -0.8567
  113MPD2    H3 1729   2.903   2.081   1.315 -0.9350  0.8372  1.3596
  113MPD2     N 1730   2.570   2.261   1.076  0.0723  0.1727 -0.6782
  113MPD2    H5 1731   2.524   2.174   1.098 -0.8369  0.6171 -0.8139
  113MPD2    N1 1732   3.017   2.447   1.070  0.1691  0.0548  0.0094
  113MPD2    H7 1733   2.979   2.509   0.999  1.0877  4.2075  3.1018
  114TCq2    C1 1734   2.505   2.350   0.987 -0.0726 -0.3431  0.9092
  114TCq2    O2 1735   2.548   2.461   0.959  0.0092  0.1819  0.1998
  114TCq2    C2 1736   2.392   2.298   0.910  0.1480 -0.2940 -0.1193
  114TCq2    C3 1737   2.338   2.384   0.819 -0.7940  0.5936  0.0489
  114TCq2    C4 1738   2.203   2.374   0.782 -0.0215  0.0230 -0.7229
  114TCq2    C5 1739   2.126   2.269   0.817 -0.5865 -0.3611  0.4567
  114TCq2    C6 1740   2.190   2.183   0.907 -0.0081  0.2880  0.6689
  114TCq2    C7 1741   2.316   2.197   0.961 -0.0560 -0.3770 -0.8233
  114TCq2    C8 1742   2.115   2.061   0.939  0.7699 -0.2849  0.2049
  114TCq2    O4 1743   2.021   2.030   0.866  0.0457 -0.1376  0.2085
  114TCq2    C9 1744   2.147   2.472   0.687 -0.0850 -0.2821  0.6894
  114TCq2    O5 1745   2.237   2.535   0.624  0.1574 -0.6547 -0.2295
  114TCq2    O6 1746   2.029   2.448   0.657 -0.2895 -0.8358 -0.0799
  114TCq2    H2 1747   2.401   2.463   0.781  0.0294  0.6260  1.4789
  114TCq2    H3 1748   2.028   2.254   0.772 -1.2440  3.3887  0.5853
  114TCq2    H4 1749   2.363   2.142   1.042 -0.4108  1.5053  0.6584
  115TMC2    C1 1750   3.667   4.102   0.419  0.0469  0.2189  0.0457
  115TMC2    C2 1751   3.804   4.089   0.412 -0.2107  0.2913 -0.5479
  115TMC2    C3 1752   3.877   4.199   0.428  0.7398  0.1127  0.2070
  115TMC2    C4 1753   3.608   4.221   0.427 -0.0444  0.1934  0.3348
  115TMC2    C5 1754   3.693   4.330   0.425 -0.4446  0.7934 -0.6811
  115TMC2    C6 1755   3.821   4.321   0.434  0.2346 -0.9066  0.5047
  115TMC2     C 1756   3.588   3.987   0.366 -0.8341  0.3931  0.7292
  115TMC2     O 1757   3.653   3.897   0.311  0.4204  0.1312 -0.0922
  115TMC2     H 1758   3.845   3.989   0.420 -1.5925 -0.1810  0.6893
  115TMC2    H1 1759   3.501   4.238   0.436  0.0565 -0.2099  2.3653
  115TMC2    H2 1760   3.884   4.405   0.459  1.0745 -1.4162  0.1018
  115TMC2    C7 1761   3.633   4.455   0.460 -0.3353  0.0712 -0.5991
  115TMC2    C8 1762   4.009   4.180   0.480  0.1283 -0.0565  0.2681
  115TMC2    O1 1763   3.529   4.449   0.524  0.3074  0.4874  0.7092
  115TMC2    O2 1764   4.047   4.232   0.584 -0.4817 -0.0937 -0.3265
  115TMC2    O5 1765   4.060   4.070   0.421  0.0142 -0.1800 -0.0113
  115TMC2    H5 1766   4.010   4.047   0.340  2.4528 -1.7708 -1.0482
  116MPD2     C 1767   3.151   3.848   0.100 -0.0853 -0.3200  0.8806
  116MPD2    C1 1768   3.282   3.826   0.083 -0.0555  0.2691  1.0991
  116MPD2    C2 1769   3.390   3.868   0.169  0.1220 -0.2530  0.0207
  116MPD2    C3 1770   3.354   3.942   0.283 -0.2240 -0.8256  0.0097
  116MPD2    C4 1771   3.217   3.957   0.304 -0.3330  0.5410  0.1648
  116MPD2    C5 1772   3.121   3.910   0.216 -0.0767 -0.6647  0.1960
  116MPD2     H 1773   3.494   3.836   0.162  0.4842  1.2800 -1.4873
  116MPD2    H1 1774   3.170   4.002   0.391  0.3683  0.9635  0.3240
  116MPD2    H2 1775   3.070   3.812   0.038  0.0488 -1.8392  1.5832
  116MPD2    H3 1776   3.021   3.949   0.228 -0.3820 -1.0330 -1.2354
  116MPD2     N 1777   3.448   4.000   0.366 -0.6506  0.1716  0.0288
  116MPD2    H5 1778   3.412   4.069   0.431 -0.0191 -0.9163  1.5171
  116MPD2    N1 1779   3.314   3.740  17.670 -0.6055 -0.4773  0.2328
  116MPD2    H7 1780   3.234   3.713  17.614  1.4670 -0.5276 -2.6919
  117TMC2    C1 1781   2.820   0.968  14.400  0.6331 -0.0053  0.1067
  117TMC2    C2 1782   2.877   0.925  14.512  0.0595 -0.1359  0.6866
  117TMC2    C3 1783   3.009   0.953  14.529 -0.1257 -0.8735  0.2214
  117TMC2    C4 1784   2.878   1.053  14.311  0.0959 -0.1790 -0.0164
  117TMC2    C5 1785   3.013   1.084  14.334 -0.1914 -0.1556 -1.0852
  117TMC2    C6 1786   3.087   1.037  14.449 -0.0972  0.8173  0.3401
  117TMC2     C 1787   2.679   0.941  14.378 -0.4249 -0.2201  0.3501
  117TMC2     O 1788   2.631   0.835  14.422  0.4533  0.5358  0.5100
  117TMC2     H 1789   2.832   0.854  14.581 -0.7946  0.4862  0.7702
  117TMC2    H1 1790   2.828   1.065  14.215  0.9588 -1.1399 -0.5763
  117TMC2    H2 1791   3.188   1.069  14.472  0.0467  0.1813  0.6103
  117TMC2    C7 1792   3.087   1.171  14.244 -0.3070 -0.4067  0.5933
  117TMC2    C8 1793   3.071   0.921  14.651  0.2568  0.3878 -0.2408
  117TMC2    O1 1794   3.205   1.164  14.238  0.1427 -0.2918 -0.0871
  117TMC2    O2 1795   3.159   0.836  14.662  0.6661 -0.7427  0.2334
  117TMC2    O5 1796   2.974   0.950  14.744 -0.6542  0.5716  0.3126
  117TMC2    H5 1797   2.929   1.034  14.719 -0.1521  1.5176  2.4884
  118MPD2     C 1798   2.964   1.449  14.018  0.4092 -0.4594 -0.4382
  118MPD2    C1 1799   3.056   1.372  14.087  0.0686 -0.4172  0.4507
  118MPD2    C2 1800   3.194   1.381  14.052  0.3393 -0.3378 -0.1166
  118MPD2    C3 1801   3.234   1.468  13.951  0.1936  0.6936  0.0316
  118MPD2    C4 1802   3.137   1.533  13.873 -0.3252  0.2821  0.4983
  118MPD2    C5 1803   3.004   1.538  13.918 -0.5347  0.2463 -0.5013
  118MPD2     H 1804   3.273   1.325  14.101  0.6355  0.4264  0.2941
  118MPD2    H1 1805   3.166   1.592  13.786  3.9775 -1.2147  0.8891
  118MPD2    H2 1806   2.860   1.445  14.049  0.0565  2.9514 -1.1739
  118MPD2    H3 1807   2.939   1.611  13.871 -1.7258 -0.8539 -0.5671
  118MPD2     N 1808   3.369   1.485  13.917 -0.4349 -0.0483 -0.8709
  118MPD2    H5 1809   3.387   1.544  13.836  2.8036 -0.0532 -0.1701
  118MPD2    N1 1810   3.009   1.272  14.184 -0.5323  0.5466 -0.6959
  118MPD2    H7 1811   2.911   1.265  14.210 -0.6886  0.7202 -1.2435
  119MPD2     C 1812   1.457   2.652  14.457 -0.3058  0.1608 -0.1761
  119MPD2    C1 1813   1.334   2.697  14.437  0.3878  0.1559 -0.2946
  119MPD2    C2 1814   1.254   2.648  14.340  0.7299 -0.6908  0.1569
  119MPD2    C3 1815   1.302   2.550  14.253 -1.1241 -0.5201 -0.8889
  119MPD2    C4 1816   1.427   2.505  14.273 -0.2520  0.1799 -0.2906
  119MPD2    C5 1817   1.504   2.548  14.377  0.4293 -0.6335 -0.5887
  119MPD2     H 1818   1.156   2.690  14.320 -0.1532 -1.6857  2.4965
  119MPD2    H1 1819   1.465   2.422  14.214  0.8544 -0.1965  0.9618
  119MPD2    H2 1820   1.525   2.695  14.530  0.5954 -1.8798  0.1977
  119MPD2    H3 1821   1.607   2.518  14.393  0.5907 -0.0120 -0.4695
  119MPD2     N 1822   1.225   2.508  14.146  0.6386  0.6715  0.1827
  119MPD2    H5 1823   1.267   2.435  14.089 -1.2914  0.0080 -0.3838
  119MPD2    N1 1824   1.293   2.816  14.520  0.4863  0.1771  0.2896
  119MPD2    H7 1825   1.366   2.862  14.573  0.1531 -0.6584  1.4785
  120TCq2    C1 1826   1.093   2.549  14.115 -0.3684 -0.0513  0.1210
  120TCq2    O2 1827   1.019   2.643  14.150  0.3750  0.4632  0.3550
  120TCq2    C2 1828   1.046   2.465  14.002 -0.0716  0.5853  0.7717
  120TCq2    C3 1829   1.134   2.438  13.897 -0.3662  0.0560  0.6404
  120TCq2    C4 1830   1.076   2.384  13.781 -0.2957  0.5815  0.1470
  120TCq2    C5 1831   0.942   2.388  13.760  0.2686  0.0186  0.0571
  120TCq2    C6 1832   0.862   2.423  13.861  0.8569  0.1733  0.4637
  120TCq2    C7 1833   0.908   2.453  13.981  0.1960  0.0553  0.1567
  120TCq2    C8 1834   0.721   2.420  13.826  0.4167  0.0306  0.5916
  120TCq2    O4 1835   0.689   2.440  13.710  0.1045  0.3192 -0.1707
  120TCq2    C9 1836   1.161   2.321  13.683  0.1562  0.5488  0.1038
  120TCq2    O5 1837   1.281   2.354  13.672 -0.2815  0.0655 -0.5028
  120TCq2    O6 1838   1.094   2.272  13.587  0.0579  0.1427  0.4751
  120TCq2    H2 1839   1.240   2.449  13.914 -0.3852 -1.7723  1.9140
  120TCq2    H3 1840   0.900   2.345  13.669  3.1025 -0.2896 -1.0848
  120TCq2    H4 1841   0.843   2.509  14.048 -1.2628  0.3152 -1.4720
  121TMC2    C1 1842   2.328   3.939  14.117  0.3582 -0.3547 -0.2039
  121TMC2    C2 1843   2.397   3.847  14.187  0.2288 -0.9428 -0.0703
  121TMC2    C3 1844   2.344   3.722  14.201  0.6900  0.1469 -0.4867
  121TMC2    C4 1845   2.208   3.909  14.052 -0.1813  0.9776  0.5120
  121TMC2    C5 1846   2.161   3.784  14.067 -0.1674  0.0027  0.1114
  121TMC2    C6 1847   2.226   3.688  14.143 -0.0807  0.0811 -0.3883
  121TMC2     C 1848   2.382   4.070  14.121 -0.0439 -0.2218 -0.2811
  121TMC2     O 1849   2.402   4.116  14.230 -0.5091 -0.1724  0.2257
  121TMC2     H 1850   2.482   3.878  14.247 -0.1149 -0.2008  0.0410
  121TMC2    H1 1851   2.165   3.992  13.998 -0.7414  0.5907  0.3630
  121TMC2    H2 1852   2.185   3.591  14.169 -1.1133  0.1714 -1.6679
  121TMC2    C7 1853   2.024   3.749  14.017  0.5091 -0.5204 -0.2076
  121TMC2    C8 1854   2.394   3.635  14.303 -0.4888  0.1226 -1.1801
  121TMC2    O1 1855   2.005   3.625  14.032  0.1029  0.4119  0.3989
  121TMC2    O2 1856   2.411   3.515  14.281  0.1897  0.4002  0.2528
  121TMC2    O5 1857   2.295   3.666  14.383 -0.3698 -0.1077  0.0739
  121TMC2    H5 1858   2.256   3.754  14.362 -0.9562 -0.4987 -0.4604
  122MPD2     C 1859   2.521   4.330  14.074  0.0140  0.2063  0.1755
  122MPD2    C1 1860   2.474   4.242  13.974  0.1065  0.1225  0.9110
  122MPD2    C2 1861   2.504   4.272  13.841  0.4710  0.1272 -0.4796
  122MPD2    C3 1862   2.591   4.380  13.811  0.1771  0.1078  0.2621
  122MPD2    C4 1863   2.633   4.470  13.913  0.0086 -0.2434  0.2224
  122MPD2    C5 1864   2.593   4.441  14.034  0.1550  0.2576  0.7234
  122MPD2     H 1865   2.480   4.198  13.766  0.0327 -1.7137  1.4562
  122MPD2    H1 1866   2.716   4.536  13.890  0.1465 -0.5922 -0.2840
  122MPD2    H2 1867   2.492   4.316  14.178  0.9407  0.2310  0.4385
  122MPD2    H3 1868   2.630   4.510  14.109  1.9539  0.2212 -0.1398
  122MPD2     N 1869   2.643   4.406  13.681  0.4990  0.0390  0.2079
  122MPD2    H5 1870   2.690   4.495  13.668  1.1014 -0.1819  0.8167
  122MPD2    N1 1871   2.395   4.128  13.999 -0.2048  0.0994 -0.3804
  122MPD2    H7 1872   2.376   4.069  13.918 -0.0603 -1.3196  0.6198
  123MPD2     C 1873   0.260   1.505   9.625  0.1840 -0.1100 -0.0816
  123MPD2    C1 1874   0.377   1.572   9.657  0.2172  0.3287  0.3676
  123MPD2    C2 1875   0.488   1.561   9.577  0.0144  0.2955 -0.0769
  123MPD2    C3 1876   0.483   1.478   9.465 -0.3352  0.3118 -0.2056
  123MPD2    C4 1877   0.368   1.408   9.428  0.4613  0.3402 -0.8724
  123MPD2    C5 1878   0.255   1.432   9.504  0.6486 -0.0145 -0.5329
  123MPD2     H 1879   0.587   1.599   9.598 -0.3475  0.7676  0.7378
  123MPD2    H1 1880   0.362   1.336   9.347  2.6176 -0.5710 -0.2095
  123MPD2    H2 1881   0.173   1.519   9.689 -0.8972  0.6676 -1.7334
  123MPD2    H3 1882   0.165   1.385   9.467 -1.4367  2.7499  0.9663
  123MPD2     N 1883   0.606   1.460   9.403  0.0392  0.4123 -0.2866
  123MPD2    H5 1884   0.679   1.522   9.436 -0.3022 -0.9699  3.0580
  123MPD2    N1 1885   0.364   1.654   9.774  0.4341 -0.0656 -0.0370
  123MPD2    H7 1886   0.269   1.663   9.808  1.0416  0.3566  1.5616
  124TCq2    C1 1887   0.626   1.380   9.290 -0.9939  0.3171 -0.6508
  124TCq2    O2 1888   0.555   1.317   9.210  0.2560  0.3483 -0.3307
  124TCq2    C2 1889   0.761   1.383   9.236  0.2825 -0.1764 -0.4192
  124TCq2    C3 1890   0.783   1.343   9.103 -0.2942 -0.2300 -0.1926
  124TCq2    C4 1891   0.907   1.305   9.063  0.3321  0.0943  0.2402
  124TCq2    C5 1892   1.017   1.342   9.142 -0.5399  0.6154  1.4408
  124TCq2    C6 1893   0.995   1.387   9.268 -0.5102  0.1348 -0.0982
  124TCq2    C7 1894   0.869   1.406   9.323  0.1179  0.7932  0.0476
  124TCq2    C8 1895   1.105   1.388   9.365 -0.0509 -0.0443 -0.4221
  124TCq2    O4 1896   1.077   1.389   9.485  0.0807 -0.3507  0.8161
  124TCq2    C9 1897   0.923   1.251   8.934 -0.3995  0.2122  0.3675
  124TCq2    O5 1898   1.032   1.196   8.904 -0.4467 -0.1656  0.2580
  124TCq2    O6 1899   0.818   1.242   8.868 -0.4819  0.6397  0.0681
  124TCq2    H2 1900   0.697   1.316   9.042 -0.7439 -1.2946  0.9168
  124TCq2    H3 1901   1.115   1.315   9.104 -1.0467  0.8024  0.0229
  124TCq2    H4 1902   0.856   1.434   9.427 -1.7241  1.1550 -0.2744
  125TMC2    C1 1903   2.007   4.208   9.550 -0.2325 -0.3825 -0.0530
  125TMC2    C2 1904   2.037   4.218   9.417  0.6315 -0.1859  0.0998
  125TMC2    C3 1905   2.160   4.161   9.374 -0.0206  0.0217 -0.3001
  125TMC2    C4 1906   2.100   4.154   9.640  0.4885  0.0914  0.7644
  125TMC2    C5 1907   2.221   4.123   9.602  0.3896  0.1544  0.3321
  125TMC2    C6 1908   2.254   4.125   9.468  0.4600  0.3778  0.2557
  125TMC2     C 1909   1.894   4.292   9.588  0.4105 -0.4512 -0.2662
  125TMC2     O 1910   1.828   4.346   9.496  0.4950  0.1071  0.4795
  125TMC2     H 1911   1.969   4.255   9.341  1.1240  0.2636 -0.1275
  125TMC2    H1 1912   2.075   4.144   9.746 -2.9731 -0.3997 -0.0856
  125TMC2    H2 1913   2.346   4.086   9.426  0.7569  0.5107  0.7852
  125TMC2    C7 1914   2.320   4.067   9.699 -0.0602  1.2433  0.0448
  125TMC2    C8 1915   2.198   4.181   9.235  0.4240  0.1944  0.4160
  125TMC2    O1 1916   2.263   4.024   9.798  0.0085 -0.0414  0.0735
  125TMC2    O2 1917   2.249   4.100   9.160 -0.2903 -0.2834  0.0135
  125TMC2    O5 1918   2.229   4.313   9.246 -0.2726 -0.1474 -0.1110
  125TMC2    H5 1919   2.215   4.349   9.336 -3.0737 -2.6778  0.4642
  126MPD1     C 1920   1.561   4.495   9.938 -0.2878 -0.0984  0.0821
  126MPD1    C1 1921   1.652   4.416  10.001 -0.4444  0.1353  0.1396
  126MPD1    C2 1922   1.755   4.348   9.928  0.2062 -0.5180  0.7518
  126MPD1    C3 1923   1.764   4.359   9.790  0.3504  0.7746  0.6296
  126MPD1    C4 1924   1.661   4.432   9.729  0.3968 -0.5248  0.2447
  126MPD1    C5 1925   1.563   4.495   9.798  0.5785  0.2792  0.1775
  126MPD1     H 1926   1.827   4.292   9.986 -1.5299 -1.8478  1.6229
  126MPD1    H1 1927   1.666   4.430   9.620  2.8031  1.0532  0.3243
  126MPD1    H2 1928   1.477   4.535   9.993  1.1859 -0.2701  2.4450
  126MPD1    H3 1929   1.491   4.551   9.740  0.7274  0.6253  0.3267
  126MPD1     N 1930   1.866   4.292   9.722  0.4315 -0.3613 -0.5999
  126MPD1    H5 1931   1.934   4.251   9.784  0.0778  0.4446  0.3241
  126MPD1    N1 1932   1.620   4.374  10.135  0.4901 -0.2339 -0.0343
  126MPD1    H6 1933   1.567   4.438  10.193 -0.7511 -2.3297  1.1600
  126MPD1    H7 1934   1.697   4.339  10.193  0.2669 -2.1195 -0.8615
  127MPD2     C 1935   3.403   2.921   9.443 -0.5190 -0.6064  0.6225
  127MPD2    C1 1936   3.447   2.830   9.535 -0.0583 -0.3004  0.2250
  127MPD2    C2 1937   3.481   2.873   9.664 -0.6173  0.5387 -0.0818
  127MPD2    C3 1938   3.454   3.003   9.703 -0.1147  0.1876  0.0142
  127MPD2    C4 1939   3.396   3.088   9.611  0.1697  0.0728  0.7375
  127MPD2    C5 1940   3.381   3.050   9.482 -0.1051  1.1563  0.1616
  127MPD2     H 1941   3.532   2.812   9.738 -1.3755  1.5943  1.2971
  127MPD2    H1 1942   3.364   3.188   9.637 -0.5117  0.3454 -1.1569
  127MPD2    H2 1943   3.375   2.888   9.343 -0.1165  2.4390 -0.4800
  127MPD2    H3 1944   3.351   3.120   9.406  0.1116  1.7915  0.6669
  127MPD2     N 1945   3.502   3.044   9.829  0.4041 -0.3257 -0.3553
  127MPD2    H5 1946   3.554   2.983   9.892 -0.2809  0.6449  1.1473
  127MPD2    N1 1947   3.464   2.694   9.494 -0.7883 -0.1045  0.2411
  127MPD2    H7 1948   3.448   2.676   9.395  1.4150  0.6938 -0.2584
  128TCq2    C1 1949   3.493   2.591   9.577 -0.1120 -0.0481  0.4704
  128TCq2    O2 1950   3.493   2.586   9.698 -0.0409 -0.2915  0.0444
  128TCq2    C2 1951   3.478   2.460   9.511  0.2136 -0.5028 -0.0294
  128TCq2    C3 1952   3.447   2.465   9.377  0.3363 -0.2634  0.8020
  128TCq2    C4 1953   3.376   2.364   9.330 -0.1120 -0.3755 -0.1039
  128TCq2    C5 1954   3.329   2.268   9.414 -0.6337  0.7121 -0.0249
  128TCq2    C6 1955   3.362   2.267   9.546  0.7174  0.2491 -0.1896
  128TCq2    C7 1956   3.436   2.364   9.597  0.6446 -0.1284  0.0425
  128TCq2    C8 1957   3.259   2.208   9.622  0.1829 -0.7973  0.7618
  128TCq2    O4 1958   3.243   2.273   9.724 -0.1716  0.3351  0.3172
  128TCq2    C9 1959   3.349   2.352   9.192  0.4398 -1.0587  0.4090
  128TCq2    O5 1960   3.395   2.447   9.120 -0.0445 -0.5164  0.1588
  128TCq2    O6 1961   3.302   2.242   9.151  0.0563 -0.3982 -0.1150
  128TCq2    H2 1962   3.491   2.537   9.309 -1.3659  2.9038  3.0523
  128TCq2    H3 1963   3.276   2.187   9.366 -1.3339  0.9824  0.2988
  128TCq2    H4 1964   3.463   2.359   9.702  2.9727  3.0178 -0.4313
  129MPD2     C 1965   1.295   3.614   2.016  0.4437 -0.1398 -0.4113
  129MPD2    C1 1966   1.204   3.613   1.914 -0.1482 -1.1972  0.1243
  129MPD2    C2 1967   1.211   3.712   1.816 -0.0674 -0.4620 -0.4608
  129MPD2    C3 1968   1.308   3.809   1.822 -0.4082  0.6520  0.4599
  129MPD2    C4 1969   1.395   3.811   1.932  0.3454 -0.4461  0.4615
  129MPD2    C5 1970   1.391   3.713   2.026  0.3149  0.1345 -0.3567
  129MPD2     H 1971   1.134   3.707   1.739 -0.2265  4.6035 -0.6071
  129MPD2    H1 1972   1.476   3.883   1.937  0.0867 -0.1910  1.0306
  129MPD2    H2 1973   1.297   3.534   2.090 -2.0072  0.3122  0.1458
  129MPD2    H3 1974   1.463   3.720   2.107  1.1435 -2.8681 -0.8578
  129MPD2     N 1975   1.318   3.905   1.717 -0.2069  0.1388 -0.0389
  129MPD2    H5 1976   1.258   3.893   1.636  1.1635 -0.0472 -1.0255
  129MPD2    N1 1977   1.111   3.508   1.890 -0.0505 -1.2181  0.1432
  129MPD2    H7 1978   1.042   3.516   1.817 -1.2410 -1.3064  1.2629
  130TCq2    C1 1979   1.120   3.387   1.956  0.7917  0.8594  0.1807
  130TCq2    O2 1980   1.209   3.350   2.029  0.0380 -0.2821  0.1234
  130TCq2    C2 1981   1.005   3.296   1.936  0.4171 -0.1570 -0.1821
  130TCq2    C3 1982   1.029   3.173   1.997  0.1633 -0.5232 -0.0193
  130TCq2    C4 1983   0.925   3.085   1.995  0.8398 -0.0306  0.0487
  130TCq2    C5 1984   0.806   3.120   1.938  0.2221 -0.3394  0.7162
  130TCq2    C6 1985   0.790   3.247   1.884  0.3599  0.0577  0.8565
  130TCq2    C7 1986   0.886   3.338   1.881 -0.2652  0.4231 -0.4065
  130TCq2    C8 1987   0.667   3.288   1.814  0.1678 -0.3562 -0.8586
  130TCq2    O4 1988   0.651   3.407   1.791  0.5317  0.3067  0.2393
  130TCq2    C9 1989   0.945   2.947   2.044 -0.2813 -0.0484 -0.5890
  130TCq2    O5 1990   1.052   2.934   2.115  0.4137 -0.0149  0.0477
  130TCq2    O6 1991   0.846   2.869   2.043 -0.2143  0.1937  0.0231
  130TCq2    H2 1992   1.121   3.150   2.050  0.3578  0.4874  0.0868
  130TCq2    H3 1993   0.729   3.044   1.948  1.5298 -1.4961  1.9040
  130TCq2    H4 1994   0.880   3.435   1.833  1.2396 -0.0700 -1.6010
  131MPD2     C 1995   0.320   2.603  10.231 -0.0993  0.1580 -0.9001
  131MPD2    C1 1996   0.395   2.531  10.326 -0.5165  0.3603 -0.4590
  131MPD2    C2 1997   0.404   2.396  10.314 -0.2681  0.5495  0.6870
  131MPD2    C3 1998   0.347   2.336  10.204 -0.2816 -0.0213  0.6200
  131MPD2    C4 1999   0.269   2.410  10.114 -0.3380 -0.0247  0.1114
  131MPD2    C5 2000   0.249   2.543  10.135 -0.0106  0.2560  0.2511
  131MPD2     H 2001   0.454   2.341  10.392  1.9140 -0.7684 -1.6467
  131MPD2    H1 2002   0.205   2.363  10.040  0.9977  1.4602 -2.0183
  131MPD2    H2 2003   0.308   2.711  10.238  2.2622  0.4719 -1.8760
  131MPD2    H3 2004   0.200   2.614  10.069  1.7652  0.5978 -0.7035
  131MPD2     N 2005   0.374   2.201  10.189  0.1190  0.0404  0.2622
  131MPD2    H5 2006   0.419   2.164  10.272 -1.0609  0.2639  1.0180
  131MPD2    N1 2007   0.469   2.603  10.422  0.1766  0.3722 -0.1828
  131MPD2    H7 2008   0.463   2.704  10.416  1.9035  0.4424 -0.7335
  132TCq2    C1 2009   0.982   2.749  10.572  0.5762  0.2385  0.5708
  132TCq2    O2 2010   1.011   2.639  10.522  0.0696  0.1537 -0.1376
  132TCq2    C2 2011   0.836   2.762  10.591 -0.6281 -0.3988 -0.8339
  132TCq2    C3 2012   0.781   2.886  10.590  0.3036  0.5317 -0.3344
  132TCq2    C4 2013   0.645   2.897  10.581  0.5929 -0.2589  0.1300
  132TCq2    C5 2014   0.572   2.787  10.595 -0.1049  0.2425 -0.1227
  132TCq2    C6 2015   0.624   2.666  10.582  0.2595 -0.5848  0.0648
  132TCq2    C7 2016   0.766   2.648  10.587  0.0222  0.9700 -0.2775
  132TCq2    C8 2017   0.570   2.559  10.504 -0.5983  0.2489 -0.7844
  132TCq2    O4 2018   0.629   2.449  10.496 -0.4263 -0.4478 -0.3613
  132TCq2    C9 2019   0.584   3.023  10.605  0.3895  1.3738  0.1946
  132TCq2    O5 2020   0.469   3.037  10.559  0.1326 -0.0926  0.6887
  132TCq2    O6 2021   0.659   3.118  10.639 -0.0378  0.2744 -0.3745
  132TCq2    H2 2022   0.838   2.978  10.598  0.1392  0.7302 -1.4082
  132TCq2    H3 2023   0.467   2.807  10.613 -0.1510 -0.9566  0.9272
  132TCq2    H4 2024   0.809   2.549  10.592  0.9728  1.3636 -0.7944
  133MPD2     C 2025   0.176   3.836   9.767  0.2204  0.0756  0.8874
  133MPD2    C1 2026   0.273   3.740   9.787 -0.1073  0.0925 -0.2674
  133MPD2    C2 2027   0.243   3.613   9.750  0.0716  0.4015  1.0327
  133MPD2    C3 2028   0.127   3.575   9.681  0.9749  0.1213  0.3251
  133MPD2    C4 2029   0.036   3.678   9.666 -0.8906  0.2452  0.0380
  133MPD2    C5 2030   0.054   3.805   9.714  0.3023  0.2782  0.1495
  133MPD2     H 2031   0.310   3.533   9.780 -1.1806 -1.4326 -1.0510
  133MPD2    H1 2032   4.664   3.655   9.623 -0.2785  0.7656 -1.6312
  133MPD2    H2 2033   0.187   3.939   9.795 -1.1411 -0.0141  1.7394
  133MPD2    H3 2034   4.706   3.885   9.702 -1.4923 -1.3650 -0.0866
  133MPD2     N 2035   0.080   3.445   9.651 -0.2042  0.2611  0.3337
  133MPD2    H5 2036   4.712   3.434   9.612 -0.6603 -0.6122  1.6276
  133MPD2    N1 2037   0.398   3.790   9.836 -0.6817  0.1516  0.7523
  133MPD2    H7 2038   0.404   3.891   9.836  0.4268  0.0793 -0.3174
  134TCq2    C1 2039   0.509   3.717   9.850  0.5389  0.5907  0.0766
  134TCq2    O2 2040   0.525   3.603   9.824 -0.0438 -0.0559 -0.1415
  134TCq2    C2 2041   0.631   3.800   9.871 -0.1179  0.0755  0.2457
  134TCq2    C3 2042   0.750   3.732   9.856 -0.1665 -0.6481 -0.2594
  134TCq2    C4 2043   0.864   3.805   9.854 -0.3843 -0.3213 -0.3057
  134TCq2    C5 2044   0.861   3.934   9.890  0.3807  0.7081 -0.2458
  134TCq2    C6 2045   0.747   4.002   9.912 -0.3628 -0.5179 -0.4017
  134TCq2    C7 2046   0.624   3.936   9.905  0.3844  0.2647 -0.0907
  134TCq2    C8 2047   0.751   4.146   9.890 -0.3863 -0.7916  0.3555
  134TCq2    O4 2048   0.864   4.195   9.895 -0.3888  0.2913  0.1104
  134TCq2    C9 2049   0.993   3.730   9.852  0.2705 -0.3010  0.5547
  134TCq2    O5 2050   0.978   3.607   9.828  0.1881 -0.4435 -0.2658
  134TCq2    O6 2051   1.106   3.789   9.851  0.6355  0.8516 -0.4160
  134TCq2    H2 2052   0.753   3.625   9.838 -1.0868 -0.5223 -1.1636
  134TCq2    H3 2053   0.950   3.996   9.884  1.0577 -0.3900 -1.7698
  134TCq2    H4 2054   0.530   3.979   9.936 -0.3992 -1.4895  0.0001
  135MPD2     C 2055   2.746   4.403  10.022 -0.8006 -0.5783 -0.1488
  135MPD2    C1 2056   2.697   4.448   9.897  0.6178  0.4818 -0.6726
  135MPD2    C2 2057   2.786   4.495   9.802  0.7648  0.2868 -0.5172
  135MPD2    C3 2058   2.921   4.508   9.829  0.4197  0.6769 -0.0675
  135MPD2    C4 2059   2.968   4.451   9.948 -0.3934 -0.4497 -0.5212
  135MPD2    C5 2060   2.883   4.397  10.035  0.4485 -0.3847 -0.6079
  135MPD2     H 2061   2.744   4.549   9.717  0.1967 -0.6572 -0.8380
  135MPD2    H1 2062   3.070   4.472   9.978 -1.0699  2.1354 -0.0867
  135MPD2    H2 2063   2.682   4.367  10.102  1.7762 -1.6422  1.4493
  135MPD2    H3 2064   2.924   4.353  10.125 -0.8381 -1.3844 -0.5093
  135MPD2     N 2065   3.020   4.562   9.738 -0.1598  0.2875  0.0415
  135MPD2    H5 2066   3.117   4.571   9.766 -0.1326  0.3402 -0.0711
  135MPD2    N1 2067   2.560   4.470   9.863  0.2241  0.1902  0.5888
  135MPD2    H7 2068   2.531   4.509   9.774 -2.3154  1.4249  1.9869
  136TCq2    C1 2069   2.450   4.438   9.942 -0.2176  0.0935  0.7651
  136TCq2    O2 2070   2.452   4.400  10.059  0.1950 -0.2776 -0.0586
  136TCq2    C2 2071   2.325   4.466   9.877  0.3659 -0.3840  0.4093
  136TCq2    C3 2072   2.326   4.464   9.741 -0.0205 -0.3039 -0.0353
  136TCq2    C4 2073   2.217   4.525   9.678  0.3204  0.2901  0.3418
  136TCq2    C5 2074   2.116   4.580   9.757 -0.1993 -0.6697  0.2510
  136TCq2    C6 2075   2.123   4.573   9.894  0.1451 -0.2638 -0.2484
  136TCq2    C7 2076   2.228   4.518   9.962 -0.2254  0.7111 -0.0672
  136TCq2    C8 2077   2.029   4.643   9.978  0.7539  1.1446 -0.3138
  136TCq2    O4 2078   1.967   4.719   9.909 -0.0208 -0.0106 -0.3208
  136TCq2    C9 2079   2.206   4.516   9.535 -0.1368  0.5104  0.5592
  136TCq2    O5 2080   2.113   4.577   9.482  0.0675 -0.1995 -0.3338
  136TCq2    O6 2081   2.281   4.428   9.481  0.0415 -0.0439  0.2646
  136TCq2    H2 2082   2.397   4.419   9.672  0.2781  0.3437 -0.1465
  136TCq2    H3 2083   2.028   4.622   9.711 -0.2184 -2.5688 -1.4322
  136TCq2    H4 2084   2.250   4.534  10.067 -1.4245 -1.1845  0.4724
  137MPD2     C 2085   2.434   3.482  11.052  0.5753  0.3775 -0.4609
  137MPD2    C1 2086   2.413   3.604  11.009  0.1246 -0.2105 -0.2906
  137MPD2    C2 2087   2.358   3.704  11.094 -0.5890 -0.2654 -0.3792
  137MPD2    C3 2088   2.340   3.680  11.225  0.9948  0.6862  0.4135
  137MPD2    C4 2089   2.379   3.554  11.270  0.2585 -1.0070  0.0697
  137MPD2    C5 2090   2.430   3.459  11.188  0.0188 -0.2461  0.3226
  137MPD2     H 2091   2.337   3.805  11.062 -2.2573 -1.1373 -2.0333
  137MPD2    H1 2092   2.371   3.514  11.370 -3.8888 -1.1208 -0.2974
  137MPD2    H2 2093   2.468   3.400  10.989 -1.2266 -1.2878  0.7204
  137MPD2    H3 2094   2.460   3.364  11.231 -3.3437 -1.5747 -0.2097
  137MPD2     N 2095   2.269   3.769  11.309 -0.9043 -0.2937 -0.3700
  137MPD2    H5 2096   2.243   3.858  11.268  1.3299 -0.0692 -1.3142
  137MPD2    N1 2097   2.430   3.623  10.872  0.8889 -0.1929  0.2154
  137MPD2    H7 2098   2.476   3.551  10.817 -0.5003 -0.5997 -0.4068
  138TCq2    C1 2099   2.391   3.731  10.796 -0.5355  0.4264 -0.3321
  138TCq2    O2 2100   2.311   3.819  10.831 -0.0173 -0.3091  0.3213
  138TCq2    C2 2101   2.423   3.709  10.661 -0.6674  0.0920 -0.7975
  138TCq2    C3 2102   2.553   3.664  10.627  0.4546  0.3896 -0.4046
  138TCq2    C4 2103   2.597   3.690  10.500  0.1742  0.2247 -0.2248
  138TCq2    C5 2104   2.516   3.740  10.401 -0.5712 -0.4019 -0.2372
  138TCq2    C6 2105   2.400   3.792  10.443 -0.1234 -0.4473  0.7920
  138TCq2    C7 2106   2.342   3.774  10.568 -0.0800  1.0927  0.3660
  138TCq2    C8 2107   2.303   3.811  10.338 -0.8739 -0.9649  0.1556
  138TCq2    O4 2108   2.343   3.841  10.226 -0.6431  0.0422  0.7622
  138TCq2    C9 2109   2.730   3.642  10.461 -0.0698  0.6251 -0.3733
  138TCq2    O5 2110   2.764   3.637  10.341 -0.3580 -0.7111 -0.5091
  138TCq2    O6 2111   2.805   3.592  10.551 -0.4070  0.1820  0.4432
  138TCq2    H2 2112   2.615   3.608  10.696 -0.4923 -2.0729 -1.5431
  138TCq2    H3 2113   2.546   3.744  10.297  0.2228  0.6702  0.0300
  138TCq2    H4 2114   2.255   3.830  10.601  0.1277  1.3638  0.4500
  139TMC2    C1 2115   2.281   2.087  13.475 -0.6588 -0.4476 -0.5010
  139TMC2    C2 2116   2.212   2.098  13.358  0.1992 -0.2415  0.8733
  139TMC2    C3 2117   2.080   2.138  13.373 -0.3346  0.0086  0.2711
  139TMC2    C4 2118   2.226   2.155  13.588 -0.4554  0.5230  0.5699
  139TMC2    C5 2119   2.102   2.207  13.578  0.0243 -0.7441 -0.5307
  139TMC2    C6 2120   2.024   2.195  13.472 -0.1717 -0.2586  0.2857
  139TMC2     C 2121   2.395   2.001  13.482 -0.3447  0.2448 -0.5015
  139TMC2     O 2122   2.421   1.953  13.372  0.0822  0.1636 -0.1896
  139TMC2     H 2123   2.253   2.065  13.263 -1.3499 -2.7375  1.0693
  139TMC2    H1 2124   2.266   2.132  13.686  1.1707  2.9650  0.4814
  139TMC2    H2 2125   1.919   2.218  13.460  0.2309  1.3131 -0.3025
  139TMC2    C7 2126   2.042   2.276  13.689 -0.6773 -0.2809 -0.7137
  139TMC2    C8 2127   1.989   2.112  13.257  0.5408 -0.3957 -0.7071
  139TMC2    O1 2128   1.922   2.304  13.677 -0.1358  0.2098  0.0756
  139TMC2    O2 2129   1.888   2.179  13.245  0.9401  0.3297 -0.1846
  139TMC2    O5 2130   2.001   1.982  13.226 -0.1491 -0.2371  0.1013
  139TMC2    H5 2131   2.083   1.939  13.259  0.3518  0.0848 -0.7102
  140MPD2     C 2132   2.586   1.892  13.764 -0.3875 -0.6984 -0.4224
  140MPD2    C1 2133   2.568   1.916  13.631  0.2129  0.3138 -0.1699
  140MPD2    C2 2134   2.631   1.844  13.531  0.5813  0.0767 -0.4087
  140MPD2    C3 2135   2.704   1.733  13.577 -0.4242 -0.2503  0.5585
  140MPD2    C4 2136   2.731   1.707  13.712 -0.3186  0.8080 -0.3722
  140MPD2    C5 2137   2.663   1.781  13.804 -0.1741  0.6801  0.3484
  140MPD2     H 2138   2.615   1.852  13.424 -1.0627 -1.7138 -0.3053
  140MPD2    H1 2139   2.793   1.622  13.739  0.4099  1.4460 -0.0374
  140MPD2    H2 2140   2.529   1.947  13.839  1.2810  3.0815 -1.9403
  140MPD2    H3 2141   2.688   1.766  13.908 -1.9739  3.5829  1.2046
  140MPD2     N 2142   2.750   1.647  13.472 -0.3386 -0.2678 -0.0017
  140MPD2    H5 2143   2.739   1.675  13.375 -0.0043 -0.8077 -0.1939
  140MPD2    N1 2144   2.459   2.000  13.603 -0.5446  0.1101  0.3834
  140MPD2    H7 2145   2.423   2.049  13.685 -1.1618  0.1519  0.0851
  141TCq2    C1 2146   2.706   3.447  14.605 -0.1400  0.0902 -0.3160
  141TCq2    O2 2147   2.702   3.540  14.527 -0.1325 -0.5158 -0.3014
  141TCq2    C2 2148   2.674   3.477  14.744 -0.0867  0.3599  0.4953
  141TCq2    C3 2149   2.640   3.374  14.834  0.0257 -1.0074  0.4907
  141TCq2    C4 2150   2.621   3.399  14.966  0.2145  0.0889 -0.0692
  141TCq2    C5 2151   2.622   3.522  15.009  0.3054 -0.9372 -0.0642
  141TCq2    C6 2152   2.641   3.624  14.914 -0.8224 -0.2522 -0.0426
  141TCq2    C7 2153   2.678   3.608  14.787 -0.7319  0.3296 -0.5017
  141TCq2    C8 2154   2.675   3.749  14.983  0.6889 -0.1817  0.4965
  141TCq2    O4 2155   2.643   3.758  15.104  0.0981 -0.3648 -0.0046
  141TCq2    C9 2156   2.603   3.291  15.060  0.1355 -0.0276  0.3485
  141TCq2    O5 2157   2.664   3.180  15.027 -0.3294  0.6196 -0.1471
  141TCq2    O6 2158   2.563   3.324  15.177 -0.2755 -0.0672  0.2509
  141TCq2    H2 2159   2.627   3.268  14.813  0.4977 -0.5923 -1.8740
  141TCq2    H3 2160   2.611   3.543  15.115 -0.9173 -0.2364 -0.3259
  141TCq2    H4 2161   2.674   3.686  14.712 -1.3196  1.6106  0.8642
  142MPD2     C 2162   0.835   1.126  10.409 -0.5524  0.1944  0.1537
  142MPD2    C1 2163   0.850   1.089  10.279  0.0570  0.1540  0.4178
  142MPD2    C2 2164   0.975   1.073  10.226 -0.5492 -0.1891 -0.2687
  142MPD2    C3 2165   1.087   1.084  10.306  0.3178 -0.2538  0.5398
  142MPD2    C4 2166   1.077   1.130  10.433 -0.1064  0.2511  0.2015
  142MPD2    C5 2167   0.945   1.154  10.481 -0.2850  0.5272 -0.4876
  142MPD2     H 2168   0.994   1.064  10.119  0.6322  0.0488 -0.0797
  142MPD2    H1 2169   1.167   1.139  10.493  0.4160  1.1999 -0.7313
  142MPD2    H2 2170   0.735   1.143  10.448 -0.0373  2.2403  0.5424
  142MPD2    H3 2171   0.937   1.188  10.584 -3.4198 -1.3193 -0.1196
  142MPD2     N 2172   1.225   1.066  10.264 -0.0612 -0.0548  0.0377
  142MPD2    H5 2173   1.301   1.098  10.323  1.6429  0.5000 -2.4602
  142MPD2    N1 2174   0.732   1.053  10.203  0.3048 -0.6319 -0.4631
  142MPD2    H7 2175   0.640   1.058  10.245  0.6972 -0.8168  0.4047
  143TCq2    C1 2176   1.264   1.012  10.143 -0.6037 -0.3105  0.2032
  143TCq2    O2 2177   1.198   0.946  10.068  0.4849 -0.4093 -0.1167
  143TCq2    C2 2178   1.388   1.073  10.088 -0.0250 -0.1210 -0.3118
  143TCq2    C3 2179   1.468   1.163  10.156 -0.0672  0.0998 -0.2651
  143TCq2    C4 2180   1.532   1.268  10.090 -0.0137  0.1010 -0.2141
  143TCq2    C5 2181   1.511   1.288   9.956 -0.3135  0.0244 -0.0709
  143TCq2    C6 2182   1.441   1.193   9.889 -0.0107 -0.5510  0.9464
  143TCq2    C7 2183   1.376   1.088   9.951  0.2389  0.0807  0.5659
  143TCq2    C8 2184   1.407   1.208   9.752 -0.0155  0.2645 -0.1161
  143TCq2    O4 2185   1.287   1.207   9.737  0.1720  0.1233  0.7008
  143TCq2    C9 2186   1.609   1.362  10.168 -0.4373 -0.1336 -1.0348
  143TCq2    O5 2187   1.598   1.369  10.293  0.2371 -0.1201  0.3489
  143TCq2    O6 2188   1.652   1.457  10.098  0.0093 -0.3466  0.6414
  143TCq2    H2 2189   1.464   1.165  10.265  1.0465  1.1707 -0.2492
  143TCq2    H3 2190   1.556   1.372   9.903 -0.7469 -0.1871 -0.7715
  143TCq2    H4 2191   1.323   1.021   9.884 -3.5434  2.1241  1.5664
  144MPD2     C 2192   2.733   1.691   1.315 -0.9028 -0.2762  0.4021
  144MPD2    C1 2193   2.720   1.556   1.308 -0.0985 -0.3773 -0.3877
  144MPD2    C2 2194   2.808   1.478   1.387  0.9131 -0.2535 -0.3937
  144MPD2    C3 2195   2.903   1.535   1.472  0.2284 -0.1709  0.2012
  144MPD2    C4 2196   2.900   1.671   1.483  0.3418 -0.1277  0.9529
  144MPD2    C5 2197   2.811   1.744   1.417 -0.1982 -0.1232 -0.2719
  144MPD2     H 2198   2.803   1.371   1.369 -0.0869  0.1855 -2.8277
  144MPD2    H1 2199   2.968   1.718   1.553  0.1677 -0.8295  1.5926
  144MPD2    H2 2200   2.684   1.762   1.249  2.7599 -1.0267 -3.1203
  144MPD2    H3 2201   2.816   1.850   1.440 -0.6558 -0.1536 -0.0323
  144MPD2     N 2202   3.000   1.463   1.543 -0.3465  0.3945 -0.0815
  144MPD2    H5 2203   3.065   1.527   1.588 -1.3548  0.6252  1.0666
  144MPD2    N1 2204   2.639   1.490   1.217 -0.5469 -0.2981  0.0709
  144MPD2    H7 2205   2.647   1.389   1.208  0.9910 -0.0699 -0.9088
  145TCq2    C1 2206   3.026   1.327   1.537  0.7116  0.0712  0.2758
  145TCq2    O2 2207   2.946   1.243   1.496  0.6745 -0.0385  0.1771
  145TCq2    C2 2208   3.169   1.287   1.555 -0.8150  0.7300 -0.1402
  145TCq2    C3 2209   3.202   1.159   1.573 -1.1162 -0.7911 -0.0647
  145TCq2    C4 2210   3.332   1.114   1.543  0.7129 -0.5399 -0.3301
  145TCq2    C5 2211   3.432   1.202   1.522 -1.1823 -0.1605  0.1607
  145TCq2    C6 2212   3.400   1.335   1.515  0.5145  0.4893  0.3730
  145TCq2    C7 2213   3.272   1.376   1.522 -0.7100 -0.4341  0.0913
  145TCq2    C8 2214   3.504   1.429   1.485  0.3903  0.6197  0.1234
  145TCq2    O4 2215   3.616   1.384   1.474  0.5356  0.0334  0.1433
  145TCq2    C9 2216   3.358   0.980   1.531 -1.1444  0.3339  0.2217
  145TCq2    O5 2217   3.481   0.943   1.534  0.4261  0.8475 -0.4240
  145TCq2    O6 2218   3.261   0.905   1.551 -0.2878  0.1660  0.2827
  145TCq2    H2 2219   3.120   1.092   1.594 -2.1046  0.5771  0.5080
  145TCq2    H3 2220   3.534   1.166   1.509 -1.7077 -1.6730  0.1654
  145TCq2    H4 2221   3.241   1.467   1.470 -1.0782  0.9896  2.8043
  146TMC2    C1 2222   4.490   4.392  12.790 -0.0803  0.2968  0.0506
  146TMC2    C2 2223   4.407   4.302  12.726 -0.2113 -0.0378 -0.1591
  146TMC2    C3 2224   4.457   4.237  12.620 -0.3966  0.3376  0.8948
  146TMC2    C4 2225   4.607   4.433  12.737  0.5290 -0.0648 -0.5205
  146TMC2    C5 2226   4.647   4.371  12.622 -0.6715  0.2361  1.0120
  146TMC2    C6 2227   4.572   4.275  12.559 -0.6617  0.0537 -0.1405
  146TMC2     C 2228   4.434   4.448  12.912  0.2976  0.2824  0.2049
  146TMC2     O 2229   4.312   4.438  12.915 -0.0032 -0.4185 -0.1578
  146TMC2     H 2230   4.321   4.255  12.773  0.0266  0.5876  0.8982
  146TMC2    H1 2231   4.672   4.515  12.765 -1.0311  1.4559 -1.2852
  146TMC2    H2 2232   4.620   4.232  12.471 -1.4699 -0.0682 -0.5259
  146TMC2    C7 2233   0.061   4.375  12.580  0.4846 -0.1453  0.1520
  146TMC2    C8 2234   4.379   4.125  12.570  0.0593 -0.4636 -0.2828
  146TMC2    O1 2235   0.082   4.378  12.455  0.0625 -0.1700 -0.3490
  146TMC2    O2 2236   4.257   4.139  12.560 -0.1502  0.3601  0.5000
  146TMC2    O5 2237   4.465   4.046  12.491  0.1404 -0.6509  0.7112
  146TMC2    H5 2238   4.551   4.028  12.535  0.6362 -0.3769 -0.1337
  147MPD2     C 2239   0.561   4.375  12.691 -0.3245 -0.1297  0.3298
  147MPD2    C1 2240   0.490   4.356  12.809  0.3420  0.3273  0.2806
  147MPD2    C2 2241   0.357   4.371  12.803  0.8748 -0.2010  0.3947
  147MPD2    C3 2242   0.290   4.384  12.686 -0.0886  0.2454  0.2455
  147MPD2    C4 2243   0.365   4.400  12.573  0.2757 -0.0052  0.6099
  147MPD2    C5 2244   0.501   4.387  12.566  0.2398  0.7305  0.6185
  147MPD2     H 2245   0.301   4.375  12.895  1.1793  1.5686  0.5093
  147MPD2    H1 2246   0.313   4.422  12.481 -1.2106  1.7446  1.8706
  147MPD2    H2 2247   0.668   4.358  12.686 -0.1529  1.1747 -0.5424
  147MPD2    H3 2248   0.552   4.411  12.473 -2.5666 -1.3746 -1.4440
  147MPD2     N 2249   0.149   4.374  12.685  0.2699  0.7241 -0.3268
  147MPD2    H5 2250   0.101   4.350  12.771  0.4893 -2.0639 -0.9877
  147MPD2    N1 2251   0.559   4.325  12.928 -0.1413 -0.1520 -0.3902
  147MPD2    H7 2252   0.657   4.306  12.910  0.2076 -1.8731  3.2515
  148MPD2     C 2253   0.060   3.474  10.496 -0.2092  0.3441 -0.0845
  148MPD2    C1 2254   0.089   3.355  10.561  0.1962  0.3724 -0.5479
  148MPD2    C2 2255   0.023   3.244  10.528  0.0890 -0.6503 -0.1133
  148MPD2    C3 2256   4.644   3.240  10.435 -0.2148  0.0469  0.0213
  148MPD2    C4 2257   4.613   3.359  10.373 -0.3112  0.2362  0.3446
  148MPD2    C5 2258   4.683   3.472  10.409  0.2233 -0.5851 -0.3220
  148MPD2     H 2259   0.043   3.152  10.582  0.1037 -0.7994 -0.3781
  148MPD2    H1 2260   4.544   3.365  10.290  0.1471 -1.9477 -0.1974
  148MPD2    H2 2261   0.109   3.567  10.525  0.0160 -0.4039  1.9112
  148MPD2    H3 2262   4.657   3.565  10.360  0.6672 -0.5657 -0.5250
  148MPD2     N 2263   4.570   3.121  10.429  0.8512  0.0388  0.3035
  148MPD2    H5 2264   4.602   3.053  10.496 -1.3080  1.2777  2.6156
  148MPD2    N1 2265   0.193   3.342  10.659 -0.0935  0.1278 -0.2215
  148MPD2    H7 2266   0.224   3.248  10.681 -2.7934 -1.0726 -1.4603
  149TCq2    C1 2267   0.256   3.445  10.728 -0.1568  0.5554  0.6246
  149TCq2    O2 2268   0.234   3.566  10.737 -0.1964 -0.3488 -0.1772
  149TCq2    C2 2269   0.350   3.386  10.827  0.4045 -0.0217  0.0959
  149TCq2    C3 2270   0.471   3.441  10.838 -0.0771  0.4353  0.1472
  149TCq2    C4 2271   0.567   3.372  10.910  1.0194 -0.3027  0.0086
  149TCq2    C5 2272   0.535   3.252  10.966 -0.0322  0.6581  0.6357
  149TCq2    C6 2273   0.406   3.204  10.957 -0.0502 -0.4797 -0.0492
  149TCq2    C7 2274   0.314   3.269  10.885 -0.0525  0.2739  0.4574
  149TCq2    C8 2275   0.385   3.058  10.955 -0.3805  0.3573  0.7946
  149TCq2    O4 2276   0.273   3.028  10.919  0.3062  0.5380  0.2809
  149TCq2    C9 2277   0.706   3.408  10.875  0.3247 -0.0497 -0.2588
  149TCq2    O5 2278   0.726   3.494  10.780  0.0329  0.4764  0.2884
  149TCq2    O6 2279   0.797   3.326  10.901 -0.4842  0.1840  0.2388
  149TCq2    H2 2280   0.495   3.529  10.779 -0.1199 -0.9541 -1.9582
  149TCq2    H3 2281   0.612   3.192  11.013  0.9908  1.1684 -0.4066
  149TCq2    H4 2282   0.209   3.251  10.906  0.6074  0.0947  3.6031
  150MPD2     C 2283   1.661   2.283  12.236  0.0154 -0.3709  0.2249
  150MPD2    C1 2284   1.750   2.256  12.137 -1.2673  0.0150  0.0101
  150MPD2    C2 2285   1.864   2.333  12.122  0.9044 -0.5717 -0.6196
  150MPD2    C3 2286   1.894   2.441  12.205 -0.2308 -0.3995 -0.3691
  150MPD2    C4 2287   1.806   2.462  12.313  0.1522  0.5120  0.0535
  150MPD2    C5 2288   1.694   2.382  12.320  0.7477 -0.5358 -0.8304
  150MPD2     H 2289   1.938   2.309  12.046  0.5258  0.0722 -1.1867
  150MPD2    H1 2290   1.827   2.517  12.403 -0.1666  0.0871  0.3848
  150MPD2    H2 2291   1.580   2.216  12.263 -0.3948 -0.2328 -0.6740
  150MPD2    H3 2292   1.627   2.393  12.405 -1.7338 -0.9629 -2.7207
  150MPD2     N 2293   2.028   2.497  12.194  0.0210  0.1593 -0.4928
  150MPD2    H5 2294   2.091   2.445  12.134 -1.2332 -2.2715  0.2672
  150MPD2    N1 2295   1.707   2.156  12.047 -0.1878 -0.3666  0.7867
  150MPD2    H7 2296   1.612   2.126  12.066 -1.0907  1.8513 -0.2047
  151TCq2    C1 2297   2.085   2.587  12.280  0.5905 -0.1905  0.4928
  151TCq2    O2 2298   2.026   2.647  12.370 -0.8084 -0.2254  0.3921
  151TCq2    C2 2299   2.225   2.611  12.258 -0.3042 -0.7094  0.3703
  151TCq2    C3 2300   2.294   2.545  12.163  0.3434 -0.7937 -0.2004
  151TCq2    C4 2301   2.427   2.511  12.174  0.2571  0.7456 -0.2434
  151TCq2    C5 2302   2.493   2.548  12.288 -0.0264 -0.7435  0.2796
  151TCq2    C6 2303   2.424   2.633  12.379  0.9806  0.3974 -0.3921
  151TCq2    C7 2304   2.292   2.673  12.358 -0.4138  0.5041  0.0432
  151TCq2    C8 2305   2.488   2.682  12.497  0.0219 -0.1847  0.4688
  151TCq2    O4 2306   2.438   2.778  12.552 -0.3207  1.1410 -0.5087
  151TCq2    C9 2307   2.498   2.437  12.074 -0.0694 -0.1388 -0.5630
  151TCq2    O5 2308   2.627   2.440  12.080  0.1933  0.1012  0.7698
  151TCq2    O6 2309   2.437   2.416  11.965 -0.6033 -0.4439  0.0676
  151TCq2    H2 2310   2.244   2.511  12.073  0.4559 -0.4245 -0.4042
  151TCq2    H3 2311   2.599   2.530  12.291 -0.0361 -0.8297  0.0671
  151TCq2    H4 2312   2.247   2.743  12.428  1.5522  4.1139 -2.3371
  152MPD2     C 2313   1.577   1.787  12.913  0.7293  0.4126 -0.1616
  152MPD2    C1 2314   1.666   1.810  12.815 -0.5105  0.5880 -0.0123
  152MPD2    C2 2315   1.615   1.831  12.682 -0.0738 -0.1015  0.4326
  152MPD2    C3 2316   1.481   1.809  12.647  0.0129  0.1779  0.3598
  152MPD2    C4 2317   1.395   1.797  12.752  0.4928  0.3446 -0.3677
  152MPD2    C5 2318   1.448   1.788  12.882 -0.1426 -0.0974 -0.1598
  152MPD2     H 2319   1.686   1.850  12.602  0.1804 -0.8945  0.4729
  152MPD2    H1 2320   1.288   1.784  12.738  0.5797 -0.1378 -0.5685
  152MPD2    H2 2321   1.608   1.785  13.017 -0.3916 -1.1221  0.1415
  152MPD2    H3 2322   1.379   1.781  12.966 -1.7792  2.0710 -1.3148
  152MPD2     N 2323   1.433   1.814  12.513  0.5457 -0.5999  0.0848
  152MPD2    H5 2324   1.488   1.872  12.450  0.2360 -1.3224 -0.8556
  152MPD2    N1 2325   1.802   1.833  12.854  0.1017 -0.3444 -0.3803
  152MPD2    H7 2326   1.832   1.815  12.949 -0.4958  2.2798  0.2914
  153TCq2    C1 2327   1.906   1.872  12.771  0.1382 -0.0639 -0.2047
  153TCq2    O2 2328   1.900   1.934  12.670 -1.2582 -0.3829 -0.6893
  153TCq2    C2 2329   2.037   1.861  12.840  0.2509 -0.7019 -0.1776
  153TCq2    C3 2330   2.056   1.780  12.954  0.4655  0.3232  0.0879
  153TCq2    C4 2331   2.159   1.800  13.038 -0.9764  0.5325 -0.3568
  153TCq2    C5 2332   2.246   1.898  13.018  0.5965  0.2658  0.3996
  153TCq2    C6 2333   2.218   1.982  12.911  0.2108  0.5954  0.2217
  153TCq2    C7 2334   2.117   1.966  12.816  0.1399  0.1763  0.2035
  153TCq2    C8 2335   2.308   2.097  12.896  0.2168  0.3189 -0.2852
  153TCq2    O4 2336   2.299   2.157  12.790 -0.3724 -0.9468 -0.1574
  153TCq2    C9 2337   2.170   1.724  13.158  0.0933 -0.4305 -0.1082
  153TCq2    O5 2338   2.096   1.622  13.162 -0.5038 -0.1019  0.0834
  153TCq2    O6 2339   2.219   1.788  13.254 -0.5033 -0.3791  0.4511
  153TCq2    H2 2340   1.983   1.703  12.974  0.6982  0.3546  1.0586
  153TCq2    H3 2341   2.343   1.894  13.066  0.2449  1.7649  1.2344
  153TCq2    H4 2342   2.101   2.035  12.734  2.4361  2.8092  1.9762
  154MPD2     C 2343   4.715   3.253   0.386 -0.3100  0.3280 -0.1210
  154MPD2    C1 2344   4.607   3.266   0.302  0.4832 -0.5683  0.0495
  154MPD2    C2 2345   4.482   3.281   0.367  0.2105 -0.0325  0.5444
  154MPD2    C3 2346   4.472   3.301   0.501 -0.3521 -0.1502  0.0231
  154MPD2    C4 2347   4.580   3.304   0.583  0.3500 -0.1711  0.1937
  154MPD2    C5 2348   4.702   3.269   0.519 -0.5390  0.3714  0.0430
  154MPD2     H 2349   4.395   3.272   0.304 -0.4472  0.8361  1.3348
  154MPD2    H1 2350   4.582   3.333   0.687 -2.0470  0.8233 -0.0443
  154MPD2    H2 2351   0.092   3.239   0.352 -0.3781  1.6405 -0.8627
  154MPD2    H3 2352   0.066   3.263   0.581  0.3091 -1.6906 -1.3691
  154MPD2     N 2353   4.343   3.305   0.561 -1.1240  0.4329 -0.3387
  154MPD2    H5 2354   4.336   3.292   0.661  1.4794  0.1507 -0.2099
  154MPD2    N1 2355   4.632   3.249   0.167 -0.0913  0.0477 -0.7571
  154MPD2    H7 2356   0.005   3.241   0.140  0.0053 -0.2553 -0.3228
  155TCq2    C1 2357   4.548   3.273   0.063 -0.3684 -0.3359  0.0889
  155TCq2    O2 2358   4.440   3.329   0.070 -0.0314  0.4475  0.3182
  155TCq2    C2 2359   4.595   3.236  17.632 -0.6402 -0.4453 -0.3219
  155TCq2    C3 2360   4.700   3.154  17.624  0.4074 -0.0072  0.3222
  155TCq2    C4 2361   0.034   3.126  17.508 -0.3182 -0.5214 -0.4966
  155TCq2    C5 2362   0.003   3.197  17.392  0.0866  0.2485  0.4529
  155TCq2    C6 2363   4.641   3.294  17.406 -0.1303 -0.1054  0.0946
  155TCq2    C7 2364   4.573   3.316  17.523 -0.3469  0.1666 -0.6277
  155TCq2    C8 2365   4.618   3.385  17.290 -0.0230 -0.2350  0.2230
  155TCq2    O4 2366   4.662   3.355  17.176 -0.7575  0.3770  0.0849
  155TCq2    C9 2367   0.137   3.022  17.509  0.3708 -0.2995  0.2580
  155TCq2    O5 2368   0.159   2.963  17.392  0.2569 -0.3029  0.5576
  155TCq2    O6 2369   0.171   2.983  17.621 -0.4520 -0.2659 -0.1990
  155TCq2    H2 2370   0.008   3.098   0.011  0.2905  3.4770  2.6228
  155TCq2    H3 2371   0.066   3.177  17.306  0.5465  0.4348  0.7449
  155TCq2    H4 2372   4.479   3.371  17.529 -0.7210 -0.6994  1.2559
  156MPD2     C 2373   2.457   0.246  11.716 -0.3540 -1.1542 -0.1325
  156MPD2    C1 2374   2.339   0.305  11.755  0.2974 -0.8540  0.3554
  156MPD2    C2 2375   2.334   0.360  11.883 -0.2687 -0.0923 -0.0181
  156MPD2    C3 2376   2.444   0.376  11.963  0.2627  0.0120  0.0949
  156MPD2    C4 2377   2.566   0.329  11.924 -0.6095 -0.1674 -0.0909
  156MPD2    C5 2378   2.568   0.268  11.799  0.1694 -0.3294  0.0312
  156MPD2     H 2379   2.241   0.402  11.919 -1.1585 -0.1327 -2.2294
  156MPD2    H1 2380   2.652   0.339  11.989 -0.8122  1.5773 -0.0879
  156MPD2    H2 2381   2.467   0.183  11.628  2.2905  0.1842 -0.7791
  156MPD2    H3 2382   2.666   0.231  11.771  1.2414  1.3421  1.5801
  156MPD2     N 2383   2.429   0.467  12.071  0.2465  0.6136  0.0266
  156MPD2    H5 2384   2.332   0.495  12.076 -0.2049 -1.1947  1.1548
  156MPD2    N1 2385   2.232   0.322  11.657  0.4462 -0.2789  0.3438
  156MPD2    H7 2386   2.234   0.288  11.561 -2.6565 -0.8625  0.4965
  157TCq2    C1 2387   2.117   0.391  11.680  0.2289  0.1043 -0.3166
  157TCq2    O2 2388   2.092   0.482  11.761 -0.8011 -0.0822  0.0787
  157TCq2    C2 2389   2.056   0.402  11.551 -0.2271 -0.0521  0.9160
  157TCq2    C3 2390   2.004   0.289  11.501  0.3022  0.5234  0.8580
  157TCq2    C4 2391   1.955   0.304  11.369 -0.0633  0.5502  0.3985
  157TCq2    C5 2392   1.939   0.431  11.311  0.7124  0.3374 -0.5909
  157TCq2    C6 2393   1.982   0.545  11.377  0.4207  0.2343  0.2956
  157TCq2    C7 2394   2.053   0.527  11.496 -1.0570 -0.5707  0.6808
  157TCq2    C8 2395   1.940   0.674  11.333  0.1320  0.6903  0.3338
  157TCq2    O4 2396   1.829   0.693  11.282 -0.1485 -0.1742 -0.0408
  157TCq2    C9 2397   1.896   0.186  11.309  0.3812  0.6534  0.7317
  157TCq2    O5 2398   1.871   0.199  11.188  0.0615  0.3065 -0.1154
  157TCq2    O6 2399   1.925   0.081  11.370  0.2032 -0.6686 -0.1089
  157TCq2    H2 2400   2.021   0.189  11.537 -0.5433  0.0462 -0.0887
  157TCq2    H3 2401   1.881   0.446  11.221  0.3153  2.0607 -0.0559
  157TCq2    H4 2402   2.078   0.612  11.559 -1.5320 -1.0479  1.5299
  158TMC2    C1 2403   1.965   3.092  13.203 -0.6685 -0.2548  0.1977
  158TMC2    C2 2404   1.981   3.166  13.087 -0.2399  0.4048 -0.7347
  158TMC2    C3 2405   1.876   3.254  13.057 -0.3891  0.7814 -0.0305
  158TMC2    C4 2406   1.848   3.102  13.273 -0.4589  0.5152 -0.1534
  158TMC2    C5 2407   1.748   3.189  13.239  1.1035  0.3190  0.3479
  158TMC2    C6 2408   1.758   3.272  13.127 -0.6508  0.7378  0.4081
  158TMC2     C 2409   2.078   3.024  13.259 -0.5839  0.1209 -0.1508
  158TMC2     O 2410   2.162   2.986  13.177 -0.1745  0.9205  0.2226
  158TMC2     H 2411   2.076   3.155  13.036  1.0917 -1.2926  2.0859
  158TMC2    H1 2412   1.844   3.042  13.364 -2.5065 -2.1380 -2.0130
  158TMC2    H2 2413   1.688   3.346  13.090 -2.3863 -1.1645 -0.1116
  158TMC2    C7 2414   1.619   3.203  13.310 -1.0598  0.1076 -0.3586
  158TMC2    C8 2415   1.864   3.320  12.930  0.6152 -0.3051 -0.2605
  158TMC2    O1 2416   1.523   3.263  13.263 -0.1865  0.3443  0.6977
  158TMC2    O2 2417   1.757   3.340  12.869 -0.1178 -0.5448  0.3197
  158TMC2    O5 2418   1.988   3.309  12.875  0.1454  0.6736  0.2083
  158TMC2    H5 2419   2.068   3.298  12.932  0.4220  0.9678 -0.1246
  159MPD2     C 2420   2.434   2.925  13.624 -0.0482 -0.1472  0.5267
  159MPD2    C1 2421   2.326   3.002  13.682 -0.0107 -1.0996  0.2824
  159MPD2    C2 2422   2.214   3.024  13.609  0.5029  0.0511  0.0717
  159MPD2    C3 2423   2.200   2.977  13.482 -0.5133  0.1711 -0.0999
  159MPD2    C4 2424   2.299   2.908  13.423 -0.1017  0.1065 -0.3859
  159MPD2    C5 2425   2.414   2.876  13.494  0.0490  0.2671  0.4875
  159MPD2     H 2426   2.125   3.061  13.659  0.7650 -0.2554  0.7601
  159MPD2    H1 2427   2.292   2.879  13.319 -1.8926  1.3999 -0.6338
  159MPD2    H2 2428   2.531   2.910  13.670 -0.4255  2.9757  2.3338
  159MPD2    H3 2429   2.484   2.815  13.439  1.5710  2.7312 -0.3223
  159MPD2     N 2430   2.089   3.021  13.399 -0.0646 -0.0246 -0.3614
  159MPD2    H5 2431   2.011   3.063  13.449 -0.1025 -3.1630  2.2195
  159MPD2    N1 2432   2.331   3.067  13.813 -0.7974 -0.2420  0.2739
  159MPD2    H7 2433   2.413   3.042  13.868  0.2416 -0.6431 -1.4492
  160TMC2    C1 2434   2.669   2.236   2.125  0.5461 -0.1664  0.3821
  160TMC2    C2 2435   2.777   2.165   2.175  1.0245 -0.1435 -0.4617
  160TMC2    C3 2436   2.765   2.028   2.172  0.5218 -0.0230 -0.0318
  160TMC2    C4 2437   2.568   2.180   2.058  0.4922  0.5616  0.8273
  160TMC2    C5 2438   2.559   2.040   2.054 -0.3501  0.4157 -0.0531
  160TMC2    C6 2439   2.652   1.962   2.119 -0.2863  1.3378  0.4114
  160TMC2     C 2440   2.679   2.385   2.128  0.2864  0.2512 -0.5885
  160TMC2     O 2441   2.788   2.437   2.145  0.2874  0.3456  0.3423
  160TMC2     H 2442   2.862   2.207   2.227  1.6670 -1.3471 -0.5580
  160TMC2    H1 2443   2.494   2.233   1.998  0.7361  1.1081  1.0096
  160TMC2    H2 2444   2.640   1.854   2.115  0.5550  1.1971  1.6379
  160TMC2    C7 2445   2.459   1.980   1.957  0.4983 -0.5450 -0.3282
  160TMC2    C8 2446   2.860   1.951   2.253 -0.2883 -0.3525  0.1599
  160TMC2    O1 2447   2.397   1.877   1.989 -1.1443 -0.0630 -0.0871
  160TMC2    O2 2448   2.844   1.943   2.376 -0.5455 -0.0626 -0.0820
  160TMC2    O5 2449   2.888   1.850   2.170  0.1507  0.2034 -0.4418
  160TMC2    H5 2450   2.924   1.882   2.084 -0.0417 -1.3834 -1.1159
  161MPD2     C 2451   2.614   2.680   2.138  0.0583 -0.2021  0.0237
  161MPD2    C1 2452   2.530   2.577   2.094  0.1018 -0.3926 -0.7779
  161MPD2    C2 2453   2.403   2.609   2.044  0.2390  0.7650 -0.2903
  161MPD2    C3 2454   2.350   2.734   2.041  0.5910 -0.5546  0.6714
  161MPD2    C4 2455   2.433   2.831   2.087 -0.1961  0.6190  0.2451
  161MPD2    C5 2456   2.559   2.804   2.128 -0.4535  0.0199 -0.1318
  161MPD2     H 2457   2.348   2.531   1.993  0.9877  0.5766 -0.8142
  161MPD2    H1 2458   2.396   2.932   2.092  0.1705  0.8862 -2.2459
  161MPD2    H2 2459   2.709   2.657   2.186  0.9875  0.6071 -1.4398
  161MPD2    H3 2460   2.619   2.885   2.169 -0.9676  0.5855 -0.5089
  161MPD2     N 2461   2.221   2.765   1.986 -0.3425 -0.1310  0.0606
  161MPD2    H5 2462   2.200   2.864   1.983  0.1227  0.0223  1.5899
  161MPD2    N1 2463   2.561   2.441   2.093 -0.3192 -0.6651  0.2718
  161MPD2    H7 2464   2.492   2.381   2.051 -0.1699  0.6993 -1.9384
  162TMC2    C1 2465   0.590   4.234   0.938  1.1927 -0.6220 -0.2436
  162TMC2    C2 2466   0.560   4.293   0.816  0.3502  0.8565  0.0233
  162TMC2    C3 2467   0.466   4.389   0.808 -0.3493  0.5371  0.4347
  162TMC2    C4 2468   0.512   4.263   1.051  0.3249  0.1932  0.4518
  162TMC2    C5 2469   0.416   4.361   1.040 -0.1170  0.1577  0.4877
  162TMC2    C6 2470   0.389   4.424   0.914  0.0245 -0.1186 -0.0040
  162TMC2     C 2471   0.659   4.100   0.920 -0.1683  1.1186  0.3726
  162TMC2     O 2472   0.677   4.065   0.804 -0.0075  0.4968  0.1942
  162TMC2     H 2473   0.621   4.276   0.728 -2.0045 -0.9495 -1.2737
  162TMC2    H1 2474   0.540   4.223   1.148 -1.1978  0.4202  0.9842
  162TMC2    H2 2475   0.310   4.499   0.915 -0.7766 -0.9332 -1.8890
  162TMC2    C7 2476   0.314   4.388   1.142 -0.0443 -0.2189  0.1776
  162TMC2    C8 2477   0.419   4.431   0.685 -0.7128  0.0048  0.6698
  162TMC2    O1 2478   0.245   4.490   1.136 -0.5031  0.1237  0.5263
  162TMC2    O2 2479   0.310   4.473   0.659 -0.2848  0.1446 -0.5691
  162TMC2    O5 2480   0.534   4.465   0.617  0.2744  0.7164  0.6497
  162TMC2    H5 2481   0.615   4.457   0.672  0.2256  0.0269  0.6170
  163MPD2     C 2482   0.775   3.621   1.099 -0.4802 -0.3695  0.0670
  163MPD2    C1 2483   0.735   3.661   0.973  0.0995 -0.4521 -0.4624
  163MPD2    C2 2484   0.716   3.799   0.953 -0.8648  0.4006 -0.0469
  163MPD2    C3 2485   0.736   3.896   1.053 -0.4658  0.5725  0.2488
  163MPD2    C4 2486   0.773   3.847   1.182 -0.9523 -0.1213  0.3128
  163MPD2    C5 2487   0.800   3.715   1.196 -0.5944 -0.3190 -0.1508
  163MPD2     H 2488   0.660   3.826   0.864  1.1105  2.4705 -0.6674
  163MPD2    H1 2489   0.777   3.918   1.263 -0.2998  1.5756 -1.2081
  163MPD2    H2 2490   0.807   3.520   1.122  0.8988  0.1151  0.2540
  163MPD2    H3 2491   0.832   3.685   1.295  0.6213  2.1193  0.2095
  163MPD2     N 2492   0.695   4.037   1.042 -0.6111 -0.9119  0.2666
  163MPD2    H5 2493   0.697   4.095   1.125 -0.9971  0.9552 -1.0261
  163MPD2    N1 2494   0.714   3.564   0.873  0.7067  0.5077  0.2967
  163MPD2    H7 2495   0.716   3.469   0.908  0.6367 -0.1717 -1.5358
  164TCq2    C1 2496   0.659   2.469  11.223 -0.5817  0.5451  0.2907
  164TCq2    O2 2497   0.553   2.410  11.216 -0.1969 -0.4122 -0.3789
  164TCq2    C2 2498   0.657   2.582  11.310 -0.2496  0.7339  0.5362
  164TCq2    C3 2499   0.763   2.593  11.387  0.6607 -0.3924  0.3822
  164TCq2    C4 2500   0.783   2.707  11.461  0.2756  0.2790  0.4842
  164TCq2    C5 2501   0.688   2.805  11.455 -0.4076  0.0378  0.4758
  164TCq2    C6 2502   0.578   2.788  11.375 -0.0457 -0.0981 -0.5919
  164TCq2    C7 2503   0.554   2.672  11.302 -0.7408 -0.2562  0.4389
  164TCq2    C8 2504   0.481   2.896  11.356 -0.2702  0.3447 -0.5997
  164TCq2    O4 2505   0.366   2.865  11.333  0.0813 -0.1179 -0.1295
  164TCq2    C9 2506   0.893   2.712  11.554 -0.2578 -0.2661  0.5121
  164TCq2    O5 2507   0.966   2.607  11.560  0.7353 -0.1201  0.6148
  164TCq2    O6 2508   0.887   2.798  11.645 -0.0945 -0.3749  0.5345
  164TCq2    H2 2509   0.835   2.513  11.403 -1.5711 -2.3097  0.8734
  164TCq2    H3 2510   0.714   2.890  11.517  0.8368 -0.6137  0.8362
  164TCq2    H4 2511   0.465   2.656  11.242  0.1751  1.4664 -1.4181
  165MPD2     C 2512   2.217   0.320   2.084  0.0572 -0.8428  0.1081
  165MPD2    C1 2513   2.155   0.301   2.206 -0.3808  0.0253  0.1479
  165MPD2    C2 2514   2.162   0.411   2.294 -0.2543  0.3075  0.1556
  165MPD2    C3 2515   2.231   0.530   2.261  0.0261  0.0588  0.2686
  165MPD2    C4 2516   2.298   0.544   2.140 -0.4974 -0.5083 -0.2680
  165MPD2    C5 2517   2.281   0.436   2.051 -0.1165  0.5904 -0.1250
  165MPD2     H 2518   2.104   0.412   2.386 -1.3839 -1.2131 -0.5547
  165MPD2    H1 2519   2.358   0.630   2.113  1.7081 -1.9856 -0.0728
  165MPD2    H2 2520   2.212   0.246   2.004 -0.4206 -1.9978  1.2121
  165MPD2    H3 2521   2.329   0.445   1.954  0.2179  1.2748  0.1060
  165MPD2     N 2522   2.238   0.643   2.344 -0.4461  0.5143  0.2602
  165MPD2    H5 2523   2.266   0.727   2.294  0.3734  0.7323  1.0629
  165MPD2    N1 2524   2.086   0.186   2.239 -0.2644  0.9617 -0.3870
  165MPD2    H7 2525   2.077   0.126   2.158  0.2812  0.3165  0.0310
  166TCq2    C1 2526   2.175   0.659   2.470 -0.5356  0.4777  0.2289
  166TCq2    O2 2527   2.119   0.571   2.534  0.6920 -0.1313  0.3102
  166TCq2    C2 2528   2.151   0.798   2.501  0.8959 -0.3322 -0.1872
  166TCq2    C3 2529   2.077   0.821   2.613  0.4964 -0.2327 -0.1866
  166TCq2    C4 2530   2.043   0.949   2.643  0.0357 -0.0033 -0.1935
  166TCq2    C5 2531   2.075   1.050   2.558  0.4602  0.1507 -0.2831
  166TCq2    C6 2532   2.160   1.026   2.455  0.7737  0.2720  0.1833
  166TCq2    C7 2533   2.197   0.903   2.425 -0.4489  0.0448  0.3451
  166TCq2    C8 2534   2.176   1.120   2.345  0.3121  0.0868  0.0375
  166TCq2    O4 2535   2.275   1.108   2.274 -0.8358  0.0883  0.3199
  166TCq2    C9 2536   1.967   0.974   2.763 -0.8648 -0.4822 -0.2944
  166TCq2    O5 2537   1.950   0.880   2.840 -0.0527  0.9161 -0.6989
  166TCq2    O6 2538   1.931   1.090   2.782  0.5005  0.1086  0.2875
  166TCq2    H2 2539   2.039   0.739   2.673 -0.4192  0.1779 -0.2074
  166TCq2    H3 2540   2.038   1.149   2.579 -1.7826 -0.9246  0.8674
  166TCq2    H4 2541   2.253   0.897   2.332 -1.2487  0.4248 -0.1614
  167TMC2    C1 2542   0.610   3.076  12.717  0.3035 -0.6461  0.8419
  167TMC2    C2 2543   0.708   3.102  12.804  0.3655 -1.1023  0.0293
  167TMC2    C3 2544   0.721   3.009  12.905  0.1773 -0.6004 -0.4433
  167TMC2    C4 2545   0.518   2.976  12.726 -0.0974  0.1278  0.3398
  167TMC2    C5 2546   0.540   2.885  12.825 -0.4565 -0.5641  0.1414
  167TMC2    C6 2547   0.630   2.909  12.921  0.1755 -0.5822  0.3157
  167TMC2     C 2548   0.612   3.152  12.590  0.1457 -0.6601  0.0767
  167TMC2     O 2549   0.716   3.207  12.557 -0.2849  0.7865 -0.1255
  167TMC2     H 2550   0.778   3.184  12.788 -0.2033 -0.5431  0.4198
  167TMC2    H1 2551   0.438   2.960  12.655  0.0293  0.3351  0.1508
  167TMC2    H2 2552   0.627   2.839  13.003 -1.3585 -0.4248  0.3909
  167TMC2    C7 2553   0.457   2.765  12.836  0.3617 -0.2398  0.7412
  167TMC2    C8 2554   0.784   3.050  13.023  0.0152  0.1529 -0.5713
  167TMC2    O1 2555   0.419   2.722  12.943 -0.2809  0.1932  0.4615
  167TMC2    O2 2556   0.750   3.024  13.138 -0.3142  0.3161 -0.2523
  167TMC2    O5 2557   0.912   3.060  12.985 -0.0208  0.6889  0.2127
  167TMC2    H5 2558   0.916   3.088  12.891 -0.1520 -1.6210 -0.4871
  168MPD2     C 2559   0.526   3.318  12.352 -0.0873 -0.1373  0.0746
  168MPD2    C1 2560   0.449   3.236  12.427  0.0571 -0.2498  0.2857
  168MPD2    C2 2561   0.315   3.220  12.386 -0.1236 -0.2311 -0.1319
  168MPD2    C3 2562   0.263   3.288  12.278 -0.0824  0.1939 -0.0219
  168MPD2    C4 2563   0.339   3.386  12.211  0.3158 -0.0441 -0.2139
  168MPD2    C5 2564   0.468   3.400  12.250  0.7552 -0.3423  0.2682
  168MPD2     H 2565   0.237   3.171  12.443  0.1940 -0.6547 -0.0665
  168MPD2    H1 2566   0.298   3.459  12.142 -0.4443  0.8223  1.1261
  168MPD2    H2 2567   0.629   3.341  12.377 -0.1533  2.3637 -1.8744
  168MPD2    H3 2568   0.544   3.461  12.203 -0.7848  2.1873  1.1122
  168MPD2     N 2569   0.134   3.277  12.233 -0.2612 -0.0341 -0.6632
  168MPD2    H5 2570   0.095   3.363  12.196  0.4078  0.1436 -0.9532
  168MPD2    N1 2571   0.485   3.159  12.535 -0.1023 -0.2999 -0.3299
  168MPD2    H7 2572   0.404   3.114  12.578 -1.5262  0.8067 -1.8796
  169MPD1     C 2573   3.684   0.318   8.913  0.5910  0.1093 -0.7502
  169MPD1    C1 2574   3.776   0.412   8.927 -0.5156  0.0605  0.2689
  169MPD1    C2 2575   3.734   0.539   8.928  0.5913 -1.1170 -0.4242
  169MPD1    C3 2576   3.603   0.572   8.931 -0.3639 -0.8825  0.2839
  169MPD1    C4 2577   3.507   0.472   8.934  0.1079 -0.7230 -0.7863
  169MPD1    C5 2578   3.552   0.343   8.920  0.0615 -0.6145 -1.2858
  169MPD1     H 2579   3.818   0.607   8.935 -1.2717  1.3502 -1.7004
  169MPD1    H1 2580   3.403   0.495   8.950  0.0843 -1.5262  0.2094
  169MPD1    H2 2581   3.710   0.216   8.885 -0.3467  0.0389 -1.3642
  169MPD1    H3 2582   3.478   0.264   8.921 -1.2905  0.6658 -0.3139
  169MPD1     N 2583   3.568   0.707   8.930  0.2522  0.4415 -0.3967
  169MPD1    H5 2584   3.647   0.768   8.950  1.2947 -0.7642 -0.7661
  169MPD1    N1 2585   3.911   0.373   8.907  0.3896 -0.0276  0.3840
  169MPD1    H6 2586   3.981   0.445   8.926  0.7558 -0.4798  0.7460
  169MPD1    H7 2587   3.936   0.291   8.962  0.3113 -1.3712 -1.5779
  170MPD1     C 2588   0.708   0.280  13.136  0.1546 -0.1450 -0.0899
  170MPD1    C1 2589   0.660   0.318  13.259 -0.9819 -0.1623  0.1657
  170MPD1    C2 2590   0.755   0.348  13.353  0.4074 -0.2424  0.1086
  170MPD1    C3 2591   0.884   0.387  13.321  0.3407  0.2001 -0.4013
  170MPD1    C4 2592   0.923   0.369  13.190  0.3877 -0.2997 -0.8596
  170MPD1    C5 2593   0.835   0.309  13.100  0.2554  0.1085 -0.2267
  170MPD1     H 2594   0.741   0.353  13.460  0.6136 -0.8727  0.1661
  170MPD1    H1 2595   1.016   0.406  13.147  1.6304  1.6770  3.6187
  170MPD1    H2 2596   0.653   0.223  13.061 -0.5288 -1.0307  1.0898
  170MPD1    H3 2597   0.870   0.288  12.999  2.5518  1.2434  0.3277
  170MPD1     N 2598   0.952   0.457  13.421  0.4691 -0.6947 -0.8225
  170MPD1    H5 2599   0.912   0.464  13.514  0.0847  0.7642 -1.1061
  170MPD1    N1 2600   0.521   0.282  13.293 -0.5251  0.2069 -0.1263
  170MPD1    H6 2601   0.460   0.293  13.213 -0.9497  1.3022  0.3509
  170MPD1    H7 2602   0.478   0.329  13.372 -0.1289  1.9872 -0.9713
  171MPD1     C 2603   4.547   1.957  15.561 -0.5849  0.7702  0.0299
  171MPD1    C1 2604   4.506   1.849  15.477 -0.1661  0.2600  0.5562
  171MPD1    C2 2605   4.515   1.722  15.521 -0.0461 -0.6723 -0.0935
  171MPD1    C3 2606   4.546   1.701  15.655  0.1330  0.1612  0.4149
  171MPD1    C4 2607   4.572   1.805  15.743 -0.7605  0.5117 -0.5453
  171MPD1    C5 2608   4.580   1.932  15.690 -0.5378  0.2991  0.5727
  171MPD1     H 2609   4.483   1.637  15.460  1.1967 -0.9542 -0.3540
  171MPD1    H1 2610   4.581   1.794  15.850 -0.6305 -0.9573 -0.6966
  171MPD1    H2 2611   4.539   2.063  15.540  0.1958  0.5309 -1.4964
  171MPD1    H3 2612   4.586   2.024  15.747 -0.6836  1.1126 -0.7031
  171MPD1     N 2613   4.540   1.573  15.714  0.1946  0.1470  0.4696
  171MPD1    H5 2614   4.547   1.563  15.815 -0.6615  0.2699  0.5396
  171MPD1    N1 2615   4.440   1.878  15.353 -0.3953  0.3056 -0.4165
  171MPD1    H6 2616   4.448   1.810  15.277 -1.1028  1.0969 -1.1885
  171MPD1    H7 2617   4.454   1.974  15.325  0.5645  0.5912  0.9969
  172MPD1     C 2618   2.517   0.879   1.570  0.0589  0.5253 -0.3591
  172MPD1    C1 2619   2.479   0.961   1.464 -0.4721 -0.0349 -0.5239
  172MPD1    C2 2620   2.579   1.015   1.375 -0.1141 -0.4123  0.3800
  172MPD1    C3 2621   2.711   0.992   1.399  0.3598 -0.4902 -0.0041
  172MPD1    C4 2622   2.733   0.910   1.505 -0.1762 -0.2170  0.3688
  172MPD1    C5 2623   2.649   0.850   1.592  0.2651  0.1312  0.6093
  172MPD1     H 2624   2.545   1.085   1.300 -2.4633 -3.3261 -1.2847
  172MPD1    H1 2625   2.840   0.892   1.509  0.3961  3.0731  0.4746
  172MPD1    H2 2626   2.441   0.836   1.634  0.5635 -1.9351 -1.4019
  172MPD1    H3 2627   2.693   0.785   1.667 -0.5825 -0.7086  0.3662
  172MPD1     N 2628   2.823   1.041   1.328  0.3545 -0.3331 -0.0020
  172MPD1    H5 2629   2.913   0.998   1.347  1.1898  0.7982 -1.4312
  172MPD1    N1 2630   2.342   0.961   1.433  0.4806 -0.0881 -0.2298
  172MPD1    H6 2631   2.280   0.954   1.513  1.3269  1.4694  0.5578
  172MPD1    H7 2632   2.307   1.039   1.378  0.7615  1.3569  1.6403
  173MPD1     C 2633   0.289   1.267  14.442 -0.1322 -0.8299  0.5580
  173MPD1    C1 2634   0.225   1.175  14.364 -0.1119  0.0025  0.6935
  173MPD1    C2 2635   0.136   1.081  14.421  0.3436 -0.2044  0.1900
  173MPD1    C3 2636   0.117   1.079  14.555 -0.9784  0.7043 -0.2050
  173MPD1    C4 2637   0.188   1.164  14.637  0.3348  0.1882  0.3812
  173MPD1    C5 2638   0.271   1.260  14.580  0.4733  0.4424 -0.0562
  173MPD1     H 2639   0.084   1.007  14.362  0.3425 -0.7577  0.8839
  173MPD1    H1 2640   0.174   1.164  14.745  1.4088 -2.4058  0.5358
  173MPD1    H2 2641   0.366   1.328  14.396  0.7114 -0.8542  1.9337
  173MPD1    H3 2642   0.336   1.320  14.642  0.7850 -0.5544  0.5890
  173MPD1     N 2643   0.020   0.982  14.598 -0.4988 -0.0911  1.3227
  173MPD1    H5 2644   4.701   0.938  14.518  1.2392 -0.6525  0.6746
  173MPD1    N1 2645   0.267   1.162  14.229 -0.4847  0.4546 -0.5761
  173MPD1    H6 2646   0.296   1.247  14.181 -0.8916  0.8715 -0.0889
  173MPD1    H7 2647   0.195   1.115  14.175 -1.0912 -0.6774  1.2054
  174MPD1     C 2648   4.056   0.656  14.221 -0.0755 -0.3530 -0.0935
  174MPD1    C1 2649   4.132   0.542  14.242 -0.4375  0.2845  0.0351
  174MPD1    C2 2650   4.240   0.557  14.333 -0.5274 -0.7073 -0.7014
  174MPD1    C3 2651   4.277   0.677  14.390 -0.1070 -0.0121 -0.1816
  174MPD1    C4 2652   4.208   0.791  14.351  0.5612  0.5625 -0.2623
  174MPD1    C5 2653   4.095   0.778  14.276 -0.8800  0.2108 -0.1570
  174MPD1     H 2654   4.303   0.471  14.347 -1.3337 -1.1109  0.4148
  174MPD1    H1 2655   4.232   0.888  14.394 -2.6805  1.3121 -0.1208
  174MPD1    H2 2656   3.964   0.661  14.164  0.2889  0.2569 -0.6339
  174MPD1    H3 2657   4.036   0.869  14.268 -1.2491  0.0881  1.2598
  174MPD1     N 2658   4.388   0.690  14.476 -0.1554 -0.8091  0.1442
  174MPD1    H5 2659   4.410   0.788  14.495 -0.3377 -0.8473  0.5641
  174MPD1    N1 2660   4.110   0.427  14.170 -0.5795 -0.3954  0.0587
  174MPD1    H6 2661   4.128   0.355  14.240  2.5443  0.1204 -0.1852
  174MPD1    H7 2662   4.013   0.414  14.143 -1.3044 -0.0504  2.5092
  175MPD1     C 2663   3.063   2.007  15.766 -0.1911 -0.6089  0.0755
  175MPD1    C1 2664   2.946   1.993  15.829  0.0846 -0.0267 -0.0188
  175MPD1    C2 2665   2.949   1.953  15.964  0.5077 -0.1623  0.0093
  175MPD1    C3 2666   3.073   1.938  16.025 -0.2290  0.4021 -0.0793
  175MPD1    C4 2667   3.189   1.958  15.958 -0.1156  0.2217  0.0453
  175MPD1    C5 2668   3.184   1.985  15.830 -0.5556 -0.4564 -0.2901
  175MPD1     H 2669   2.860   1.925  16.019 -0.3949  0.1617 -1.2940
  175MPD1    H1 2670   3.284   1.948  16.011  0.6262 -0.4854 -1.4138
  175MPD1    H2 2671   3.065   2.049  15.666 -0.8784 -2.5887 -0.7738
  175MPD1    H3 2672   3.276   2.007  15.777 -0.0411 -0.0018  0.7946
  175MPD1     N 2673   3.080   1.907  16.165 -0.2401  0.6695  0.3895
  175MPD1    H5 2674   3.173   1.906  16.206  0.1627  2.3620 -0.4478
  175MPD1    N1 2675   2.819   2.030  15.772  0.6914 -0.4658  0.4999
  175MPD1    H6 2676   2.745   1.970  15.806  1.3627 -1.1804  0.6978
  175MPD1    H7 2677   2.813   2.044  15.671  2.9111 -1.3210  0.2558
  176MPD1     C 2678   0.048   3.701   0.847  1.5548  0.2339  0.0521
  176MPD1    C1 2679   4.657   3.649   0.796 -0.3949 -0.0344 -0.2097
  176MPD1    C2 2680   4.611   3.692   0.671 -0.1362 -0.1171 -0.5180
  176MPD1    C3 2681   4.694   3.767   0.594  0.3384  0.1189  0.4805
  176MPD1    C4 2682   0.088   3.808   0.643  0.9826  0.1649  0.7318
  176MPD1    C5 2683   0.127   3.783   0.769  0.4454 -0.4114 -0.2769
  176MPD1     H 2684   4.519   3.647   0.637  0.2579 -0.3323 -1.3124
  176MPD1    H1 2685   0.157   3.875   0.594  1.0393  1.3356  2.3851
  176MPD1    H2 2686   0.085   3.673   0.945 -1.5024  0.6987  1.3376
  176MPD1    H3 2687   0.225   3.818   0.799 -0.2575  3.4819 -2.5239
  176MPD1     N 2688   4.653   3.807   0.459  0.3075 -0.6288  0.6713
  176MPD1    H5 2689   4.562   3.776   0.426 -0.5906  0.5866  2.0059
  176MPD1    N1 2690   4.578   3.582   0.893 -0.0899 -0.1575  0.5856
  176MPD1    H6 2691   4.634   3.552   0.973  2.0253 -2.6656 -1.7853
  176MPD1    H7 2692   4.513   3.508   0.867  0.8553 -0.9677  0.4793
  177MPD1     C 2693   3.715   2.799  10.768 -0.0164 -0.5206  0.0093
  177MPD1    C1 2694   3.755   2.927  10.765 -0.3447  0.0268  0.4020
  177MPD1    C2 2695   3.735   2.998  10.648 -0.3891  0.4714 -0.1274
  177MPD1    C3 2696   3.669   2.937  10.539 -0.6520 -0.1414  1.0179
  177MPD1    C4 2697   3.641   2.801  10.544  0.1670  0.6505  0.3355
  177MPD1    C5 2698   3.662   2.739  10.658 -0.2034 -0.1412  0.7372
  177MPD1     H 2699   3.761   3.103  10.650 -0.2600  0.4762 -1.9572
  177MPD1    H1 2700   3.598   2.745  10.462 -0.9960 -0.0362  1.4049
  177MPD1    H2 2701   3.724   2.748  10.863 -2.5202 -3.4063 -1.3138
  177MPD1    H3 2702   3.650   2.631  10.656  0.9381 -0.2150 -2.0745
  177MPD1     N 2703   3.638   3.024  10.434 -0.6715 -0.6057 -0.0775
  177MPD1    H5 2704   3.645   3.123  10.453 -0.9220 -0.4928 -0.5516
  177MPD1    N1 2705   3.830   2.980  10.869  0.1253 -0.0922 -0.0868
  177MPD1    H6 2706   3.802   3.076  10.888 -2.5975 -0.9271  0.1182
  177MPD1    H7 2707   3.812   2.934  10.958  1.9191 -0.1711  0.2396
  178MPD1     C 2708   0.452   4.002   0.221  0.7384  0.0323  0.6777
  178MPD1    C1 2709   0.529   4.113   0.249  0.3630  0.0692  0.1854
  178MPD1    C2 2710   0.561   4.187   0.131  0.4172 -0.3568  0.7001
  178MPD1    C3 2711   0.542   4.141   0.007  0.0888 -0.2730 -0.1753
  178MPD1    C4 2712   0.468   4.026  17.689 -0.1989  0.7016 -0.5249
  178MPD1    C5 2713   0.423   3.956   0.094  0.0071 -0.1304 -0.5566
  178MPD1     H 2714   0.614   4.281   0.149 -0.8800  0.4287  0.4018
  178MPD1    H1 2715   0.448   3.983  17.592  3.1230  1.5270 -1.5718
  178MPD1    H2 2716   0.411   3.942   0.301 -1.0986  0.3296 -0.0478
  178MPD1    H3 2717   0.355   3.871   0.090 -0.8324  0.5018  0.4780
  178MPD1     N 2718   0.596   4.208  17.592 -0.1609  0.2314 -0.0080
  178MPD1    H5 2719   0.581   4.163  17.502 -0.1414  0.4576 -0.1250
  178MPD1    N1 2720   0.549   4.160   0.384 -0.0453  0.6140  0.4995
  178MPD1    H6 2721   0.556   4.081   0.449 -1.0296 -0.7501 -1.0710
  178MPD1    H7 2722   0.639   4.207   0.382  0.1509  0.2335  0.3170
  179MPD1     C 2723   0.276   3.115  16.453 -0.9239 -0.2173  0.1299
  179MPD1    C1 2724   0.183   3.083  16.359 -0.4196  0.3048  0.3519
  179MPD1    C2 2725   0.152   2.952  16.342  0.0048  0.3211 -0.4571
  179MPD1    C3 2726   0.232   2.847  16.393 -0.3935  0.5612  0.1658
  179MPD1    C4 2727   0.334   2.883  16.474  0.1208  0.5931 -0.0705
  179MPD1    C5 2728   0.357   3.017  16.503  0.1212 -0.3472 -0.1428
  179MPD1     H 2729   0.077   2.928  16.267  0.0657  0.4608 -0.5631
  179MPD1    H1 2730   0.407   2.811  16.506  1.0895  0.5031 -2.4723
  179MPD1    H2 2731   0.301   3.218  16.476 -1.2016 -0.2881  0.7569
  179MPD1    H3 2732   0.445   3.044  16.560 -0.9522  1.5827  0.6051
  179MPD1     N 2733   0.217   2.713  16.362  0.1175  0.1681  0.0771
  179MPD1    H5 2734   0.279   2.657  16.420  0.5007 -0.6522 -1.1313
  179MPD1    N1 2735   0.093   3.187  16.310  0.0866  0.2460  0.3744
  179MPD1    H6 2736   0.074   3.166  16.212  0.7622  1.3181  0.0176
  179MPD1    H7 2737   0.127   3.282  16.317  0.2440  0.1869  0.4022
  180MPD1     C 2738   0.951   3.408  15.519 -0.0696  0.7203 -0.1130
  180MPD1    C1 2739   1.000   3.449  15.399 -0.1276  0.4100  0.5619
  180MPD1    C2 2740   0.914   3.514  15.309 -0.4647 -0.2564  0.1287
  180MPD1    C3 2741   0.778   3.529  15.341  0.1132  0.1084  0.4394
  180MPD1    C4 2742   0.736   3.490  15.462 -0.3951 -0.1840  0.2083
  180MPD1    C5 2743   0.818   3.420  15.543 -0.2037 -0.2444 -0.5845
  180MPD1     H 2744   0.946   3.566  15.220  0.1982 -0.3953  0.2834
  180MPD1    H1 2745   0.638   3.506  15.505 -0.3495 -3.5697  1.5978
  180MPD1    H2 2746   1.009   3.358  15.595  0.5144 -0.3647 -1.2541
  180MPD1    H3 2747   0.787   3.376  15.637 -0.6131  1.2510 -0.0200
  180MPD1     N 2748   0.699   3.589  15.244 -0.4095 -0.0957 -1.2578
  180MPD1    H5 2749   0.754   3.614  15.163  0.1907  0.0691 -0.7947
  180MPD1    N1 2750   1.136   3.451  15.373  0.6934  0.2814 -0.3559
  180MPD1    H6 2751   1.156   3.460  15.274 -0.1746 -0.8217 -0.6341
  180MPD1    H7 2752   1.176   3.363  15.406  1.2113  1.2535  1.5855
  181MPD1     C 2753   1.996   0.310   9.835  0.0307 -0.0911  0.4137
  181MPD1    C1 2754   2.026   0.384   9.721 -0.2561 -0.3485 -0.5471
  181MPD1    C2 2755   2.138   0.466   9.719  0.1292 -0.3449  0.6637
  181MPD1    C3 2756   2.216   0.484   9.838 -0.0125  0.3447 -0.0467
  181MPD1    C4 2757   2.181   0.408   9.949 -0.4726  0.2932 -0.8709
  181MPD1    C5 2758   2.074   0.318   9.945  0.1990 -0.1211  0.2250
  181MPD1     H 2759   2.168   0.515   9.627 -1.5071 -1.7343 -0.6249
  181MPD1    H1 2760   2.249   0.404  10.033 -0.4518  0.6450 -0.8700
  181MPD1    H2 2761   1.918   0.235   9.846  0.8625 -1.1853 -1.1998
  181MPD1    H3 2762   2.050   0.254  10.028 -1.8218  1.7607  1.1000
  181MPD1     N 2763   2.340   0.554   9.836  0.0470 -0.2018 -0.6293
  181MPD1    H5 2764   2.402   0.536   9.914 -3.0145  2.0306  2.3455
  181MPD1    N1 2765   1.936   0.382   9.614 -0.0478  0.4614 -0.2235
  181MPD1    H6 2766   1.990   0.383   9.527 -0.1703 -0.2283 -0.3059
  181MPD1    H7 2767   1.876   0.300   9.606  0.1912  0.1800  0.8901
  182MPD1     C 2768   2.416   0.941   2.808 -0.0215 -0.3941 -0.4134
  182MPD1    C1 2769   2.415   0.826   2.735 -0.2030  0.0544 -0.5550
  182MPD1    C2 2770   2.488   0.812   2.618  0.3828  0.2480  0.3107
  182MPD1    C3 2771   2.537   0.924   2.555 -0.8046 -0.1813 -0.2208
  182MPD1    C4 2772   2.525   1.044   2.624 -0.4006 -0.3181 -0.1937
  182MPD1    C5 2773   2.472   1.056   2.747  0.1045 -0.8813  0.7277
  182MPD1     H 2774   2.498   0.712   2.577 -0.1633  0.7292 -1.0107
  182MPD1    H1 2775   2.568   1.132   2.577 -0.8660 -0.2394 -0.4636
  182MPD1    H2 2776   2.370   0.956   2.906  0.5726 -0.2655 -0.1551
  182MPD1    H3 2777   2.471   1.149   2.802 -1.4539 -0.4891  0.0397
  182MPD1     N 2778   2.584   0.932   2.418  0.2760 -0.4529  0.2657
  182MPD1    H5 2779   2.614   1.023   2.385 -0.3275  0.2608  1.6729
  182MPD1    N1 2780   2.362   0.711   2.794 -0.4581 -0.4698  0.4738
  182MPD1    H6 2781   2.322   0.634   2.740  0.2766  0.0448 -0.7965
  182MPD1    H7 2782   2.290   0.741   2.859 -0.1392  2.1060 -0.3579
  183MPD1     C 2783   4.576   1.635   9.275  0.0580 -0.6201 -0.4915
  183MPD1    C1 2784   4.616   1.502   9.273 -0.4680  0.5891 -0.0204
  183MPD1    C2 2785   4.525   1.404   9.308 -0.7254  0.1119 -0.0173
  183MPD1    C3 2786   4.395   1.431   9.346 -0.5631  0.0189 -0.5914
  183MPD1    C4 2787   4.357   1.562   9.340 -0.3663  0.9172 -0.2892
  183MPD1    C5 2788   4.443   1.658   9.282  0.7464  0.0094  0.3314
  183MPD1     H 2789   4.565   1.304   9.316 -0.2747  0.1812 -1.5392
  183MPD1    H1 2790   4.252   1.589   9.349  0.0009  2.3112 -0.1918
  183MPD1    H2 2791   4.649   1.711   9.250 -0.5771 -0.1176 -0.8166
  183MPD1    H3 2792   4.412   1.761   9.267 -1.8265 -0.7623  0.3545
  183MPD1     N 2793   4.313   1.328   9.399  0.0331  0.1925  0.3742
  183MPD1    H5 2794   4.341   1.231   9.398  0.2630  0.2528  1.2773
  183MPD1    N1 2795   0.023   1.472   9.245  0.3023 -0.3665  0.0305
  183MPD1    H6 2796   0.066   1.543   9.186 -1.0618 -2.0451 -3.0300
  183MPD1    H7 2797   0.025   1.382   9.197  1.4310 -0.2355 -0.1807
  184MPD1     C 2798   3.624   2.369  10.185 -0.7302  0.1882  0.1684
  184MPD1    C1 2799   3.513   2.430  10.252  0.0298 -0.1608 -0.1620
  184MPD1    C2 2800   3.437   2.523  10.181  0.8905  0.4341  0.4029
  184MPD1    C3 2801   3.462   2.544  10.044 -0.5052 -0.1799  0.7488
  184MPD1    C4 2802   3.569   2.478   9.985  0.5333 -0.5593  0.0519
  184MPD1    C5 2803   3.650   2.390  10.050  0.1514 -0.1240  0.4750
  184MPD1     H 2804   3.347   2.563  10.227 -1.0487 -0.7044 -2.3669
  184MPD1    H1 2805   3.579   2.491   9.878 -0.2846 -3.3861 -0.3660
  184MPD1    H2 2806   3.683   2.300  10.244 -0.4764  1.1567  1.0291
  184MPD1    H3 2807   3.737   2.348  10.003  0.2063 -1.1963  1.5237
  184MPD1     N 2808   3.394   2.639   9.968  0.0077  0.3925 -0.0437
  184MPD1    H5 2809   3.435   2.646   9.875 -2.1702 -0.0855 -1.0286
  184MPD1    N1 2810   3.469   2.383  10.377  0.3828  0.6039 -0.3481
  184MPD1    H6 2811   3.417   2.448  10.435  0.2485  1.4686 -1.4575
  184MPD1    H7 2812   3.537   2.347  10.444 -1.3748 -2.7012 -0.3009
  185MPD1     C 2813   3.050   2.499   9.145 -0.2450  0.2534  0.1516
  185MPD1    C1 2814   3.056   2.636   9.153 -0.2094 -0.0922 -1.0298
  185MPD1    C2 2815   3.070   2.684   9.280 -0.3741  0.4795 -0.6407
  185MPD1    C3 2816   3.076   2.607   9.395 -0.0157  0.4416  0.2508
  185MPD1    C4 2817   3.058   2.471   9.381 -0.4807  0.2361  0.1711
  185MPD1    C5 2818   3.042   2.419   9.259  0.4128 -0.4794 -0.6758
  185MPD1     H 2819   3.081   2.791   9.294  0.2721  0.1800  1.2660
  185MPD1    H1 2820   3.056   2.403   9.465 -0.0234 -1.7775 -1.4215
  185MPD1    H2 2821   3.029   2.452   9.049  0.2639 -0.3406  0.3351
  185MPD1    H3 2822   3.051   2.312   9.243  2.9010 -0.3295 -0.3298
  185MPD1     N 2823   3.089   2.662   9.526  1.0040 -0.1241  0.1717
  185MPD1    H5 2824   3.106   2.597   9.602 -1.5574 -0.7404  0.2490
  185MPD1    N1 2825   3.028   2.727   9.052 -0.0422 -0.2013 -0.2236
  185MPD1    H6 2826   3.041   2.691   8.958  0.4494 -0.2460 -0.1395
  185MPD1    H7 2827   3.059   2.823   9.063 -1.4320  0.0119  1.8748
  186MPD1     C 2828   0.450   3.572  15.925  0.0269  0.4755  0.5016
  186MPD1    C1 2829   0.414   3.542  16.052  0.2396  0.2897 -0.1649
  186MPD1    C2 2830   0.490   3.446  16.116 -0.1432 -0.1026 -0.1139
  186MPD1    C3 2831   0.586   3.377  16.050 -0.4053  0.2969  0.0577
  186MPD1    C4 2832   0.618   3.408  15.920  0.2162  0.0270 -0.6090
  186MPD1    C5 2833   0.538   3.497  15.859  0.0273  0.0943 -0.4962
  186MPD1     H 2834   0.473   3.429  16.221 -1.0839 -0.9991 -0.4105
  186MPD1    H1 2835   0.691   3.351  15.864 -1.5324 -1.8223 -1.0039
  186MPD1    H2 2836   0.402   3.656  15.876  0.5143  0.1032 -0.6214
  186MPD1    H3 2837   0.547   3.521  15.754  1.3445  0.5397 -0.2764
  186MPD1     N 2838   0.676   3.282  16.109  0.8958 -0.8212 -0.1390
  186MPD1    H5 2839   0.763   3.252  16.065  2.3536  0.5593  1.8275
  186MPD1    N1 2840   0.331   3.626  16.123 -0.3527 -0.7951 -0.7726
  186MPD1    H6 2841   0.292   3.598  16.213 -0.8628 -0.5861 -0.9304
  186MPD1    H7 2842   0.263   3.676  16.067  0.3695 -0.2797 -1.1766
  187MPD1     C 2843   4.311   0.037   0.834  0.0048  0.1654 -0.1662
  187MPD1    C1 2844   4.343   4.650   0.765  0.5181  0.0478 -0.6359
  187MPD1    C2 2845   4.396   4.658   0.640  0.3493  0.2066 -0.0641
  187MPD1    C3 2846   4.430   0.054   0.580 -0.4545  0.4257  0.8095
  187MPD1    C4 2847   4.403   0.169   0.654  0.2598  0.4751 -0.2969
  187MPD1    C5 2848   4.343   0.166   0.781  0.3351 -0.8189  0.1758
  187MPD1     H 2849   4.425   4.566   0.589 -3.2528 -2.4062  2.5949
  187MPD1    H1 2850   4.412   0.266   0.608 -2.2753  1.3767  1.0839
  187MPD1    H2 2851   4.276   0.037   0.936 -1.0796  0.1504 -0.5374
  187MPD1    H3 2852   4.329   0.260   0.834  0.5816 -0.9202  0.4204
  187MPD1     N 2853   4.481   0.079   0.447 -0.0950  0.7216 -0.2940
  187MPD1    H5 2854   4.498   0.172   0.411 -1.4371  3.0296  5.1194
  187MPD1    N1 2855   4.329   4.516   0.814 -0.0941 -0.1048 -0.4574
  187MPD1    H6 2856   4.324   4.447   0.739  0.7831  0.0887 -0.6937
  187MPD1    H7 2857   4.241   4.495   0.861  1.5040 -0.6610  2.2441
  188MPD1     C 2858   0.845   0.338  10.192 -1.1489  0.0956 -0.2774
  188MPD1    C1 2859   0.710   0.343  10.241  0.9036 -0.2131 -0.1434
  188MPD1    C2 2860   0.647   0.226  10.282 -0.3328 -0.2081  0.2563
  188MPD1    C3 2861   0.699   0.102  10.248 -0.2223  0.4717  0.4009
  188MPD1    C4 2862   0.833   0.099  10.191  0.1871 -0.8386 -0.7985
  188MPD1    C5 2863   0.900   0.218  10.168  0.1917  0.1646 -0.6667
  188MPD1     H 2864   0.554   0.233  10.336  0.9075  3.7541  1.9397
  188MPD1    H1 2865   0.890   0.007  10.176 -0.8553 -1.4654 -0.9099
  188MPD1    H2 2866   0.895   0.428  10.158  0.5872 -0.7036  0.1300
  188MPD1    H3 2867   0.998   0.215  10.124  0.0506 -1.3741 -0.8790
  188MPD1     N 2868   0.635   4.705  10.272 -0.1094 -0.1152 -0.3711
  188MPD1    H5 2869   0.696   4.627  10.248  1.4445  0.4591  1.6954
  188MPD1    N1 2870   0.660   0.474  10.261 -0.2407  0.4482  0.0292
  188MPD1    H6 2871   0.562   0.463  10.239 -0.1792 -0.3894  0.1528
  188MPD1    H7 2872   0.691   0.542  10.193  1.9220  0.2934  0.8497
  189MPD1     C 2873   1.259   1.031   1.213  0.0601  0.1518 -0.6261
  189MPD1    C1 2874   1.226   1.156   1.172 -0.3369  0.2771  0.3117
  189MPD1    C2 2875   1.227   1.187   1.032 -0.1649 -0.2053  0.1559
  189MPD1    C3 2876   1.252   1.082   0.944  0.2857  0.4913  0.3739
  189MPD1    C4 2877   1.287   0.958   0.993 -0.0666 -0.6801 -0.0953
  189MPD1    C5 2878   1.285   0.929   1.128 -0.7138 -0.4315  0.3670
  189MPD1     H 2879   1.200   1.289   1.007 -0.3807 -0.5451 -0.9890
  189MPD1    H1 2880   1.327   0.876   0.934  1.1114  0.0858 -0.3588
  189MPD1    H2 2881   1.273   1.004   1.317 -0.4467 -0.5031 -0.7278
  189MPD1    H3 2882   1.311   0.831   1.166 -1.9862 -0.3163  1.5421
  189MPD1     N 2883   1.267   1.090   0.806 -0.1378 -0.1623 -0.3494
  189MPD1    H5 2884   1.289   1.004   0.755  0.8058  0.4163 -0.9327
  189MPD1    N1 2885   1.221   1.251   1.269 -0.0997  0.1943 -0.1471
  189MPD1    H6 2886   1.162   1.330   1.243 -1.7327 -0.7721  0.6552
  189MPD1    H7 2887   1.189   1.209   1.356  0.0972 -0.6048 -0.4643
  190MPD1     C 2888   0.017   4.136  15.835  0.0921 -0.1378 -0.2055
  190MPD1    C1 2889   0.073   4.055  15.930 -0.1140 -0.0152 -0.6858
  190MPD1    C2 2890   0.211   4.048  15.938  0.0080 -0.2617  0.0365
  190MPD1    C3 2891   0.289   4.115  15.855 -0.2892  0.2396 -0.4612
  190MPD1    C4 2892   0.231   4.204  15.765 -0.4398 -0.7217 -0.7748
  190MPD1    C5 2893   0.096   4.210  15.749 -0.3732 -0.8943 -0.3140
  190MPD1     H 2894   0.259   3.978  16.005  0.7199 -1.0981 -1.3323
  190MPD1    H1 2895   0.284   4.274  15.702  1.5852 -0.0187  1.7115
  190MPD1    H2 2896   4.634   4.150  15.839  0.0674  0.0088 -1.3381
  190MPD1    H3 2897   0.049   4.289  15.693  0.2077  0.3868  0.9996
  190MPD1     N 2898   0.430   4.116  15.871  0.3768  0.7084  0.5067
  190MPD1    H5 2899   0.465   4.071  15.954  1.5243 -0.2130 -0.4762
  190MPD1    N1 2900   4.723   3.963  15.997 -0.7600  0.0599  0.1279
  190MPD1    H6 2901   4.629   4.000  16.013 -1.9100 -2.3447 -1.0936
  190MPD1    H7 2902   0.036   3.947  16.089 -1.0135 -0.1022  0.2029
  191MPD1     C 2903   0.730   0.676  13.226 -0.3512 -0.0956  0.1091
  191MPD1    C1 2904   0.809   0.759  13.155 -0.6496  0.5054  0.0538
  191MPD1    C2 2905   0.757   0.842  13.064 -0.2541  0.4578  0.0808
  191MPD1    C3 2906   0.624   0.837  13.028  0.1190 -0.5135 -0.4144
  191MPD1    C4 2907   0.547   0.740  13.088  0.2468 -0.5231  0.1667
  191MPD1    C5 2908   0.598   0.664  13.192  0.3584  0.6254 -0.5706
  191MPD1     H 2909   0.826   0.906  13.009  1.5816 -3.8480 -2.5549
  191MPD1    H1 2910   0.446   0.708  13.067  0.8724 -2.1679 -0.3426
  191MPD1    H2 2911   0.770   0.616  13.307 -1.8749 -0.5447  0.5366
  191MPD1    H3 2912   0.538   0.582  13.231 -0.7385  2.1565  1.0099
  191MPD1     N 2913   0.576   0.907  12.913  0.6604 -0.6331 -0.3644
  191MPD1    H5 2914   0.635   0.987  12.888  1.1727 -0.5847  0.9867
  191MPD1    N1 2915   0.945   0.760  13.174 -0.1713  0.5201 -0.1411
  191MPD1    H6 2916   1.001   0.830  13.127  1.5955  0.0183  1.2152
  191MPD1    H7 2917   0.996   0.679  13.210 -2.8925 -2.0027 -1.9603
  192MPD1     C 2918   4.426   1.442  12.793  0.0906  0.3406  0.4523
  192MPD1    C1 2919   4.423   1.314  12.751 -0.2250 -0.2528 -0.6299
  192MPD1    C2 2920   4.544   1.255  12.714 -0.1276 -0.0605  0.3305
  192MPD1    C3 2921   4.660   1.326  12.726  0.4977 -0.3750 -0.2016
  192MPD1    C4 2922   4.660   1.452  12.772 -0.2990 -0.3530 -0.4438
  192MPD1    C5 2923   4.547   1.509  12.809 -0.1172  0.2004  0.3068
  192MPD1     H 2924   4.549   1.151  12.684 -2.0824 -0.3175  0.9088
  192MPD1    H1 2925   0.025   1.508  12.795 -0.2276 -0.7326  0.1994
  192MPD1    H2 2926   4.337   1.502  12.807  0.2253  0.3313  1.4056
  192MPD1    H3 2927   4.540   1.617  12.816 -1.2863  0.1082  0.5078
  192MPD1     N 2928   0.066   1.276  12.707  0.5936 -0.3008 -0.2529
  192MPD1    H5 2929   0.137   1.349  12.713 -1.5276  1.6223  1.6246
  192MPD1    N1 2930   4.300   1.246  12.727  0.1811  0.1752 -0.3864
  192MPD1    H6 2931   4.228   1.270  12.795 -0.3489  0.6246 -1.1037
  192MPD1    H7 2932   4.304   1.145  12.738 -0.7306  0.1427 -0.3138
  193MPD1     C 2933   4.303   0.917   0.123  0.7313  0.0022 -0.2628
  193MPD1    C1 2934   4.381   0.888   0.013 -0.0882 -0.0121  0.7562
  193MPD1    C2 2935   4.428   0.992  17.635 -0.2223 -0.0492  0.0395
  193MPD1    C3 2936   4.429   1.116  17.678 -0.4848 -0.3338  0.2977
  193MPD1    C4 2937   4.357   1.147   0.093 -0.0997 -0.0694  0.2599
  193MPD1    C5 2938   4.291   1.046   0.164  0.2406 -0.2921 -0.1221
  193MPD1     H 2939   4.505   0.969  17.563  0.7076  0.3716  0.8954
  193MPD1    H1 2940   4.369   1.246   0.134 -1.3350 -1.3166  3.6464
  193MPD1    H2 2941   4.260   0.842   0.188  1.8881 -1.6639 -1.4323
  193MPD1    H3 2942   4.241   1.080   0.255 -0.0268  0.3289 -0.5036
  193MPD1     N 2943   4.497   1.217  17.609  0.7211  0.2181  0.1821
  193MPD1    H5 2944   4.510   1.306  17.656  5.2902  0.8504 -2.1657
  193MPD1    N1 2945   4.383   0.762  17.657 -0.1294  0.2660 -0.3344
  193MPD1    H6 2946   4.451   0.749  17.582 -1.4445  0.1429 -1.4859
  193MPD1    H7 2947   4.395   0.690   0.028  2.3313 -0.9916 -1.9985
  194MPD1     C 2948   2.419   4.082  17.257  0.4506 -0.1119 -0.0924
  194MPD1    C1 2949   2.377   3.960  17.212  0.0894  0.2090  0.1105
  194MPD1    C2 2950   2.470   3.861  17.216 -0.1937  0.7886 -0.5644
  194MPD1    C3 2951   2.606   3.880  17.246  0.0340  0.4921  0.4527
  194MPD1    C4 2952   2.642   4.006  17.282 -0.4897  0.1280  0.7571
  194MPD1    C5 2953   2.549   4.105  17.282  0.0554  0.2758 -0.6371
  194MPD1     H 2954   2.440   3.761  17.190  1.4525  0.4345 -1.0939
  194MPD1    H1 2955   2.744   4.025  17.315 -0.1765 -0.8669  0.3655
  194MPD1    H2 2956   2.349   4.164  17.270  1.6988  1.2417 -1.7977
  194MPD1    H3 2957   2.572   4.208  17.308  0.1482 -0.3509  1.7535
  194MPD1     N 2958   2.705   3.783  17.230  0.4431  0.4285  0.2455
  194MPD1    H5 2959   2.799   3.815  17.250  1.7051 -2.4145 -1.0838
  194MPD1    N1 2960   2.241   3.926  17.215 -0.1533 -0.1613 -0.9665
  194MPD1    H6 2961   2.226   3.837  17.169  0.9376  0.4947 -2.5730
  194MPD1    H7 2962   2.185   4.003  17.178 -0.0908  0.3315 -0.0581
  195MPD1     C 2963   3.725   0.760   0.695 -0.4823  0.2942 -0.3588
  195MPD1    C1 2964   3.804   0.734   0.583  0.5040 -0.2395 -0.4304
  195MPD1    C2 2965   3.874   0.608   0.580 -0.3201 -0.2447 -0.6760
  195MPD1    C3 2966   3.869   0.515   0.684  0.2048  0.0055  0.0937
  195MPD1    C4 2967   3.792   0.546   0.793 -0.1017 -0.3962 -0.4716
  195MPD1    C5 2968   3.722   0.666   0.792  0.3668  0.8457 -0.1617
  195MPD1     H 2969   3.910   0.574   0.484  1.1190  1.7914 -0.8691
  195MPD1    H1 2970   3.772   0.463   0.859 -0.8650 -0.0194 -0.2373
  195MPD1    H2 2971   3.659   0.845   0.709 -0.4511 -0.1643  2.6390
  195MPD1    H3 2972   3.657   0.688   0.876 -0.3332  1.4299 -0.8500
  195MPD1     N 2973   3.912   0.379   0.680  0.0494 -0.1103 -0.5289
  195MPD1    H5 2974   3.879   0.326   0.760  0.3278  0.0575 -0.3006
  195MPD1    N1 2975   3.790   0.821   0.471  0.5388 -0.0921 -0.0773
  195MPD1    H6 2976   3.867   0.839   0.408 -0.8485 -0.2931 -1.8315
  195MPD1    H7 2977   3.780   0.918   0.502 -2.9068  0.1060 -1.7618
  196MPD1     C 2978   2.576   4.654   1.199  0.3878  0.3514 -0.5851
  196MPD1    C1 2979   2.456   4.694   1.267  0.0829 -0.3455 -0.2674
  196MPD1    C2 2980   2.460   4.698   1.402  0.0198 -0.2523  0.0447
  196MPD1    C3 2981   2.581   4.693   1.476  0.4646  0.1398  0.5890
  196MPD1    C4 2982   2.696   4.666   1.407  0.4885 -0.5948 -0.6672
  196MPD1    C5 2983   2.696   4.645   1.271  0.5504 -0.0768 -0.3186
  196MPD1     H 2984   2.369   4.711   1.459  0.6742 -1.6552  1.3843
  196MPD1    H1 2985   2.788   4.656   1.464 -0.8098  2.1000  1.9321
  196MPD1    H2 2986   2.575   4.643   1.091  0.5972 -1.7792 -0.3590
  196MPD1    H3 2987   2.789   4.622   1.220  0.7682 -0.0257  0.0515
  196MPD1     N 2988   2.591   4.702   1.620 -0.5371  0.3721  0.3540
  196MPD1    H5 2989   2.686   4.693   1.654 -0.6190  1.4883  0.8893
  196MPD1    N1 2990   2.331   4.690   1.199 -0.5160  0.2878 -0.0997
  196MPD1    H6 2991   2.261   0.025   1.241 -0.3220  0.3563  0.1304
  196MPD1    H7 2992   2.337   4.709   1.099  1.7671 -3.9229 -0.7684
  197MPD1     C 2993   3.150   1.601   0.231  0.3764  0.0080 -0.3199
  197MPD1    C1 2994   3.081   1.718   0.204  0.2768 -0.2630  0.1825
  197MPD1    C2 2995   3.143   1.817   0.126 -0.4076  0.1642  0.3227
  197MPD1    C3 2996   3.267   1.803   0.073  0.1848  0.0812 -0.0129
  197MPD1    C4 2997   3.330   1.683   0.096 -0.0182 -0.0140 -0.3102
  197MPD1    C5 2998   3.267   1.582   0.167  0.4203  0.0993  0.2770
  197MPD1     H 2999   3.090   1.911   0.118 -1.6227 -0.4069  1.6359
  197MPD1    H1 3000   3.430   1.667   0.057  0.8701  2.7909  0.8470
  197MPD1    H2 3001   3.120   1.515   0.291  0.7042  0.8721  1.0913
  197MPD1    H3 3002   3.334   1.498   0.182  0.6474  0.3641  0.7513
  197MPD1     N 3003   3.337   1.897  17.700 -0.3798  0.1678  0.1903
  197MPD1    H5 3004   3.420   1.861  17.654  0.0658  0.6024  0.6518
  197MPD1    N1 3005   2.963   1.740   0.275 -0.9030 -0.2230  0.0773
  197MPD1    H6 3006   2.894   1.794   0.224  1.0304  2.8743  0.7837
  197MPD1    H7 3007   2.913   1.651   0.284  0.4380 -0.8390  1.4790
  198MPD1     C 3008   0.499   0.079  16.231  0.4833  0.2058  0.0219
  198MPD1    C1 3009   0.525   0.059  16.359  0.4163 -0.9441 -0.4881
  198MPD1    C2 3010   0.599   0.157  16.425 -0.1052 -0.1486  0.3560
  198MPD1    C3 3011   0.629   0.276  16.368  0.0032  0.2123  0.5269
  198MPD1    C4 3012   0.594   0.294  16.230 -0.2765 -0.2804 -0.1586
  198MPD1    C5 3013   0.530   0.192  16.166  0.4763  0.3555  0.6709
  198MPD1     H 3014   0.625   0.139  16.529  0.3135  3.3314  0.8322
  198MPD1    H1 3015   0.613   0.379  16.166 -0.5489 -1.1070 -1.3411
  198MPD1    H2 3016   0.453   0.004  16.168  2.3149 -1.3650  0.5738
  198MPD1    H3 3017   0.498   0.205  16.063  1.5944  2.2440  0.5542
  198MPD1     N 3018   0.722   0.369  16.433  0.0970  0.9278 -0.5964
  198MPD1    H5 3019   0.761   0.434  16.365  0.3407  2.3779  0.9508
  198MPD1    N1 3020   0.515   4.650  16.417  0.2420  0.2822  0.0961
  198MPD1    H6 3021   0.511   4.653  16.519  0.8371  1.6779  0.0666
  198MPD1    H7 3022   0.436   4.595  16.383 -1.0764  0.8115  2.2595
  199MPD1     C 3023   2.774   0.155   9.767 -0.4596 -0.2740 -0.1721
  199MPD1    C1 3024   2.642   0.162   9.746 -0.0929  0.3152 -0.3572
  199MPD1    C2 3025   2.599   0.273   9.676  0.1767 -0.6849  0.2507
  199MPD1    C3 3026   2.682   0.377   9.643  0.0958 -0.0402  0.2714
  199MPD1    C4 3027   2.812   0.374   9.671 -0.0449  0.9675 -0.5780
  199MPD1    C5 3028   2.857   0.255   9.726 -0.5644  0.4204  0.3359
  199MPD1     H 3029   2.492   0.276   9.659  0.1000 -0.6828  0.7335
  199MPD1    H1 3030   2.881   0.446   9.627  3.0771 -2.0027 -0.4790
  199MPD1    H2 3031   2.823   0.068   9.810  2.5122  1.0252 -0.9369
  199MPD1    H3 3032   2.964   0.238   9.739 -0.7374  0.0107  1.2084
  199MPD1     N 3033   2.639   0.482   9.565 -0.6620  0.2445  0.1384
  199MPD1    H5 3034   2.698   0.564   9.560  1.2891 -1.0823  1.5465
  199MPD1    N1 3035   2.551   0.055   9.766  0.2470  0.4003  0.0706
  199MPD1    H6 3036   2.452   0.080   9.760  0.1848 -0.0344 -0.7390
  199MPD1    H7 3037   2.569   4.723   9.848 -1.4362  0.6610  0.6262
  200MPD1     C 3038   0.875   0.801  15.043 -0.1036 -0.4332 -0.4090
  200MPD1    C1 3039   0.980   0.723  14.997 -0.5642  0.1870 -0.6426
  200MPD1    C2 3040   1.102   0.781  14.976  0.2086  0.0404  0.3067
  200MPD1    C3 3041   1.124   0.920  14.990  0.3728 -0.1866 -0.0486
  200MPD1    C4 3042   1.020   0.994  15.047  0.4953 -0.0994 -0.2212
  200MPD1    C5 3043   0.900   0.929  15.075  0.3754 -0.2826  0.0693
  200MPD1     H 3044   1.179   0.721  14.928  1.0864  0.1385  1.5951
  200MPD1    H1 3045   1.024   1.100  15.069  0.2853 -0.3626  1.1126
  200MPD1    H2 3046   0.777   0.761  15.067 -0.7776  1.2373 -0.3267
  200MPD1    H3 3047   0.813   0.986  15.104 -0.0070 -2.3006  2.8657
  200MPD1     N 3048   1.249   0.983  14.953  0.2220  0.0934  0.1398
  200MPD1    H5 3049   1.313   0.924  14.901 -1.7141 -0.3608 -1.7651
  200MPD1    N1 3050   0.957   0.587  14.979 -0.2211  0.5784  0.0345
  200MPD1    H6 3051   0.873   0.581  14.923 -0.3951 -1.0655  0.4757
  200MPD1    H7 3052   1.032   0.555  14.918 -0.1731 -1.1536  1.0166
  201MPD1     C 3053   3.417   0.653  13.641 -0.4983 -0.4475 -0.1691
  201MPD1    C1 3054   3.551   0.644  13.609  0.8075 -0.1952  0.2654
  201MPD1    C2 3055   3.611   0.517  13.628  0.1800 -0.7994 -0.9641
  201MPD1    C3 3056   3.532   0.400  13.657 -0.8148 -0.0470  0.6372
  201MPD1    C4 3057   3.390   0.408  13.676  0.4871 -0.9161  0.5687
  201MPD1    C5 3058   3.343   0.540  13.668 -0.9811 -0.8300  0.1424
  201MPD1     H 3059   3.719   0.506  13.625  0.0545 -1.1921 -3.8028
  201MPD1    H1 3060   3.319   0.329  13.695 -0.6003 -0.3157 -0.9895
  201MPD1    H2 3061   3.357   0.743  13.645 -2.6831 -1.8530 -0.7301
  201MPD1    H3 3062   3.236   0.553  13.678 -0.8843  0.3430 -0.3251
  201MPD1     N 3063   3.607   0.281  13.664 -0.2847 -0.0303 -0.0351
  201MPD1    H5 3064   3.699   0.279  13.621  0.3614 -2.8063  1.4494
  201MPD1    N1 3065   3.629   0.764  13.598  0.0439  0.0991 -0.0507
  201MPD1    H6 3066   3.709   0.738  13.539 -1.4423 -0.5421 -1.8021
  201MPD1    H7 3067   3.581   0.841  13.551  1.5792  0.8342 -0.4176
  202MPD1     C 3068   3.713   4.624   9.181  0.1603  0.6693  0.6876
  202MPD1    C1 3069   3.674   4.720   9.273 -0.4517 -0.4743 -0.3097
  202MPD1    C2 3070   3.748   4.719   9.388 -0.0094  0.3109  0.7939
  202MPD1    C3 3071   3.829   4.610   9.425 -0.1708  0.3459 -0.2358
  202MPD1    C4 3072   3.837   4.500   9.341 -0.0139  0.5955  0.8477
  202MPD1    C5 3073   3.781   4.508   9.215  0.2768 -0.0412  0.1105
  202MPD1     H 3074   3.770   0.094   9.426 -0.1265  0.6306  0.0368
  202MPD1    H1 3075   3.890   4.410   9.372  2.1002  1.8200  0.7869
  202MPD1    H2 3076   3.688   4.636   9.076  1.3699 -0.8686  0.2073
  202MPD1    H3 3077   3.801   4.426   9.146 -1.3364 -0.4920  0.1697
  202MPD1     N 3078   3.908   4.616   9.545 -0.0401  0.2240  0.2059
  202MPD1    H5 3079   3.983   4.547   9.551 -0.6559 -0.5743 -1.2230
  202MPD1    N1 3080   3.640   0.122   9.221  0.1693  0.0013 -0.2179
  202MPD1    H6 3081   3.589   0.108   9.134  0.9179 -0.2457 -0.6203
  202MPD1    H7 3082   3.577   0.170   9.285  0.8167 -0.4855  0.7834
  203MPD1     C 3083   2.590   1.019  12.385  0.1561 -0.2938 -0.9386
  203MPD1    C1 3084   2.667   0.931  12.309  0.7878  0.2331  0.4913
  203MPD1    C2 3085   2.742   0.836  12.386  0.2866  0.0599  0.4267
  203MPD1    C3 3086   2.756   0.844  12.522 -0.3010  0.1218 -0.4543
  203MPD1    C4 3087   2.663   0.921  12.589  0.4738 -0.0375 -0.0316
  203MPD1    C5 3088   2.574   0.997  12.520  0.7446  0.7322 -1.3750
  203MPD1     H 3089   2.808   0.769  12.332  0.7920 -0.3847  1.6184
  203MPD1    H1 3090   2.667   0.922  12.697 -2.3173 -0.3956  0.0696
  203MPD1    H2 3091   2.541   1.104  12.338  0.4997  0.3771 -0.0824
  203MPD1    H3 3092   2.508   1.062  12.576  1.1678 -0.5730  0.6297
  203MPD1     N 3093   2.848   0.752  12.579 -0.3979 -0.5047 -0.0723
  203MPD1    H5 3094   2.901   0.694  12.515  0.0074  1.2859 -1.3825
  203MPD1    N1 3095   2.676   0.950  12.167  0.0145 -0.4189 -0.3536
  203MPD1    H6 3096   2.740   1.028  12.150  0.3128  0.0558  3.0528
  203MPD1    H7 3097   2.593   0.998  12.133 -0.7331 -1.8673 -0.5613
  204MPD1     C 3098   2.355   2.375   0.114  1.1298 -1.2129 -0.5668
  204MPD1    C1 3099   2.226   2.343   0.150 -0.4398  0.2775 -0.9310
  204MPD1    C2 3100   2.141   2.305   0.047 -0.4285 -1.1215 -0.4126
  204MPD1    C3 3101   2.193   2.262  17.624 -0.0213 -0.7376 -0.2059
  204MPD1    C4 3102   2.325   2.280  17.593  0.2379 -0.1114 -0.3170
  204MPD1    C5 3103   2.399   2.341  17.690 -0.1521  0.0349 -0.5907
  204MPD1     H 3104   2.035   2.288   0.064 -0.8099  0.9825 -0.6688
  204MPD1    H1 3105   2.369   2.259  17.496 -0.7789  2.6011 -1.3835
  204MPD1    H2 3106   2.433   2.402   0.183 -0.0337 -0.8265  0.6082
  204MPD1    H3 3107   2.500   2.366  17.661  0.2555  0.6260  1.3178
  204MPD1     N 3108   2.109   2.193  17.543  0.0305  0.2032  0.3111
  204MPD1    H5 3109   2.019   2.160  17.575 -1.1433  2.2863 -0.9063
  204MPD1    N1 3110   2.172   2.395   0.274  0.4612  0.4842 -0.5212
  204MPD1    H6 3111   2.090   2.343   0.305  0.7498  0.9420  0.9995
  204MPD1    H7 3112   2.235   2.384   0.353 -0.3753 -0.2983  0.0413
  205MPD1     C 3113   1.954   0.605  17.499 -0.0778  0.4154  0.1568
  205MPD1    C1 3114   1.900   0.566  17.619  0.3263  0.5074 -0.0280
  205MPD1    C2 3115   1.858   0.663   0.005  0.3404  0.8580 -0.8295
  205MPD1    C3 3116   1.853   0.799  17.675  0.5532  0.1389  0.0655
  205MPD1    C4 3117   1.911   0.838  17.557  0.7121  0.1000  0.1238
  205MPD1    C5 3118   1.946   0.737  17.470  0.2265  0.0678  0.7163
  205MPD1     H 3119   1.826   0.633   0.104  0.8958 -1.5041 -1.3597
  205MPD1    H1 3120   1.910   0.942  17.527  0.4156  0.2997  0.8258
  205MPD1    H2 3121   1.991   0.532  17.428  1.4796  0.8159  0.5395
  205MPD1    H3 3122   1.968   0.777  17.371  1.4165  0.7766  1.2661
  205MPD1     N 3123   1.827   0.900   0.072  0.3825  0.3505 -0.0600
  205MPD1    H5 3124   1.839   0.995   0.039 -1.3019  1.0354  1.3404
  205MPD1    N1 3125   1.877   0.430  17.638  0.0744  0.2938 -0.1138
  205MPD1    H6 3126   1.889   0.400   0.034 -0.9211  1.3964  0.3548
  205MPD1    H7 3127   1.941   0.376  17.582  1.3787 -0.7285  2.3571
  206MPD1     C 3128   2.230   2.891  16.995  0.7967  0.1080 -0.3895
  206MPD1    C1 3129   2.234   3.030  16.980 -0.1116 -0.3903  0.3145
  206MPD1    C2 3130   2.244   3.071  16.851  0.3550 -0.1372  0.0634
  206MPD1    C3 3131   2.229   2.987  16.740 -0.5245 -1.1027 -0.2154
  206MPD1    C4 3132   2.214   2.851  16.758  0.4771  0.7907 -0.6380
  206MPD1    C5 3133   2.211   2.808  16.885  0.1923  0.1094 -0.5912
  206MPD1     H 3134   2.284   3.171  16.836 -0.5363  0.6833  3.2648
  206MPD1    H1 3135   2.214   2.779  16.676  0.2472  0.4606 -0.3470
  206MPD1    H2 3136   2.245   2.836  17.087 -0.9042  0.3319  0.0385
  206MPD1    H3 3137   2.196   2.707  16.921  0.3986  1.2147  2.5806
  206MPD1     N 3138   2.219   3.031  16.611 -0.1081 -0.0395 -0.2332
  206MPD1    H5 3139   2.208   2.956  16.543  1.0463  0.6469 -1.1650
  206MPD1    N1 3140   2.278   3.110  17.088 -0.1423 -0.4203 -0.0036
  206MPD1    H6 3141   2.256   3.206  17.063  1.4232 -0.1357 -0.2969
  206MPD1    H7 3142   2.236   3.096  17.180  1.0562 -1.3403  0.3982
  207MPD1     C 3143   0.762   0.925   9.193  0.4092  0.2146  0.1102
  207MPD1    C1 3144   0.665   0.836   9.231  0.4903 -0.0791 -0.0901
  207MPD1    C2 3145   0.615   0.850   9.368 -0.1842 -0.6096 -0.5214
  207MPD1    C3 3146   0.662   0.953   9.450  0.3486  0.2572  0.1515
  207MPD1    C4 3147   0.740   1.050   9.398 -0.3871 -0.3229  0.0255
  207MPD1    C5 3148   0.790   1.033   9.272  0.2516  0.5940  0.3402
  207MPD1     H 3149   0.550   0.775   9.411  2.3933 -3.1502 -0.9981
  207MPD1    H1 3150   0.783   1.133   9.452  1.2644 -1.6747  0.7870
  207MPD1    H2 3151   0.811   0.923   9.097 -0.7017 -4.0551 -0.3710
  207MPD1    H3 3152   0.860   1.104   9.231  0.2475 -1.1858 -2.7720
  207MPD1     N 3153   0.617   0.970   9.589 -0.1207  0.1247  0.1155
  207MPD1    H5 3154   0.644   1.049   9.647 -1.1931 -1.5276  2.8609
  207MPD1    N1 3155   0.644   0.721   9.157  0.2398  0.6526  0.2067
  207MPD1    H6 3156   0.660   0.733   9.057 -1.3637 -1.2694 -0.2887
  207MPD1    H7 3157   0.549   0.688   9.175 -0.3901  1.0516 -2.3746
  208MPD1     C 3158   2.926   0.691   0.910 -0.0821 -0.3773 -0.2841
  208MPD1    C1 3159   2.925   0.679   1.050  0.4914 -0.2079 -0.7008
  208MPD1    C2 3160   2.810   0.708   1.113  1.4275 -0.4798 -0.2288
  208MPD1    C3 3161   2.691   0.720   1.044  0.0260 -0.8058  0.2099
  208MPD1    C4 3162   2.691   0.732   0.907 -0.1223  0.5415  0.7398
  208MPD1    C5 3163   2.811   0.718   0.841  0.2585 -0.0696  0.3688
  208MPD1     H 3164   2.815   0.713   1.222 -2.2717 -0.3678 -0.0761
  208MPD1    H1 3165   2.601   0.738   0.845 -0.4800 -3.1763  0.9058
  208MPD1    H2 3166   3.020   0.690   0.856  1.1251 -1.9630  1.8588
  208MPD1    H3 3167   2.810   0.729   0.733 -2.0949 -0.9884  0.3047
  208MPD1     N 3168   2.571   0.719   1.121 -0.0866  0.0702  0.2719
  208MPD1    H5 3169   2.573   0.703   1.221  0.7349  0.5102  0.3253
  208MPD1    N1 3170   3.048   0.670   1.128  0.5462 -0.3405 -0.1153
  208MPD1    H6 3171   3.020   0.638   1.220  0.0312  1.3249  0.3191
  208MPD1    H7 3172   3.116   0.608   1.085  1.4308  1.5393 -1.4203
  209MPD1     C 3173   0.458   4.172  10.784  0.2962  0.4105 -0.2702
  209MPD1    C1 3174   0.465   4.248  10.897 -0.3318  0.5870  0.2577
  209MPD1    C2 3175   0.430   4.383  10.886  0.5375 -0.4851 -0.4213
  209MPD1    C3 3176   0.384   4.437  10.768  0.1798 -0.1817 -0.0286
  209MPD1    C4 3177   0.380   4.356  10.658  0.2120 -0.3278 -0.1191
  209MPD1    C5 3178   0.432   4.228  10.665 -0.3619  0.2060 -0.1412
  209MPD1     H 3179   0.437   4.442  10.977  0.4093 -0.6575 -0.2999
  209MPD1    H1 3180   0.355   4.398  10.561  3.3549  0.5791 -0.5298
  209MPD1    H2 3181   0.486   4.068  10.768  0.4136  0.9075 -3.3576
  209MPD1    H3 3182   0.435   4.171  10.574  0.2946 -0.8107  0.5180
  209MPD1     N 3183   0.341   4.574  10.769  0.2704  0.1181  0.2917
  209MPD1    H5 3184   0.355   4.625  10.855 -0.8567 -0.4446  0.8081
  209MPD1    N1 3185   0.505   4.194  11.017 -0.6412  0.1008 -0.4468
  209MPD1    H6 3186   0.573   4.122  10.995  0.8634  0.9987  1.2214
  209MPD1    H7 3187   0.527   4.261  11.091  2.4261  1.6486 -2.7699
  210MPD1     C 3188   0.751   0.679  11.140 -0.1911  0.2132  0.4412
  210MPD1    C1 3189   0.664   0.588  11.192  0.1577  0.0213 -0.2514
  210MPD1    C2 3190   0.596   0.499  11.109 -0.1105  0.2163  0.2222
  210MPD1    C3 3191   0.617   0.511  10.969  0.3011  0.1339 -0.3999
  210MPD1    C4 3192   0.704   0.602  10.923 -0.5641  0.1715  0.0009
  210MPD1    C5 3193   0.767   0.691  11.003  0.1069 -0.0016 -1.2780
  210MPD1     H 3194   0.527   0.429  11.153 -0.0014  1.6352  2.6528
  210MPD1    H1 3195   0.719   0.605  10.815 -0.1938  1.0351  0.0747
  210MPD1    H2 3196   0.810   0.747  11.199  1.1644 -0.6056  0.0325
  210MPD1    H3 3197   0.832   0.762  10.953  0.3836  1.2180  0.8140
  210MPD1     N 3198   0.559   0.418  10.876  0.0679 -0.5713  0.5714
  210MPD1    H5 3199   0.595   0.434  10.782 -1.6016  1.2310  0.2563
  210MPD1    N1 3200   0.624   0.588  11.327  0.1572 -0.0166 -0.6619
  210MPD1    H6 3201   0.594   0.494  11.353 -0.0123  0.4520  0.8363
  210MPD1    H7 3202   0.690   0.630  11.392  0.8637 -0.8084 -0.8559
  211MPD1     C 3203   3.286   1.097  16.365  0.2385 -0.4314 -0.3774
  211MPD1    C1 3204   3.232   1.072  16.490 -0.0981 -0.5594 -0.4189
  211MPD1    C2 3205   3.095   1.065  16.496  0.3487  0.3585 -0.6090
  211MPD1    C3 3206   3.021   1.078  16.383  0.3112  0.1182 -0.1216
  211MPD1    C4 3207   3.074   1.101  16.256  0.3038 -0.0492  0.0221
  211MPD1    C5 3208   3.210   1.124  16.253 -0.3506  0.7316 -0.2274
  211MPD1     H 3209   3.053   1.065  16.596  2.1140  1.0754  0.1248
  211MPD1    H1 3210   3.012   1.112  16.167  1.5449 -0.3475 -0.8875
  211MPD1    H2 3211   3.394   1.104  16.357  0.4371 -0.9681  1.6625
  211MPD1    H3 3212   3.250   1.147  16.156 -3.0374  2.2837 -0.9585
  211MPD1     N 3213   2.884   1.069  16.403 -0.1155  0.6429 -0.0992
  211MPD1    H5 3214   2.843   1.014  16.478 -1.3776  0.8175 -0.6531
  211MPD1    N1 3215   3.310   1.082  16.606 -0.3138  0.3099 -0.3518
  211MPD1    H6 3216   3.404   1.051  16.581  0.4256  1.1790  1.3324
  211MPD1    H7 3217   3.278   1.020  16.680  0.2431  2.1758  1.4567
  212MPD1     C 3218   1.753   3.886  16.324 -0.2223 -0.5188 -0.1110
  212MPD1    C1 3219   1.669   3.946  16.411 -0.6873 -0.2888  0.2777
  212MPD1    C2 3220   1.617   3.869  16.512 -0.4171 -0.0376 -0.3428
  212MPD1    C3 3221   1.650   3.737  16.524  0.1669  0.2177 -0.2933
  212MPD1    C4 3222   1.732   3.679  16.429 -0.9812 -0.1039 -0.0713
  212MPD1    C5 3223   1.787   3.756  16.338  0.0241  0.5288 -0.7142
  212MPD1     H 3224   1.554   3.918  16.585 -1.1107 -1.3078 -0.0976
  212MPD1    H1 3225   1.751   3.572  16.432 -0.3767 -0.0917 -3.9931
  212MPD1    H2 3226   1.820   3.942  16.260 -0.6384 -1.1550 -1.1116
  212MPD1    H3 3227   1.854   3.710  16.266  1.1304 -0.1224  0.7257
  212MPD1     N 3228   1.584   3.660  16.623 -0.4203  0.5988 -0.1454
  212MPD1    H5 3229   1.605   3.561  16.622 -1.7901  0.3308 -1.9279
  212MPD1    N1 3230   1.667   4.084  16.416  0.4819 -0.4797  0.0716
  212MPD1    H6 3231   1.670   4.117  16.320  0.5574  1.0848  0.6111
  212MPD1    H7 3232   1.574   4.117  16.442 -0.2452 -1.6633 -0.9934
  213MPD1     C 3233   4.602   0.396  16.000  0.5348 -0.4741 -0.0281
  213MPD1    C1 3234   4.490   0.310  16.011  0.2529  0.1804 -0.4728
  213MPD1    C2 3235   4.447   0.267  15.877  0.4461 -0.0633 -0.6331
  213MPD1    C3 3236   4.535   0.266  15.771  0.1518  0.1974 -0.2285
  213MPD1    C4 3237   4.660   0.316  15.789 -0.0042 -0.2026  0.5826
  213MPD1    C5 3238   4.697   0.385  15.905  0.6677 -0.1918 -0.3383
  213MPD1     H 3239   4.353   0.212  15.868  0.0778  0.2006  1.6641
  213MPD1    H1 3240   0.020   0.311  15.721  0.9321  0.8685  1.6519
  213MPD1    H2 3241   4.635   0.444  16.091  2.5833 -2.0206  0.0573
  213MPD1    H3 3242   0.068   0.431  15.927 -0.3908  1.9550 -0.2233
  213MPD1     N 3243   4.500   0.189  15.657  0.6364 -0.7678  0.5142
  213MPD1    H5 3244   4.404   0.157  15.645  0.5186 -0.6068  1.0624
  213MPD1    N1 3245   4.402   0.330  16.115 -0.2491  0.5884 -0.1722
  213MPD1    H6 3246   4.341   0.248  16.124 -0.2861  0.9461  2.6461
  213MPD1    H7 3247   4.459   0.339  16.198  1.1913  0.7330 -1.1910
  214MPD1     C 3248   4.128   4.060  15.372 -0.2613  0.6715 -0.5161
  214MPD1    C1 3249   4.134   4.140  15.482 -0.5966 -0.1269  0.0781
  214MPD1    C2 3250   4.185   4.265  15.467 -0.0622 -0.5563  0.4518
  214MPD1    C3 3251   4.243   4.308  15.345  0.2699 -0.3082 -0.4098
  214MPD1    C4 3252   4.239   4.222  15.236 -1.1566  0.3431  0.4134
  214MPD1    C5 3253   4.185   4.095  15.250  0.2186  0.3113 -0.0031
  214MPD1     H 3254   4.176   4.332  15.552  0.4347 -1.2183  1.0285
  214MPD1    H1 3255   4.288   4.257  15.145 -0.3132 -3.2202 -0.4726
  214MPD1    H2 3256   4.076   3.965  15.382 -1.4953  1.0928 -3.0777
  214MPD1    H3 3257   4.178   4.029  15.165 -2.2764 -0.8410  1.0935
  214MPD1     N 3258   4.290   4.442  15.314  0.6991  0.4227  0.3807
  214MPD1    H5 3259   4.320   4.462  15.219  0.1301  0.2417  0.1640
  214MPD1    N1 3260   4.060   4.104  15.601  0.2831 -0.5253 -0.7065
  214MPD1    H6 3261   4.091   4.157  15.683 -0.5777 -1.0638 -0.0317
  214MPD1    H7 3262   4.058   4.005  15.626  0.5379 -0.4985 -0.5743
  215MPD1     C 3263   3.873   0.224  11.178 -0.4648  0.1410  0.0974
  215MPD1    C1 3264   3.917   0.276  11.293  0.6146 -0.1952  0.3810
  215MPD1    C2 3265   4.057   0.274  11.313 -0.4300  0.1440 -0.2732
  215MPD1    C3 3266   4.149   0.233  11.213 -0.2682  0.0832 -0.3102
  215MPD1    C4 3267   4.095   0.175  11.095  0.3057 -0.0354 -0.3963
  215MPD1    C5 3268   3.958   0.172  11.084  0.1476  0.5758  0.2792
  215MPD1     H 3269   4.099   0.315  11.405  1.1542 -1.0032 -0.4988
  215MPD1    H1 3270   4.151   0.132  11.013 -0.6794 -0.5313 -0.8084
  215MPD1    H2 3271   3.767   0.219  11.153 -0.2346 -0.7151 -0.7125
  215MPD1    H3 3272   3.923   0.123  10.994  0.3610 -0.2730  0.6498
  215MPD1     N 3273   4.287   0.251  11.241 -0.4343  0.2347  0.6898
  215MPD1    H5 3274   4.303   0.308  11.324 -0.3842 -0.2591  1.0233
  215MPD1    N1 3275   3.828   0.330  11.391  0.4191 -0.5171 -0.6946
  215MPD1    H6 3276   3.733   0.301  11.368  0.9516 -2.8305  0.0427
  215MPD1    H7 3277   3.846   0.306  11.488 -0.9762  0.4997 -0.1739
  216MPD1     C 3278   1.900   3.021  16.266 -0.1367 -0.6356  0.4412
  216MPD1    C1 3279   1.957   2.906  16.325  0.0911 -0.1709 -0.1232
  216MPD1    C2 3280   1.944   2.895  16.466 -0.5550  0.1323  0.2144
  216MPD1    C3 3281   1.902   3.001  16.548 -0.0526 -0.5016 -0.5975
  216MPD1    C4 3282   1.850   3.111  16.482 -0.3452 -0.9586  0.0020
  216MPD1    C5 3283   1.841   3.113  16.349 -0.8318  0.4255  0.1995
  216MPD1     H 3284   1.974   2.795  16.497 -0.5907 -0.7667 -2.7072
  216MPD1    H1 3285   1.810   3.195  16.538 -2.0047 -0.6109 -1.7354
  216MPD1    H2 3286   1.900   3.035  16.159  0.3347  0.2419  0.5621
  216MPD1    H3 3287   1.798   3.200  16.300 -0.8052  0.7898  0.8096
  216MPD1     N 3288   1.898   2.974  16.692 -0.1559 -0.5571 -0.0844
  216MPD1    H5 3289   1.916   2.881  16.728 -1.0581  0.8868  4.0496
  216MPD1    N1 3290   1.985   2.784  16.254 -0.0063  0.6780 -0.8077
  216MPD1    H6 3291   2.017   2.807  16.160 -3.2961  0.1177 -2.0608
  216MPD1    H7 3292   2.048   2.719  16.301 -0.1971  2.0061  1.3123
  217MPD1     C 3293   2.989   0.327   8.838 -0.1911 -0.0879  0.5937
  217MPD1    C1 3294   3.116   0.281   8.841 -0.5115  0.4196  0.2140
  217MPD1    C2 3295   3.154   0.212   8.961 -0.6057  0.2688 -0.7498
  217MPD1    C3 3296   3.060   0.166   9.054  0.2530  0.1071 -0.5499
  217MPD1    C4 3297   2.927   0.196   9.031 -0.5661  0.1535  0.6984
  217MPD1    C5 3298   2.895   0.279   8.928 -0.1750  0.0512  0.1767
  217MPD1     H 3299   3.259   0.193   8.980 -0.0060  1.5362 -2.7397
  217MPD1    H1 3300   2.853   0.156   9.099 -0.5096  1.2363  1.3928
  217MPD1    H2 3301   2.949   0.400   8.768  1.4215  0.3414  0.1321
  217MPD1    H3 3302   2.793   0.315   8.917 -0.3881 -0.2482  1.2185
  217MPD1     N 3303   3.084   0.094   9.169  0.2224 -0.3968 -0.5253
  217MPD1    H5 3304   3.005   0.068   9.227  0.2712  0.0946 -0.2396
  217MPD1    N1 3305   3.218   0.335   8.760  0.9900 -0.3238 -0.8365
  217MPD1    H6 3306   3.300   0.275   8.751  1.8133  0.3267  2.3770
  217MPD1    H7 3307   3.188   0.360   8.666 -1.4133 -0.1901 -0.0231
  218MPD1     C 3308   4.250   1.181  13.108  0.8333 -0.9011  0.7679
  218MPD1    C1 3309   4.386   1.209  13.099  0.4693  0.3874 -0.5495
  218MPD1    C2 3310   4.455   1.117  13.028 -0.4845 -0.0202 -0.0412
  218MPD1    C3 3311   4.400   0.999  12.981  0.4368  0.1196 -0.6553
  218MPD1    C4 3312   4.265   0.985  12.979  0.5405  0.7398  0.1521
  218MPD1    C5 3313   4.197   1.069  13.056 -0.1269 -0.0047  0.9084
  218MPD1     H 3314   4.562   1.136  13.028 -0.4136 -0.4137 -3.1852
  218MPD1    H1 3315   4.213   0.910  12.921 -0.2138  2.0340 -0.8590
  218MPD1    H2 3316   4.179   1.230  13.175  0.3845 -0.4802 -0.0198
  218MPD1    H3 3317   4.090   1.055  13.063 -0.1141  0.3462  1.7315
  218MPD1     N 3318   4.486   0.908  12.918 -0.5501  0.6713  0.1180
  218MPD1    H5 3319   4.583   0.936  12.923 -0.1524 -0.5393 -0.8532
  218MPD1    N1 3320   4.455   1.311  13.176 -0.0569 -0.5371  0.0446
  218MPD1    H6 3321   4.540   1.340  13.129 -0.0491  1.3451  1.2011
  218MPD1    H7 3322   4.389   1.389  13.168  0.5106  0.1527  2.0031
  219MPD1     C 3323   0.325   0.955  12.288 -0.8170  0.5297  0.7396
  219MPD1    C1 3324   0.380   0.873  12.385 -0.9830  0.3549 -0.3130
  219MPD1    C2 3325   0.299   0.814  12.476  0.3029 -0.3792  0.3434
  219MPD1    C3 3326   0.163   0.814  12.467 -0.1812  0.2236 -0.2007
  219MPD1    C4 3327   0.111   0.881  12.363 -0.2428 -0.3582  0.0975
  219MPD1    C5 3328   0.189   0.945  12.274 -0.0843 -0.2403  0.7909
  219MPD1     H 3329   0.356   0.774  12.559 -1.2654 -1.7092  0.7685
  219MPD1    H1 3330   0.004   0.885  12.351 -0.3244  1.6684  1.3319
  219MPD1    H2 3331   0.389   1.024  12.234 -2.5030  2.6750  1.4627
  219MPD1    H3 3332   0.143   1.013  12.203  0.9198 -2.7012 -2.2015
  219MPD1     N 3333   0.080   0.752  12.562  0.0155  0.4576 -0.0298
  219MPD1    H5 3334   4.704   0.761  12.552 -0.0074  1.7050  1.4489
  219MPD1    N1 3335   0.513   0.893  12.415 -1.0354 -0.2635 -0.5300
  219MPD1    H6 3336   0.582   0.903  12.341  1.5622 -1.2176  1.7729
  219MPD1    H7 3337   0.546   0.815  12.472  1.2944  0.5339 -0.8026
  220MPD1     C 3338   0.365   1.227   9.777 -0.1686  0.1884 -0.5573
  220MPD1    C1 3339   0.356   1.256   9.910  0.4404 -0.2921  0.4470
  220MPD1    C2 3340   0.271   1.176   9.986 -0.2885 -0.0822  0.2117
  220MPD1    C3 3341   0.201   1.071   9.931  0.5286  0.0704 -0.1746
  220MPD1    C4 3342   0.201   1.055   9.790  0.3402 -0.2803 -0.1563
  220MPD1    C5 3343   0.289   1.130   9.713 -0.6477 -0.1853 -0.2662
  220MPD1     H 3344   0.256   1.200  10.091 -1.3709 -1.2542  0.3100
  220MPD1    H1 3345   0.142   0.981   9.738  1.1404  0.1544 -1.6826
  220MPD1    H2 3346   0.419   1.287   9.704  0.1215 -0.1365 -0.6109
  220MPD1    H3 3347   0.300   1.119   9.606  0.5384  0.5963 -0.2257
  220MPD1     N 3348   0.120   0.998  10.019  0.0223  0.3107 -0.3272
  220MPD1    H5 3349   0.114   1.022  10.117  2.8278 -0.5059  0.0567
  220MPD1    N1 3350   0.413   1.374   9.964  0.2849  0.3665  0.1732
  220MPD1    H6 3351   0.412   1.371  10.066 -1.6313 -0.0200  0.1487
  220MPD1    H7 3352   0.501   1.403   9.924  1.2265 -0.1972  1.8422
  221MPD1     C 3353   1.910   0.510  16.707  0.1366  0.3386  0.3180
  221MPD1    C1 3354   2.042   0.500  16.744  0.0039 -0.2452  0.1038
  221MPD1    C2 3355   2.119   0.399  16.686 -0.7033 -0.7477 -0.1198
  221MPD1    C3 3356   2.065   0.324  16.578 -1.1360  0.5994 -0.3989
  221MPD1    C4 3357   1.942   0.345  16.537 -0.8310  0.0241 -0.1573
  221MPD1    C5 3358   1.863   0.437  16.602  0.1844 -0.4969  0.3619
  221MPD1     H 3359   2.219   0.377  16.723 -1.0438 -0.3150  1.0549
  221MPD1    H1 3360   1.896   0.295  16.452 -2.5766  0.9758  0.2151
  221MPD1    H2 3361   1.850   0.593  16.742  0.6825  0.4210  1.0558
  221MPD1    H3 3362   1.757   0.442  16.579  0.3681  1.6348 -0.0316
  221MPD1     N 3363   2.136   0.228  16.505 -0.4966  0.0822  0.3087
  221MPD1    H5 3364   2.079   0.174  16.440 -2.1802  3.7550 -1.2628
  221MPD1    N1 3365   2.092   0.580  16.849  0.4819 -0.3111 -0.3201
  221MPD1    H6 3366   2.061   0.677  16.856 -1.6691 -1.0338  0.1585
  221MPD1    H7 3367   2.194   0.579  16.857  0.4070 -0.0662  0.6021
  222MPD1     C 3368   2.003   3.965  16.824  0.2725  0.1632  0.4010
  222MPD1    C1 3369   1.931   3.863  16.767  0.0025 -0.0765 -0.1323
  222MPD1    C2 3370   1.875   3.765  16.849 -0.0927  0.7895  0.1328
  222MPD1    C3 3371   1.856   3.793  16.988 -0.3250 -0.0168  0.7519
  222MPD1    C4 3372   1.926   3.901  17.035  0.0025  0.1383  0.1654
  222MPD1    C5 3373   1.991   3.986  16.957  0.0255  1.2328 -0.1234
  222MPD1     H 3374   1.825   3.681  16.801  0.8600  0.7067 -0.7204
  222MPD1    H1 3375   1.920   3.920  17.142  0.0945 -2.0707  0.5677
  222MPD1    H2 3376   2.063   4.042  16.775  1.8190  0.5693  2.9546
  222MPD1    H3 3377   2.039   4.073  17.001  1.0215  0.7290 -0.2221
  222MPD1     N 3378   1.781   3.721  17.075  0.3198  0.2505  0.5078
  222MPD1    H5 3379   1.762   3.755  17.169 -2.3230  0.2052  0.0102
  222MPD1    N1 3380   1.944   3.842  16.627 -0.0001 -0.3510  0.0363
  222MPD1    H6 3381   1.856   3.803  16.595  0.9199 -2.1422 -0.2703
  222MPD1    H7 3382   1.959   3.928  16.574  0.4519 -0.2489  0.3244
  223MPD1     C 3383   1.595   2.740  17.307  0.0374 -0.0059  0.3220
  223MPD1    C1 3384   1.537   2.787  17.189 -0.0527 -0.3126  0.1380
  223MPD1    C2 3385   1.542   2.921  17.157 -0.4206 -0.1530  0.0508
  223MPD1    C3 3386   1.585   3.012  17.258  0.1043 -0.4146 -0.1210
  223MPD1    C4 3387   1.629   2.971  17.377 -1.3244 -0.0447 -0.0098
  223MPD1    C5 3388   1.629   2.835  17.404  0.1140  0.5260  0.3821
  223MPD1     H 3389   1.507   2.958  17.061 -2.3290  0.3122  0.9305
  223MPD1    H1 3390   1.658   3.041  17.455 -0.2578 -1.6739  1.0395
  223MPD1    H2 3391   1.587   2.634  17.329 -1.0192 -0.4196 -2.0743
  223MPD1    H3 3392   1.636   2.812  17.509  0.1320 -0.9476  0.0498
  223MPD1     N 3393   1.569   3.150  17.220  0.2654 -0.5574  0.1341
  223MPD1    H5 3394   1.537   3.170  17.127 -0.9089 -3.0694 -0.0105
  223MPD1    N1 3395   1.507   2.696  17.091 -0.0544  0.2124  1.1431
  223MPD1    H6 3396   1.480   2.609  17.137 -0.1789 -0.5421 -0.3499
  223MPD1    H7 3397   1.437   2.726  17.023  2.6221  1.5343 -1.0252
  224MPD1     C 3398   4.134   0.470   9.378 -0.0410  0.1157  0.3745
  224MPD1    C1 3399   4.046   0.571   9.419  1.1055  0.7503  0.0603
  224MPD1    C2 3400   3.932   0.532   9.495  0.8501 -0.0254 -0.5807
  224MPD1    C3 3401   3.906   0.396   9.522  0.5613 -0.6763  1.2421
  224MPD1    C4 3402   3.995   0.305   9.475 -0.6312  0.6605  0.2341
  224MPD1    C5 3403   4.103   0.338   9.396 -0.2506  0.1491 -0.2816
  224MPD1     H 3404   3.867   0.608   9.537  2.0949  0.5112  0.3789
  224MPD1    H1 3405   3.983   0.200   9.501 -0.4717  0.2340 -1.3851
  224MPD1    H2 3406   4.223   0.482   9.318  1.2297  0.6365  2.3703
  224MPD1    H3 3407   4.177   0.267   9.358  1.6833  1.7093  0.5623
  224MPD1     N 3408   3.816   0.355   9.627  0.0401 -0.2107 -0.0068
  224MPD1    H5 3409   3.822   0.256   9.647  1.6501  0.2867  1.9673
  224MPD1    N1 3410   4.054   0.702   9.385  0.0643 -0.4459 -0.6214
  224MPD1    H6 3411   4.079   0.720   9.288  0.4870 -2.0506 -0.8190
  224MPD1    H7 3412   3.966   0.751   9.399 -0.4447 -1.4702 -0.2527
  225MPD1     C 3413   4.324   1.772  13.210 -0.0865 -0.4461  0.0968
  225MPD1    C1 3414   4.255   1.647  13.218  0.4271 -0.1690  0.9905
  225MPD1    C2 3415   4.193   1.602  13.107  0.1113 -0.4369 -0.0024
  225MPD1    C3 3416   4.196   1.672  12.984  0.1577 -0.1511 -0.6505
  225MPD1    C4 3417   4.263   1.789  12.978  0.4085  0.1983  0.5485
  225MPD1    C5 3418   4.335   1.833  13.084  0.1757 -0.4732  0.4563
  225MPD1     H 3419   4.142   1.509  13.128  0.8669 -0.8060  0.2060
  225MPD1    H1 3420   4.259   1.856  12.892 -0.4495 -0.0769  0.3803
  225MPD1    H2 3421   4.388   1.806  13.291 -0.5782 -0.5242  0.5152
  225MPD1    H3 3422   4.388   1.927  13.080 -0.9087  0.0294 -1.7113
  225MPD1     N 3423   4.120   1.638  12.874 -0.0697 -0.0849  0.0935
  225MPD1    H5 3424   4.128   1.694  12.790  0.1932 -1.5301 -0.8413
  225MPD1    N1 3425   4.267   1.571  13.335  0.4482 -0.5825 -0.0655
  225MPD1    H6 3426   4.268   1.626  13.421  0.1074  1.3347 -1.3027
  225MPD1    H7 3427   4.191   1.503  13.331  1.8118 -2.1965  1.3140
  226MPD1     C 3428   2.489   0.468   8.983  0.2087  0.5430 -0.1983
  226MPD1    C1 3429   2.567   0.581   8.948 -0.4391  0.0527 -0.0210
  226MPD1    C2 3430   2.696   0.591   9.001  0.3673  0.6186 -0.1205
  226MPD1    C3 3431   2.736   0.507   9.103  0.1304  0.3668  0.4500
  226MPD1    C4 3432   2.657   0.398   9.139  0.3215  0.0780  0.2422
  226MPD1    C5 3433   2.533   0.389   9.084  0.6611  0.0468 -0.1144
  226MPD1     H 3434   2.762   0.669   8.967  1.2815  0.0093  0.2733
  226MPD1    H1 3435   2.692   0.332   9.218  2.2974 -1.3372 -1.8011
  226MPD1    H2 3436   2.391   0.452   8.940 -0.2294 -1.8161  1.6436
  226MPD1    H3 3437   2.466   0.312   9.119 -0.3394  0.7335 -0.5386
  226MPD1     N 3438   2.873   0.527   9.143  1.0646  0.2212 -0.3192
  226MPD1    H5 3439   2.927   0.599   9.097  1.2244  0.6485  0.5400
  226MPD1    N1 3440   2.535   0.655   8.832 -0.5906 -0.4717  0.3942
  226MPD1    H6 3441   2.433   0.653   8.829 -0.6665  2.4570  0.6758
  226MPD1    H7 3442   2.558   0.753   8.843  3.3905 -1.4325  0.3487
  227MPD1     C 3443   3.438   0.023   9.756  0.2539  0.7335 -0.0643
  227MPD1    C1 3444   3.315   0.089   9.780  0.0521  0.1492 -0.3437
  227MPD1    C2 3445   3.277   0.176   9.679  0.1804  0.1859 -0.0108
  227MPD1    C3 3446   3.352   0.205   9.569 -0.1061  0.2620  0.3840
  227MPD1    C4 3447   3.473   0.137   9.546  0.4317 -0.0709 -0.6303
  227MPD1    C5 3448   3.517   0.051   9.646 -0.2588 -0.2362  0.8339
  227MPD1     H 3449   3.174   0.208   9.692 -0.2828 -0.6426 -1.6011
  227MPD1    H1 3450   3.542   0.151   9.463  1.2455  0.1522  0.0857
  227MPD1    H2 3451   3.473   4.678   9.832 -1.6428  0.5746  0.6727
  227MPD1    H3 3452   3.614   0.005   9.631 -0.6192 -1.3945  2.1138
  227MPD1     N 3453   3.305   0.304   9.479 -0.1149 -0.4255 -0.2231
  227MPD1    H5 3454   3.213   0.344   9.494  0.7015  1.2679  0.2360
  227MPD1    N1 3455   3.230   0.039   9.880  0.5728  0.3604  0.3953
  227MPD1    H6 3456   3.161   0.105   9.916 -0.5840 -0.8492  0.3929
  227MPD1    H7 3457   3.270   4.723   9.964  1.7620 -0.5219 -0.5901
  228MPD1     C 3458   1.345   4.579  13.245  0.1513  0.5928  0.4297
  228MPD1    C1 3459   1.346   4.437  13.263  1.1595 -0.6021  0.7197
  228MPD1    C2 3460   1.227   4.364  13.250 -0.0698  0.1658 -0.3850
  228MPD1    C3 3461   1.109   4.423  13.208  0.2471 -0.3805  0.4418
  228MPD1    C4 3462   1.115   4.560  13.171  0.1451 -0.4139  0.0355
  228MPD1    C5 3463   1.230   4.638  13.194 -0.0355  0.7946  0.2481
  228MPD1     H 3464   1.231   4.263  13.289 -0.3600  0.4621  0.4120
  228MPD1    H1 3465   1.028   4.605  13.126  0.0421 -2.0891 -1.4485
  228MPD1    H2 3466   1.432   4.641  13.261  0.4564 -0.1366  1.5832
  228MPD1    H3 3467   1.234   0.020  13.176 -0.0568  0.7735  0.1174
  228MPD1     N 3468   0.985   4.361  13.182 -0.0536 -0.2517  0.9307
  228MPD1    H5 3469   0.904   4.417  13.156  0.5831  0.5669  0.7238
  228MPD1    N1 3470   1.453   4.387  13.335  0.3163 -0.1920 -0.1853
  228MPD1    H6 3471   1.480   4.292  13.311 -0.0803  0.6613 -3.9764
  228MPD1    H7 3472   1.539   4.433  13.304 -0.0502 -0.3173 -1.3774
  229MPD1     C 3473   0.266   2.767  15.169  0.2935  0.4929 -0.4971
  229MPD1    C1 3474   0.373   2.798  15.256  0.0676 -0.3361 -0.5533
  229MPD1    C2 3475   0.443   2.692  15.322 -0.8292  0.3068  0.1009
  229MPD1    C3 3476   0.395   2.562  15.308 -0.0519 -0.6815  0.1448
  229MPD1    C4 3477   0.296   2.538  15.218  0.0453  0.6084  0.2770
  229MPD1    C5 3478   0.229   2.638  15.148  0.0946  0.1530 -0.4705
  229MPD1     H 3479   0.525   2.715  15.388  0.3750 -0.6957 -1.0614
  229MPD1    H1 3480   0.264   2.435  15.204  0.7945  0.5414 -0.8657
  229MPD1    H2 3481   0.207   2.841  15.117  3.1637  1.2670 -2.6293
  229MPD1    H3 3482   0.147   2.610  15.083 -1.0224  0.1344  0.9572
  229MPD1     N 3483   0.448   2.448  15.385  0.5208  0.5187 -0.1974
  229MPD1    H5 3484   0.387   2.367  15.391  1.1705  0.1733  1.7983
  229MPD1    N1 3485   0.435   2.925  15.262  0.2178  0.3743  0.3588
  229MPD1    H6 3486   0.475   2.948  15.353  0.7059  1.6808 -0.1922
  229MPD1    H7 3487   0.361   2.992  15.241 -0.4537 -0.7497 -0.8985
  230MPD1     C 3488   1.054   2.062  16.220 -0.2723 -0.2912 -0.3764
  230MPD1    C1 3489   1.015   1.958  16.133  0.1292  0.5112  0.0070
  230MPD1    C2 3490   0.947   1.999  16.023 -0.7740 -0.0447  0.2230
  230MPD1    C3 3491   0.896   2.129  16.012 -0.0876 -0.2124 -0.5819
  230MPD1    C4 3492   0.925   2.222  16.110  0.2518  0.7485 -0.5728
  230MPD1    C5 3493   1.018   2.195  16.204 -0.2614  0.0025  0.5070
  230MPD1     H 3494   0.923   1.934  15.940  0.4481  0.5553 -0.5899
  230MPD1    H1 3495   0.884   2.323  16.107  1.0161  1.2024  3.5177
  230MPD1    H2 3496   1.119   2.041  16.304 -0.7880  1.4582  0.4616
  230MPD1    H3 3497   1.042   2.278  16.268 -0.1298  1.0496 -0.9077
  230MPD1     N 3498   0.812   2.156  15.902 -0.5248  0.2729  0.4674
  230MPD1    H5 3499   0.804   2.076  15.839  4.0241  1.5679 -1.7778
  230MPD1    N1 3500   1.075   1.831  16.131  0.9305 -0.1952 -0.2137
  230MPD1    H6 3501   1.016   1.762  16.085 -1.0313  1.3552  0.0381
  230MPD1    H7 3502   1.113   1.787  16.215  1.2511 -0.6687 -0.6048
  231MPD1     C 3503   3.480   4.205  15.793 -0.1428  0.4314  0.1419
  231MPD1    C1 3504   3.505   4.177  15.659 -0.1229  0.5199  0.1538
  231MPD1    C2 3505   3.595   4.260  15.590  0.3378 -0.1922  0.5736
  231MPD1    C3 3506   3.658   4.364  15.645 -0.3249  0.8256 -0.5274
  231MPD1    C4 3507   3.625   4.394  15.775  0.1183 -0.4701 -0.1379
  231MPD1    C5 3508   3.539   4.313  15.845  0.1346  0.6741  0.5135
  231MPD1     H 3509   3.608   4.240  15.484  1.8299  0.4244  0.6417
  231MPD1    H1 3510   3.658   4.484  15.825  0.1947  1.1376 -3.0382
  231MPD1    H2 3511   3.407   4.148  15.850 -0.2257 -0.5538 -0.9553
  231MPD1    H3 3512   3.531   4.337  15.951 -2.1205 -0.4021  0.5850
  231MPD1     N 3513   3.744   4.437  15.563  0.0453 -0.5388 -0.0222
  231MPD1    H5 3514   3.763   4.393  15.473 -1.1985 -0.2639 -0.4150
  231MPD1    N1 3515   3.434   4.073  15.595 -0.2058  0.4614 -0.1374
  231MPD1    H6 3516   3.348   4.042  15.639  0.0267 -0.5737 -0.4175
  231MPD1    H7 3517   3.410   4.097  15.499  1.1939  2.0476 -0.0986
  232MPD1     C 3518   1.105   2.576   0.051  0.6896 -0.4358 -0.2286
  232MPD1    C1 3519   1.061   2.514   0.163  0.6428  0.4164 -0.2838
  232MPD1    C2 3520   0.969   2.411   0.146 -0.1130  0.0362 -0.1139
  232MPD1    C3 3521   0.928   2.375   0.018 -0.7447 -0.5373  0.1096
  232MPD1    C4 3522   0.970   2.441  17.609 -0.2753 -0.4550  0.1662
  232MPD1    C5 3523   1.064   2.541  17.624  0.0472  0.7743 -0.0725
  232MPD1     H 3524   0.926   2.353   0.227 -1.1557  1.8572  0.6444
  232MPD1    H1 3525   0.937   2.432  17.506  0.7075 -0.6743 -0.1258
  232MPD1    H2 3526   1.178   2.654   0.065  1.9202 -1.9705  1.9386
  232MPD1    H3 3527   1.091   2.599  17.536 -0.0199  1.1400  0.1525
  232MPD1     N 3528   0.825   2.286   0.015 -0.1101 -0.4578  0.1579
  232MPD1    H5 3529   0.791   2.250   0.103  0.7322  0.2815  0.7785
  232MPD1    N1 3530   1.124   2.527   0.285 -0.3334 -0.4227  0.3903
  232MPD1    H6 3531   1.171   2.613   0.312 -2.6168  0.4986  1.3894
  232MPD1    H7 3532   1.059   2.500   0.359  2.7127  0.0356  3.2245
  233MPD1     C 3533   1.837   1.964   2.047  0.4056 -0.1743  0.7766
  233MPD1    C1 3534   1.715   1.908   2.028 -0.2190 -0.1003 -0.0731
  233MPD1    C2 3535   1.712   1.790   1.960 -0.8297 -0.1254 -0.6442
  233MPD1    C3 3536   1.818   1.743   1.887 -0.3857 -0.6211  0.0307
  233MPD1    C4 3537   1.922   1.830   1.873  0.2948  0.3801  0.0268
  233MPD1    C5 3538   1.936   1.938   1.954 -0.8026 -0.1376 -0.1716
  233MPD1     H 3539   1.619   1.737   1.976 -0.2405 -1.3788 -1.3816
  233MPD1    H1 3540   2.002   1.809   1.802  0.1178  1.1471 -0.3979
  233MPD1    H2 3541   1.847   2.044   2.120 -3.0152 -0.1165  1.1822
  233MPD1    H3 3542   2.030   1.989   1.972 -0.9322  0.0941 -0.1589
  233MPD1     N 3543   1.814   1.611   1.826  0.4246 -0.6134 -0.2739
  233MPD1    H5 3544   1.908   1.591   1.794  0.8223  0.2148  0.3796
  233MPD1    N1 3545   1.606   1.944   2.111 -0.5646 -0.5629 -0.1985
  233MPD1    H6 3546   1.611   2.040   2.145  1.0457 -1.3309  1.7144
  233MPD1    H7 3547   1.518   1.925   2.063 -0.8672 -3.1358  1.3588
  234MPD1     C 3548   3.870   3.329   9.857  0.3156 -0.4641 -0.1778
  234MPD1    C1 3549   3.788   3.411   9.777  0.1889 -0.5477 -0.1651
  234MPD1    C2 3550   3.780   3.547   9.802  0.5495 -0.1700 -0.2132
  234MPD1    C3 3551   3.840   3.603   9.914 -0.7767  0.7922 -0.2246
  234MPD1    C4 3552   3.913   3.520   9.998 -0.2291  0.1883  0.2861
  234MPD1    C5 3553   3.930   3.388   9.963  0.1119  0.2608 -0.0530
  234MPD1     H 3554   3.722   3.611   9.736  0.5907 -0.5467 -0.6163
  234MPD1    H1 3555   3.961   3.559  10.087 -0.2071  1.6998 -0.3839
  234MPD1    H2 3556   3.871   3.221   9.843  1.6087 -0.3543 -0.9521
  234MPD1    H3 3557   3.998   3.328  10.023  2.3130  0.7293 -2.0559
  234MPD1     N 3558   3.825   3.743   9.942  0.1871  0.5168  0.0050
  234MPD1    H5 3559   3.774   3.802   9.876 -1.7543 -0.1914  0.8956
  234MPD1    N1 3560   3.740   3.355   9.660 -0.1277 -0.4382 -0.2857
  234MPD1    H6 3561   3.717   3.258   9.677  0.2031 -0.4010  0.3441
  234MPD1    H7 3562   3.657   3.396   9.617 -0.1642  0.0670  0.2656
  235MPD1     C 3563   0.157   1.248  10.452  0.3545 -0.2381  0.2306
  235MPD1    C1 3564   0.100   1.261  10.327  0.0420  0.3394 -0.1630
  235MPD1    C2 3565   0.137   1.374  10.259 -0.1729 -0.0014  0.1988
  235MPD1    C3 3566   0.210   1.475  10.321 -0.2943 -0.6379 -0.2820
  235MPD1    C4 3567   0.246   1.468  10.456 -0.4762  1.1689  0.5501
  235MPD1    C5 3568   0.229   1.345  10.512 -0.2512  0.7708 -0.6027
  235MPD1     H 3569   0.102   1.403  10.160  1.1804 -1.7655 -0.8083
  235MPD1    H1 3570   0.297   1.550  10.506  1.7924 -0.7589  1.4033
  235MPD1    H2 3571   0.140   1.151  10.498  0.1283 -1.2384 -1.9921
  235MPD1    H3 3572   0.273   1.320  10.608  0.6985 -1.5534 -1.6435
  235MPD1     N 3573   0.237   1.588  10.243 -0.3631  0.5546 -0.1590
  235MPD1    H5 3574   0.204   1.587  10.147  0.6039 -0.2942 -0.4876
  235MPD1    N1 3575   0.036   1.149  10.267 -0.1326 -0.3568  0.2684
  235MPD1    H6 3576   4.701   1.166  10.186 -1.4710 -1.5504  1.0108
  235MPD1    H7 3577   4.710   1.090  10.332 -0.9146 -2.2768 -2.0767
  236MPD1     C 3578   3.923   2.911   9.714  0.4111 -0.1927  0.5709
  236MPD1    C1 3579   3.938   2.791   9.775  0.4731  0.5952 -0.5719
  236MPD1    C2 3580   4.030   2.777   9.881  0.2192 -0.4045  0.1891
  236MPD1    C3 3581   4.118   2.883   9.909  0.6493  0.0874  0.6447
  236MPD1    C4 3582   4.102   3.003   9.842 -0.0456  0.4037 -0.6142
  236MPD1    C5 3583   4.011   3.008   9.742 -0.6340  0.7559  0.2603
  236MPD1     H 3584   4.027   2.684   9.936  0.3587  1.2890  3.0573
  236MPD1    H1 3585   4.164   3.090   9.858 -2.2437  1.7629  0.6238
  236MPD1    H2 3586   3.847   2.925   9.638  0.2490 -0.9305  0.5995
  236MPD1    H3 3587   4.001   3.102   9.689 -0.7181 -0.3318 -1.6384
  236MPD1     N 3588   4.213   2.880  10.013  0.3341 -0.6315 -0.4599
  236MPD1    H5 3589   4.247   2.972  10.041  0.8314 -0.9717  0.0804
  236MPD1    N1 3590   3.837   2.693   9.765  0.0457 -0.8396 -0.2159
  236MPD1    H6 3591   3.864   2.600   9.796  0.1120 -1.7214 -2.9056
  236MPD1    H7 3592   3.816   2.680   9.666 -2.5401 -1.9628  0.4962
  237MPD1     C 3593   3.883   0.820  15.832  0.4635  0.4749  0.3643
  237MPD1    C1 3594   3.774   0.890  15.876 -0.9019 -0.0061  0.4659
  237MPD1    C2 3595   3.652   0.853  15.824 -0.1015  0.3427  0.6017
  237MPD1    C3 3596   3.643   0.744  15.744  0.3588 -0.1378  0.6650
  237MPD1    C4 3597   3.755   0.679  15.698  0.3404 -0.5601  0.0626
  237MPD1    C5 3598   3.877   0.721  15.742  0.7258  0.1683  0.7490
  237MPD1     H 3599   3.568   0.906  15.866 -0.5466 -0.8124  1.1688
  237MPD1    H1 3600   3.757   0.602  15.622 -0.8829 -0.5187 -0.0156
  237MPD1    H2 3601   3.979   0.857  15.865  0.8632  0.8355 -1.2335
  237MPD1    H3 3602   3.963   0.674  15.696 -0.3639  0.4089 -1.5162
  237MPD1     N 3603   3.522   0.720  15.672 -0.1599  0.2028  0.0843
  237MPD1    H5 3604   3.528   0.653  15.596  0.4495  2.5978 -1.9934
  237MPD1    N1 3605   3.795   1.002  15.952 -0.1475  0.6824  0.2393
  237MPD1    H6 3606   3.884   1.011  16.000 -0.0012 -1.4213  0.3877
  237MPD1    H7 3607   3.712   1.024  16.008  0.5496  1.0136  1.1360
  238MPD1     C 3608   0.843   3.780  15.679 -0.1013  0.0162  0.8812
  238MPD1    C1 3609   0.879   3.784  15.545  0.1726  0.0097  0.3130
  238MPD1    C2 3610   0.793   3.845  15.463 -0.3422 -0.4558 -0.2075
  238MPD1    C3 3611   0.668   3.882  15.501 -0.1036 -0.5026 -0.2050
  238MPD1    C4 3612   0.623   3.845  15.623 -0.0606  0.7816  0.0395
  238MPD1    C5 3613   0.713   3.808  15.721 -0.4718 -0.3484  0.0850
  238MPD1     H 3614   0.836   3.870  15.366 -0.8242  0.0861 -0.2855
  238MPD1    H1 3615   0.518   3.850  15.651  0.0562  1.1145  0.4110
  238MPD1    H2 3616   0.914   3.745  15.753 -2.7326  0.4436  3.6223
  238MPD1    H3 3617   0.680   3.793  15.823  0.8774  1.5495  0.7895
  238MPD1     N 3618   0.571   3.947  15.414 -0.0280 -0.1292 -0.5112
  238MPD1    H5 3619   0.483   3.976  15.456 -0.1584  0.3948 -1.1383
  238MPD1    N1 3620   1.005   3.747  15.502 -0.1780  1.1844  0.2915
  238MPD1    H6 3621   1.031   3.662  15.551 -3.3888 -1.0293 -1.8460
  238MPD1    H7 3622   0.999   3.729  15.402 -2.0271  2.4894  0.1748
  239MPD1     C 3623   1.254   4.694  15.025  0.4321  0.2988  0.3425
  239MPD1    C1 3624   1.171   0.079  15.045 -0.2230 -0.4934 -0.0845
  239MPD1    C2 3625   1.177   0.190  14.954 -0.4240  0.4070 -0.2320
  239MPD1    C3 3626   1.254   0.180  14.841 -0.5821  0.0765 -0.4051
  239MPD1    C4 3627   1.345   0.071  14.827 -0.1779  0.6533  0.1562
  239MPD1    C5 3628   1.337   4.690  14.915 -0.6861 -0.2225 -0.3295
  239MPD1     H 3629   1.102   0.266  14.970 -1.7178 -1.0607  0.7454
  239MPD1    H1 3630   1.407   0.061  14.738 -1.0767  0.8583 -0.4981
  239MPD1    H2 3631   1.267   4.616  15.099 -1.5017 -0.9898 -0.6682
  239MPD1    H3 3632   1.400   4.602  14.907 -0.7549 -0.4112  1.3810
  239MPD1     N 3633   1.261   0.270  14.736  0.9608  0.0501 -0.1453
  239MPD1    H5 3634   1.307   0.247  14.648  0.3487 -1.7130 -0.0175
  239MPD1    N1 3635   1.095   0.093  15.164  0.3775 -0.4290 -0.3166
  239MPD1    H6 3636   1.084   0.007  15.219 -0.9157  0.7469  1.2807
  239MPD1    H7 3637   1.007   0.143  15.150  0.2104 -0.4421  0.6578
  240MPD1     C 3638   0.408   0.448  14.425  0.7153 -0.2171 -0.2271
  240MPD1    C1 3639   0.306   0.359  14.435 -0.3990  0.2350  1.3995
  240MPD1    C2 3640   0.287   0.294  14.555 -0.1534 -0.6096  0.2418
  240MPD1    C3 3641   0.385   0.305  14.658  0.1949  0.4553  0.8366
  240MPD1    C4 3642   0.504   0.381  14.630  0.3455  0.3928  0.0728
  240MPD1    C5 3643   0.514   0.445  14.511  0.6902 -0.2762 -0.0998
  240MPD1     H 3644   0.192   0.244  14.572 -0.4124 -0.5645 -1.1175
  240MPD1    H1 3645   0.583   0.402  14.701  0.7696  0.8983 -0.5466
  240MPD1    H2 3646   0.415   0.510  14.336  3.0086 -1.8668 -1.2073
  240MPD1    H3 3647   0.594   0.517  14.497 -1.4679  2.4393  1.4708
  240MPD1     N 3648   0.349   0.232  14.775  0.0760 -1.0325 -0.4906
  240MPD1    H5 3649   0.258   0.189  14.784 -0.1027 -0.7257 -0.8079
  240MPD1    N1 3650   0.204   0.360  14.338 -0.0028 -0.3579 -0.3321
  240MPD1    H6 3651   0.146   0.277  14.339  0.1153 -0.4417 -0.6667
  240MPD1    H7 3652   0.243   0.379  14.246 -1.2281 -0.1400 -0.8054
  241MPD1     C 3653   0.949   4.475  15.489  0.8239  0.7719  0.3052
  241MPD1    C1 3654   0.963   4.544  15.376  0.1057  0.0052  0.0126
  241MPD1    C2 3655   0.853   4.613  15.322 -0.4592 -0.2777  0.1022
  241MPD1    C3 3656   0.727   4.602  15.379  0.3739  0.2512  0.0207
  241MPD1    C4 3657   0.713   4.522  15.496  0.2502  0.0677  0.1049
  241MPD1    C5 3658   0.829   4.466  15.543  0.0545 -0.5717  0.4853
  241MPD1     H 3659   0.867   4.672  15.232 -2.3297  0.0861  0.0463
  241MPD1    H1 3660   0.622   4.506  15.553  1.0761 -2.4675  0.7200
  241MPD1    H2 3661   1.036   4.424  15.529  1.4670 -0.6994 -2.9719
  241MPD1    H3 3662   0.833   4.411  15.636 -1.0740  1.2894  1.6292
  241MPD1     N 3663   0.614   4.678  15.332  0.4086 -0.7083  0.0275
  241MPD1    H5 3664   0.533   4.674  15.393  0.7501  0.6746  0.5714
  241MPD1    N1 3665   1.083   4.537  15.304 -0.8176  0.2178  0.4325
  241MPD1    H6 3666   1.080   4.462  15.235  0.7475  1.3662 -0.8897
  241MPD1    H7 3667   1.155   4.509  15.370 -0.1178  0.9919 -0.0059
  242MPD1     C 3668   0.193   3.834  15.565 -0.2204 -0.1033  0.5998
  242MPD1    C1 3669   0.094   3.802  15.656  0.5847  0.8676  0.2820
  242MPD1    C2 3670   0.076   3.666  15.685 -0.0978 -0.4104  0.8152
  242MPD1    C3 3671   0.174   3.577  15.646  0.2588  0.2426 -0.1283
  242MPD1    C4 3672   0.285   3.618  15.577 -0.1498  0.4847 -0.4211
  242MPD1    C5 3673   0.288   3.741  15.525 -0.0249  0.2601  0.3177
  242MPD1     H 3674   4.722   3.633  15.751  1.7928  1.9222  4.2296
  242MPD1    H1 3675   0.365   3.549  15.551 -1.0063 -0.5976 -0.1575
  242MPD1    H2 3676   0.205   3.931  15.517 -0.6173 -0.2563  0.1849
  242MPD1    H3 3677   0.364   3.767  15.452  1.1547  1.9799  2.1645
  242MPD1     N 3678   0.173   3.441  15.662 -0.2962  0.3032 -0.3970
  242MPD1    H5 3679   0.250   3.392  15.616 -0.0714 -0.8153  1.1800
  242MPD1    N1 3680   4.713   3.887  15.684  0.6109 -0.3786 -0.2938
  242MPD1    H6 3681   0.026   3.982  15.676  0.0953 -0.3587 -2.7369
  242MPD1    H7 3682   4.686   3.873  15.781 -1.5353 -1.2865 -1.0099
  243MPD1     C 3683   2.802   2.882   0.308 -0.4252  0.3047  0.8326
  243MPD1    C1 3684   2.706   2.797   0.355 -0.4964 -1.0047 -0.0519
  243MPD1    C2 3685   2.612   2.741   0.266  0.0369 -0.3062 -0.6188
  243MPD1    C3 3686   2.627   2.766   0.129 -0.1052 -0.3561  0.2453
  243MPD1    C4 3687   2.732   2.845   0.082 -0.8869  0.3590  0.8163
  243MPD1    C5 3688   2.823   2.903   0.172  0.1245  0.0668 -0.4115
  243MPD1     H 3689   2.528   2.680   0.297  0.2897 -0.1549  0.3682
  243MPD1    H1 3690   2.750   2.867  17.678  1.3862  0.0416  1.1332
  243MPD1    H2 3691   2.862   2.941   0.377  1.3128 -1.3587  0.7259
  243MPD1    H3 3692   2.896   2.979   0.148 -0.9799  1.9082  2.1258
  243MPD1     N 3693   2.523   2.727   0.043  0.0243  0.2518  0.2487
  243MPD1    H5 3694   2.449   2.675   0.089  0.6818 -3.5571 -2.9672
  243MPD1    N1 3695   2.705   2.768   0.492 -0.3865 -0.4002 -0.7779
  243MPD1    H6 3696   2.642   2.699   0.532 -0.1737 -0.4009 -0.4400
  243MPD1    H7 3697   2.783   2.787   0.555  0.3755 -2.3632 -1.1595
  244MPD1     C 3698   1.735   2.945   0.163  0.3722 -1.0513 -0.6433
  244MPD1    C1 3699   1.805   2.852   0.235 -0.4638  0.5354  0.0173
  244MPD1    C2 3700   1.915   2.796   0.173  0.3493  0.7322  0.1071
  244MPD1    C3 3701   1.936   2.805   0.036  0.9596 -0.0481 -0.1415
  244MPD1    C4 3702   1.858   2.884  17.660  0.8424 -0.2083 -0.4553
  244MPD1    C5 3703   1.753   2.944   0.028  0.6420  0.0745 -0.0870
  244MPD1     H 3704   1.988   2.739   0.229 -1.9877 -2.4327 -0.0707
  244MPD1    H1 3705   1.867   2.900  17.553 -4.2172 -0.7539 -0.9624
  244MPD1    H2 3706   1.656   3.007   0.204  1.7385 -1.2130  2.2964
  244MPD1    H3 3707   1.688   3.011  17.673  0.3642 -0.1847 -0.0703
  244MPD1     N 3708   2.041   2.730  17.681 -0.4818  0.4111 -0.0074
  244MPD1    H5 3709   2.092   2.676   0.050 -1.0036  0.6616  0.5603
  244MPD1    N1 3710   1.778   2.844   0.371  0.2130  0.2538  0.1668
  244MPD1    H6 3711   1.680   2.847   0.398 -0.4100  1.5486 -2.2339
  244MPD1    H7 3712   1.821   2.762   0.415 -0.7585 -0.8120 -0.8769
  245MPD1     C 3713   4.012   2.427  13.280 -0.7126 -0.5546  0.4657
  245MPD1    C1 3714   4.067   2.548  13.286  0.2080 -0.2647 -0.1103
  245MPD1    C2 3715   4.034   2.635  13.392  0.0146 -0.7062  0.3368
  245MPD1    C3 3716   3.963   2.587  13.505  0.3500  0.2247  0.1739
  245MPD1    C4 3717   3.935   2.453  13.507 -0.3749 -0.1535 -0.6536
  245MPD1    C5 3718   3.957   2.380  13.399  0.5765 -0.0165  0.0629
  245MPD1     H 3719   4.072   2.736  13.406 -2.0753 -0.0154  0.9668
  245MPD1    H1 3720   3.897   2.405  13.597  1.7356  0.5066  0.5862
  245MPD1    H2 3721   4.029   2.362  13.195 -0.5077  2.8280 -2.0708
  245MPD1    H3 3722   3.927   2.276  13.408 -3.5559  1.1592  0.0971
  245MPD1     N 3723   3.938   2.683  13.607 -0.4672 -0.5074 -0.6818
  245MPD1    H5 3724   3.976   2.776  13.597 -1.4568  0.0101  0.3919
  245MPD1    N1 3725   4.120   2.600  13.169  0.1167 -0.1860  0.6287
  245MPD1    H6 3726   4.174   2.684  13.184 -1.6141  0.7312  1.7537
  245MPD1    H7 3727   4.171   2.533  13.111  0.7699  0.7281  0.1568
  246MPD1     C 3728   0.541   4.612   9.918 -0.0990  0.5504 -0.0746
  246MPD1    C1 3729   0.435   4.529   9.893 -0.9865 -1.4250  0.2096
  246MPD1    C2 3730   0.466   4.388   9.875 -0.9336  0.1233  0.3620
  246MPD1    C3 3731   0.599   4.335   9.893  0.0705  0.2710  0.0752
  246MPD1    C4 3732   0.695   4.435   9.891 -0.6083  0.0559  0.2786
  246MPD1    C5 3733   0.663   4.564   9.924 -0.0285 -0.5102 -0.2867
  246MPD1     H 3734   0.388   4.328   9.829  1.2368 -0.9800 -1.8185
  246MPD1    H1 3735   0.802   4.422   9.886 -0.5025  0.4899  1.3772
  246MPD1    H2 3736   0.525   4.719   9.926  0.8158  0.5897  1.1899
  246MPD1    H3 3737   0.736   4.644   9.928 -1.4268  0.7664 -0.4334
  246MPD1     N 3738   0.626   4.199   9.880  0.3722 -0.3273  0.1252
  246MPD1    H5 3739   0.551   4.130   9.880  0.1575 -0.0943 -0.1942
  246MPD1    N1 3740   0.317   4.591   9.851  0.2999  0.2613 -0.2905
  246MPD1    H6 3741   0.239   4.527   9.840  0.5640  0.0253 -0.8115
  246MPD1    H7 3742   0.293   4.676   9.901 -0.8217  0.3558 -0.9873
  247MPD1     C 3743   3.094   2.251  17.318 -0.1964 -0.1046  0.0965
  247MPD1    C1 3744   3.061   2.205  17.195 -0.0999  0.3489  0.4752
  247MPD1    C2 3745   3.077   2.284  17.083  0.2373 -0.0918  0.4161
  247MPD1    C3 3746   3.129   2.411  17.095  0.2209  0.4342  0.5866
  247MPD1    C4 3747   3.178   2.453  17.216 -0.2789  0.5077 -0.7592
  247MPD1    C5 3748   3.156   2.376  17.324 -0.4409  0.4167  0.1893
  247MPD1     H 3749   3.032   2.245  16.992 -2.9344 -0.3194  2.0618
  247MPD1    H1 3750   3.224   2.551  17.223 -0.5050  0.8134 -3.4287
  247MPD1    H2 3751   3.088   2.198  17.413  0.8618 -1.4894 -0.6173
  247MPD1    H3 3752   3.198   2.406  17.420 -0.4898  0.9187  0.0490
  247MPD1     N 3753   3.148   2.503  16.988 -0.3867  0.0596 -0.3335
  247MPD1    H5 3754   3.194   2.588  17.017 -1.0959  1.0318 -2.0576
  247MPD1    N1 3755   2.996   2.082  17.193 -0.3531 -0.7216  0.1677
  247MPD1    H6 3756   3.021   2.033  17.279  1.4602 -1.7798 -0.9646
  247MPD1    H7 3757   3.017   2.030  17.109  0.7660 -0.4142  0.2616
  248MPD1     C 3758   4.542   3.852  17.101  0.1047 -0.1593 -0.5694
  248MPD1    C1 3759   4.528   3.863  17.241  0.2186  0.1287 -0.2940
  248MPD1    C2 3760   4.525   3.744  17.314 -0.3013  0.4067  0.1262
  248MPD1    C3 3761   4.554   3.621  17.254  0.4063  0.1913 -0.3359
  248MPD1    C4 3762   4.566   3.613  17.114  0.3684  0.0309  0.7601
  248MPD1    C5 3763   4.571   3.733  17.040 -0.4189 -0.3030  0.3276
  248MPD1     H 3764   4.497   3.751  17.418  0.4971 -1.9430  0.4894
  248MPD1    H1 3765   4.572   3.520  17.058 -2.0821  2.1621 -2.9443
  248MPD1    H2 3766   4.529   3.933  17.031  0.3513  1.7332  1.6067
  248MPD1    H3 3767   4.598   3.733  16.935 -2.5190 -2.0499 -0.2240
  248MPD1     N 3768   4.566   3.504  17.332  0.1344  0.0009  0.3427
  248MPD1    H5 3769   4.544   3.506  17.431  1.6900  0.7795  0.6804
  248MPD1    N1 3770   4.502   3.985  17.301  0.1249  0.5370  0.8072
  248MPD1    H6 3771   4.539   4.068  17.253 -0.2246  1.1964  1.6727
  248MPD1    H7 3772   4.543   3.990  17.394  2.7152 -0.4411 -0.3145
  249MPD1     C 3773   1.228   0.526  10.048  0.2002  0.3939 -0.0430
  249MPD1    C1 3774   1.244   0.547  10.189  0.4860  0.0063  0.2704
  249MPD1    C2 3775   1.343   0.635  10.223 -0.4159 -0.2522 -0.0177
  249MPD1    C3 3776   1.432   0.692  10.128  0.3265 -0.0043 -0.0843
  249MPD1    C4 3777   1.417   0.664   9.990 -0.0780 -0.3814 -0.6447
  249MPD1    C5 3778   1.320   0.575   9.956  0.1851  0.5080 -0.3974
  249MPD1     H 3779   1.356   0.669  10.325 -1.2278  1.2199 -0.3989
  249MPD1    H1 3780   1.483   0.714   9.919 -0.3405  1.5789  0.4707
  249MPD1    H2 3781   1.154   0.460  10.005  1.8271 -0.2325 -1.9033
  249MPD1    H3 3782   1.314   0.546   9.852  0.3136 -0.7865 -0.0327
  249MPD1     N 3783   1.538   0.775  10.182  0.6578 -0.3980 -0.8526
  249MPD1    H5 3784   1.529   0.796  10.281 -1.4807 -2.5686 -0.5530
  249MPD1    N1 3785   1.144   0.509  10.276 -0.1274 -0.3047  0.1530
  249MPD1    H6 3786   1.107   0.420  10.242  2.0379 -1.0742 -0.2117
  249MPD1    H7 3787   1.177   0.489  10.370 -1.6125 -0.3590  0.6594
  250MPD2     C 3788   2.191   1.149  13.875  0.3490 -0.1744 -0.8489
  250MPD2    C1 3789   2.248   1.138  13.750  0.3113  0.6959 -0.7739
  250MPD2    C2 3790   2.214   1.036  13.667 -0.3297  0.1038 -0.3305
  250MPD2    C3 3791   2.115   0.946  13.706  0.2166  0.3055  0.2557
  250MPD2    C4 3792   2.060   0.956  13.831  0.6874 -0.3389  0.7926
  250MPD2    C5 3793   2.093   1.059  13.912  0.4685 -0.2654 -0.4669
  250MPD2     H 3794   2.258   1.028  13.568 -1.9738 -0.6756 -0.9966
  250MPD2    H1 3795   1.986   0.884  13.864  0.6152 -1.3833 -1.6577
  250MPD2    H2 3796   2.200   1.223  13.954  0.7384 -0.9526 -0.1653
  250MPD2    H3 3797   2.040   1.078  14.005  1.0108 -0.1909 -0.1729
  250MPD2     N 3798   2.073   0.840  13.634  0.1030 -0.3578  0.4776
  250MPD2    H5 3799   1.994   0.792  13.676 -0.4993  0.6312  0.4964
  250MPD2    N1 3800   2.334   1.251  13.727 -0.2401  0.0411 -0.4646
  250MPD2    H7 3801   2.315   1.333  13.785 -0.7743 -1.4520  1.4780
  251TMC3    C1 3802   2.443   1.402  13.588 -0.4987  0.2551  0.7368
  251TMC3    C2 3803   2.395   1.498  13.667 -0.4126 -0.2841 -1.0067
  251TMC3    C3 3804   2.349   1.618  13.613  0.7020 -1.0176  0.2532
  251TMC3    C4 3805   2.453   1.430  13.452 -0.7924 -0.0922 -0.6981
  251TMC3    C5 3806   2.432   1.554  13.401 -1.3456  0.6289  0.3124
  251TMC3    C6 3807   2.367   1.650  13.475  0.0001 -0.6876 -0.1165
  251TMC3     C 3808   2.423   1.264  13.619  0.1321 -0.0243 -0.0786
  251TMC3     O 3809   2.461   1.172  13.547  0.3253  0.2517  0.0057
  251TMC3     H 3810   2.375   1.480  13.772  2.3495  1.7855 -0.1348
  251TMC3    H1 3811   2.485   1.345  13.393 -1.3076  0.7502 -2.1958
  251TMC3    H2 3812   2.332   1.744  13.435 -1.7653 -0.5085  1.8563
  251TMC3    C7 3813   2.470   1.564  13.263  0.2627 -0.8291  0.5539
  251TMC3    C8 3814   2.242   1.677  13.686 -0.3316 -0.0618  0.0086
  251TMC3    O1 3815   2.528   1.463  13.221  0.0693 -0.9211  0.2983
  251TMC3    O2 3816   2.240   1.672  13.809 -0.4609  0.5722  0.2001
  252TMC3    C1 3817   3.448   0.908   8.936  0.0087 -0.0986  0.0316
  252TMC3    C2 3818   3.568   0.975   8.945 -0.4762  0.4153  0.8315
  252TMC3    C3 3819   3.553   1.107   8.965 -0.0760  0.0906  0.6056
  252TMC3    C4 3820   3.328   0.969   8.949  0.8292  0.9898  0.1388
  252TMC3    C5 3821   3.324   1.104   8.977  0.3605 -0.1526  0.1069
  252TMC3    C6 3822   3.437   1.178   8.975 -0.3863  0.1233 -0.5462
  252TMC3     C 3823   3.445   0.765   8.913  0.3619 -0.9288 -0.1388
  252TMC3     O 3824   3.334   0.714   8.897  0.1906  0.0656 -0.3034
  252TMC3     H 3825   3.663   0.923   8.943 -2.2598 -2.7716 -1.2678
  252TMC3    H1 3826   3.236   0.913   8.943  0.5093  1.6384 -1.0830
  252TMC3    H2 3827   3.424   1.283   8.998  1.3488  0.3517 -0.6349
  252TMC3    C7 3828   3.197   1.178   8.966  0.4996  0.1747 -0.5517
  252TMC3    C8 3829   3.676   1.177   9.002  0.4842 -0.5056  0.6925
  252TMC3    O1 3830   3.191   1.290   8.917  0.5542  1.0327 -0.1782
  252TMC3    O2 3831   3.775   1.113   9.014 -0.0568  0.2095 -0.2490
  253MPD2     C 3832   3.407   0.627  16.200 -0.3235  0.2165  0.1032
  253MPD2    C1 3833   3.361   0.755  16.155 -0.3646  0.3733 -0.1229
  253MPD2    C2 3834   3.442   0.866  16.170  0.0793  0.1216  0.1131
  253MPD2    C3 3835   3.564   0.857  16.229  0.3735  1.1345  0.2956
  253MPD2    C4 3836   3.617   0.734  16.267  0.2222 -0.5054  0.6687
  253MPD2    C5 3837   3.535   0.623  16.256 -0.0585 -0.5455 -0.9390
  253MPD2     H 3838   3.414   0.967  16.141 -0.3271  0.5270  1.8918
  253MPD2    H1 3839   3.718   0.719  16.306 -0.2543 -2.1938  1.3006
  253MPD2    H2 3840   3.349   0.537  16.186 -0.1294  0.3581 -1.6989
  253MPD2    H3 3841   3.573   0.526  16.285  1.2894  0.1641 -0.3660
  253MPD2     N 3842   3.628   0.978  16.242  0.1130 -0.2151  0.3765
  253MPD2    H5 3843   3.576   1.052  16.197 -1.1885 -1.1370  0.3807
  253MPD2    N1 3844   3.245   0.769  16.071 -1.1596 -0.0233 -0.1665
  253MPD2    H7 3845   3.243   0.854  16.016 -0.9641 -0.0240 -0.1754
  254TMC3    C1 3846   3.761   1.140  16.355  0.0342  0.0659 -0.4392
  254TMC3    C2 3847   3.662   1.233  16.327  0.4754 -0.1451 -0.4115
  254TMC3    C3 3848   3.650   1.328  16.420  0.6381  0.7378  0.3616
  254TMC3    C4 3849   3.851   1.149  16.458  0.2596  0.2335 -0.5499
  254TMC3    C5 3850   3.830   1.243  16.552 -0.0698  0.4372  0.8482
  254TMC3    C6 3851   3.726   1.332  16.532 -0.4450 -0.1678  0.2720
  254TMC3     C 3852   3.740   0.994  16.311 -0.3853 -0.4724  0.2533
  254TMC3     O 3853   3.809   0.910  16.369 -0.1240  0.0279  0.3740
  254TMC3     H 3854   3.601   1.229  16.237 -2.0993  0.3623  1.3170
  254TMC3    H1 3855   3.918   1.064  16.466 -0.5640 -0.3070  0.6013
  254TMC3    H2 3856   3.700   1.400  16.612  1.6200 -0.3919  1.1296
  254TMC3    C7 3857   3.857   1.203  16.689  0.7427 -0.1031 -0.4970
  254TMC3    C8 3858   3.521   1.392  16.439 -0.9963  0.1329 -0.2496
  254TMC3    O1 3859   3.794   1.263  16.777  0.3010  0.3031  0.3084
  254TMC3    O2 3860   3.470   1.398  16.550 -0.3039  0.1474 -0.0664
  255MPD2     C 3861   1.544   3.927  10.963  0.5886 -0.0228 -0.3916
  255MPD2    C1 3862   1.616   4.044  10.996 -0.2502  0.6887 -0.3640
  255MPD2    C2 3863   1.680   4.034  11.117  0.1074 -0.5589 -0.4065
  255MPD2    C3 3864   1.674   3.929  11.206 -0.3919  0.5434  0.2889
  255MPD2    C4 3865   1.605   3.816  11.170 -0.0112 -0.3580  0.2419
  255MPD2    C5 3866   1.542   3.820  11.048  0.1098  0.6574 -0.5590
  255MPD2     H 3867   1.744   4.115  11.151 -0.9368  0.5769 -1.1631
  255MPD2    H1 3868   1.594   3.724  11.226 -3.1900 -1.4947 -2.2201
  255MPD2    H2 3869   1.482   3.930  10.875  1.4309 -1.2304 -1.0274
  255MPD2    H3 3870   1.480   3.736  11.021  0.4717  0.6304 -1.2873
  255MPD2     N 3871   1.756   3.940  11.325 -0.1050  0.0409  0.6611
  255MPD2    H5 3872   1.807   4.025  11.344 -0.5711  0.1452  1.4559
  255MPD2    N1 3873   1.610   4.159  10.915  0.1436  0.5492  0.0548
  255MPD2    H7 3874   1.548   4.141  10.836 -1.1305  0.1921  1.1238
  256TMC3    C1 3875   1.587   4.378  10.864  0.6784 -0.1426 -0.0708
  256TMC3    C2 3876   1.647   4.424  10.748  0.0596  0.3885  0.3925
  256TMC3    C3 3877   1.563   4.465  10.652 -0.3334 -0.2295 -0.6558
  256TMC3    C4 3878   1.456   4.354  10.874 -0.1426 -0.0799 -0.6631
  256TMC3    C5 3879   1.371   4.386  10.774 -0.3609  0.2945  0.2072
  256TMC3    C6 3880   1.430   4.445  10.660 -0.3908 -0.3320  0.3294
  256TMC3     C 3881   1.651   4.286  10.944 -0.0094 -0.2637 -1.1721
  256TMC3     O 3882   1.697   4.329  11.051 -0.0107  0.4490 -0.3871
  256TMC3     H 3883   1.755   4.437  10.738  0.2016 -0.2261  1.1526
  256TMC3    H1 3884   1.427   4.314  10.971 -0.2324  0.1799 -0.5824
  256TMC3    H2 3885   1.379   4.446  10.564  0.0876  0.2223  0.0806
  256TMC3    C7 3886   1.271   4.285  10.739 -1.0400  0.7096 -0.2142
  256TMC3    C8 3887   1.600   4.575  10.561  0.4143  0.2744  0.0224
  256TMC3    O1 3888   1.256   4.252  10.623  0.3565 -0.2888  0.3248
  256TMC3    O2 3889   1.514   4.663  10.536 -0.0384 -0.0789 -0.2611
  257MPD2     C 3890   1.412   1.312  13.493 -0.6407  0.5492  0.2026
  257MPD2    C1 3891   1.395   1.238  13.378  0.3066  0.0204  0.2098
  257MPD2    C2 3892   1.370   1.104  13.387 -0.2226  0.3588 -0.0880
  257MPD2    C3 3893   1.366   1.037  13.512 -0.3181  0.2022  0.0685
  257MPD2    C4 3894   1.377   1.114  13.623 -0.1314 -0.0925  0.0494
  257MPD2    C5 3895   1.397   1.248  13.616  0.0771 -0.1019  0.0431
  257MPD2     H 3896   1.361   1.036  13.303  0.3341  0.1302  0.0410
  257MPD2    H1 3897   1.355   1.076  13.722 -0.2085 -1.0508 -0.3401
  257MPD2    H2 3898   1.418   1.420  13.492  0.5648  0.4743  0.2216
  257MPD2    H3 3899   1.398   1.305  13.708 -3.3832 -0.4888  0.3093
  257MPD2     N 3900   1.345   0.898  13.512  0.4158  0.5894 -0.2176
  257MPD2    H5 3901   1.337   0.847  13.424  0.8190 -0.6356  0.4625
  257MPD2    N1 3902   1.411   1.309  13.252  0.2330  0.3998 -0.3723
  257MPD2    H7 3903   1.453   1.400  13.262  0.2683  0.1558  1.8784
  258TMC3    C1 3904   1.301   0.689  13.610  0.2566 -0.0519  0.6717
  258TMC3    C2 3905   1.215   0.660  13.505  0.5399  0.2581  0.4923
  258TMC3    C3 3906   1.134   0.564  13.528 -0.1560  0.0905  0.3624
  258TMC3    C4 3907   1.304   0.614  13.722  0.4121 -0.8862  0.9196
  258TMC3    C5 3908   1.219   0.505  13.726 -0.0767  0.1116  0.8541
  258TMC3    C6 3909   1.134   0.475  13.627 -0.2261  0.4194 -0.3858
  258TMC3     C 3910   1.342   0.824  13.628 -0.6251  0.5139  0.2579
  258TMC3     O 3911   1.377   0.854  13.744 -0.2624 -0.2294 -0.1894
  258TMC3     H 3912   1.191   0.728  13.424  1.7996  1.2149  0.9182
  258TMC3    H1 3913   1.378   0.625  13.801  0.6086 -0.6858  0.7090
  258TMC3    H2 3914   1.075   0.384  13.632 -1.6399  1.2281 -2.2677
  258TMC3    C7 3915   1.184   0.434  13.851  0.6586  0.5996  0.8316
  258TMC3    C8 3916   1.064   0.521  13.405  0.0689  0.4136 -0.3450
  258TMC3    O1 3917   1.063   0.399  13.852 -0.7302 -0.0774  0.2114
  258TMC3    O2 3918   1.121   0.554  13.300  0.0725  0.1055 -0.1122
  259MPD2     C 3919   3.883   2.726   0.914  0.0207 -0.0128  0.4003
  259MPD2    C1 3920   3.947   2.846   0.887  0.1694 -0.7467 -0.1993
  259MPD2    C2 3921   4.035   2.852   0.778 -0.4036  0.4867 -0.0985
  259MPD2    C3 3922   4.054   2.742   0.698 -0.0651  0.6716  0.3100
  259MPD2    C4 3923   3.990   2.623   0.728  0.1195 -0.3440 -0.6366
  259MPD2    C5 3924   3.906   2.617   0.838  0.0635 -0.0406  0.4941
  259MPD2     H 3925   4.084   2.944   0.749  1.7920 -0.3995  0.7963
  259MPD2    H1 3926   4.003   2.535   0.666 -0.5623 -1.3366  0.6246
  259MPD2    H2 3927   3.806   2.715   0.990 -1.0477  0.5880 -0.6060
  259MPD2    H3 3928   3.844   2.531   0.863 -0.9788  0.3730 -0.6501
  259MPD2     N 3929   4.144   2.746   0.587  0.3810  0.2554  0.1444
  259MPD2    H5 3930   4.200   2.829   0.567 -0.4545  0.3025 -2.0781
  259MPD2    N1 3931   3.915   2.954   0.970  0.0048  0.3004  0.2781
  259MPD2    H7 3932   3.826   2.954   1.019  1.4048  0.3877  2.8258
  260TMC3    C1 3933   4.295   2.666   0.429  0.4503 -0.1355 -0.4075
  260TMC3    C2 3934   4.316   2.594   0.311 -0.1563 -0.1611 -0.4849
  260TMC3    C3 3935   4.442   2.605   0.258  0.1750 -0.7490  0.3748
  260TMC3    C4 3936   4.400   2.722   0.504  0.5925  0.1686 -0.2392
  260TMC3    C5 3937   4.523   2.704   0.454 -0.3505 -0.5029 -0.6496
  260TMC3    C6 3938   4.543   2.656   0.325  0.7266 -0.1062  0.1966
  260TMC3     C 3939   4.173   2.643   0.499  0.3038 -0.3634  0.1222
  260TMC3     O 3940   4.108   2.543   0.469 -0.2519 -0.6110 -0.1736
  260TMC3     H 3941   4.233   2.555   0.254  0.3838 -1.8360 -0.1159
  260TMC3    H1 3942   4.380   2.754   0.606 -0.7511 -0.6947 -0.2256
  260TMC3    H2 3943   4.632   2.688   0.272  1.7113 -1.5971  0.9514
  260TMC3    C7 3944   4.633   2.753   0.533  0.3998 -0.1647  0.5493
  260TMC3    C8 3945   4.454   2.517   0.142  0.2648 -0.0833  0.3757
  260TMC3    O1 3946   4.609   2.861   0.588  0.0003 -0.1391  0.3602
  260TMC3    O2 3947   4.357   2.495   0.073 -0.8688 -0.6087 -0.4235
  261MPD2     C 3948   1.642   0.665  12.958  0.3950  0.2396  0.1927
  261MPD2    C1 3949   1.768   0.726  12.946 -0.2546 -0.0076  0.1246
  261MPD2    C2 3950   1.796   0.792  12.835 -0.0720 -0.3259  0.2638
  261MPD2    C3 3951   1.699   0.815  12.735  0.7189  0.6448  0.3819
  261MPD2    C4 3952   1.578   0.756  12.748  0.6945  0.6015 -0.2223
  261MPD2    C5 3953   1.548   0.675  12.858 -0.3369 -0.0667  0.0141
  261MPD2     H 3954   1.890   0.847  12.841 -1.4837  2.2508 -1.4452
  261MPD2    H1 3955   1.492   0.771  12.683  0.4932 -1.6395 -0.4795
  261MPD2    H2 3956   1.610   0.611  13.046  0.4850  0.7760  0.5563
  261MPD2    H3 3957   1.445   0.641  12.866 -1.0132  2.4017  1.8739
  261MPD2     N 3958   1.732   0.899  12.631  0.0072 -0.3371  0.3487
  261MPD2    H5 3959   1.830   0.927  12.639 -0.6564  1.4308  2.1900
  261MPD2    N1 3960   1.864   0.714  13.048 -0.1803 -0.5253  0.8717
  261MPD2    H7 3961   1.957   0.749  13.027  0.0670 -0.9572  1.2272
  262TMC3    C1 3962   1.724   1.065  12.474  0.1891  0.2409 -0.4327
  262TMC3    C2 3963   1.671   1.114  12.359 -0.1645  0.5893 -0.4778
  262TMC3    C3 3964   1.738   1.202  12.285 -0.5659  0.1936  0.7231
  262TMC3    C4 3965   1.846   1.112  12.517 -0.3211 -1.0071  0.1424
  262TMC3    C5 3966   1.907   1.201  12.450 -0.1970 -0.2179  0.8940
  262TMC3    C6 3967   1.863   1.244  12.324 -0.4240  0.5982  0.8426
  262TMC3     C 3968   1.653   0.960  12.542  0.8864  0.3132  0.8575
  262TMC3     O 3969   1.532   0.955  12.529 -0.3646 -0.2395 -0.3309
  262TMC3     H 3970   1.572   1.083  12.328 -0.0556 -0.4507  0.1992
  262TMC3    H1 3971   1.883   1.086  12.615 -3.3597  0.9844  1.7958
  262TMC3    H2 3972   1.908   1.333  12.280  1.1278 -0.1364  0.9237
  262TMC3    C7 3973   2.047   1.240  12.481 -0.5752 -0.8666 -0.0494
  262TMC3    C8 3974   1.671   1.278  12.183  0.6881 -0.3905 -0.3120
  262TMC3    O1 3975   2.102   1.194  12.584  0.0548  0.3767 -0.4600
  262TMC3    O2 3976   1.743   1.323  12.095  0.2490  1.0341 -0.3570
  263MPD2     C 3977   2.613   4.632  11.556  0.7243  0.3598 -0.1304
  263MPD2    C1 3978   2.736   4.690  11.593  0.1906 -0.5089 -1.1401
  263MPD2    C2 3979   2.808   0.030  11.505  0.7911  0.0411  0.0491
  263MPD2    C3 3980   2.760   0.039  11.377  0.7487  0.2709 -0.2468
  263MPD2    C4 3981   2.640   4.704  11.339  0.4340 -0.3820 -0.0970
  263MPD2    C5 3982   2.566   4.637  11.431  0.1786  0.1222 -0.2855
  263MPD2     H 3983   2.906   0.068  11.532  0.4007  1.2778 -0.2736
  263MPD2    H1 3984   2.599   4.700  11.239 -3.6706  0.2477  1.5419
  263MPD2    H2 3985   2.565   4.569  11.631 -0.5189  1.1811 -0.2318
  263MPD2    H3 3986   2.480   4.575  11.408 -0.6270  0.7823  0.8876
  263MPD2     N 3987   2.841   0.121  11.291  0.3638  0.5303  0.6672
  263MPD2    H5 3988   2.927   0.163  11.321  1.1456 -0.4072 -0.2513
  263MPD2    N1 3989   2.787   4.660  11.724  0.2427  0.2970 -0.3630
  263MPD2    H7 3990   2.735   4.598  11.785  3.2477 -1.0461  0.8173
  264TMC3    C1 3991   2.876   0.243  11.100  1.0655  0.5591  0.3560
  264TMC3    C2 3992   2.877   0.366  11.163 -0.8124  0.8167 -0.5732
  264TMC3    C3 3993   2.882   0.475  11.080 -1.3414  0.6045 -0.4894
  264TMC3    C4 3994   2.878   0.231  10.965  0.1574  0.1794  0.0357
  264TMC3    C5 3995   2.901   0.341  10.887  0.1901  0.0856 -0.3021
  264TMC3    C6 3996   2.900   0.468  10.948  0.0852 -0.9905 -0.2447
  264TMC3     C 3997   2.797   0.145  11.162  0.6567 -0.2030 -0.7645
  264TMC3     O 3998   2.710   0.093  11.095 -0.0753 -0.1887  0.3721
  264TMC3     H 3999   2.859   0.370  11.270  2.8315  0.4364  0.0340
  264TMC3    H1 4000   2.868   0.132  10.921 -0.0581  0.9569 -1.6476
  264TMC3    H2 4001   2.922   0.556  10.889  0.1850  0.1533  1.4807
  264TMC3    C7 4002   2.958   0.319  10.753  0.3863 -0.0257 -0.1748
  264TMC3    C8 4003   2.899   0.604  11.141  0.2656 -0.3336  0.1096
  264TMC3    O1 4004   3.017   0.214  10.739 -0.0789 -0.9086  0.3376
  264TMC3    O2 4005   2.915   0.688  11.055  0.2047 -0.2581 -0.2069
  265MPD2     C 4006   4.673   0.730  15.584 -0.1997 -0.6109  0.2062
  265MPD2    C1 4007   4.698   0.853  15.533  0.4770  0.6074  0.3263
  265MPD2    C2 4008   0.061   0.873  15.428  0.5364  0.6742 -0.1373
  265MPD2    C3 4009   0.138   0.766  15.369  0.3418 -0.0540 -0.1970
  265MPD2    C4 4010   0.111   0.644  15.422 -0.2104  0.4485  0.1276
  265MPD2    C5 4011   0.024   0.629  15.534 -0.1609  0.2076  0.1632
  265MPD2     H 4012   0.079   0.971  15.385  1.0500  0.6121 -0.0659
  265MPD2    H1 4013   0.158   0.550  15.397  1.6658  1.1678  0.9384
  265MPD2    H2 4014   4.608   0.715  15.670  2.0947  0.4291  2.1247
  265MPD2    H3 4015   0.012   0.526  15.567 -0.9863  0.3995  0.4772
  265MPD2     N 4016   0.240   0.779  15.269  0.1497  0.0059  0.1257
  265MPD2    H5 4017   0.268   0.686  15.239 -1.6869 -0.0699 -1.3037
  265MPD2    N1 4018   4.628   0.964  15.586 -0.4741  0.1918 -0.8144
  265MPD2    H7 4019   4.658   1.051  15.543  1.1243  0.5132  0.9293
  266TMC3    C1 4020   4.495   1.107  15.731  0.3838  1.0402 -0.9396
  266TMC3    C2 4021   4.415   1.125  15.837 -0.0570  0.3956 -0.0146
  266TMC3    C3 4022   4.408   1.252  15.893  0.3942  0.0073 -0.3739
  266TMC3    C4 4023   4.566   1.218  15.684  0.1742 -0.8685 -0.4256
  266TMC3    C5 4024   4.550   1.345  15.738 -0.0933 -0.6336  0.1452
  266TMC3    C6 4025   4.475   1.357  15.849 -0.3140 -0.0629  0.2153
  266TMC3     C 4026   4.533   0.971  15.691 -0.5581  0.2297 -0.1087
  266TMC3     O 4027   4.494   0.879  15.756 -0.5207  0.0508 -0.2129
  266TMC3     H 4028   4.353   1.051  15.886  0.4822  0.9168  1.4548
  266TMC3    H1 4029   4.636   1.206  15.603 -1.1649 -1.8108 -1.4355
  266TMC3    H2 4030   4.464   1.452  15.900  0.0760 -0.7123  1.4942
  266TMC3    C7 4031   4.554   1.455  15.650 -0.7454  0.2950  0.0892
  266TMC3    C8 4032   4.295   1.280  15.989  0.0187  0.2427  0.5395
  266TMC3    O1 4033   4.587   1.440  15.527 -0.3070 -0.0533 -0.5762
  266TMC3    O2 4034   4.186   1.233  15.960 -0.3870 -0.1832 -0.0459
  267MPD2     C 4035   1.953   3.246   0.039 -0.2294 -0.6134 -0.5313
  267MPD2    C1 4036   2.051   3.155   0.006 -0.0393  0.2981  0.5681
  267MPD2    C2 4037   2.054   3.116  17.575 -1.1682  0.4702 -0.2160
  267MPD2    C3 4038   1.974   3.182  17.476 -0.4799 -0.2621 -0.0244
  267MPD2    C4 4039   1.884   3.286  17.519  0.7056  0.0014  0.9306
  267MPD2    C5 4040   1.880   3.309  17.647  0.3494  0.0920 -0.4393
  267MPD2     H 4041   2.119   3.034  17.550 -0.7661 -0.6271  4.3871
  267MPD2    H1 4042   1.808   3.318  17.449  0.1602 -0.9741  1.0701
  267MPD2    H2 4043   1.940   3.263   0.145  1.3013 -3.0750  0.0445
  267MPD2    H3 4044   1.795   3.367  17.682 -0.4289 -0.7619 -0.9096
  267MPD2     N 4045   1.978   3.128  17.354  0.1106 -0.1239 -0.3305
  267MPD2    H5 4046   2.033   3.044  17.341 -1.4079 -1.2033  0.1996
  267MPD2    N1 4047   2.140   3.103   0.101  0.1681  0.0121  0.4405
  267MPD2    H7 4048   2.118   3.117   0.199  0.2878 -0.8389  0.5922
  268TMC3    C1 4049   2.334   3.021   0.207 -0.3510 -0.4777  0.1889
  268TMC3    C2 4050   2.464   3.059   0.199 -0.7247  0.2790  0.3550
  268TMC3    C3 4051   2.531   3.104   0.310 -0.3028 -0.1028  0.0949
  268TMC3    C4 4052   2.261   3.017   0.324  0.8093  0.5320  0.2962
  268TMC3    C5 4053   2.329   3.056   0.433  0.7240  0.1340 -0.3619
  268TMC3    C6 4054   2.463   3.098   0.428  0.2514  0.7481  0.3820
  268TMC3     C 4055   2.261   3.048   0.080  0.4236  0.3821 -0.0734
  268TMC3     O 4056   2.314   3.022  17.674  0.0954  0.1931  0.2519
  268TMC3     H 4057   2.517   3.056   0.104 -0.4860 -0.4430  0.5079
  268TMC3    H1 4058   2.162   2.976   0.331  0.5737  1.3753  1.9253
  268TMC3    H2 4059   2.511   3.135   0.519  0.2271 -2.8824  1.8711
  268TMC3    C7 4060   2.272   3.033   0.565 -0.6889 -0.4352 -0.9982
  268TMC3    C8 4061   2.652   3.184   0.308 -0.3508 -0.3966  0.1110
  268TMC3    O1 4062   2.352   3.001   0.652 -0.2130 -0.0170  0.4187
  268TMC3    O2 4063   2.696   3.207   0.420 -0.3336 -0.1136 -0.3070
  269MPD2     C 4064   2.160   1.316  15.966 -0.3103 -0.3274  0.0054
  269MPD2    C1 4065   2.024   1.332  15.964  0.2802  0.0863 -0.6157
  269MPD2    C2 4066   1.965   1.445  15.904  0.3053 -0.0880 -0.0658
  269MPD2    C3 4067   2.050   1.544  15.853  0.2147  0.5942 -0.3198
  269MPD2    C4 4068   2.191   1.532  15.874 -0.6678  0.3072  0.7688
  269MPD2    C5 4069   2.243   1.423  15.933  1.1745 -0.2560 -0.4850
  269MPD2     H 4070   1.860   1.469  15.896  0.1029 -1.1297 -0.5448
  269MPD2    H1 4071   2.262   1.612  15.855 -0.2515 -0.5128 -1.1208
  269MPD2    H2 4072   2.202   1.222  15.998  0.7358 -0.4568 -1.7320
  269MPD2    H3 4073   2.348   1.398  15.934  0.9793 -1.1119 -1.4899
  269MPD2     N 4074   1.996   1.660  15.785  0.4750 -0.5538  0.9288
  269MPD2    H5 4075   1.896   1.657  15.771  0.6762 -1.1864 -0.3142
  269MPD2    N1 4076   1.943   1.232  16.020  0.3902 -0.3151 -0.4977
  269MPD2    H7 4077   1.995   1.177  16.087 -1.1157 -0.0586  0.8967
  270TMC3    C1 4078   1.769   1.088  16.049  0.3273  0.3311  0.0069
  270TMC3    C2 4079   1.695   1.006  15.963 -0.1171  0.2401  0.1725
  270TMC3    C3 4080   1.668   0.881  16.010  0.6332 -0.0127 -0.3793
  270TMC3    C4 4081   1.813   1.054  16.174 -0.1827  0.7609 -0.3406
  270TMC3    C5 4082   1.768   0.929  16.218  0.1423  0.4385  0.2890
  270TMC3    C6 4083   1.690   0.843  16.139  0.0835 -0.2984 -0.0866
  270TMC3     C 4084   1.816   1.206  15.982  0.2388 -0.3246  0.0885
  270TMC3     O 4085   1.764   1.240  15.882 -0.9049 -0.3559  0.1518
  270TMC3     H 4086   1.687   1.035  15.859  1.6097 -0.7576 -0.2480
  270TMC3    H1 4087   1.869   1.126  16.233  1.5355 -0.0945 -0.9098
  270TMC3    H2 4088   1.661   0.745  16.176  0.5677 -0.8464 -1.1229
  270TMC3    C7 4089   1.865   0.849  16.288 -0.1769  0.0311  0.4364
  270TMC3    C8 4090   1.658   0.775  15.910 -0.0376  0.0611  0.1483
  270TMC3    O1 4091   1.871   0.741  16.233 -0.3113  0.1885  0.2054
  270TMC3    O2 4092   1.577   0.696  15.958  0.0813  0.2587  0.5676
  271MPD2     C 4093   1.456   1.091  14.142  0.0484  0.0000 -0.2959
  271MPD2    C1 4094   1.377   1.020  14.236  0.5695 -0.0836 -0.0359
  271MPD2    C2 4095   1.242   1.011  14.210 -0.2336 -0.1762 -0.0958
  271MPD2    C3 4096   1.191   1.078  14.096 -0.4554  0.5402  0.6854
  271MPD2    C4 4097   1.269   1.136  14.003  0.5488  0.3708  0.0669
  271MPD2    C5 4098   1.402   1.146  14.027 -0.0238 -0.0958 -0.2626
  271MPD2     H 4099   1.176   0.950  14.271 -0.8654  0.0645 -0.5415
  271MPD2    H1 4100   1.223   1.187  13.920 -0.5161 -0.4601  0.1469
  271MPD2    H2 4101   1.561   1.112  14.157  0.3359 -1.4881 -0.1924
  271MPD2    H3 4102   1.459   1.195  13.948 -0.5869  1.5581  0.3457
  271MPD2     N 4103   1.051   1.086  14.074  0.0396 -0.0459  0.5754
  271MPD2    H5 4104   1.013   1.140  13.997  0.4364  0.5931  0.8307
  271MPD2    N1 4105   1.427   0.947  14.347 -0.4687 -0.0343 -0.0610
  271MPD2    H7 4106   1.358   0.897  14.402  0.7190 -0.5582  0.9581
  272TMC3    C1 4107   1.589   0.813  14.461  0.1499  0.0756 -0.0368
  272TMC3    C2 4108   1.698   0.731  14.442  0.2962 -0.8944 -0.1070
  272TMC3    C3 4109   1.747   0.650  14.545  0.2408 -0.7709  0.1873
  272TMC3    C4 4110   1.528   0.814  14.581 -0.4934  0.9034  0.5119
  272TMC3    C5 4111   1.582   0.741  14.683 -0.1352  0.3211 -0.4870
  272TMC3    C6 4112   1.694   0.664  14.668  0.3362  0.8596  0.2698
  272TMC3     C 4113   1.566   0.925  14.365 -0.3810  0.4894  0.0233
  272TMC3     O 4114   1.667   0.946  14.299  0.1555 -0.1824  0.3174
  272TMC3     H 4115   1.745   0.734  14.345  0.7290  0.4481  0.1363
  272TMC3    H1 4116   1.447   0.884  14.597 -2.3567 -0.6818 -1.8563
  272TMC3    H2 4117   1.736   0.601  14.745  0.5583  2.9526  1.8662
  272TMC3    C7 4118   1.533   0.765  14.818 -0.3840 -0.0465  0.0041
  272TMC3    C8 4119   1.886   0.615  14.522  0.0755 -0.3202 -0.4056
  272TMC3    O1 4120   1.418   0.797  14.810 -0.1517  0.3952 -0.3661
  272TMC3    O2 4121   1.925   0.625  14.408 -0.0731  0.5557  0.3506
  273MPD2     C 4122   3.106   3.689  12.000 -0.2488  0.2236  0.4706
  273MPD2    C1 4123   3.170   3.810  11.980 -0.1966  0.3283 -0.6522
  273MPD2    C2 4124   3.178   3.848  11.849  0.3024 -0.0230  0.1009
  273MPD2    C3 4125   3.113   3.777  11.747 -1.0519  0.3415  0.4267
  273MPD2    C4 4126   3.028   3.668  11.774  0.6322 -0.5165 -0.2120
  273MPD2    C5 4127   3.031   3.625  11.905  0.3655 -0.7842  0.8195
  273MPD2     H 4128   3.228   3.941  11.826  0.1883 -0.2215 -0.9340
  273MPD2    H1 4129   2.982   3.602  11.701 -1.7453 -0.2153  1.0381
  273MPD2    H2 4130   3.114   3.649  12.101 -1.7698 -1.4379 -0.0666
  273MPD2    H3 4131   2.985   3.530  11.930 -0.9867 -0.2948  0.2240
  273MPD2     N 4132   3.121   3.825  11.615  0.6777  0.3924  0.5692
  273MPD2    H5 4133   3.185   3.903  11.604  2.4924 -1.0292  1.0578
  273MPD2    N1 4134   3.234   3.875  12.088  0.2217 -0.1584 -0.3293
  273MPD2    H7 4135   3.224   3.835  12.181  1.6986  1.2878  0.4785
  274TMC3    C1 4136   3.118   3.854  11.395 -0.3633  0.0275  0.0989
  274TMC3    C2 4137   3.035   3.879  11.289 -0.0932  0.0078  0.1441
  274TMC3    C3 4138   3.077   3.962  11.192  0.6525 -0.3993 -0.0443
  274TMC3    C4 4139   3.243   3.908  11.403  0.8158 -0.4461 -0.7501
  274TMC3    C5 4140   3.285   3.994  11.304  0.2367  1.1366  0.4783
  274TMC3    C6 4141   3.204   4.017  11.196 -0.6581  0.5734 -0.1712
  274TMC3     C 4142   3.066   3.780  11.503  0.0104 -0.4779  0.6103
  274TMC3     O 4143   2.987   3.689  11.483 -0.1220 -0.1007 -0.0213
  274TMC3     H 4144   2.935   3.840  11.293  0.0735 -0.2919  1.4252
  274TMC3    H1 4145   3.313   3.895  11.485  0.3140  0.8322 -0.1209
  274TMC3    H2 4146   3.218   4.114  11.151 -1.1312  0.3324 -0.8418
  274TMC3    C7 4147   3.364   4.112  11.354  0.4191 -0.6522  0.0080
  274TMC3    C8 4148   2.975   4.006  11.098  0.7169  0.6409 -0.9862
  274TMC3    O1 4149   3.459   4.156  11.296  0.4107 -0.1164 -0.3004
  274TMC3    O2 4150   2.860   3.979  11.127  0.3904 -0.2594  0.0626
  275MPD2     C 4151   3.128   1.651  14.882 -0.3302 -0.6450  0.1320
  275MPD2    C1 4152   3.039   1.702  14.967 -0.3493 -0.1207  0.0222
  275MPD2    C2 4153   2.909   1.688  14.940  0.3497 -0.4359  0.2767
  275MPD2    C3 4154   2.861   1.634  14.821  0.3403  0.1505 -0.4521
  275MPD2    C4 4155   2.957   1.584  14.730  0.2414 -0.4561  0.1226
  275MPD2    C5 4156   3.088   1.600  14.756 -0.5456 -0.1415 -0.4978
  275MPD2     H 4157   2.840   1.722  15.017  0.5552  2.2642 -0.7477
  275MPD2    H1 4158   2.929   1.551  14.630  1.7016 -1.2244 -0.0439
  275MPD2    H2 4159   3.232   1.652  14.912 -0.0609 -1.7231 -0.7594
  275MPD2    H3 4160   3.167   1.551  14.700 -0.0603  0.6426 -0.5085
  275MPD2     N 4161   2.730   1.641  14.770  0.1964  0.2156 -0.1549
  275MPD2    H5 4162   2.713   1.605  14.676 -0.7304 -0.1257  0.1448
  275MPD2    N1 4163   3.081   1.751  15.093 -0.3791 -0.8491 -0.4393
  275MPD2    H7 4164   3.003   1.781  15.151 -0.4501 -0.7049 -0.6092
  276TMC3    C1 4165   3.219   1.797  15.268  0.4165  0.0044 -0.1446
  276TMC3    C2 4166   3.124   1.749  15.351 -0.3603  0.1392 -0.0079
  276TMC3    C3 4167   3.151   1.753  15.486  0.5237  0.1151 -0.8778
  276TMC3    C4 4168   3.344   1.837  15.320 -0.2107 -0.6685  0.1243
  276TMC3    C5 4169   3.376   1.823  15.451  0.4847  0.1646  0.5291
  276TMC3    C6 4170   3.271   1.792  15.535  0.5377  0.0759  0.1311
  276TMC3     C 4171   3.207   1.781  15.124  0.3021 -0.2656  0.5970
  276TMC3     O 4172   3.310   1.792  15.056 -0.6157 -0.3043  0.7656
  276TMC3     H 4173   3.029   1.702  15.324  0.6391 -0.0940 -3.1238
  276TMC3    H1 4174   3.417   1.853  15.241 -1.2170  1.4994 -0.3471
  276TMC3    H2 4175   3.270   1.810  15.642 -0.0971 -2.3064  0.5245
  276TMC3    C7 4176   3.477   1.914  15.503 -0.0944 -0.0822 -0.0927
  276TMC3    C8 4177   3.043   1.706  15.579  0.4910  0.4128 -0.3535
  276TMC3    O1 4178   3.436   1.979  15.600  0.3140 -0.6558 -0.2512
  276TMC3    O2 4179   2.927   1.747  15.562 -0.5252  0.1059 -0.1236
  277MPD2     C 4180   0.468   0.871  13.757  0.2618 -0.6065  0.8335
  277MPD2    C1 4181   0.364   0.862  13.675  0.0466 -0.1686  0.3096
  277MPD2    C2 4182   0.247   0.819  13.734  0.7020 -0.0102  0.1538
  277MPD2    C3 4183   0.242   0.759  13.862  0.4993  0.0578 -0.3175
  277MPD2    C4 4184   0.360   0.749  13.926 -0.6546 -0.4020 -0.0169
  277MPD2    C5 4185   0.472   0.814  13.881  0.7787 -0.2727 -0.6123
  277MPD2     H 4186   0.162   0.823  13.667  1.9132  0.0530 -1.3759
  277MPD2    H1 4187   0.368   0.708  14.026 -1.2171  1.0654  0.6159
  277MPD2    H2 4188   0.552   0.933  13.727  0.8126 -1.5819  0.3646
  277MPD2    H3 4189   0.562   0.827  13.939 -0.5056 -0.0445  1.3167
  277MPD2     N 4190   0.121   0.709  13.905 -0.5250  0.1412  0.3125
  277MPD2    H5 4191   0.042   0.727  13.844 -0.2097  1.3587  0.2572
  277MPD2    N1 4192   0.365   0.909  13.542 -0.4340 -0.3611  0.2965
  277MPD2    H7 4193   0.273   0.902  13.499  0.6066  0.0654 -1.9833
  278TMC3    C1 4194   4.688   0.597  14.039  0.0309  0.8753  0.6689
  278TMC3    C2 4195   4.645   0.485  14.092  0.6220  0.4186  0.0553
  278TMC3    C3 4196   4.511   0.454  14.082 -0.0195 -0.3426  0.0203
  278TMC3    C4 4197   4.601   0.687  13.985  0.6500  0.1469 -0.4689
  278TMC3    C5 4198   4.470   0.653  13.964 -0.3629 -0.8143  0.0287
  278TMC3    C6 4199   4.426   0.538  14.012  0.0847 -0.0690  0.2211
  278TMC3     C 4200   0.106   0.628  14.017  0.1042  0.2594  0.5943
  278TMC3     O 4201   0.189   0.585  14.098 -0.2633 -0.6275  0.1217
  278TMC3     H 4202   4.718   0.421  14.141  1.7411  1.0208 -0.8135
  278TMC3    H1 4203   4.634   0.790  13.977  0.3597  0.3958  1.5868
  278TMC3    H2 4204   4.323   0.515  13.990 -0.5147 -0.5987  3.5436
  278TMC3    C7 4205   4.377   0.751  13.916 -0.9112 -0.8220  0.2834
  278TMC3    C8 4206   4.477   0.308  14.095  0.3310 -0.3061  0.2331
  278TMC3    O1 4207   4.431   0.845  13.858  0.4490 -0.3864  0.1228
  278TMC3    O2 4208   4.566   0.232  14.122 -0.2720 -0.0608  0.2834
  279MPD2     C 4209   3.303   0.782   0.865 -0.6329  0.1694  1.2798
  279MPD2    C1 4210   3.318   0.888   0.959  0.9019  0.2195 -0.0220
  279MPD2    C2 4211   3.384   1.000   0.911 -0.7760  0.0620 -0.1704
  279MPD2    C3 4212   3.434   1.006   0.779 -0.6574  0.0568  0.0186
  279MPD2    C4 4213   3.408   0.899   0.699 -0.0121  0.4179 -0.4954
  279MPD2    C5 4214   3.347   0.786   0.739  0.0563  0.2876 -0.7850
  279MPD2     H 4215   3.368   1.092   0.966  0.2818 -0.9063  1.7556
  279MPD2    H1 4216   3.444   0.892   0.597 -0.5245 -1.9220 -0.5219
  279MPD2    H2 4217   3.252   0.688   0.882  0.7006 -0.4239  2.0362
  279MPD2    H3 4218   3.321   0.701   0.677  1.2836 -1.4319  1.0752
  279MPD2     N 4219   3.507   1.122   0.731 -0.2126 -0.4461  0.0120
  279MPD2    H5 4220   3.564   1.116   0.648 -1.2396 -3.3093 -0.4576
  279MPD2    N1 4221   3.251   0.892   1.082 -0.6223  0.2812 -0.3656
  279MPD2    H7 4222   3.178   0.824   1.099  0.6999 -1.5303 -2.0161
  280TMC3    C1 4223   3.175   1.087   1.181  0.3849  0.3603 -0.0909
  280TMC3    C2 4224   3.037   1.055   1.175 -0.5540 -0.4101  0.0531
  280TMC3    C3 4225   2.946   1.162   1.164  0.5541 -0.3875  0.3256
  280TMC3    C4 4226   3.224   1.210   1.180  0.6370  0.9987  0.5413
  280TMC3    C5 4227   3.129   1.315   1.172  0.4475  0.1783 -0.2154
  280TMC3    C6 4228   2.993   1.293   1.161 -0.0104  0.2534 -0.2287
  280TMC3     C 4229   3.274   0.986   1.174 -0.4684 -0.0070 -0.0277
  280TMC3     O 4230   3.389   1.016   1.202 -0.0292 -0.1875 -0.2996
  280TMC3     H 4231   3.016   0.950   1.193  0.2119 -0.2421  1.9942
  280TMC3    H1 4232   3.328   1.242   1.185  0.6834  0.7383  1.2228
  280TMC3    H2 4233   2.922   1.374   1.144  0.7609  1.0569  0.3616
  280TMC3    C7 4234   3.186   1.449   1.165  0.5201 -0.2693 -0.7068
  280TMC3    C8 4235   2.820   1.142   1.234 -0.4052  0.4112 -0.5464
  280TMC3    O1 4236   3.301   1.469   1.200  0.5126  0.1267 -0.2956
  280TMC3    O2 4237   2.726   1.214   1.202  0.5216 -0.3456 -0.2627
  281TMC3    C1 4238   2.822   1.460  13.357 -0.0580  0.0069  0.4348
  281TMC3    C2 4239   2.871   1.516  13.239  0.3752 -0.7894 -0.6870
  281TMC3    C3 4240   2.876   1.434  13.129  0.3178 -0.0772  0.4056
  281TMC3    C4 4241   2.792   1.327  13.363 -0.5762  0.5550 -0.3197
  281TMC3    C5 4242   2.809   1.247  13.252 -0.2866  0.2881  1.1330
  281TMC3    C6 4243   2.836   1.305  13.129  0.3744  0.8721 -0.4831
  281TMC3     C 4244   2.808   1.527  13.485  0.4785  0.4584 -0.7470
  281TMC3     O 4245   2.822   1.463  13.588 -0.2668  0.5913 -0.3880
  281TMC3     H 4246   2.892   1.622  13.231  0.0509 -0.5718  1.5259
  281TMC3    H1 4247   2.751   1.284  13.454  2.1783 -0.7198  0.3152
  281TMC3    H2 4248   2.838   1.246  13.038 -1.0051  0.5132 -0.2762
  281TMC3    C7 4249   2.765   1.107  13.250  1.0893 -0.2556  0.9736
  281TMC3    C8 4250   2.925   1.477  13.003  0.1167  0.2309  0.2053
  281TMC3    O1 4251   2.763   1.059  13.137 -0.0981 -0.1988 -0.7733
  281TMC3    O2 4252   2.994   1.398  12.943 -0.4584  0.2353  0.2569
  282MPD2     C 4253   4.652   2.684  15.499  0.1991 -0.0088 -0.1398
  282MPD2    C1 4254   4.512   2.690  15.512 -0.6047 -0.0734  0.4085
  282MPD2    C2 4255   4.436   2.669  15.400 -0.7338 -0.4306 -0.1645
  282MPD2    C3 4256   4.487   2.680  15.275  0.3352  0.5700  0.8797
  282MPD2    C4 4257   4.628   2.686  15.263  0.1699 -0.5558  0.0717
  282MPD2    C5 4258   4.705   2.682  15.375 -0.0283  0.1657  0.7792
  282MPD2     H 4259   4.329   2.658  15.413 -0.9036  0.0533 -1.1162
  282MPD2    H1 4260   4.680   2.699  15.169  0.4940 -0.1559  0.3097
  282MPD2    H2 4261   0.001   2.684  15.579 -0.4379  2.6989  0.4437
  282MPD2    H3 4262   0.088   2.690  15.364 -0.1914  0.5068 -0.6032
  282MPD2     N 4263   4.396   2.666  15.168 -0.5722  0.4177  0.0752
  282MPD2    H5 4264   4.296   2.666  15.185 -0.8877 -2.9043 -1.7377
  282MPD2    N1 4265   4.460   2.691  15.649  0.4479  0.2497 -0.0922
  282MPD2    H7 4266   4.360   2.679  15.661  0.5105  0.5486  0.7140
  283TMC3    C1 4267   4.461   2.740  15.888  0.8985  0.0115  0.2964
  283TMC3    C2 4268   4.494   2.844  15.970 -0.2541  0.2221 -0.5426
  283TMC3    C3 4269   4.477   2.828  16.102  0.0914  0.3978 -0.7921
  283TMC3    C4 4270   4.387   2.629  15.927  0.0070 -0.4523  0.0716
  283TMC3    C5 4271   4.357   2.632  16.063 -0.3411  0.1648 -0.3700
  283TMC3    C6 4272   4.416   2.716  16.152 -0.8566 -0.3305 -0.1127
  283TMC3     C 4273   4.534   2.733  15.761 -0.3808  0.9521 -0.8716
  283TMC3     O 4274   4.652   2.766  15.773  0.1656 -0.2914  0.5184
  283TMC3     H 4275   4.549   2.928  15.928 -0.7503  1.5260  1.4216
  283TMC3    H1 4276   4.355   2.558  15.852  0.8959  0.2074 -0.9217
  283TMC3    H2 4277   4.402   2.719  16.259 -1.5526 -1.5435 -0.1738
  283TMC3    C7 4278   4.256   2.547  16.120  0.3762 -0.5720  0.0038
  283TMC3    C8 4279   4.448   2.954  16.177  0.2675  0.1400  0.2258
  283TMC3    O1 4280   4.228   2.582  16.233  0.7719  0.1203  0.1428
  283TMC3    O2 4281   4.452   2.950  16.300 -0.1370 -0.0976  0.3476
  284MPD2     C 4282   2.913   2.144  12.077 -0.4383 -0.5642 -0.0710
  284MPD2    C1 4283   3.011   2.128  11.984 -0.1732 -0.1168  0.3593
  284MPD2    C2 4284   3.122   2.047  12.013  0.1771  0.4313  0.2169
  284MPD2    C3 4285   3.128   1.981  12.132  0.7663 -0.0914  0.3044
  284MPD2    C4 4286   3.030   2.002  12.226  0.5166  0.6519  0.1846
  284MPD2    C5 4287   2.926   2.081  12.197  0.0287  0.2199 -0.0400
  284MPD2     H 4288   3.205   2.044  11.944 -1.0433  0.3832 -1.2399
  284MPD2    H1 4289   3.027   1.948  12.319  0.4210 -0.4562 -0.4665
  284MPD2    H2 4290   2.822   2.200  12.056  1.0486  1.4706 -1.0807
  284MPD2    H3 4291   2.850   2.095  12.273  1.9314  1.2662  1.6669
  284MPD2     N 4292   3.236   1.896  12.157  0.2344 -0.5161  0.1280
  284MPD2    H5 4293   3.301   1.883  12.080  0.0507 -4.8845  0.7356
  284MPD2    N1 4294   3.009   2.194  11.857 -0.0897 -0.3980  0.6866
  284MPD2    H7 4295   3.091   2.182  11.799 -1.5404 -3.2237 -0.7446
  285TMC3    C1 4296   2.931   2.304  11.674 -0.5186  0.7158 -0.0951
  285TMC3    C2 4297   2.946   2.190  11.602  0.0820 -0.5887 -0.1002
  285TMC3    C3 4298   2.993   2.203  11.474  0.1351 -0.4669 -0.5286
  285TMC3    C4 4299   2.979   2.424  11.637 -0.2794 -0.5216  0.2306
  285TMC3    C5 4300   3.032   2.430  11.513 -0.7980  1.2457  0.4040
  285TMC3    C6 4301   3.036   2.324  11.425  0.2404 -0.2037 -0.2427
  285TMC3     C 4302   2.916   2.286  11.811 -0.0941  0.0701 -0.0483
  285TMC3     O 4303   2.820   2.330  11.864 -0.4286 -0.2966  0.0002
  285TMC3     H 4304   2.911   2.095  11.639  0.2873 -1.2317 -1.5838
  285TMC3    H1 4305   2.968   2.509  11.703 -0.7039  0.2112 -0.7802
  285TMC3    H2 4306   3.110   2.325  11.345 -0.5531 -2.4647 -0.9940
  285TMC3    C7 4307   3.088   2.559  11.479  0.2817  0.7530  0.5919
  285TMC3    C8 4308   3.004   2.085  11.389  0.6160  0.2452  0.6753
  285TMC3    O1 4309   3.127   2.627  11.575  0.4174 -0.2117  0.4590
  285TMC3    O2 4310   2.984   1.973  11.433  0.6644 -0.1202  0.1885
  286MPD2     C 4311   2.962   1.613   1.873  0.0328  0.3105 -0.3997
  286MPD2    C1 4312   2.858   1.523   1.865 -0.3251 -0.2415  0.6117
  286MPD2    C2 4313   2.884   1.390   1.892  0.5871 -0.1938 -0.5218
  286MPD2    C3 4314   3.015   1.354   1.926 -0.0946 -0.1284 -0.4095
  286MPD2    C4 4315   3.109   1.449   1.953  0.4246 -0.3252 -0.3163
  286MPD2    C5 4316   3.086   1.576   1.917  0.2336  0.6791 -0.8395
  286MPD2     H 4317   2.800   1.323   1.904  1.4978 -1.3446 -0.5895
  286MPD2    H1 4318   3.207   1.414   1.986  0.6965 -1.0097 -1.8953
  286MPD2    H2 4319   2.964   1.719   1.849 -3.2045  0.1182 -1.5687
  286MPD2    H3 4320   3.169   1.645   1.928  1.3065 -1.0928  2.4412
  286MPD2     N 4321   3.053   1.224   1.950  0.1903  0.2008 -0.1202
  286MPD2    H5 4322   3.137   1.202   2.003 -1.0545  1.0879  2.2070
  286MPD2    N1 4323   2.725   1.563   1.834  0.0469  0.4932 -0.0959
  286MPD2    H7 4324   2.664   1.484   1.819 -0.3891  1.3236 -2.5684
  287TMC3    C1 4325   3.042   0.983   1.919  0.6160 -0.2557  0.5933
  287TMC3    C2 4326   2.993   0.891   1.830  0.2271  0.2740 -0.2104
  287TMC3    C3 4327   3.005   0.758   1.860 -0.4035  0.0989  0.1932
  287TMC3    C4 4328   3.121   0.949   2.020  0.5951  0.3700  0.0393
  287TMC3    C5 4329   3.134   0.815   2.045  0.1990 -0.2723 -0.3071
  287TMC3    C6 4330   3.075   0.713   1.965  0.1864  0.6754  0.3622
  287TMC3     C 4331   2.987   1.114   1.894 -0.1024  0.5103 -0.1521
  287TMC3     O 4332   2.884   1.118   1.831 -0.8664  0.2231  0.6240
  287TMC3     H 4333   2.931   0.910   1.744 -0.0714  0.3978  0.0328
  287TMC3    H1 4334   3.168   1.014   2.093  0.1368  1.0256 -0.2494
  287TMC3    H2 4335   3.105   0.610   1.984  1.8490  1.3707  1.5904
  287TMC3    C7 4336   3.221   0.777   2.153  0.0759  0.5982 -0.0912
  287TMC3    C8 4337   2.983   0.673   1.745  0.0338 -0.3850  0.5217
  287TMC3    O1 4338   3.303   0.869   2.176 -0.2426  0.2712  0.3904
  287TMC3    O2 4339   2.957   0.731   1.637 -0.6184  0.3956  0.3526
  288TMC3    C1 4340   4.528   0.633  14.657  0.1101  0.4564 -1.1651
  288TMC3    C2 4341   4.493   0.595  14.783  0.4673  0.1835 -0.3126
  288TMC3    C3 4342   4.530   0.668  14.891 -0.0407  0.1088  0.4209
  288TMC3    C4 4343   4.601   0.744  14.630  0.3533  0.8666  0.4194
  288TMC3    C5 4344   4.628   0.830  14.741  0.3615  0.4959 -0.5831
  288TMC3    C6 4345   4.592   0.790  14.870  0.0467 -0.3863  0.1754
  288TMC3     C 4346   4.446   0.586  14.553  0.2136 -0.2958 -0.2688
  288TMC3     O 4347   4.418   0.466  14.558  0.3546 -0.2511 -0.2410
  288TMC3     H 4348   4.437   0.504  14.801  0.6577  0.2685  0.7350
  288TMC3    H1 4349   4.614   0.778  14.528 -0.1006  4.0581  1.4437
  288TMC3    H2 4350   4.610   0.862  14.949  2.2415 -1.2119  0.4344
  288TMC3    C7 4351   4.718   0.946  14.733  0.7206  0.3655 -0.2782
  288TMC3    C8 4352   4.528   0.621  15.027 -0.1319 -0.9191  0.3535
  288TMC3    O1 4353   0.033   0.995  14.836  0.3073  0.0956 -0.3548
  288TMC3    O2 4354   4.618   0.662  15.098 -0.3005  0.1658  0.4135
  289MPD2     C 4355   4.655   4.423  15.094  1.0606  0.0224  0.3753
  289MPD2    C1 4356   4.685   4.518  15.004  0.2933  0.3872  0.5244
  289MPD2    C2 4357   4.598   4.530  14.890 -0.4193  0.0961 -0.3214
  289MPD2    C3 4358   4.508   4.427  14.862 -0.8325 -0.0121  0.6258
  289MPD2    C4 4359   4.484   4.329  14.957  0.2859  0.7434 -0.2687
  289MPD2    C5 4360   4.554   4.339  15.076 -0.1684 -0.1663 -0.5300
  289MPD2     H 4361   4.621   4.605  14.815 -1.8786  0.5887 -0.2660
  289MPD2    H1 4362   4.395   4.267  14.952 -0.7572  2.3927 -2.4919
  289MPD2    H2 4363   4.709   4.426  15.187  0.3023  1.0578  0.7768
  289MPD2    H3 4364   4.529   4.267  15.153 -1.7216  0.4228 -0.4920
  289MPD2     N 4365   4.429   4.417  14.742  0.0034  0.2312 -0.1751
  289MPD2    H5 4366   4.365   4.339  14.730 -0.8414  1.1543 -1.6278
  289MPD2    N1 4367   0.075   4.606  15.011  0.8035 -0.6264 -0.0783
  289MPD2    H7 4368   0.098   4.670  14.936  2.9235  0.9362  1.8755
  290TMC3    C1 4369   4.322   4.512  14.553 -0.4430  0.3033  0.3650
  290TMC3    C2 4370   4.265   4.636  14.524 -0.6794 -0.6855 -0.3397
  290TMC3    C3 4371   4.150   4.631  14.444  0.4228  0.2767  0.7885
  290TMC3    C4 4372   4.264   4.389  14.517  0.2951  0.1107  0.4057
  290TMC3    C5 4373   4.154   4.393  14.437  0.3000 -0.0742 -0.4399
  290TMC3    C6 4374   4.100   4.515  14.397 -0.6900  0.0847  0.1248
  290TMC3     C 4375   4.423   4.519  14.653  0.1021  0.0243 -0.0506
  290TMC3     O 4376   4.482   4.627  14.649 -0.1663 -0.6512 -0.3673
  290TMC3     H 4377   4.298   0.004  14.569 -0.1525 -1.9897  1.9884
  290TMC3    H1 4378   4.314   4.293  14.526 -0.1255 -0.2288 -0.8266
  290TMC3    H2 4379   4.011   4.503  14.337 -0.3221 -2.1142  0.0176
  290TMC3    C7 4380   4.066   4.280  14.429  0.1812 -0.1084 -0.3100
  290TMC3    C8 4381   4.051   0.013  14.440 -0.1800 -0.0768  0.1570
  290TMC3    O1 4382   3.948   4.305  14.398  0.5508 -0.0684 -0.0793
  290TMC3    O2 4383   3.949   4.717  14.375 -0.1625 -0.2948  0.4385
  291MPD2     C 4384   3.567   4.266   0.833 -0.4758  0.3028 -0.1020
  291MPD2    C1 4385   3.697   4.254   0.781 -0.7026 -0.2726  0.4876
  291MPD2    C2 4386   3.782   4.365   0.776 -0.5426 -0.2353 -0.1514
  291MPD2    C3 4387   3.749   4.492   0.833  0.9871 -0.4465  0.1738
  291MPD2    C4 4388   3.614   4.502   0.871 -0.3578 -0.0608  0.5937
  291MPD2    C5 4389   3.532   4.394   0.868  0.1028 -0.1633  0.9666
  291MPD2     H 4390   3.887   4.351   0.755 -0.1272  1.3666  0.9022
  291MPD2    H1 4391   3.583   4.599   0.907  0.7780  0.0037  1.3741
  291MPD2    H2 4392   3.488   4.192   0.840  1.0053 -1.2207  0.3750
  291MPD2    H3 4393   3.437   4.407   0.919 -2.4161 -2.9700 -3.1141
  291MPD2     N 4394   3.829   4.607   0.817  0.3173  0.4322  0.3028
  291MPD2    H5 4395   3.781   4.695   0.802  2.4766  1.6325  0.5127
  291MPD2    N1 4396   3.747   4.129   0.735 -0.9115  0.0003  0.4177
  291MPD2    H7 4397   3.847   4.135   0.720 -0.7093  1.1990  2.2750
  292TMC3    C1 4398   3.767   3.905   0.685 -0.0042  0.4757 -0.1394
  292TMC3    C2 4399   3.901   3.929   0.717  0.3267  0.0890 -0.3889
  292TMC3    C3 4400   3.997   3.845   0.672  0.1304 -0.1245 -0.3320
  292TMC3    C4 4401   3.728   3.796   0.615 -0.3515 -0.0225  0.6865
  292TMC3    C5 4402   3.829   3.717   0.567  0.3356 -0.0065 -0.1346
  292TMC3    C6 4403   3.961   3.744   0.584  0.2855 -0.5130 -0.0619
  292TMC3     C 4404   3.674   4.011   0.718  0.3521 -0.2175  0.6583
  292TMC3     O 4405   3.553   3.991   0.695 -0.3691 -0.3624  0.3071
  292TMC3     H 4406   3.913   3.976   0.814 -1.5002  0.0534 -0.1523
  292TMC3    H1 4407   3.626   3.760   0.620 -0.1907 -0.0364  3.4276
  292TMC3    H2 4408   4.038   3.682   0.540  0.7255 -1.1448  1.5992
  292TMC3    C7 4409   3.793   3.610   0.472 -0.0462  0.1305 -0.6760
  292TMC3    C8 4410   4.135   3.865   0.697 -0.4196 -0.0012 -0.5788
  292TMC3    O1 4411   3.878   3.538   0.423 -0.2434 -0.1525 -0.3864
  292TMC3    O2 4412   4.210   3.782   0.646  0.4930  0.2329 -0.7107
  293MPD2     C 4413   1.683   1.144  12.848 -0.0435 -0.5485  0.1344
  293MPD2    C1 4414   1.568   1.082  12.899  0.1575  0.6992  0.2863
  293MPD2    C2 4415   1.567   1.038  13.031  0.2223  0.0163 -0.0525
  293MPD2    C3 4416   1.679   1.054  13.116 -0.3071 -0.2108  0.0722
  293MPD2    C4 4417   1.791   1.114  13.056  0.0375 -0.4474 -0.1436
  293MPD2    C5 4418   1.792   1.161  12.930 -0.7379 -0.2559  0.2012
  293MPD2     H 4419   1.491   0.974  13.073  0.9760 -0.8383  0.0180
  293MPD2    H1 4420   1.882   1.130  13.112 -0.5433 -2.8484  1.4823
  293MPD2    H2 4421   1.683   1.170  12.742  1.4023  1.6029  0.6522
  293MPD2    H3 4422   1.876   1.209  12.882  0.4812 -0.6460  1.9518
  293MPD2     N 4423   1.685   1.010  13.256 -0.2706  0.2370  0.0032
  293MPD2    H5 4424   1.601   0.970  13.298  1.1848  0.6686  3.3492
  293MPD2    N1 4425   1.461   1.084  12.806  0.3384  0.6907  0.2028
  293MPD2    H7 4426   1.466   1.128  12.714  3.7958  0.6606  0.3808
  294TMC3    C1 4427   1.235   1.037  12.730  0.6949 -0.3452  0.1343
  294TMC3    C2 4428   1.122   0.952  12.749  0.3801 -0.8568  0.0854
  294TMC3    C3 4429   1.065   0.902  12.638 -0.0318 -0.0680 -0.0567
  294TMC3    C4 4430   1.265   1.079  12.603 -0.1175  0.8761  0.4026
  294TMC3    C5 4431   1.189   1.035  12.493  0.1728  0.0109 -0.1097
  294TMC3    C6 4432   1.082   0.949  12.511 -0.3745 -0.1274  0.0296
  294TMC3     C 4433   1.341   1.024  12.833 -0.9096 -0.1441 -0.0928
  294TMC3     O 4434   1.301   0.958  12.928 -0.1758 -0.2589 -0.0678
  294TMC3     H 4435   1.095   0.911  12.846 -0.9736  0.4653  0.2658
  294TMC3    H1 4436   1.353   1.142  12.591  0.3263 -0.5693 -3.9737
  294TMC3    H2 4437   1.025   0.914  12.425 -1.6614  0.4805  0.6396
  294TMC3    C7 4438   1.228   1.076  12.361 -0.5745 -0.0636 -0.7870
  294TMC3    C8 4439   0.947   0.829  12.658 -0.4607 -0.6916 -0.5551
  294TMC3    O1 4440   1.336   1.126  12.345  0.5853  0.0020 -0.1152
  294TMC3    O2 4441   0.885   0.851  12.759  0.1880  0.2971  0.2909
  295MPD2     C 4442   1.472   3.803   0.836 -0.1324 -0.4556 -0.1026
  295MPD2    C1 4443   1.465   3.938   0.832 -0.2398  0.1350 -0.0861
  295MPD2    C2 4444   1.442   4.006   0.954 -0.9650  0.1994  0.3448
  295MPD2    C3 4445   1.426   3.944   1.079  0.4116 -0.3973 -0.0776
  295MPD2    C4 4446   1.438   3.807   1.079  0.0320 -0.0521  0.4833
  295MPD2    C5 4447   1.463   3.741   0.958 -0.2528 -0.1512  0.8515
  295MPD2     H 4448   1.435   4.114   0.959 -0.1911  0.2526  0.1863
  295MPD2    H1 4449   1.442   3.738   1.164  0.7186  1.1279  1.4118
  295MPD2    H2 4450   1.495   3.741   0.750 -0.6555  0.3099 -0.7937
  295MPD2    H3 4451   1.470   3.633   0.957 -0.2786 -0.1427  0.2795
  295MPD2     N 4452   1.399   3.997   1.207  0.5097  0.2570 -0.2483
  295MPD2    H5 4453   1.375   3.927   1.276  1.8311  0.9015  0.8719
  295MPD2    N1 4454   1.469   4.015   0.713 -0.3898 -0.8068  0.0227
  295MPD2    H7 4455   1.458   4.116   0.715 -0.7351 -0.8003 -2.2494
  296TMC3    C1 4456   1.366   4.164   1.372 -0.1331 -0.3048  0.5361
  296TMC3    C2 4457   1.373   4.295   1.395 -0.0240  0.8091 -0.0033
  296TMC3    C3 4458   1.387   4.335   1.521 -0.3596 -0.5985 -0.2243
  296TMC3    C4 4459   1.355   4.073   1.473 -0.9559 -0.5916 -0.5107
  296TMC3    C5 4460   1.359   4.107   1.603 -0.2819 -0.0954  0.1155
  296TMC3    C6 4461   1.386   4.245   1.629 -0.0177  0.0035 -0.3829
  296TMC3     C 4462   1.399   4.136   1.234 -0.8304  0.0486  0.0414
  296TMC3     O 4463   1.396   4.229   1.156  0.8627  0.6109 -0.1239
  296TMC3     H 4464   1.379   4.369   1.316 -1.2541  0.9656  0.0518
  296TMC3    H1 4465   1.348   3.968   1.445  0.4670 -1.1013  1.0895
  296TMC3    H2 4466   1.375   4.277   1.731 -0.4125 -1.1486 -0.0609
  296TMC3    C7 4467   1.389   4.022   1.716 -0.0837  0.2588  0.4446
  296TMC3    C8 4468   1.400   4.478   1.552  0.8198 -0.7541  0.2038
  296TMC3    O1 4469   1.443   4.078   1.810  0.1698 -0.5496  0.1936
  296TMC3    O2 4470   1.389   4.561   1.465  0.0846  0.9540  0.1552
  297MPD2     C 4471   3.587   1.712  16.612  0.2787 -0.3011 -0.0504
  297MPD2    C1 4472   3.536   1.820  16.546  0.2526 -0.5162  0.3379
  297MPD2    C2 4473   3.633   1.912  16.493  0.4707 -0.0579 -0.0884
  297MPD2    C3 4474   3.766   1.889  16.508  1.3690  0.1796  0.3917
  297MPD2    C4 4475   3.806   1.773  16.565  0.0495  1.0597 -0.3714
  297MPD2    C5 4476   3.719   1.685  16.620 -1.1434  0.1022  0.1274
  297MPD2     H 4477   3.590   2.006  16.459  2.2780  1.1550  0.9944
  297MPD2    H1 4478   3.913   1.760  16.570  0.1217  2.2887  1.3483
  297MPD2    H2 4479   3.535   1.620  16.638  1.3252 -1.4226 -1.9325
  297MPD2    H3 4480   3.763   1.597  16.665  1.0120 -0.1074 -2.4248
  297MPD2     N 4481   3.859   1.985  16.477  0.5600 -0.0273  0.1157
  297MPD2    H5 4482   3.955   1.953  16.486  0.4883 -0.7002 -1.5384
  297MPD2    N1 4483   3.395   1.842  16.525 -0.0110 -0.6164  0.3025
  297MPD2    H7 4484   3.360   1.917  16.466  1.2955 -0.5211 -0.3543
  298TMC3    C1 4485   3.170   1.793  16.540 -0.0148 -0.4453  0.0884
  298TMC3    C2 4486   3.143   1.833  16.415  0.0153 -0.4856 -0.0535
  298TMC3    C3 4487   3.013   1.857  16.391  0.4072  0.3631 -0.9966
  298TMC3    C4 4488   3.078   1.782  16.642 -0.5149  0.0503 -1.0472
  298TMC3    C5 4489   2.953   1.831  16.620 -0.1376 -0.4454  0.4883
  298TMC3    C6 4490   2.915   1.864  16.493 -0.1164  0.6756 -0.0416
  298TMC3     C 4491   3.299   1.754  16.571  0.4183 -0.1928  0.4386
  298TMC3     O 4492   3.309   1.666  16.655  0.5496  0.0798  0.2157
  298TMC3     H 4493   3.229   1.824  16.349  0.1015 -2.1901  0.2930
  298TMC3    H1 4494   3.109   1.768  16.745 -1.7481  2.3632 -0.3618
  298TMC3    H2 4495   2.815   1.905  16.480 -0.8259 -0.8621  0.5559
  298TMC3    C7 4496   2.890   1.896  16.734  0.7960 -0.6753  0.5194
  298TMC3    C8 4497   2.968   1.891  16.251  0.2422  0.0309  0.3079
  298TMC3    O1 4498   2.944   1.885  16.843  0.0058 -0.7603  0.6340
  298TMC3    O2 4499   2.847   1.908  16.234  0.6744  0.9536 -0.7897
  299MPD2     C 4500   4.505   0.853  10.630  0.0857  0.1093  0.1564
  299MPD2    C1 4501   4.456   0.965  10.560 -0.3267 -0.5388 -0.1671
  299MPD2    C2 4502   4.328   0.957  10.510 -0.4517 -0.1808 -0.8976
  299MPD2    C3 4503   4.252   0.843  10.525 -0.5045 -0.6065 -0.5401
  299MPD2    C4 4504   4.295   0.733  10.596 -0.8741  0.1679  0.8147
  299MPD2    C5 4505   4.422   0.743  10.645  0.2394 -0.2783 -0.3926
  299MPD2     H 4506   4.285   1.039  10.454 -2.6249 -1.2626 -0.8072
  299MPD2    H1 4507   4.223   0.655  10.619  1.1167 -2.0911 -0.6226
  299MPD2    H2 4508   4.602   0.841  10.677  0.2771 -1.9474 -0.7914
  299MPD2    H3 4509   4.454   0.653  10.695  1.4419  1.1954  1.4766
  299MPD2     N 4510   4.127   0.837  10.461  0.0184 -0.4805  0.2328
  299MPD2    H5 4511   4.074   0.755  10.488 -2.4588  0.1068 -2.7924
  299MPD2    N1 4512   4.538   1.084  10.560  0.3007 -0.2095 -0.4146
  299MPD2    H7 4513   4.614   1.086  10.627 -0.5524  0.3257  0.5385
  300TMC3    C1 4514   3.956   0.896  10.311  0.0410  0.1285  0.2103
  300TMC3    C2 4515   3.923   0.997  10.221  0.2580  0.2871  0.1804
  300TMC3    C3 4516   3.802   1.059  10.222 -0.0888  0.2689  0.0908
  300TMC3    C4 4517   3.860   0.856  10.401 -0.2442  0.4375  0.0731
  300TMC3    C5 4518   3.747   0.934  10.405  0.1813 -0.4859 -0.2100
  300TMC3    C6 4519   3.726   1.043  10.328 -0.2545 -0.2218  0.6523
  300TMC3     C 4520   4.092   0.905  10.348 -0.4824 -0.0223 -0.2795
  300TMC3     O 4521   4.146   0.994  10.284  0.0756 -0.4959 -0.2778
  300TMC3     H 4522   3.997   1.018  10.144  1.0049  1.6375  1.2685
  300TMC3    H1 4523   3.872   0.772  10.469 -0.9532  1.3856  1.3463
  300TMC3    H2 4524   3.639   1.104  10.351 -0.5443  0.7060 -2.8813
  300TMC3    C7 4525   3.639   0.873  10.474 -0.3334  1.0996 -0.6149
  300TMC3    C8 4526   3.809   1.192  10.168  0.2022 -0.1015  0.0353
  300TMC3    O1 4527   3.632   0.752  10.492 -0.3678 -0.0200 -0.0264
  300TMC3    O2 4528   3.739   1.283  10.211 -0.3603 -0.3062 -0.2142
  301MPD2     C 4529   1.790   3.450   1.611 -0.0309 -0.3258 -0.2345
  301MPD2    C1 4530   1.689   3.375   1.661  0.3828 -0.5668 -0.6008
  301MPD2    C2 4531   1.723   3.251   1.709 -0.0959 -0.6443  0.6327
  301MPD2    C3 4532   1.856   3.209   1.736  0.0025  0.3125 -0.2482
  301MPD2    C4 4533   1.953   3.293   1.693  0.0357 -0.2875 -0.3608
  301MPD2    C5 4534   1.919   3.413   1.629  0.3845 -0.7292 -0.0169
  301MPD2     H 4535   1.640   3.185   1.729 -1.5134  0.5980 -1.2073
  301MPD2    H1 4536   2.056   3.260   1.704  1.4162  4.0914 -0.1205
  301MPD2    H2 4537   1.785   3.539   1.549  2.7920 -0.7346 -1.0740
  301MPD2    H3 4538   1.990   3.463   1.564 -0.1645  0.0451 -0.0097
  301MPD2     N 4539   1.888   3.079   1.788 -0.0437  0.4634 -0.0421
  301MPD2    H5 4540   1.986   3.053   1.785 -0.2635 -0.6113  1.8376
  301MPD2    N1 4541   1.557   3.405   1.653  0.2806 -0.1366  0.5155
  301MPD2    H7 4542   1.489   3.331   1.674 -0.5823  0.3447 -0.5923
  302TMC3    C1 4543   1.851   2.840   1.819  0.0900 -0.0675 -0.0658
  302TMC3    C2 4544   1.956   2.825   1.902  0.5618 -0.0564  0.2505
  302TMC3    C3 4545   1.996   2.696   1.911  1.0997  0.3775 -0.4825
  302TMC3    C4 4546   1.798   2.736   1.747  0.1623 -0.3231 -0.0667
  302TMC3    C5 4547   1.832   2.609   1.777  0.3446 -0.3264 -0.3860
  302TMC3    C6 4548   1.932   2.589   1.860 -0.4079  0.4075 -0.8920
  302TMC3     C 4549   1.797   2.976   1.803  0.2840  0.2477  0.6440
  302TMC3     O 4550   1.673   2.984   1.803  0.1493  0.9033 -1.2021
  302TMC3     H 4551   1.998   2.911   1.952  0.6141  0.1114 -0.0824
  302TMC3    H1 4552   1.711   2.753   1.685 -0.9014 -1.3158  1.1339
  302TMC3    H2 4553   1.959   2.486   1.881 -1.9495 -0.1313 -1.5417
  302TMC3    C7 4554   1.778   2.487   1.714  0.3845  0.4401  0.0009
  302TMC3    C8 4555   2.129   2.663   1.964 -0.3645  0.3094  0.0245
  302TMC3    O1 4556   1.822   2.380   1.755 -0.4147  0.0658  1.1139
  302TMC3    O2 4557   2.128   2.552   2.014 -0.4774  0.3262 -0.0348
  303MPD2     C 4558   2.070   0.779  10.348  0.3115 -0.1673 -0.3717
  303MPD2    C1 4559   1.988   0.671  10.375 -0.1550 -0.4594 -0.1484
  303MPD2    C2 4560   1.926   0.604  10.271  1.0049  0.1756 -0.8178
  303MPD2    C3 4561   1.943   0.646  10.142  0.2726 -0.4517 -0.0572
  303MPD2    C4 4562   2.025   0.755  10.123  0.0461 -1.0339 -0.0540
  303MPD2    C5 4563   2.080   0.822  10.224  0.7369  0.1699 -0.2768
  303MPD2     H 4564   1.844   0.535  10.291 -0.2604  1.6942 -0.7005
  303MPD2    H1 4565   2.045   0.793  10.023  0.4188  0.8725  0.7398
  303MPD2    H2 4566   2.134   0.828  10.421 -0.6717  1.1336 -0.3893
  303MPD2    H3 4567   2.156   0.899  10.210  1.9446 -0.9883 -0.0917
  303MPD2     N 4568   1.864   0.599  10.033  0.3284 -0.1056  0.1044
  303MPD2    H5 4569   1.890   0.631   9.940 -1.9901  0.4440 -0.3623
  303MPD2    N1 4570   1.966   0.631  10.508  0.1688  0.1289  0.3284
  303MPD2    H7 4571   2.001   0.700  10.574  2.6100  0.4458 -1.2580
  304TMC3    C1 4572   1.881   0.515  10.701  0.0311  0.9442 -0.2774
  304TMC3    C2 4573   1.776   0.597  10.737  0.6592  0.8757 -0.3534
  304TMC3    C3 4574   1.701   0.550  10.836  0.3938 -0.0230  0.6075
  304TMC3    C4 4575   1.892   0.392  10.750 -0.4503 -0.7334  0.3449
  304TMC3    C5 4576   1.819   0.355  10.857 -0.4806 -0.4495  0.8885
  304TMC3    C6 4577   1.719   0.432  10.899 -0.1681  0.2249  0.3401
  304TMC3     C 4578   1.904   0.516  10.555 -0.3821 -0.1683 -0.4886
  304TMC3     O 4579   1.873   0.412  10.498 -0.5905 -0.7511  0.7077
  304TMC3     H 4580   1.747   0.683  10.677 -1.9528  0.5716  0.4909
  304TMC3    H1 4581   1.956   0.323  10.697  0.5592  0.2142  0.3458
  304TMC3    H2 4582   1.652   0.397  10.976  0.9925  0.4809  1.4761
  304TMC3    C7 4583   1.784   0.215  10.843 -0.5292  0.5213  0.1400
  304TMC3    C8 4584   1.562   0.563  10.805 -0.1169 -0.4712 -0.2051
  304TMC3    O1 4585   1.765   0.179  10.731 -0.2829 -0.2752  0.2943
  304TMC3    O2 4586   1.529   0.531  10.693 -0.5165  0.1915 -0.2775
  305MPD2     C 4587   4.218   2.720  14.224  0.9323  0.4585  0.0727
  305MPD2    C1 4588   4.347   2.759  14.213  0.1152  0.4803  0.5161
  305MPD2    C2 4589   4.405   2.764  14.085 -0.3006  0.2984 -0.0056
  305MPD2    C3 4590   4.328   2.741  13.972 -0.3716  0.2952  0.0865
  305MPD2    C4 4591   4.196   2.709  13.988  0.1625  0.2797  0.6766
  305MPD2    C5 4592   4.146   2.692  14.115  0.2028  0.4833 -0.1691
  305MPD2     H 4593   4.511   2.775  14.067 -0.4948 -0.0918 -1.3765
  305MPD2    H1 4594   4.139   2.671  13.903 -0.7409 -1.8641  2.2449
  305MPD2    H2 4595   4.161   2.704  14.314 -0.4155  1.9818 -0.5119
  305MPD2    H3 4596   4.044   2.657  14.123  1.0009 -2.3405 -1.9692
  305MPD2     N 4597   4.397   2.723  13.847  0.1147 -0.8454  0.3534
  305MPD2    H5 4598   4.498   2.720  13.845  0.1139 -0.1597 -1.0501
  305MPD2    N1 4599   4.409   2.792  14.336  0.1996  0.4365  0.2100
  305MPD2    H7 4600   4.360   2.779  14.424 -1.1881 -2.6089 -1.0217
  306TMC3    C1 4601   4.585   2.848  14.488 -0.1488 -0.1255 -0.4679
  306TMC3    C2 4602   4.712   2.827  14.516  0.3906  0.6936 -0.1813
  306TMC3    C3 4603   0.025   2.822  14.645 -0.3365 -0.7766  0.1816
  306TMC3    C4 4604   4.497   2.869  14.592  0.1455 -0.2478  0.6741
  306TMC3    C5 4605   4.542   2.862  14.725  0.2707  0.1435 -0.1011
  306TMC3    C6 4606   4.674   2.839  14.756  0.0355 -0.7041  0.1582
  306TMC3     C 4607   4.540   2.827  14.349  0.1822  0.0396 -0.1877
  306TMC3     O 4608   4.623   2.833  14.258 -0.5121  0.6071 -0.4950
  306TMC3     H 4609   0.058   2.809  14.435  2.2539  0.1663  1.5549
  306TMC3    H1 4610   4.394   2.897  14.570  0.5917  0.3638 -0.5943
  306TMC3    H2 4611   4.710   2.842  14.858 -1.5310 -3.0549  0.7697
  306TMC3    C7 4612   4.449   2.918  14.828  0.4340  0.0862 -0.3373
  306TMC3    C8 4613   0.168   2.809  14.669  0.1229  0.1524  0.1503
  306TMC3    O1 4614   4.343   2.963  14.787  0.3312  0.1599 -0.3117
  306TMC3    O2 4615   0.204   2.787  14.783  0.2197  0.2781 -0.0123
  307MPD2     C 4616   2.196   1.191   1.027  0.0454  0.0978 -0.2586
  307MPD2    C1 4617   2.074   1.241   0.982  0.2857  0.3883 -0.6138
  307MPD2    C2 4618   1.985   1.288   1.081 -0.0344 -0.4136 -0.4516
  307MPD2    C3 4619   2.012   1.273   1.215 -0.2956 -0.3806 -0.4757
  307MPD2    C4 4620   2.138   1.227   1.251 -0.6026 -0.2441  0.1831
  307MPD2    C5 4621   2.229   1.184   1.160 -0.4768 -0.0480  0.3872
  307MPD2     H 4622   1.896   1.337   1.043 -0.3248  0.0614  0.8263
  307MPD2    H1 4623   2.167   1.215   1.355 -1.2356 -1.5979  0.2135
  307MPD2    H2 4624   2.266   1.152   0.954 -0.2662 -0.2860 -0.3542
  307MPD2    H3 4625   2.327   1.157   1.198 -1.1528 -0.5666  1.7520
  307MPD2     N 4626   1.916   1.320   1.309 -0.0582  0.1328 -0.8121
  307MPD2    H5 4627   1.824   1.339   1.271 -0.2591 -0.9712 -0.9006
  307MPD2    N1 4628   2.037   1.262   0.843  0.4146 -0.3923  0.2897
  307MPD2    H7 4629   1.946   1.304   0.828  1.2594  0.7943 -1.4709
  308TMC3    C1 4630   1.611   1.528   1.450 -0.1766 -0.0131  1.0564
  308TMC3    C2 4631   1.649   1.663   1.428  0.1650 -0.4359 -0.0234
  308TMC3    C3 4632   1.779   1.686   1.407 -0.0568  0.1290  0.0032
  308TMC3    C4 4633   1.706   1.429   1.472  0.0297  0.0786  0.2967
  308TMC3    C5 4634   1.835   1.464   1.466  0.0059 -0.1609 -0.1758
  308TMC3    C6 4635   1.863   1.590   1.422  0.2042 -0.9126  0.3633
  308TMC3     C 4636   1.470   1.495   1.469 -0.1882  1.1553  0.1032
  308TMC3     O 4637   1.443   1.396   1.535  0.0828  0.1683  0.3921
  308TMC3     H 4638   1.579   1.746   1.432 -0.4453 -1.0035  1.0179
  308TMC3    H1 4639   1.669   1.329   1.493 -0.3411  0.1085 -0.2120
  308TMC3    H2 4640   1.964   1.623   1.400  0.1223 -0.5765  0.4988
  308TMC3    C7 4641   1.940   1.378   1.424  0.0964  0.4892  0.0635
  308TMC3    C8 4642   1.826   1.803   1.374  0.6143 -0.6480 -0.0469
  308TMC3    O1 4643   2.049   1.416   1.469  0.1464 -0.2277  0.0515
  308TMC3    O2 4644   1.920   1.842   1.442  0.7103  0.2697  0.2262
  309MPD2     C 4645   1.681   1.472  17.391  0.3363  0.1455 -0.1878
  309MPD2    C1 4646   1.581   1.532  17.318  0.0244  0.6722 -0.1817
  309MPD2    C2 4647   1.451   1.524  17.362 -0.0272  0.4300  0.0585
  309MPD2    C3 4648   1.417   1.475  17.484 -0.6412  0.4395 -0.4217
  309MPD2    C4 4649   1.521   1.424  17.565  0.6017 -0.3915 -0.1136
  309MPD2    C5 4650   1.648   1.414  17.514 -0.1774  0.1204  0.0024
  309MPD2     H 4651   1.386   1.584  17.298 -0.0923 -0.2255 -0.4868
  309MPD2    H1 4652   1.506   1.385  17.665 -0.9798 -2.0082 -0.9871
  309MPD2    H2 4653   1.787   1.460  17.371  0.1929  1.4114 -1.6753
  309MPD2    H3 4654   1.725   1.380  17.581 -1.0068 -0.4478  0.6660
  309MPD2     N 4655   1.280   1.474  17.541 -0.6655  0.3085 -0.4264
  309MPD2    H5 4656   1.259   1.424  17.627 -0.3748  1.8136  0.5280
  309MPD2    N1 4657   1.612   1.601  17.197 -0.1416 -0.0216 -0.0068
  309MPD2    H7 4658   1.535   1.653  17.156 -1.0565  0.4435  2.3352
  310TMC3    C1 4659   1.728   1.670  16.992 -0.7480 -0.1201 -0.8006
  310TMC3    C2 4660   1.612   1.693  16.929 -1.2444 -0.0269 -0.4143
  310TMC3    C3 4661   1.608   1.715  16.795 -0.1984  0.2409 -0.0572
  310TMC3    C4 4662   1.845   1.665  16.919  0.4046 -0.0299  0.4672
  310TMC3    C5 4663   1.836   1.674  16.783 -0.3918  0.4613 -0.8245
  310TMC3    C6 4664   1.725   1.705  16.718 -0.3916 -0.0289 -0.4615
  310TMC3     C 4665   1.732   1.604  17.125  0.0732  0.7364 -0.3223
  310TMC3     O 4666   1.829   1.528  17.138  0.4586 -0.1262  0.4211
  310TMC3     H 4667   1.518   1.707  16.981 -1.0571 -0.1642 -0.0465
  310TMC3    H1 4668   1.941   1.665  16.968  1.1370 -1.1118 -0.9754
  310TMC3    H2 4669   1.713   1.690  16.611  1.6839  1.5465 -0.9337
  310TMC3    C7 4670   1.947   1.615  16.715 -0.3702 -0.3565 -0.7542
  310TMC3    C8 4671   1.506   1.801  16.749 -0.3945  0.1787  0.3294
  310TMC3    O1 4672   2.036   1.548  16.766 -0.2587 -0.2327 -0.2348
  310TMC3    O2 4673   1.405   1.810  16.814  0.4575  0.3453 -0.5518
  311MPD2     C 4674   3.695   2.161  13.160 -0.2405 -0.1439 -0.3719
  311MPD2    C1 4675   3.628   2.276  13.186  0.5324  0.1886 -0.7259
  311MPD2    C2 4676   3.503   2.282  13.244 -0.5412 -0.1323 -0.2617
  311MPD2    C3 4677   3.434   2.162  13.270 -0.0351  0.5715 -0.5885
  311MPD2    C4 4678   3.495   2.043  13.230 -0.6730  0.4390  0.3857
  311MPD2    C5 4679   3.623   2.044  13.181  0.0558  0.3959 -0.6679
  311MPD2     H 4680   3.449   2.375  13.247  1.3232  0.9905 -0.9969
  311MPD2    H1 4681   3.450   1.946  13.249  2.3430 -0.7408  1.5360
  311MPD2    H2 4682   3.796   2.158  13.119 -0.0020  3.7165 -0.0881
  311MPD2    H3 4683   3.676   1.952  13.164 -1.9158 -0.8105 -0.3061
  311MPD2     N 4684   3.311   2.156  13.341  0.1699  0.0117 -0.4443
  311MPD2    H5 4685   3.269   2.069  13.371 -0.2620  1.2646  2.5522
  311MPD2    N1 4686   3.679   2.401  13.138 -0.5665  0.2355 -0.1998
  311MPD2    H7 4687   3.634   2.482  13.180 -1.1838 -0.5895  0.7192
  312TMC3    C1 4688   3.107   2.238  13.449  0.1867 -0.0690 -0.1365
  312TMC3    C2 4689   2.986   2.277  13.400  0.3648 -0.4258 -0.0529
  312TMC3    C3 4690   2.867   2.245  13.457  0.2725 -0.0822 -0.7868
  312TMC3    C4 4691   3.115   2.162  13.560  0.1108 -0.0090 -0.2258
  312TMC3    C5 4692   2.991   2.123  13.612 -0.3879  0.1783 -0.8980
  312TMC3    C6 4693   2.872   2.167  13.568  0.1602 -0.3734  0.8094
  312TMC3     C 4694   3.232   2.267  13.376 -0.1434  0.0133  0.2745
  312TMC3     O 4695   3.243   2.379  13.333 -0.2806 -0.2856 -0.1285
  312TMC3     H 4696   2.988   2.350  13.320  2.3783 -1.2726 -0.7774
  312TMC3    H1 4697   3.215   2.161  13.602 -0.0902 -1.5263  0.2014
  312TMC3    H2 4698   2.777   2.131  13.606  0.1486  0.0356  1.1604
  312TMC3    C7 4699   2.992   2.049  13.739  0.1732 -0.2788 -0.1280
  312TMC3    C8 4700   2.740   2.247  13.370  0.0925 -0.0273  0.0451
  312TMC3    O1 4701   2.890   2.051  13.808 -0.0164  0.2610 -0.1301
  312TMC3    O2 4702   2.635   2.211  13.421  0.0238  0.6175  0.5723
  313MPD2     C 4703   3.846   1.936  10.139 -0.7537 -1.1631  0.0867
  313MPD2    C1 4704   3.721   1.890  10.184  0.2500  0.0779 -0.3575
  313MPD2    C2 4705   3.652   1.796  10.112 -0.2968  0.1586  0.3435
  313MPD2    C3 4706   3.707   1.744   9.997  0.4309  0.5029  0.9134
  313MPD2    C4 4707   3.829   1.788   9.955  0.6345  0.3668  0.0187
  313MPD2    C5 4708   3.897   1.881  10.018  0.3846  0.5911  0.7257
  313MPD2     H 4709   3.550   1.769  10.137 -0.1986  1.0583  1.6776
  313MPD2    H1 4710   3.877   1.757   9.863  1.0495  1.0712 -0.0088
  313MPD2    H2 4711   3.893   2.026  10.175 -1.7267 -0.6228  0.0229
  313MPD2    H3 4712   3.988   1.916   9.971  1.4627  0.5344  2.7844
  313MPD2     N 4713   3.634   1.641   9.933  0.2205  0.6521  0.0545
  313MPD2    H5 4714   3.543   1.617   9.972 -0.9214  2.4475 -1.4810
  313MPD2    N1 4715   3.660   1.936  10.297  0.0270  0.1195 -0.0702
  313MPD2    H7 4716   3.569   1.895  10.311  0.1402 -0.0811  0.0934
  314TMC3    C1 4717   3.598   2.070  10.468 -0.3581 -0.8654  0.4298
  314TMC3    C2 4718   3.642   2.049  10.598  0.7083  0.1485  0.1866
  314TMC3    C3 4719   3.545   2.002  10.683  0.1574  0.2978  0.2730
  314TMC3    C4 4720   3.472   2.061  10.425  1.1531 -0.3677 -0.7913
  314TMC3    C5 4721   3.384   2.013  10.515  0.2681  0.6832  0.5628
  314TMC3    C6 4722   3.418   1.980  10.643  0.8004  0.2078  0.3969
  314TMC3     C 4723   3.707   2.037  10.378 -0.8577  0.7973  0.2598
  314TMC3     O 4724   3.815   2.087  10.398 -0.5694  0.2157 -0.5932
  314TMC3     H 4725   3.746   2.057  10.627  0.4650 -0.3292  1.2143
  314TMC3    H1 4726   3.441   2.096  10.327  0.8607 -0.1561 -0.6228
  314TMC3    H2 4727   3.341   1.936  10.705  1.3904  0.8120  1.5594
  314TMC3    C7 4728   3.279   1.927  10.458 -0.0586 -0.2084 -0.3528
  314TMC3    C8 4729   3.556   2.066  10.810  0.4474  0.5213  0.3048
  314TMC3    O1 4730   3.246   1.831  10.521  0.3744  0.2865  0.1234
  314TMC3    O2 4731   3.636   2.158  10.816  0.3754  0.0574  0.0018
  315MPD2     C 4732   2.238   1.838   0.673  0.1178 -0.0769 -0.4281
  315MPD2    C1 4733   2.333   1.800   0.770 -1.3333  0.0583 -0.6180
  315MPD2    C2 4734   2.434   1.884   0.807 -0.0531 -0.1915 -0.9815
  315MPD2    C3 4735   2.461   1.991   0.729  0.6513  0.1881  0.0709
  315MPD2    C4 4736   2.369   2.028   0.627  0.5397  0.2741  0.4233
  315MPD2    C5 4737   2.255   1.952   0.606 -0.0393  0.2032  0.0616
  315MPD2     H 4738   2.496   1.845   0.887  0.8859 -0.9116 -2.0447
  315MPD2    H1 4739   2.392   2.116   0.568 -1.1113  0.9473  0.8038
  315MPD2    H2 4740   2.143   1.790   0.652 -0.0463  0.6632 -1.3689
  315MPD2    H3 4741   2.196   1.980   0.520  2.2476  1.9243 -0.9262
  315MPD2     N 4742   2.575   2.063   0.757  0.1212  0.2486 -0.0178
  315MPD2    H5 4743   2.636   2.016   0.823  0.0283  0.2123  0.0427
  315MPD2    N1 4744   2.330   1.677   0.830  0.1903 -0.2765  0.3073
  315MPD2    H7 4745   2.382   1.669   0.917  1.6014 -0.2875 -0.5379
  316TMC3    C1 4746   2.754   2.220   0.728  0.0744 -0.5224  0.1151
  316TMC3    C2 4747   2.823   2.150   0.821 -0.5105  0.2131  0.5153
  316TMC3    C3 4748   2.960   2.181   0.836  1.1225 -0.1328 -0.5863
  316TMC3    C4 4749   2.813   2.313   0.644 -0.6608 -0.4279 -0.3670
  316TMC3    C5 4750   2.940   2.355   0.670 -0.6004 -0.0941 -0.3208
  316TMC3    C6 4751   3.013   2.282   0.762 -0.1803 -0.6949  0.4775
  316TMC3     C 4752   2.624   2.174   0.686  0.2162  0.7087  0.0317
  316TMC3     O 4753   2.564   2.251   0.613  0.2332  0.1793  0.0883
  316TMC3     H 4754   2.789   2.074   0.891  0.7646 -0.5418  0.3346
  316TMC3    H1 4755   2.754   2.360   0.566 -0.4750 -0.6994 -0.6731
  316TMC3    H2 4756   3.116   2.313   0.770 -0.6547  1.1380 -0.4348
  316TMC3    C7 4757   3.016   2.431   0.572 -0.7071 -0.2208 -0.4144
  316TMC3    C8 4758   3.045   2.106   0.926 -0.8860  0.4037  0.0526
  316TMC3    O1 4759   3.127   2.477   0.602 -0.4553 -0.7102  0.0252
  316TMC3    O2 4760   3.155   2.153   0.944  0.0806  0.1441  0.0357
  317MPD2     C 4761   4.364   4.491  13.200  0.3799  0.9162  0.9739
  317MPD2    C1 4762   4.494   4.459  13.148  0.5856  0.1995 -0.1445
  317MPD2    C2 4763   4.587   4.437  13.241 -0.0514  0.4613  0.3554
  317MPD2    C3 4764   4.571   4.417  13.374  0.5914 -0.8476 -0.8676
  317MPD2    C4 4765   4.441   4.428  13.421  0.5127  0.0774 -0.1195
  317MPD2    C5 4766   4.344   4.471  13.331  0.6648  0.7494 -0.1021
  317MPD2     H 4767   4.691   4.427  13.210 -0.3889  0.7223 -0.8312
  317MPD2    H1 4768   4.415   4.412  13.525  0.7126 -0.6486 -0.1816
  317MPD2    H2 4769   4.281   4.520  13.136  1.6219  0.3486 -0.8763
  317MPD2    H3 4770   4.242   4.493  13.360 -0.1843 -1.3842 -1.4774
  317MPD2     N 4771   4.682   4.363  13.442 -0.2694 -0.0528  0.2031
  317MPD2    H5 4772   0.042   4.345  13.390 -0.3102  0.6347 -0.1115
  317MPD2    N1 4773   4.527   4.464  13.013  0.1742  0.7365  0.9891
  317MPD2    H7 4774   4.625   4.450  12.995 -0.1900  1.4662 -1.5627
  318TMC3    C1 4775   0.067   4.219  13.582  0.6661  0.6690 -0.0507
  318TMC3    C2 4776   0.061   4.092  13.618 -0.3733  0.3078  0.3228
  318TMC3    C3 4777   0.187   4.023  13.630 -0.8234  0.0878  0.1819
  318TMC3    C4 4778   0.185   4.285  13.554  0.2431 -0.3860  0.2777
  318TMC3    C5 4779   0.307   4.220  13.574  0.2179 -0.7014 -0.2587
  318TMC3    C6 4780   0.311   4.087  13.616  0.1149 -0.1352  0.2641
  318TMC3     C 4781   4.666   4.290  13.561 -0.8862 -0.2904  0.0812
  318TMC3     O 4782   4.567   4.270  13.633 -0.2262 -0.1454 -0.4462
  318TMC3     H 4783   4.685   4.059  13.637 -0.4524  1.6406  2.2453
  318TMC3    H1 4784   0.169   4.391  13.536 -0.4686 -0.5251  0.0744
  318TMC3    H2 4785   0.405   4.037  13.638 -0.5066  0.1242  3.4982
  318TMC3    C7 4786   0.418   4.312  13.586  0.5412  0.0842  0.2434
  318TMC3    C8 4787   0.167   3.877  13.615  0.0089  0.1123 -0.2876
  318TMC3    O1 4788   0.399   4.428  13.557 -0.4520 -0.6937 -0.1754
  318TMC3    O2 4789   0.253   3.803  13.665 -0.0908  0.7045 -0.4501
  319MPD2     C 4790   1.030   0.993  16.613  0.2553  0.8825  0.3164
  319MPD2    C1 4791   0.936   0.930  16.697  0.3415 -0.5614 -0.0200
  319MPD2    C2 4792   0.826   0.862  16.637 -0.2527 -0.2066  0.7596
  319MPD2    C3 4793   0.820   0.854  16.497  0.3229  0.1427  0.8389
  319MPD2    C4 4794   0.918   0.917  16.420  1.0402 -0.4960 -0.5389
  319MPD2    C5 4795   1.019   0.982  16.475 -0.2550  0.1869 -0.1811
  319MPD2     H 4796   0.750   0.820  16.702  0.3837 -1.5489  0.6347
  319MPD2    H1 4797   0.916   0.899  16.313 -1.3827  0.6900 -0.7069
  319MPD2    H2 4798   1.117   1.040  16.657  0.0758  1.6620 -0.1571
  319MPD2    H3 4799   1.102   1.019  16.415  0.7563 -1.1326  0.4072
  319MPD2     N 4800   0.714   0.792  16.428 -0.0964 -0.3265  0.3607
  319MPD2    H5 4801   0.709   0.795  16.326  0.9231  1.3596  0.3622
  319MPD2    N1 4802   0.949   0.935  16.840  0.2166  0.1024  0.3827
  319MPD2    H7 4803   0.877   0.881  16.888  1.1335  1.8876  3.7589
  320TMC3    C1 4804   0.516   0.688  16.375  0.8089 -0.5691 -0.0217
  320TMC3    C2 4805   0.478   0.786  16.290 -0.5951  0.0341 -0.5150
  320TMC3    C3 4806   0.367   0.756  16.205 -0.4250 -0.1218 -0.6428
  320TMC3    C4 4807   0.459   0.569  16.379  0.2580 -0.4006 -0.7874
  320TMC3    C5 4808   0.348   0.545  16.299  0.0996 -0.2008 -0.0579
  320TMC3    C6 4809   0.305   0.632  16.200 -1.0655  0.6042  0.0147
  320TMC3     C 4810   0.615   0.713  16.478 -0.3251 -0.6187 -0.3755
  320TMC3     O 4811   0.606   0.665  16.591  0.0853 -0.1361  0.3014
  320TMC3     H 4812   0.507   0.889  16.310  0.8399 -0.5200  0.2801
  320TMC3    H1 4813   0.498   0.490  16.443 -2.9472 -0.3807  1.1640
  320TMC3    H2 4814   0.222   0.610  16.134  0.0091 -1.5623 -0.6134
  320TMC3    C7 4815   0.264   0.427  16.324  0.2263 -0.1408  0.0743
  320TMC3    C8 4816   0.311   0.864  16.128  0.3389 -0.8255  1.0424
  320TMC3    O1 4817   0.189   0.397  16.233 -0.0830  0.0734 -0.0953
  320TMC3    O2 4818   0.378   0.960  16.098  0.7184 -0.1401  0.3202
  321TMC3    C1 4819   1.029   0.979  17.059 -0.5064 -0.4787 -0.0136
  321TMC3    C2 4820   0.950   0.877  17.109  0.5226 -1.2530  0.2994
  321TMC3    C3 4821   0.903   0.884  17.233 -0.2994  0.2793  0.0797
  321TMC3    C4 4822   1.070   1.078  17.145  0.4242  0.1414  0.2987
  321TMC3    C5 4823   1.015   1.090  17.262  0.0280 -0.0486  0.3112
  321TMC3    C6 4824   0.925   0.999  17.307  0.4000 -0.8578  0.2676
  321TMC3     C 4825   1.038   1.006  16.918  0.6363  0.0280  0.3174
  321TMC3     O 4826   1.136   1.075  16.885 -0.0219  0.6128 -0.1045
  321TMC3     H 4827   0.936   0.786  17.051  1.9346 -2.5982  2.0600
  321TMC3    H1 4828   1.123   1.163  17.103  1.2721 -1.5134 -1.9793
  321TMC3    H2 4829   0.888   1.000  17.409 -1.9095 -0.3107 -0.5734
  321TMC3    C7 4830   1.118   1.130  17.364 -0.0189 -0.0996  0.7443
  321TMC3    C8 4831   0.947   0.763  17.308  0.2976  0.4394  0.5634
  321TMC3    O1 4832   1.145   1.247  17.382  0.1694 -0.2675 -0.2893
  321TMC3    O2 4833   1.041   0.789  17.379 -0.0019 -0.3391  0.3959
  322MPD2     C 4834   0.029   2.514  13.605  0.5641  0.2134  0.7500
  322MPD2    C1 4835   4.708   2.432  13.708 -0.3560  0.0415 -0.5295
  322MPD2    C2 4836   4.695   2.296  13.689 -0.1067  0.3148 -0.4657
  322MPD2    C3 4837   4.706   2.244  13.565 -0.2063  1.0126  0.4796
  322MPD2    C4 4838   0.017   2.324  13.459  0.7415  0.5011  0.1098
  322MPD2    C5 4839   0.047   2.456  13.477  0.2863 -0.3070 -0.4285
  322MPD2     H 4840   4.660   2.233  13.770  1.3755 -0.0225 -0.0943
  322MPD2    H1 4841   0.024   2.281  13.359 -2.6914 -1.3800  0.6595
  322MPD2    H2 4842   0.068   2.613  13.624  1.3771  0.2177 -0.8811
  322MPD2    H3 4843   0.083   2.519  13.396 -2.2005  0.9346 -0.5467
  322MPD2     N 4844   4.668   2.113  13.550  0.1704  0.4910 -0.4442
  322MPD2    H5 4845   4.657   2.059  13.635  1.0398 -0.0512 -0.6745
  322MPD2    N1 4846   4.692   2.495  13.835 -0.3379  0.6239 -0.1497
  322MPD2    H7 4847   4.718   2.593  13.841 -0.2553  0.6338 -0.6867
  323TMC3    C1 4848   4.675   2.499  14.067 -0.9686 -0.1676 -0.0201
  323TMC3    C2 4849   0.064   2.579  14.067 -0.4042 -0.3703  0.4713
  323TMC3    C3 4850   0.114   2.604  14.190  0.3106 -0.4590  0.0064
  323TMC3    C4 4851   4.625   2.440  14.183 -0.4416 -0.1758  0.1529
  323TMC3    C5 4852   4.672   2.478  14.306 -1.3140 -0.2383  0.2751
  323TMC3    C6 4853   0.059   2.558  14.307  0.0827  0.0227 -0.5185
  323TMC3     C 4854   4.635   2.439  13.946 -0.0772  0.4350 -0.4333
  323TMC3     O 4855   4.569   2.341  13.954 -0.2478 -0.1628 -0.1303
  323TMC3     H 4856   0.113   2.619  13.978  0.9057 -1.3781  0.7513
  323TMC3    H1 4857   4.538   2.376  14.180 -2.1047  2.1917 -2.0882
  323TMC3    H2 4858   0.107   2.591  14.398  1.1057  1.7005 -1.6561
  323TMC3    C7 4859   4.645   2.388  14.415 -0.1119 -0.4749  0.1262
  323TMC3    C8 4860   0.255   2.637  14.207 -0.8185  0.0439 -0.1318
  323TMC3    O1 4861   4.601   2.278  14.391  0.3225  0.0967 -0.4554
  323TMC3    O2 4862   0.308   2.598  14.309  0.8152  0.2576 -0.0486
  324MPD2     C 4863   1.396   3.624  14.329 -0.2054 -0.4052 -0.2484
  324MPD2    C1 4864   1.464   3.743  14.348 -0.2257  0.2861 -0.6337
  324MPD2    C2 4865   1.408   3.861  14.307 -0.1126  0.3702 -0.0559
  324MPD2    C3 4866   1.281   3.869  14.247  0.2378  0.1297 -0.7324
  324MPD2    C4 4867   1.220   3.751  14.228 -0.1730 -0.3008 -0.2873
  324MPD2    C5 4868   1.276   3.633  14.258  0.1740  0.0846 -0.0039
  324MPD2     H 4869   1.453   3.953  14.341  0.0792  0.6209 -1.0028
  324MPD2    H1 4870   1.126   3.752  14.175 -0.3083  1.3169 -0.0095
  324MPD2    H2 4871   1.443   3.530  14.356 -1.2121 -0.6712  0.5626
  324MPD2    H3 4872   1.219   3.541  14.249  0.2306  0.1846 -1.4020
  324MPD2     N 4873   1.208   3.982  14.200  0.6351 -0.3623  0.3113
  324MPD2    H5 4874   1.120   3.965  14.153  2.1474  0.4058 -2.8622
  324MPD2    N1 4875   1.597   3.740  14.406  0.4128  0.4757  0.3070
  324MPD2    H7 4876   1.651   3.826  14.412  3.4699 -1.1192 -4.0088
  325TMC3    C1 4877   1.133   4.204  14.191 -0.0099  0.6701 -0.1853
  325TMC3    C2 4878   1.026   4.144  14.137  0.8824 -0.6830  0.3430
  325TMC3    C3 4879   0.907   4.163  14.186  1.6824 -0.5765  0.4743
  325TMC3    C4 4880   1.122   4.293  14.298 -0.8198 -0.2278  0.0734
  325TMC3    C5 4881   0.997   4.290  14.358  0.0318 -0.0266 -0.1579
  325TMC3    C6 4882   0.889   4.226  14.306 -0.2837 -0.0436 -0.0545
  325TMC3     C 4883   1.245   4.112  14.210 -0.7910 -0.0983 -0.4915
  325TMC3     O 4884   1.337   4.145  14.281  0.3024  0.3617 -0.1726
  325TMC3     H 4885   1.032   4.087  14.045 -0.6800 -0.3324  0.0123
  325TMC3    H1 4886   1.206   4.328  14.357  0.9341  0.7923 -2.9952
  325TMC3    H2 4887   0.792   4.239  14.354 -0.4151 -1.0873 -0.0431
  325TMC3    C7 4888   0.995   4.314  14.507  0.0423  0.0004 -0.4287
  325TMC3    C8 4889   0.838   4.036  14.179 -0.3126  0.1336  0.4973
  325TMC3    O1 4890   1.071   4.389  14.564  0.4905 -0.2900  0.1582
  325TMC3    O2 4891   0.919   3.941  14.184 -0.1058  0.7385 -0.4568
  326MPD2     C 4892   2.592   4.324  11.418  0.2171 -0.0971 -0.1574
  326MPD2    C1 4893   2.639   4.361  11.294 -0.0431 -0.4164  0.3583
  326MPD2    C2 4894   2.772   4.383  11.275  0.3843  0.2027  0.6401
  326MPD2    C3 4895   2.862   4.379  11.377  0.5292 -0.2946 -0.4502
  326MPD2    C4 4896   2.817   4.352  11.503  1.2054  0.3456 -0.0226
  326MPD2    C5 4897   2.678   4.320  11.525  0.2062 -0.0078  0.7252
  326MPD2     H 4898   2.803   4.413  11.175 -0.7208  0.1682  0.2852
  326MPD2    H1 4899   2.884   4.356  11.589  2.6809  1.5711 -1.2449
  326MPD2    H2 4900   2.487   4.310  11.439  0.1154  0.2790 -0.4062
  326MPD2    H3 4901   2.647   4.292  11.625 -1.2785 -2.0811 -0.3201
  326MPD2     N 4902   2.995   4.409  11.358  0.0359  0.1003 -0.5499
  326MPD2    H5 4903   3.046   4.450  11.435 -0.7527  0.7820 -0.3918
  326MPD2    N1 4904   2.557   4.401  11.181 -0.3885 -0.1371 -0.3858
  326MPD2    H7 4905   2.600   4.443  11.100  2.6028 -1.1284  0.7103
  327TMC3    C1 4906   2.371   4.437  11.051  0.0291  0.6226  0.2364
  327TMC3    C2 4907   2.323   4.567  11.031  0.2099 -0.1487  0.4123
  327TMC3    C3 4908   2.334   4.607  10.900  0.3231  0.4390  0.0265
  327TMC3    C4 4909   2.429   4.359  10.957  0.6662  0.4274  0.1731
  327TMC3    C5 4910   2.439   4.405  10.830 -0.6490 -0.2949 -0.2977
  327TMC3    C6 4911   2.395   4.533  10.802 -0.7954  0.3265 -0.0310
  327TMC3     C 4912   2.423   4.413  11.185 -0.7255 -0.7664 -0.2235
  327TMC3     O 4913   2.343   4.373  11.268  0.1720  0.6678 -0.4399
  327TMC3     H 4914   2.274   4.629  11.105  1.5127  0.5566  0.6768
  327TMC3    H1 4915   2.461   4.258  10.981 -2.0506 -0.3569  0.4575
  327TMC3    H2 4916   2.394   4.566  10.699 -0.2908 -0.2932 -0.2377
  327TMC3    C7 4917   2.552   4.354  10.749 -0.0874  0.1278  0.2469
  327TMC3    C8 4918   2.287   0.020  10.856 -0.3370 -0.2074  0.1468
  327TMC3    O1 4919   2.568   4.389  10.633  0.3149  1.3467  0.6683
  327TMC3    O2 4920   2.288   0.049  10.738  0.2618  0.4311  0.5058
  328MPD2     C 4921   0.226   4.316  17.656  0.8570 -0.4460  0.0057
  328MPD2    C1 4922   0.141   4.233  17.597  0.2531 -0.6724  0.7883
  328MPD2    C2 4923   0.080   4.271  17.477  0.5438 -0.0188 -0.3426
  328MPD2    C3 4924   0.118   4.390  17.416 -0.4697  0.4372 -0.5722
  328MPD2    C4 4925   0.232   4.458  17.465  0.0142 -0.2077  0.7043
  328MPD2    C5 4926   0.284   4.411  17.583  0.4714 -1.0031 -0.5930
  328MPD2     H 4927   4.723   4.211  17.439 -1.1694  3.3447 -1.9242
  328MPD2    H1 4928   0.279   4.535  17.406  0.0746 -1.7059 -1.2058
  328MPD2    H2 4929   0.272   4.304   0.053  0.7762 -0.6768  0.0169
  328MPD2    H3 4930   0.358   4.478  17.626  1.8190 -3.6503  1.2264
  328MPD2     N 4931   0.039   4.445  17.310 -0.7342  1.2267 -0.2800
  328MPD2    H5 4932   0.076   4.535  17.280  2.2337 -0.2487 -1.0740
  328MPD2    N1 4933   0.104   4.113  17.667  0.3956  0.3071 -0.1194
  328MPD2    H7 4934   0.125   4.119   0.066  0.2579 -0.1576 -0.0642
  329TMC3    C1 4935   4.674   3.947   0.025  0.0663 -0.3733 -0.7212
  329TMC3    C2 4936   4.538   3.946   0.012 -0.1947  1.0198  0.5986
  329TMC3    C3 4937   4.458   3.945   0.120  0.0315  0.6390 -0.4401
  329TMC3    C4 4938   0.005   3.944   0.152  0.5646 -0.7203 -0.2799
  329TMC3    C5 4939   4.652   3.928   0.265 -0.0522 -0.0199 -0.4892
  329TMC3    C6 4940   4.512   3.937   0.249  0.0312 -0.3513  0.7061
  329TMC3     C 4941   0.018   4.012  17.622 -0.1320 -0.2703  0.7882
  329TMC3     O 4942   4.696   3.996  17.510 -0.1374 -0.0706  0.2368
  329TMC3     H 4943   4.490   3.977  17.620 -1.4253 -1.1396  0.5184
  329TMC3    H1 4944   0.113   3.940   0.163  0.4005 -2.3105  0.7012
  329TMC3    H2 4945   4.442   3.943   0.332  0.5887  1.0926  1.0711
  329TMC3    C7 4946   4.720   3.897   0.385  0.2415  0.2058  0.3229
  329TMC3    C8 4947   4.331   4.015   0.095 -0.0185 -0.5363  0.8021
  329TMC3    O1 4948   0.110   3.942   0.392 -0.4694  0.1833 -0.3601
  329TMC3    O2 4949   4.262   3.988  17.697  0.5533 -0.3960  0.5444
  330TMC3    C1 4950   3.571   3.327  10.188 -0.4472  0.1781  0.6198
  330TMC3    C2 4951   3.559   3.302  10.055  0.5629  0.8610  0.6185
  330TMC3    C3 4952   3.535   3.176  10.014  0.3760 -0.1892  0.1330
  330TMC3    C4 4953   3.551   3.223  10.273  0.5952 -0.1867  0.2731
  330TMC3    C5 4954   3.543   3.094  10.229 -0.1467  0.1701 -0.3305
  330TMC3    C6 4955   3.518   3.074  10.100 -0.2840  0.1813 -0.3786
  330TMC3     C 4956   3.571   3.467  10.233  0.9370 -0.6416  0.1859
  330TMC3     O 4957   3.593   3.483  10.351  0.6427  0.3865 -0.4296
  330TMC3     H 4958   3.565   3.379   9.978 -0.3899 -1.8642 -2.1438
  330TMC3    H1 4959   3.542   3.239  10.380 -0.3027 -1.0478  0.3287
  330TMC3    H2 4960   3.489   2.976  10.064 -3.3231  1.3455 -1.1124
  330TMC3    C7 4961   3.581   2.983  10.316 -0.5679  1.2935  0.6311
  330TMC3    C8 4962   3.488   3.166   9.882 -0.3947  0.8537 -0.2621
  330TMC3    O1 4963   3.549   2.875  10.271 -0.1109 -0.1458 -0.7393
  330TMC3    O2 4964   3.464   3.269   9.822  0.1088 -0.0845 -0.0717
  331MPD2     C 4965   0.934   2.417  12.700 -0.0241  0.2517 -0.2801
  331MPD2    C1 4966   1.064   2.381  12.688  0.4334 -0.4801 -0.2359
  331MPD2    C2 4967   1.104   2.280  12.611 -0.0004 -0.1336  0.3697
  331MPD2    C3 4968   1.016   2.210  12.530  0.0883 -0.1193  0.0656
  331MPD2    C4 4969   0.888   2.243  12.541  0.2462 -0.7995 -0.4897
  331MPD2    C5 4970   0.847   2.349  12.623  0.3130 -0.1961  0.1822
  331MPD2     H 4971   1.208   2.249  12.609  0.7247  2.5629 -3.5204
  331MPD2    H1 4972   0.814   2.184  12.487 -1.6852  0.1656  1.1107
  331MPD2    H2 4973   0.891   2.501  12.753  0.3505  0.2037  0.1014
  331MPD2    H3 4974   0.742   2.374  12.621  0.0535 -1.3666 -0.6050
  331MPD2     N 4975   1.057   2.095  12.452 -0.6343  0.0468 -0.1942
  331MPD2    H5 4976   1.154   2.068  12.463  0.3639  2.7365 -2.3029
  331MPD2    N1 4977   1.159   2.447  12.771 -0.7266 -0.8435  0.1993
  331MPD2    H7 4978   1.128   2.525  12.828  0.8620 -0.4985  0.5780
  332TMC3    C1 4979   1.049   1.934  12.282 -0.3494  0.3616 -0.2823
  332TMC3    C2 4980   1.118   1.983  12.181  1.0236 -1.0581  1.0394
  332TMC3    C3 4981   1.251   1.959  12.171  0.3443  0.2005  0.3770
  332TMC3    C4 4982   1.118   1.852  12.373  0.8862 -0.1157 -0.2170
  332TMC3    C5 4983   1.254   1.825  12.355 -0.1647  0.1063  0.2003
  332TMC3    C6 4984   1.330   1.880  12.251  0.6261  0.0316 -0.2772
  332TMC3     C 4985   0.978   2.033  12.361 -0.2802 -0.3349 -0.1460
  332TMC3     O 4986   0.885   2.080  12.297 -0.1849 -0.4942 -0.1291
  332TMC3     H 4987   1.075   2.068  12.129  1.8911 -0.8367  0.6833
  332TMC3    H1 4988   1.070   1.811  12.461 -0.2708  0.4019 -0.6100
  332TMC3    H2 4989   1.434   1.854  12.231  1.1069  2.0341 -0.3744
  332TMC3    C7 4990   1.312   1.762  12.473 -0.9001 -0.2861 -0.8501
  332TMC3    C8 4991   1.324   2.050  12.085 -0.0534 -1.1378  0.0610
  332TMC3    O1 4992   1.236   1.696  12.543  0.0776 -0.3810  1.1288
  332TMC3    O2 4993   1.444   2.058  12.111  0.5451 -0.5396  0.6369
  333MPD2     C 4994   1.236   2.404  11.247  0.0091  0.3100  0.3335
  333MPD2    C1 4995   1.321   2.331  11.169 -0.0281  0.1043 -0.0517
  333MPD2    C2 4996   1.298   2.192  11.173  0.1049  0.0731 -0.3498
  333MPD2    C3 4997   1.200   2.131  11.246  0.0697 -0.1052  0.2060
  333MPD2    C4 4998   1.113   2.206  11.321  0.2658  0.2907  0.6323
  333MPD2    C5 4999   1.134   2.341  11.319  0.2767 -0.5884  0.0643
  333MPD2     H 5000   1.366   2.137  11.109  1.3742 -0.5616  1.5447
  333MPD2    H1 5001   1.037   2.160  11.383  0.1930  1.1098  1.1517
  333MPD2    H2 5002   1.259   2.510  11.253 -1.2074  0.6726 -1.7498
  333MPD2    H3 5003   1.075   2.406  11.382 -0.3533  0.7367 -1.8903
  333MPD2     N 5004   1.205   1.990  11.256 -0.1351 -0.5591  0.2123
  333MPD2    H5 5005   1.285   1.944  11.215  0.0203  0.0476 -0.1717
  333MPD2    N1 5006   1.414   2.396  11.090 -0.2919 -0.2031 -0.4210
  333MPD2    H7 5007   1.423   2.497  11.091  1.4119 -0.3588 -0.2971
  334TMC3    C1 5008   1.581   2.429  10.925 -0.2740  0.3743 -0.1753
  334TMC3    C2 5009   1.646   2.396  10.810 -0.3788  0.3447 -1.0051
  334TMC3    C3 5010   1.740   2.489  10.761  0.0985 -0.3116  0.1221
  334TMC3    C4 5011   1.616   2.552  10.988 -0.0838 -0.4080 -0.1252
  334TMC3    C5 5012   1.699   2.643  10.936  0.4945 -0.3231  0.1399
  334TMC3    C6 5013   1.765   2.614  10.817  0.3881 -0.3001  0.5514
  334TMC3     C 5014   1.483   2.342  10.983 -0.2428 -0.2139 -0.2765
  334TMC3     O 5015   1.471   2.231  10.929  0.0483 -0.3260  0.2258
  334TMC3     H 5016   1.623   2.300  10.766 -1.2796 -0.2535  0.7577
  334TMC3    H1 5017   1.603   2.569  11.094  2.6447  1.4263 -0.0886
  334TMC3    H2 5018   1.827   2.690  10.770 -4.2496  2.2438 -1.4265
  334TMC3    C7 5019   1.676   2.778  10.981 -0.1968 -0.0503 -0.4281
  334TMC3    C8 5020   1.844   2.437  10.683 -0.0004 -0.0309  0.3194
  334TMC3    O1 5021   1.717   2.807  11.088 -0.6487 -0.6918  0.2940
  334TMC3    O2 5022   1.808   2.363  10.594  0.0929 -0.1567 -0.2983
  335TMC3    C1 5023   0.721   4.343  17.454 -0.2492 -0.2823  0.2728
  335TMC3    C2 5024   0.643   4.329  17.340  0.2448 -0.1802 -0.1540
  335TMC3    C3 5025   0.705   4.340  17.220 -0.2796 -0.6916 -0.4445
  335TMC3    C4 5026   0.849   4.388  17.449  0.0927  0.3026 -0.1310
  335TMC3    C5 5027   0.908   4.399  17.327  0.7148 -0.5428 -0.0681
  335TMC3    C6 5028   0.835   4.382  17.213 -0.1519 -0.6064 -0.2528
  335TMC3     C 5029   0.679   4.317  17.585 -0.2862 -0.8192 -0.7869
  335TMC3     O 5030   0.730   4.368  17.684 -0.3373 -0.1826 -0.7761
  335TMC3     H 5031   0.535   4.315  17.342  0.0676  1.4031  1.2007
  335TMC3    H1 5032   0.911   4.361  17.533 -3.0467 -0.0068  2.0700
  335TMC3    H2 5033   0.883   4.385  17.116  1.9780 -1.8012  0.7848
  335TMC3    C7 5034   1.056   4.430  17.312 -0.1143 -0.6216 -0.9710
  335TMC3    C8 5035   0.651   4.279  17.095  0.6901  0.2274 -0.3013
  335TMC3    O1 5036   1.106   4.406  17.203 -0.4386 -0.0215 -0.5727
  335TMC3    O2 5037   0.692   4.311  16.986  0.3662 -0.1141 -0.1029
  336MPD2     C 5038   0.383   2.078  16.695 -0.3705  0.5314 -0.3303
  336MPD2    C1 5039   0.365   2.028  16.570  0.1994  0.4222  0.0015
  336MPD2    C2 5040   0.413   1.900  16.538 -0.4424 -0.0963  0.4732
  336MPD2    C3 5041   0.482   1.829  16.631  0.0514 -0.1122 -0.0756
  336MPD2    C4 5042   0.489   1.875  16.759  0.6149 -0.0981  0.1755
  336MPD2    C5 5043   0.434   1.994  16.789 -0.3291  0.2419 -0.0636
  336MPD2     H 5044   0.404   1.854  16.440 -0.7152  0.4067  0.2569
  336MPD2    H1 5045   0.538   1.823  16.841  0.1378 -0.5978  0.1441
  336MPD2    H2 5046   0.349   2.176  16.726  0.5170  0.7779 -0.1552
  336MPD2    H3 5047   0.431   2.036  16.889 -0.2077 -1.9421  0.8560
  336MPD2     N 5048   0.522   1.691  16.619 -0.5086 -0.3971 -0.1977
  336MPD2    H5 5049   0.560   1.653  16.705 -0.8313  0.0574  0.1464
  336MPD2    N1 5050   0.304   2.097  16.458  0.2993 -0.0659 -0.8946
  336MPD2    H7 5051   0.290   2.051  16.369 -2.1922 -1.2692  0.1307
  337TMC3    C1 5052   0.225   2.302  16.347  0.1806  0.2640  0.6807
  337TMC3    C2 5053   0.115   2.237  16.289 -0.7661 -0.2569  0.1024
  337TMC3    C3 5054   0.044   2.312  16.198 -0.5612 -0.2001  0.2119
  337TMC3    C4 5055   0.230   2.436  16.352 -0.1149 -0.4175 -0.3093
  337TMC3    C5 5056   0.143   2.512  16.272  0.3031 -0.0888 -0.3961
  337TMC3    C6 5057   0.058   2.447  16.184 -0.3118 -0.2753 -0.0315
  337TMC3     C 5058   0.289   2.236  16.464  0.6911  0.4460 -0.3409
  337TMC3     O 5059   0.308   2.306  16.565 -0.3195  0.0284  0.0411
  337TMC3     H 5060   0.105   2.132  16.311 -0.6244 -0.0957  0.9286
  337TMC3    H1 5061   0.307   2.479  16.415 -0.9393  0.7990 -0.1159
  337TMC3    H2 5062   4.718   2.515  16.129  1.1454  2.6155  1.7873
  337TMC3    C7 5063   0.125   2.654  16.282 -1.2340 -0.7233  0.9461
  337TMC3    C8 5064   4.659   2.240  16.135 -0.5159 -0.2712  0.5856
  337TMC3    O1 5065   0.057   2.711  16.195  0.3956  0.4151 -0.0506
  337TMC3    O2 5066   4.661   2.118  16.141  0.8224  0.4752 -0.0258
  338MPD2     C 5067   0.227   2.023   1.016  0.1109  0.9164  0.3893
  338MPD2    C1 5068   0.287   1.938   0.930 -0.0688  0.9931 -0.1031
  338MPD2    C2 5069   0.215   1.837   0.868 -0.0164  0.0451  0.0113
  338MPD2    C3 5070   0.080   1.819   0.894 -0.1479  0.8693 -0.3215
  338MPD2    C4 5071   0.025   1.900   0.988  0.2599  0.0473 -0.2834
  338MPD2    C5 5072   0.096   1.998   1.041 -0.2356  0.2710  0.2721
  338MPD2     H 5073   0.265   1.779   0.792 -0.8732 -2.1364  1.0879
  338MPD2    H1 5074   4.646   1.898   1.019 -0.1436  0.6031 -1.5776
  338MPD2    H2 5075   0.281   2.098   1.072 -0.6571  1.8802 -0.1647
  338MPD2    H3 5076   0.053   2.069   1.111 -1.2708 -0.7295  0.6518
  338MPD2     N 5077   0.014   1.726   0.813  0.0137 -0.4776  0.1806
  338MPD2    H5 5078   0.061   1.679   0.736 -0.1791 -2.1742  1.1058
  338MPD2    N1 5079   0.431   1.937   0.913 -0.6919 -0.4631 -0.0966
  338MPD2    H7 5080   0.460   1.857   0.858 -0.1716 -0.6329  0.4296
  339TMC3    C1 5081   4.590   1.594   0.730 -0.3379  0.1496 -0.2852
  339TMC3    C2 5082   4.585   1.463   0.778 -0.3465 -0.2171  0.2757
  339TMC3    C3 5083   4.650   1.377   0.697 -0.3914 -0.1609 -0.1618
  339TMC3    C4 5084   4.649   1.634   0.621  0.1999  0.6664  1.1737
  339TMC3    C5 5085   4.706   1.541   0.540  0.5056 -0.3373  0.2181
  339TMC3    C6 5086   4.710   1.415   0.582 -0.3641  0.0410  0.0969
  339TMC3     C 5087   4.615   1.678   0.837 -0.4647 -0.3956  0.0338
  339TMC3     O 5088   4.540   1.683   0.934 -0.0561  0.1369  0.1826
  339TMC3     H 5089   4.534   1.427   0.866 -0.9711  0.0193  0.0079
  339TMC3    H1 5090   4.637   1.736   0.587 -1.2785  0.7584  2.0022
  339TMC3    H2 5091   0.042   1.343   0.523 -1.2875 -2.1255  1.8226
  339TMC3    C7 5092   0.082   1.595   0.448 -0.1795  0.7761  0.4293
  339TMC3    C8 5093   4.660   1.236   0.728 -0.0867 -0.0999 -0.7513
  339TMC3    O1 5094   0.069   1.711   0.412 -0.0312  0.4605  0.3397
  339TMC3    O2 5095   0.016   1.171   0.661 -0.1913  0.4698 -0.1921
  340MPD2     C 5096   1.157   3.825  10.911  0.7138 -0.9618  0.0465
  340MPD2    C1 5097   1.204   3.864  10.786  0.8246  0.1409  0.2551
  340MPD2    C2 5098   1.211   3.999  10.756  0.6497 -1.1829 -0.1001
  340MPD2    C3 5099   1.185   4.089  10.860 -0.4421 -0.7085  0.4720
  340MPD2    C4 5100   1.128   4.044  10.975  0.2432 -0.0857  0.9931
  340MPD2    C5 5101   1.111   3.915  11.010 -0.0417  0.3004  0.3014
  340MPD2     H 5102   1.269   4.027  10.669  0.4037 -0.2361  0.0365
  340MPD2    H1 5103   1.103   4.122  11.046 -1.7897  1.1233 -1.0367
  340MPD2    H2 5104   1.145   3.718  10.924 -0.3719 -0.8174  0.2197
  340MPD2    H3 5105   1.063   3.879  11.101 -1.6652  2.2643  0.2112
  340MPD2     N 5106   1.225   4.223  10.853  0.0250  0.1948  0.4082
  340MPD2    H5 5107   1.223   4.281  10.936  0.6765 -0.9689  1.2160
  340MPD2    N1 5108   1.250   3.760  10.699 -0.6818 -0.0748  0.5733
  340MPD2    H7 5109   1.244   3.661  10.720 -1.1289 -0.3889 -1.0391
  341TMC3    C1 5110   1.369   3.678  10.497 -0.7038 -0.5341 -0.3685
  341TMC3    C2 5111   1.297   3.558  10.505 -0.6051  0.8352 -0.1797
  341TMC3    C3 5112   1.327   3.451  10.420 -0.1988  0.3866 -0.0356
  341TMC3    C4 5113   1.472   3.688  10.410 -0.2911  0.4659 -0.7884
  341TMC3    C5 5114   1.494   3.580  10.329  0.2843  0.2535  0.5338
  341TMC3    C6 5115   1.422   3.466  10.324 -0.2859  0.2374 -0.2587
  341TMC3     C 5116   1.316   3.788  10.579  0.2505  0.0201  0.1258
  341TMC3     O 5117   1.351   3.893  10.539 -0.8044  0.6084  0.2432
  341TMC3     H 5118   1.209   3.546  10.567  0.1620 -0.1081  0.7343
  341TMC3    H1 5119   1.528   3.780  10.401 -1.2044  1.2686  1.6934
  341TMC3    H2 5120   1.444   3.385  10.255 -0.8131  0.8150 -1.0894
  341TMC3    C7 5121   1.591   3.603  10.219  0.5970  0.0041 -0.1440
  341TMC3    C8 5122   1.288   3.321  10.472  0.5413  0.4059 -0.4947
  341TMC3    O1 5123   1.555   3.612  10.105  0.0176  0.3307 -0.9193
  341TMC3    O2 5124   1.194   3.319  10.555  0.1062  0.2622 -0.1129
  342MPD2     C 5125   3.398   2.227   0.312 -0.1398 -0.2265 -0.2431
  342MPD2    C1 5126   3.517   2.233   0.241 -0.4508  0.1345 -1.1056
  342MPD2    C2 5127   3.569   2.353   0.211  0.3399 -0.8184  0.1620
  342MPD2    C3 5128   3.513   2.465   0.253  0.0425 -0.3300  0.1991
  342MPD2    C4 5129   3.390   2.457   0.314 -0.2588  0.6498 -1.1984
  342MPD2    C5 5130   3.341   2.339   0.354 -0.3182 -0.0221 -0.9236
  342MPD2     H 5131   3.665   2.358   0.162  0.7873 -2.8531  0.8541
  342MPD2    H1 5132   3.337   2.545   0.349 -1.6112 -1.4172  1.9384
  342MPD2    H2 5133   3.359   2.128   0.336  1.5614 -0.8380 -0.0322
  342MPD2    H3 5134   3.250   2.337   0.413  2.0017 -0.7254  2.6082
  342MPD2     N 5135   3.559   2.598   0.219  0.2927  0.6870 -0.3503
  342MPD2    H5 5136   3.504   2.676   0.252  1.4869  0.9962  0.9230
  342MPD2    N1 5137   3.593   2.112   0.216 -0.0611 -0.5570  0.3481
  342MPD2    H7 5138   3.676   2.122   0.158  1.3834  1.6292  2.7935
  343TMC3    C1 5139   3.678   1.897   0.217  0.8138  1.0608  0.3462
  343TMC3    C2 5140   3.801   1.952   0.190 -0.3248 -0.3726  0.5113
  343TMC3    C3 5141   3.899   1.861   0.149 -0.0873  0.0682  0.2422
  343TMC3    C4 5142   3.656   1.762   0.224 -0.5491  0.0980 -1.0707
  343TMC3    C5 5143   3.756   1.685   0.190 -0.4602 -0.3615 -0.9085
  343TMC3    C6 5144   3.878   1.725   0.152  0.1481  0.1950  0.5200
  343TMC3     C 5145   3.572   1.984   0.257  0.4145  0.0734  0.2357
  343TMC3     O 5146   3.474   1.942   0.316 -0.0554 -0.0510 -0.3606
  343TMC3     H 5147   3.831   2.054   0.210  0.3229 -0.5482  0.4346
  343TMC3    H1 5148   3.553   1.730   0.236 -0.5797  0.9497  0.9411
  343TMC3    H2 5149   3.948   1.647   0.124 -1.0900 -1.5429  2.2495
  343TMC3    C7 5150   3.701   1.557   0.149  0.5379  0.4815 -0.5679
  343TMC3    C8 5151   4.027   1.921   0.112  0.1871 -0.2958  0.4769
  343TMC3    O1 5152   3.615   1.500   0.218  0.1173 -0.4097 -0.2810
  343TMC3    O2 5153   4.048   2.034   0.150  0.2163 -0.3108  0.5398
  344MPD2     C 5154   4.687   1.865  10.213 -0.0664  0.3769 -0.2134
  344MPD2    C1 5155   4.715   1.872  10.346  0.4630 -0.4475 -0.5441
  344MPD2    C2 5156   0.030   1.991  10.405 -0.1913 -0.1927 -0.0935
  344MPD2    C3 5157   0.042   2.103  10.330 -0.5551  0.1304 -0.2966
  344MPD2    C4 5158   0.013   2.099  10.190 -0.3657  0.1588  0.4089
  344MPD2    C5 5159   4.707   1.977  10.131  0.0660 -0.2167 -0.7057
  344MPD2     H 5160   0.053   1.993  10.511 -0.7861  0.4568  0.0235
  344MPD2    H1 5161   0.026   2.188  10.130  1.8503  0.2705  1.0480
  344MPD2    H2 5162   4.662   1.776  10.155  2.7123 -1.5952  1.5911
  344MPD2    H3 5163   4.683   1.975  10.026  1.4261 -2.4622 -0.9669
  344MPD2     N 5164   0.084   2.227  10.384 -0.3469 -0.1514 -0.1518
  344MPD2    H5 5165   0.065   2.307  10.324 -1.2614 -2.2736 -2.7089
  344MPD2    N1 5166   4.692   1.761  10.435  0.0426  0.2162  1.0472
  344MPD2    H7 5167   4.697   1.773  10.535 -0.2791 -4.0151  1.5823
  345TMC3    C1 5168   0.110   2.399  10.548 -0.9540 -0.0446  0.0739
  345TMC3    C2 5169   0.122   2.430  10.679 -0.4483 -0.0475 -0.4238
  345TMC3    C3 5170   0.076   2.553  10.717 -0.4363 -0.6082 -0.8587
  345TMC3    C4 5171   0.079   2.491  10.451 -0.7230 -0.7759 -0.2480
  345TMC3    C5 5172   0.052   2.621  10.483 -0.6159  1.3489  0.0239
  345TMC3    C6 5173   0.049   2.647  10.620  0.3149  0.0442  0.1233
  345TMC3     C 5174   0.109   2.255  10.515 -0.3113 -0.2237 -0.6825
  345TMC3     O 5175   0.110   2.180  10.614 -0.0868  0.0755 -0.2612
  345TMC3     H 5176   0.140   2.358  10.758  2.0886  0.3471 -0.6261
  345TMC3    H1 5177   0.081   2.462  10.346 -2.6876 -2.3264  0.1214
  345TMC3    H2 5178   0.033   2.750  10.650  0.2302  0.4024 -1.1292
  345TMC3    C7 5179   0.030   2.730  10.394 -0.0547  0.2979  0.5929
  345TMC3    C8 5180   0.155   2.612  10.823 -0.0548  0.0647 -0.0315
  345TMC3    O1 5181   0.028   2.837  10.445 -0.3467 -0.1596 -0.2845
  345TMC3    O2 5182   0.101   2.711  10.875  0.3161 -0.4027 -0.1835
  346MPD2     C 5183   4.705   3.567  14.441  0.1835 -0.1124 -0.7656
  346MPD2    C1 5184   0.110   3.561  14.403 -0.0327 -0.3873 -0.2135
  346MPD2    C2 5185   0.209   3.547  14.503  0.4367  0.9278 -0.5134
  346MPD2    C3 5186   0.177   3.547  14.635  0.2151 -0.4222 -0.2294
  346MPD2    C4 5187   0.046   3.557  14.668  0.6744 -0.1380  0.8538
  346MPD2    C5 5188   4.675   3.561  14.576  0.2589  0.3896 -0.3045
  346MPD2     H 5189   0.315   3.556  14.483  0.5926  0.5261  0.1268
  346MPD2    H1 5190   0.021   3.558  14.773 -0.6040  2.5469  0.5212
  346MPD2    H2 5191   4.627   3.558  14.366 -1.1404 -1.1939  0.7344
  346MPD2    H3 5192   4.573   3.581  14.607  0.5651  2.1440 -0.4302
  346MPD2     N 5193   0.285   3.555  14.730 -0.2724 -0.3216  0.0528
  346MPD2    H5 5194   0.379   3.567  14.693  0.3983  0.5586  2.0769
  346MPD2    N1 5195   0.151   3.582  14.266 -0.1939  0.2045 -0.5954
  346MPD2    H7 5196   0.248   3.562  14.242 -0.2813  0.4178 -1.1460
  347TMC3    C1 5197   0.383   3.629  14.926 -0.1927  1.2007 -0.3588
  347TMC3    C2 5198   0.467   3.705  14.851 -0.4593  0.3754  0.0009
  347TMC3    C3 5199   0.571   3.769  14.920 -0.0125  0.1160  0.0823
  347TMC3    C4 5200   0.407   3.603  15.058 -0.1677 -0.3100  0.0937
  347TMC3    C5 5201   0.518   3.656  15.120 -0.5401  0.0762 -0.5937
  347TMC3    C6 5202   0.605   3.746  15.051 -0.0083  0.0786  0.0899
  347TMC3     C 5203   0.268   3.561  14.865 -0.8367  0.2673  0.6620
  347TMC3     O 5204   0.172   3.535  14.935  0.7741  0.6071 -0.0542
  347TMC3     H 5205   0.451   3.736  14.748 -2.4507 -2.4107 -0.5304
  347TMC3    H1 5206   0.346   3.533  15.114  0.8841 -0.0915  1.5154
  347TMC3    H2 5207   0.694   3.795  15.087  0.9034 -1.4987  0.0102
  347TMC3    C7 5208   0.562   3.598  15.250  0.0878  0.4980  0.0412
  347TMC3    C8 5209   0.648   3.873  14.856  0.6362  0.3047 -0.0387
  347TMC3    O1 5210   0.484   3.558  15.336 -0.1350 -0.1235 -1.0891
  347TMC3    O2 5211   0.642   3.864  14.731 -0.2182 -0.6317  0.7668
  348MPD2     C 5212   3.443   3.292  12.505  0.4475 -0.1782 -0.8094
  348MPD2    C1 5213   3.431   3.212  12.393  0.3248  0.0225  0.3709
  348MPD2    C2 5214   3.430   3.263  12.269 -0.6311 -0.0716  0.3422
  348MPD2    C3 5215   3.463   3.396  12.250  0.0218  0.4198 -0.0602
  348MPD2    C4 5216   3.517   3.464  12.358  0.1803  1.4042  0.4598
  348MPD2    C5 5217   3.494   3.419  12.484  0.2874 -0.2331  0.9658
  348MPD2     H 5218   3.409   3.191  12.190 -1.0907 -0.8872  1.1977
  348MPD2    H1 5219   3.563   3.561  12.343 -0.1703  1.4257 -0.5181
  348MPD2    H2 5220   3.423   3.262  12.607 -1.4103 -1.2846 -1.4881
  348MPD2    H3 5221   3.508   3.481  12.571  0.0139 -0.0926  0.9077
  348MPD2     N 5222   3.466   3.468  12.131 -0.0534 -0.1612  0.2757
  348MPD2    H5 5223   3.504   3.561  12.143 -0.1566 -0.0382 -0.3690
  348MPD2    N1 5224   3.414   3.065  12.401 -0.2803 -0.3140 -0.8594
  348MPD2    H7 5225   3.418   3.014  12.314  0.9594 -1.9955  0.1761
  349TMC3    C1 5226   3.395   2.847  12.483  0.2944 -0.1273  0.1349
  349TMC3    C2 5227   3.506   2.781  12.533  0.0064  0.7060  0.0181
  349TMC3    C3 5228   3.568   2.685  12.466  0.1850 -0.6737 -0.2045
  349TMC3    C4 5229   3.368   2.826  12.346  0.1523 -0.5421  0.1885
  349TMC3    C5 5230   3.454   2.743  12.279  0.2753 -0.8002  0.2308
  349TMC3    C6 5231   3.559   2.680  12.332  0.0647  0.1667 -0.0452
  349TMC3     C 5232   3.407   2.991  12.515  0.1882  0.0705 -0.2245
  349TMC3     O 5233   3.446   3.018  12.628  0.3021  0.1664  0.3975
  349TMC3     H 5234   3.539   2.792  12.636 -1.5332 -2.3860  0.8439
  349TMC3    H1 5235   3.294   2.878  12.287 -0.0081 -1.1274 -0.1305
  349TMC3    H2 5236   3.606   2.613  12.261 -0.2367 -0.9296  0.7747
  349TMC3    C7 5237   3.493   2.812  12.160 -0.3447 -0.2324  0.8875
  349TMC3    C8 5238   3.627   2.572  12.534  0.4440  0.2058  0.0675
  349TMC3    O1 5239   3.406   2.854  12.082  0.4578  0.2725 -0.7757
  349TMC3    O2 5240   3.610   2.551  12.654 -1.0893  0.6527 -0.0111
  350MPD2     C 5241   2.864   1.175   9.465  0.0477 -0.4043  0.3089
  350MPD2    C1 5242   2.886   1.134   9.593 -0.1743  0.2436 -0.0886
  350MPD2    C2 5243   3.005   1.169   9.651  0.2495 -0.5955 -0.6151
  350MPD2    C3 5244   3.101   1.243   9.584 -0.4012  0.7531  0.0547
  350MPD2    C4 5245   3.068   1.292   9.460  0.5854 -0.9981 -0.0633
  350MPD2    C5 5246   2.949   1.258   9.406 -0.2532 -0.3060 -0.6492
  350MPD2     H 5247   3.027   1.133   9.751 -0.6617 -0.6894 -0.4479
  350MPD2    H1 5248   3.142   1.355   9.411 -0.2036  1.0518  1.3838
  350MPD2    H2 5249   2.772   1.151   9.413 -0.1916  0.1326  0.4855
  350MPD2    H3 5250   2.915   1.291   9.308 -0.4640  1.0216 -0.1376
  350MPD2     N 5251   3.223   1.245   9.647 -0.7145 -1.0251  0.2876
  350MPD2    H5 5252   3.226   1.194   9.735 -2.2036 -1.5799  0.0097
  350MPD2    N1 5253   2.799   1.049   9.666  0.3159 -0.2398 -0.0140
  350MPD2    H7 5254   2.809   1.038   9.766 -1.4167  0.6480  0.2607
  351TMC3    C1 5255   2.651   0.879   9.721  0.0858 -0.1005  0.0500
  351TMC3    C2 5256   2.745   0.828   9.814  0.2886 -0.2008  0.3516
  351TMC3    C3 5257   2.705   0.718   9.883  0.4423 -1.0789 -0.9162
  351TMC3    C4 5258   2.532   0.824   9.697  0.2187  0.5822 -0.4035
  351TMC3    C5 5259   2.495   0.720   9.773  0.1599 -0.8617 -0.8607
  351TMC3    C6 5260   2.589   0.656   9.858 -0.2822  0.6472  0.1927
  351TMC3     C 5261   2.692   0.972   9.623 -0.0819 -0.3539 -0.0856
  351TMC3     O 5262   2.638   0.984   9.513  0.0023  0.6004 -0.4969
  351TMC3     H 5263   2.848   0.862   9.823  0.5337 -0.6362 -0.7950
  351TMC3    H1 5264   2.466   0.865   9.622 -1.7885  2.1119  2.1963
  351TMC3    H2 5265   2.586   0.549   9.870  0.8448  0.7173  1.1154
  351TMC3    C7 5266   2.374   0.656   9.741  1.3995  0.9419  0.1457
  351TMC3    C8 5267   2.819   0.633   9.911 -0.7425  0.2251  0.0254
  351TMC3    O1 5268   2.324   0.688   9.635 -0.3650 -0.0315 -0.1282
  351TMC3    O2 5269   2.921   0.644   9.848  0.0989 -0.2461  0.2016
  352MPD2     C 5270   1.076   3.704   0.817 -0.3858  0.1218  0.3050
  352MPD2    C1 5271   1.093   3.800   0.906 -0.3864 -0.9165 -0.3305
  352MPD2    C2 5272   1.106   3.765   1.037 -0.4626  0.5833  0.1410
  352MPD2    C3 5273   1.112   3.628   1.075  0.1245 -0.0536  0.3515
  352MPD2    C4 5274   1.093   3.531   0.979  0.1402 -0.3822  0.1792
  352MPD2    C5 5275   1.068   3.573   0.850 -0.3309 -0.9277  0.0015
  352MPD2     H 5276   1.111   3.839   1.116 -0.3674 -0.0716  0.7533
  352MPD2    H1 5277   1.074   3.433   1.022 -2.5921 -0.2009 -0.6052
  352MPD2    H2 5278   1.046   3.731   0.716  0.8884  1.5640  0.3140
  352MPD2    H3 5279   1.044   3.494   0.780  0.1694 -0.8778 -0.2299
  352MPD2     N 5280   1.109   3.577   1.205  0.4480  0.1988  0.5972
  352MPD2    H5 5281   1.096   3.478   1.218 -2.6825  0.4250 -0.9557
  352MPD2    N1 5282   1.070   3.927   0.854 -0.6643  0.2612 -0.1115
  352MPD2    H7 5283   1.047   3.937   0.756  0.3623 -2.0639 -0.5773
  353TMC3    C1 5284   1.202   3.567   1.414  0.3125  0.5883 -0.4088
  353TMC3    C2 5285   1.311   3.593   1.490 -0.1307 -0.4338  0.1780
  353TMC3    C3 5286   1.358   3.502   1.579  0.2970 -0.2650  0.3367
  353TMC3    C4 5287   1.133   3.448   1.426  0.1573 -0.1494  0.1018
  353TMC3    C5 5288   1.188   3.354   1.508  0.0266  0.3022  0.7112
  353TMC3    C6 5289   1.304   3.376   1.586 -0.2484  0.6320 -0.3354
  353TMC3     C 5290   1.178   3.645   1.304  0.1983  0.4929 -0.5205
  353TMC3     O 5291   1.220   3.762   1.306 -0.0718  0.4172 -0.1637
  353TMC3     H 5292   1.347   3.695   1.491 -2.6645  0.5007 -2.2562
  353TMC3    H1 5293   1.047   3.425   1.364 -0.8059  1.7607  0.7133
  353TMC3    H2 5294   1.316   3.310   1.671 -0.5676  1.2606  0.2017
  353TMC3    C7 5295   1.129   3.216   1.519 -0.8262  0.2507  0.2246
  353TMC3    C8 5296   1.502   3.516   1.599  0.2185  0.3042  0.4386
  353TMC3    O1 5297   1.198   3.126   1.564  0.6780  0.0219  0.2385
  353TMC3    O2 5298   1.563   3.619   1.569  0.3401 -0.4181  0.0238
  354TMC3    C1 5299   2.730   4.372  13.474 -0.5608 -0.6566  0.8233
  354TMC3    C2 5300   2.696   4.486  13.415  1.0225  1.0821 -0.4750
  354TMC3    C3 5301   2.733   4.508  13.286  0.4325 -0.1648  0.7028
  354TMC3    C4 5302   2.783   4.271  13.396  0.3852 -0.3268 -0.1668
  354TMC3    C5 5303   2.803   4.285  13.264 -0.7009 -0.4061 -0.8439
  354TMC3    C6 5304   2.778   4.406  13.208  0.6374 -0.3390 -0.4463
  354TMC3     C 5305   2.640   4.329  13.570  1.0498 -0.2889  0.2687
  354TMC3     O 5306   2.621   4.211  13.573  0.3080  0.0772 -0.3040
  354TMC3     H 5307   2.640   4.562  13.469 -0.2488  0.3952 -0.8312
  354TMC3    H1 5308   2.823   4.183  13.445  0.0523 -0.0270  0.6461
  354TMC3    H2 5309   2.792   4.422  13.102 -1.3332 -0.8240 -0.7838
  354TMC3    C7 5310   2.942   4.246  13.236 -0.3672 -0.0693 -0.0485
  354TMC3    C8 5311   2.764   4.644  13.245 -0.6580  0.4180  0.3573
  354TMC3    O1 5312   2.975   4.133  13.268 -0.1396 -0.2135 -0.8446
  354TMC3    O2 5313   2.847   4.642  13.154  0.1736  0.2689 -0.6335
  355MPD2     C 5314   3.019   0.842  12.054  0.5888 -1.3060  0.0682
  355MPD2    C1 5315   3.084   0.764  11.961  0.2684 -0.2236  0.2860
  355MPD2    C2 5316   3.178   0.669  12.006  0.3462 -0.2758  0.3739
  355MPD2    C3 5317   3.194   0.640  12.139 -0.6000 -0.4226  0.0640
  355MPD2    C4 5318   3.119   0.717  12.229 -0.1245  0.3915  0.3840
  355MPD2    C5 5319   3.033   0.812  12.187  0.4808 -0.4137  0.3349
  355MPD2     H 5320   3.250   0.624  11.939 -0.3985  0.2810 -0.8007
  355MPD2    H1 5321   3.130   0.708  12.337  2.4096  1.3027  0.1982
  355MPD2    H2 5322   2.966   0.932  12.026  2.4618 -0.5047 -0.8932
  355MPD2    H3 5323   2.992   0.877  12.263 -3.1311 -0.7202 -1.3409
  355MPD2     N 5324   3.302   0.567  12.195 -0.4613  0.9911  0.5028
  355MPD2    H5 5325   3.329   0.573  12.293  0.4074  0.2087  0.3015
  355MPD2    N1 5326   3.055   0.791  11.825 -0.8550 -0.8319 -0.3690
  355MPD2    H7 5327   2.987   0.860  11.794 -1.6967 -1.4121  0.1700
  356TMC3    C1 5328   3.496   0.420  12.185  0.0772  0.2235  0.1697
  356TMC3    C2 5329   3.584   0.376  12.100  0.5690 -0.5190  0.2906
  356TMC3    C3 5330   3.707   0.432  12.088  0.5346 -0.2273  0.2310
  356TMC3    C4 5331   3.543   0.491  12.292  0.3269 -0.3935  0.1681
  356TMC3    C5 5332   3.672   0.532  12.298  0.0473  0.3509  0.6665
  356TMC3    C6 5333   3.756   0.513  12.185  0.0509 -0.3699  0.0978
  356TMC3     C 5334   3.365   0.468  12.124  0.2148  0.4654  0.0086
  356TMC3     O 5335   3.336   0.414  12.018 -0.4234 -0.1581 -0.1757
  356TMC3     H 5336   3.555   0.314  12.016  1.5722  1.7125 -1.7088
  356TMC3    H1 5337   3.479   0.517  12.376  0.6901  0.4411  0.1782
  356TMC3    H2 5338   3.858   0.549  12.177 -0.6892  0.7963 -4.1754
  356TMC3    C7 5339   3.721   0.580  12.428 -0.0960  0.1654  0.4272
  356TMC3    C8 5340   3.750   0.452  11.956  0.1457 -0.3669 -0.3611
  356TMC3    O1 5341   3.689   0.513  12.525 -0.7751 -0.7577  0.0477
  356TMC3    O2 5342   3.718   0.367  11.878 -0.3126  0.0911 -0.5655
  357MPD2     C 5343   2.586   1.254   1.637  0.1006  0.5169 -0.6057
  357MPD2    C1 5344   2.531   1.219   1.753  0.2731  0.7113 -0.1602
  357MPD2    C2 5345   2.392   1.236   1.774  0.3383 -0.1820 -0.1651
  357MPD2    C3 5346   2.307   1.281   1.674 -0.3359  0.4058  0.3703
  357MPD2    C4 5347   2.370   1.311   1.558  0.1761 -0.5235  0.2804
  357MPD2    C5 5348   2.503   1.301   1.537 -0.9916 -0.9884 -0.1292
  357MPD2     H 5349   2.350   1.189   1.862 -0.3384  1.3278  0.3224
  357MPD2    H1 5350   2.314   1.333   1.468  0.8051  0.4329  0.1171
  357MPD2    H2 5351   2.691   1.244   1.616  0.6085 -0.7963  2.6339
  357MPD2    H3 5352   2.541   1.338   1.442  1.1684 -0.1885  1.0363
  357MPD2     N 5353   2.166   1.286   1.691  0.6133 -0.0422 -0.2215
  357MPD2    H5 5354   2.118   1.334   1.616  0.3789  0.7250  0.4219
  357MPD2    N1 5355   2.618   1.163   1.851  0.4016  0.6123 -0.4219
  357MPD2    H7 5356   2.714   1.143   1.825 -0.1847 -0.0462 -2.0773
  358TMC3    C1 5357   2.651   0.998   2.025 -0.0558  0.0741  0.1747
  358TMC3    C2 5358   2.651   0.899   1.930  0.0883 -1.0017 -0.9863
  358TMC3    C3 5359   2.650   0.771   1.975 -0.1085 -0.0007 -0.0986
  358TMC3    C4 5360   2.632   0.983   2.155  0.8044 -0.2111  0.5405
  358TMC3    C5 5361   2.642   0.855   2.203  0.0024  0.4360 -0.4740
  358TMC3    C6 5362   2.649   0.749   2.112  0.0123  0.1243  0.1832
  358TMC3     C 5363   2.572   1.111   1.971 -0.6370 -0.9817 -0.5146
  358TMC3     O 5364   2.470   1.129   2.036  0.4468  0.1246 -0.0778
  358TMC3     H 5365   2.632   0.929   1.828 -3.3759 -1.0472 -0.3455
  358TMC3    H1 5366   2.615   1.065   2.224  1.1755  0.5744 -0.2980
  358TMC3    H2 5367   2.639   0.650   2.155  0.5860 -0.1933 -0.4133
  358TMC3    C7 5368   2.592   0.822   2.334  0.1064  0.0773 -0.1806
  358TMC3    C8 5369   2.571   0.678   1.896  0.0125 -0.4048 -0.5002
  358TMC3    O1 5370   2.580   0.703   2.368 -0.7763  0.0355  0.0807
  358TMC3    O2 5371   2.476   0.728   1.837 -0.0924 -0.1186 -0.2017
  359MPD2     C 5372   2.863   4.347  12.440 -0.0328 -0.1895 -0.0839
  359MPD2    C1 5373   2.920   4.229  12.446 -0.1566 -0.8418  0.0513
  359MPD2    C2 5374   2.845   4.134  12.508 -0.4798  0.1963 -0.4736
  359MPD2    C3 5375   2.724   4.157  12.572 -0.5626  0.2118  0.7239
  359MPD2    C4 5376   2.673   4.283  12.564 -0.0027 -0.2390  0.6762
  359MPD2    C5 5377   2.742   4.375  12.498  0.0901 -1.6407  1.0962
  359MPD2     H 5378   2.894   4.037  12.505  0.2733  0.5765 -0.5185
  359MPD2    H1 5379   2.576   4.306  12.608  0.5920  0.7196  1.4588
  359MPD2    H2 5380   2.910   4.426  12.382 -0.4616  0.3796  0.3345
  359MPD2    H3 5381   2.685   4.464  12.473  0.9980 -1.0866  1.0089
  359MPD2     N 5382   2.648   4.064  12.649 -0.3452 -0.0407  0.4111
  359MPD2    H5 5383   2.572   4.105  12.701  2.6051  0.7091  4.1914
  359MPD2    N1 5384   3.048   4.194  12.399 -0.4517 -0.6076  0.4918
  359MPD2    H7 5385   3.084   4.100  12.413 -1.3923 -0.9014  0.9476
  360TMC3    C1 5386   3.261   4.215  12.309 -0.7035 -0.0705  1.1413
  360TMC3    C2 5387   3.377   4.281  12.298  0.3730  0.1157  1.6821
  360TMC3    C3 5388   3.484   4.227  12.238 -0.6789 -0.7178  0.5172
  360TMC3    C4 5389   3.255   4.085  12.269  0.3344  0.6810  0.6416
  360TMC3    C5 5390   3.358   4.033  12.197 -0.6465  0.0686  0.0329
  360TMC3    C6 5391   3.470   4.107  12.180 -0.1732  0.5819  0.1000
  360TMC3     C 5392   3.137   4.284  12.336  0.2036 -0.6195  0.5132
  360TMC3     O 5393   3.141   4.407  12.332 -0.5230  0.0337  0.1685
  360TMC3     H 5394   3.373   4.384  12.333 -1.3560 -0.2360  2.5249
  360TMC3    H1 5395   3.162   4.030  12.262 -0.2252  1.5890  0.9662
  360TMC3    H2 5396   3.548   4.071  12.113 -0.8064  2.2920 -1.5291
  360TMC3    C7 5397   3.320   3.976  12.067 -0.3535  0.8557  0.1641
  360TMC3    C8 5398   3.599   4.307  12.198 -0.1672 -0.0667 -0.7121
  360TMC3    O1 5399   3.388   4.006  11.970  0.1755 -0.2162  0.4448
  360TMC3    O2 5400   3.589   4.424  12.225 -0.4690 -0.0611  0.7888
  361MPD2     C 5401   4.715   2.689  16.727  0.0108  0.1902 -0.3515
  361MPD2    C1 5402   0.017   2.751  16.842  0.0649 -0.7453 -0.7431
  361MPD2    C2 5403   0.144   2.746  16.900 -0.1407  0.3132 -0.6785
  361MPD2    C3 5404   0.241   2.663  16.840  0.0154 -0.1668  0.0245
  361MPD2    C4 5405   0.203   2.592  16.721  0.1938 -0.1192  0.4116
  361MPD2    C5 5406   0.079   2.604  16.670 -0.1514 -0.5231 -0.7744
  361MPD2     H 5407   0.156   2.798  16.994  1.3480  2.6385 -2.1468
  361MPD2    H1 5408   0.265   2.518  16.670  0.0003  0.3721 -0.5413
  361MPD2    H2 5409   4.611   2.687  16.694 -0.0289  2.6971 -0.3968
  361MPD2    H3 5410   0.048   2.547  16.583  2.6321 -1.9535 -0.8256
  361MPD2     N 5411   0.368   2.641  16.893  0.1411  0.4229 -0.0600
  361MPD2    H5 5412   0.423   2.569  16.848  1.1056  0.6734  0.7042
  361MPD2    N1 5413   4.652   2.838  16.905 -0.9393  0.4220 -0.1639
  361MPD2    H7 5414   4.689   2.889  16.984 -1.8109 -0.7815  1.0237
  362TMC3    C1 5415   4.431   2.937  16.930  0.0450  0.3695  0.1808
  362TMC3    C2 5416   4.320   2.912  17.001 -0.4047  0.4528  0.0976
  362TMC3    C3 5417   4.248   3.015  17.054 -0.1654 -0.6242 -0.0386
  362TMC3    C4 5418   4.477   3.061  16.910 -0.2588  0.3543  0.6360
  362TMC3    C5 5419   4.401   3.165  16.964  0.6642 -0.7854  0.6513
  362TMC3    C6 5420   4.291   3.143  17.045  0.4995 -0.1179  0.1047
  362TMC3     C 5421   4.512   2.828  16.885  0.0675 -0.1119  0.4220
  362TMC3     O 5422   4.458   2.730  16.834 -0.5510 -0.2448  0.4662
  362TMC3     H 5423   4.288   2.809  17.012  1.7438 -0.0946  1.3509
  362TMC3    H1 5424   4.564   3.078  16.848 -0.4671 -3.4657 -0.7291
  362TMC3    H2 5425   4.245   3.223  17.102  3.0620  2.0922 -0.9144
  362TMC3    C7 5426   4.408   3.290  16.903  0.0898 -0.0939  0.2423
  362TMC3    C8 5427   4.140   2.983  17.140 -0.1989  0.0136 -0.3165
  362TMC3    O1 5428   4.304   3.342  16.875  0.1615  0.0658 -0.1950
  362TMC3    O2 5429   4.126   2.867  17.172  0.3486  0.4665  0.2620
  363TMC3    C1 5430   4.130   1.216   9.494 -0.4262 -0.5084 -0.1411
  363TMC3    C2 5431   4.214   1.133   9.564 -0.1833  0.6639 -0.1924
  363TMC3    C3 5432   4.166   1.010   9.594 -0.1814 -0.3480  0.6060
  363TMC3    C4 5433   4.007   1.178   9.439 -0.5598  0.4209 -0.2941
  363TMC3    C5 5434   3.968   1.053   9.487 -0.4420 -0.0932 -0.4848
  363TMC3    C6 5435   4.046   0.967   9.555 -0.1202 -0.3279  0.3873
  363TMC3     C 5436   4.183   1.335   9.433 -1.0782 -0.2504 -0.1564
  363TMC3     O 5437   4.111   1.435   9.446 -0.6598  0.1079  0.0045
  363TMC3     H 5438   4.307   1.174   9.600  0.1057  0.7169 -0.9977
  363TMC3    H1 5439   3.950   1.246   9.376 -0.0174  2.4569  1.4189
  363TMC3    H2 5440   4.011   0.872   9.594 -2.0470 -0.4296 -1.6132
  363TMC3    C7 5441   3.838   1.009   9.448  0.6706 -0.7513  0.5656
  363TMC3    C8 5442   4.278   0.922   9.627  0.3392 -0.3208 -0.4593
  363TMC3    O1 5443   3.827   0.886   9.441 -0.0885  0.3861  0.4133
  363TMC3    O2 5444   4.370   0.969   9.692 -0.2495 -0.8776 -0.2735
  364MPD2     C 5445   2.184   0.524  10.943  0.1456  0.8889 -0.6258
  364MPD2    C1 5446   2.236   0.457  10.832  0.7368  0.1040  0.1660
  364MPD2    C2 5447   2.248   0.316  10.835  0.6646 -0.6106  1.2129
  364MPD2    C3 5448   2.209   0.240  10.940 -0.1513 -0.0460 -0.1579
  364MPD2    C4 5449   2.162   0.311  11.044 -1.0968  0.3674 -1.1149
  364MPD2    C5 5450   2.158   0.441  11.050 -0.0249  0.1600  0.7449
  364MPD2     H 5451   2.297   0.275  10.747 -0.9875  1.2152 -0.5517
  364MPD2    H1 5452   2.133   0.254  11.132 -2.8810  0.7343 -1.4498
  364MPD2    H2 5453   2.183   0.632  10.954 -0.3068  1.0806 -2.5750
  364MPD2    H3 5454   2.120   0.489  11.140  1.0368  1.6377  0.4067
  364MPD2     N 5455   2.242   0.106  10.959  0.0201  0.7159  0.1380
  364MPD2    H5 5456   2.230   0.071  11.053 -1.6060 -0.2382 -0.4209
  364MPD2    N1 5457   2.272   0.539  10.721 -0.1135 -0.1495  0.0794
  364MPD2    H7 5458   2.267   0.638  10.743  0.9993  0.4619 -2.3804
  365TMC3    C1 5459   2.320   0.602  10.497 -0.1518 -0.3388 -0.5429
  365TMC3    C2 5460   2.299   0.564  10.371 -0.7366 -1.4972  0.1937
  365TMC3    C3 5461   2.392   0.608  10.276 -0.0708 -0.3503 -0.6463
  365TMC3    C4 5462   2.419   0.696  10.528 -0.7919 -0.1762 -1.0903
  365TMC3    C5 5463   2.492   0.739  10.425 -0.4170  0.5855  0.1013
  365TMC3    C6 5464   2.489   0.697  10.296  0.1464  0.1249  0.4863
  365TMC3     C 5465   2.289   0.500  10.590 -0.0933 -0.5647  0.4074
  365TMC3     O 5466   2.279   0.388  10.544 -0.4845 -0.3783  0.0124
  365TMC3     H 5467   2.229   0.485  10.352  0.0125 -2.1713  0.2286
  365TMC3    H1 5468   2.450   0.705  10.632 -2.5102  2.4989 -0.8236
  365TMC3    H2 5469   2.570   0.713  10.226 -0.0528  3.9871  1.1370
  365TMC3    C7 5470   2.615   0.810  10.462 -0.3910  0.3995  0.3508
  365TMC3    C8 5471   2.451   0.492  10.201 -0.2256  0.3459 -0.1925
  365TMC3    O1 5472   2.706   0.813  10.382  0.2012 -0.6061  0.1794
  365TMC3    O2 5473   2.531   0.517  10.112  0.1846  0.4868 -0.0879
  366MPD2     C 5474   0.142   1.187  15.765 -0.4091  0.0134  0.4625
  366MPD2    C1 5475   0.179   1.262  15.653  0.0667  0.7680  0.2962
  366MPD2    C2 5476   0.256   1.194  15.555 -0.7774 -0.0076  0.8586
  366MPD2    C3 5477   0.300   1.064  15.573  0.2172 -0.1150  0.5268
  366MPD2    C4 5478   0.254   0.993  15.681 -0.6892 -0.2264  0.2633
  366MPD2    C5 5479   0.176   1.057  15.775 -0.1284 -0.2340 -0.4219
  366MPD2     H 5480   0.281   1.238  15.459  1.6806 -0.7890  1.1393
  366MPD2    H1 5481   0.275   0.888  15.697 -2.1555 -0.8067 -1.7349
  366MPD2    H2 5482   0.073   1.223  15.841  0.1610 -1.4428  1.6748
  366MPD2    H3 5483   0.141   0.999  15.860 -0.9932 -0.9546 -1.2735
  366MPD2     N 5484   0.418   1.023  15.502  0.0570  0.3559  0.6876
  366MPD2    H5 5485   0.453   1.091  15.435  2.5489 -1.9666 -0.3462
  366MPD2    N1 5486   0.154   1.398  15.635  0.0785 -0.0068  0.1016
  366MPD2    H7 5487   0.180   1.452  15.553  1.6899  0.2133  0.7640
  367TMC3    C1 5488   0.141   1.624  15.720  1.1838 -0.4363 -0.1300
  367TMC3    C2 5489   0.192   1.694  15.824 -0.7241  0.0368  0.4826
  367TMC3    C3 5490   0.234   1.816  15.795 -0.2043  0.0420 -0.0559
  367TMC3    C4 5491   0.137   1.673  15.590 -0.9479  0.3917  0.8975
  367TMC3    C5 5492   0.190   1.796  15.570  0.9527 -0.2707  0.0105
  367TMC3    C6 5493   0.229   1.875  15.674 -0.0664  0.1448 -0.0566
  367TMC3     C 5494   0.131   1.482  15.741 -0.7540  0.4197 -0.0071
  367TMC3     O 5495   0.120   1.449  15.855 -0.2526 -0.4321  0.5693
  367TMC3     H 5496   0.207   1.657  15.925 -1.7544  1.2765  1.0766
  367TMC3    H1 5497   0.078   1.628  15.511  0.1979 -2.2423  1.5401
  367TMC3    H2 5498   0.266   1.976  15.660 -0.1756  0.2509  0.4090
  367TMC3    C7 5499   0.156   1.871  15.445 -0.3350 -0.1146  0.9759
  367TMC3    C8 5500   0.304   1.885  15.904  0.8506 -0.5831  0.2917
  367TMC3    O1 5501   0.177   1.988  15.444  0.0056 -0.1409  0.4337
  367TMC3    O2 5502   0.375   1.820  15.980  0.5537  0.0223 -0.0117
  368MPD2     C 5503   1.590   2.777  13.251  0.9889 -0.3182  0.3634
  368MPD2    C1 5504   1.541   2.864  13.150  0.2655  0.3321 -0.0986
  368MPD2    C2 5505   1.627   2.905  13.045 -0.2455 -0.1097  1.6460
  368MPD2    C3 5506   1.755   2.847  13.036  0.1742  0.2529 -0.4562
  368MPD2    C4 5507   1.800   2.763  13.133 -0.6050  0.2822  0.0991
  368MPD2    C5 5508   1.714   2.728  13.238  0.4956  0.0687 -0.2073
  368MPD2     H 5509   1.603   2.985  12.975  3.8456 -0.5658 -0.3136
  368MPD2    H1 5510   1.900   2.721  13.136 -0.2876  1.0883  0.5741
  368MPD2    H2 5511   1.534   2.756  13.341  0.5319 -0.7835 -0.0310
  368MPD2    H3 5512   1.746   2.663  13.319  0.8737 -0.3667 -0.7027
  368MPD2     N 5513   1.834   2.885  12.926  0.3401 -0.5560 -0.1696
  368MPD2    H5 5514   1.932   2.859  12.921  0.0959 -1.7393  1.0369
  368MPD2    N1 5515   1.417   2.922  13.183 -0.7289  0.0833  0.3575
  368MPD2    H7 5516   1.369   2.888  13.266 -1.5412  0.6838  0.1285
  369TMC3    C1 5517   1.253   3.094  13.170  0.7460  0.5374  0.5076
  369TMC3    C2 5518   1.252   3.231  13.142 -0.0138  0.3881 -0.2057
  369TMC3    C3 5519   1.153   3.308  13.212  0.7867 -0.8680 -0.3202
  369TMC3    C4 5520   1.170   3.036  13.266  0.1423  0.2562 -0.1721
  369TMC3    C5 5521   1.065   3.114  13.321 -0.6522 -0.0861  0.4842
  369TMC3    C6 5522   1.052   3.249  13.286 -0.3610  0.1705 -0.2000
  369TMC3     C 5523   1.355   3.019  13.104  0.3249  0.4255 -0.0581
  369TMC3     O 5524   1.387   3.059  12.992 -0.1238  0.1541 -0.4527
  369TMC3     H 5525   1.316   3.279  13.069 -0.2376  0.1255 -0.5788
  369TMC3    H1 5526   1.176   2.930  13.288 -0.8406  0.5060  1.2311
  369TMC3    H2 5527   0.989   3.314  13.345  0.3553  0.7933 -0.1145
  369TMC3    C7 5528   0.980   3.066  13.421  0.2143 -0.0091  0.0469
  369TMC3    C8 5529   1.185   3.452  13.221  0.5248 -1.1212  0.1294
  369TMC3    O1 5530   1.025   3.009  13.520  0.2166 -0.5680 -0.2119
  369TMC3    O2 5531   1.092   3.530  13.230  0.4031  0.3712  0.4231
  370TMC3    C1 5532   0.985   3.897  16.369 -0.1701 -0.0952  0.0568
  370TMC3    C2 5533   0.906   3.811  16.442  0.4455 -0.0909  0.5412
  370TMC3    C3 5534   0.888   3.688  16.388 -0.1452  0.2322 -0.3093
  370TMC3    C4 5535   1.023   3.870  16.240  0.1082 -0.1830  0.1565
  370TMC3    C5 5536   1.008   3.741  16.199 -0.1348 -0.1017 -0.8678
  370TMC3    C6 5537   0.938   3.648  16.269  0.1867 -0.2951 -0.1482
  370TMC3     C 5538   1.066   3.987  16.452  0.9470 -0.8747 -0.4324
  370TMC3     O 5539   1.055   3.981  16.573 -0.4182  0.4724 -0.2641
  370TMC3     H 5540   0.882   3.838  16.544 -0.6913 -2.6205  0.9458
  370TMC3    H1 5541   1.094   3.930  16.185 -1.2824  0.6333 -0.7542
  370TMC3    H2 5542   0.929   3.546  16.236  1.1247 -0.5416  0.3626
  370TMC3    C7 5543   1.058   3.705  16.068  1.5738  0.4090  0.3735
  370TMC3    C8 5544   0.854   3.585  16.477  0.1151 -0.8264  1.0762
  370TMC3    O1 5545   1.047   3.791  15.982  0.2871 -0.6258  0.2735
  370TMC3    O2 5546   0.894   3.474  16.445 -0.4181  0.3672  0.1211
  371TMC3    C1 5547   1.969   1.868  15.681  0.2305 -0.7133  0.0423
  371TMC3    C2 5548   1.863   1.895  15.760  0.0624 -0.4208  0.7106
  371TMC3    C3 5549   1.795   2.010  15.741 -0.6988 -0.2095 -0.0641
  371TMC3    C4 5550   2.020   1.965  15.596  0.4135  0.2846 -0.3159
  371TMC3    C5 5551   1.947   2.077  15.576 -0.3171 -0.6499  0.5986
  371TMC3    C6 5552   1.829   2.104  15.645 -0.7785  0.0642  0.2203
  371TMC3     C 5553   2.063   1.771  15.737  0.1821  0.6598  0.7347
  371TMC3     O 5554   2.183   1.785  15.743 -0.1687 -0.3454 -1.0521
  371TMC3     H 5555   1.827   1.826  15.835  0.5804  1.3833  2.6090
  371TMC3    H1 5556   2.111   1.952  15.540  0.1733 -1.5176 -0.2841
  371TMC3    H2 5557   1.767   2.188  15.616 -1.1183  0.6934  2.8137
  371TMC3    C7 5558   1.991   2.191  15.494  0.1302  0.1925  0.1953
  371TMC3    C8 5559   1.687   2.047  15.830 -0.3171 -0.2995  0.5543
  371TMC3    O1 5560   1.930   2.302  15.505  0.4080 -0.4728 -0.1735
  371TMC3    O2 5561   1.648   1.965  15.911  0.0975 -0.1916 -0.0004
  372MPD2     C 5562   1.397   3.183  13.489 -0.0595  0.3447 -0.6683
  372MPD2    C1 5563   1.518   3.113  13.508  0.1455  0.5676  0.1948
  372MPD2    C2 5564   1.539   3.026  13.610  0.0160  0.2826 -0.3867
  372MPD2    C3 5565   1.441   3.006  13.705  0.2146 -0.5923  0.1368
  372MPD2    C4 5566   1.319   3.069  13.689  0.2948 -0.3806  0.9080
  372MPD2    C5 5567   1.301   3.154  13.584  0.2231  0.2239  0.6801
  372MPD2     H 5568   1.641   2.993  13.620 -0.0387  0.4440  0.6951
  372MPD2    H1 5569   1.228   3.036  13.738 -0.3638  1.2268  0.7949
  372MPD2    H2 5570   1.367   3.258  13.417 -0.2759 -1.1987 -2.1907
  372MPD2    H3 5571   1.208   3.209  13.575  0.9503  1.3295  0.0293
  372MPD2     N 5572   1.454   2.905  13.809  0.0497  0.9098  0.5302
  372MPD2    H5 5573   1.538   2.848  13.797 -1.2419 -0.4539 -2.0253
  372MPD2    N1 5574   1.624   3.125  13.424 -0.3355 -0.0839  0.0651
  372MPD2    H7 5575   1.706   3.069  13.445  1.7821  2.3302 -1.7256
  373TMC3    C1 5576   1.432   2.806  14.020 -0.6008 -0.1010  0.2707
  373TMC3    C2 5577   1.445   2.872  14.134  0.9009 -0.2044  0.1971
  373TMC3    C3 5578   1.568   2.866  14.194  0.2629  0.5916 -0.4401
  373TMC3    C4 5579   1.520   2.715  13.969 -0.3234 -0.7705 -0.5978
  373TMC3    C5 5580   1.632   2.695  14.045 -0.3888  0.2565 -0.0535
  373TMC3    C6 5581   1.657   2.773  14.152  0.5100 -0.5429  0.2349
  373TMC3     C 5582   1.369   2.892  13.921  0.0262 -0.3705 -0.2855
  373TMC3     O 5583   1.269   2.954  13.958  0.5247 -0.0859  0.1084
  373TMC3     H 5584   1.390   2.962  14.157  2.1316  0.4984  0.4163
  373TMC3    H1 5585   1.514   2.669  13.871  0.1797  1.2353 -1.5695
  373TMC3    H2 5586   1.746   2.757  14.213  1.2732  1.2585 -0.4260
  373TMC3    C7 5587   1.725   2.587  14.000  0.7372  0.5727  0.4397
  373TMC3    C8 5588   1.633   2.977  14.262  0.2533 -0.1000  0.2226
  373TMC3    O1 5589   1.698   2.536  13.891  0.0990  0.0416  0.2131
  373TMC3    O2 5590   1.736   2.954  14.330  0.1180 -0.2272  0.2967
  374TMC3    C1 5591   3.233   2.799   9.911  0.2945  0.5573 -0.1581
  374TMC3    C2 5592   3.201   2.925   9.954 -0.1483  0.0548  0.5228
  374TMC3    C3 5593   3.132   3.005   9.869  0.1937 -0.0355 -0.4528
  374TMC3    C4 5594   3.204   2.754   9.784 -0.2613 -0.8536  0.9396
  374TMC3    C5 5595   3.131   2.832   9.695  0.0758 -0.0814 -0.1882
  374TMC3    C6 5596   3.099   2.961   9.739 -0.0415 -0.0787  0.2544
  374TMC3     C 5597   3.293   2.714  10.012  0.1086 -0.2710 -0.8236
  374TMC3     O 5598   3.251   2.736  10.123 -0.8868  0.3653 -0.0017
  374TMC3     H 5599   3.241   2.960  10.048  4.2148  2.2158 -2.1552
  374TMC3    H1 5600   3.232   2.656   9.748  1.1108 -0.0100 -0.2962
  374TMC3    H2 5601   3.055   3.039   9.679  1.5717 -0.5632 -1.5437
  374TMC3    C7 5602   3.085   2.792   9.559 -0.4038 -0.4334 -0.0947
  374TMC3    C8 5603   3.145   3.151   9.886 -0.9586 -0.4233 -0.3629
  374TMC3    O1 5604   3.026   2.878   9.491  0.4194 -0.3080  0.7415
  374TMC3    O2 5605   3.143   3.216   9.780 -0.9298  0.1208  0.1744
  375MPD2     C 5606   2.495   4.617  17.162  0.4821 -0.0380  0.1702
  375MPD2    C1 5607   2.384   4.542  17.131  0.0085  0.0277  0.4802
  375MPD2    C2 5608   2.397   4.413  17.081  0.4189  0.8921 -0.0640
  375MPD2    C3 5609   2.526   4.369  17.035  0.6884  0.7517  0.3306
  375MPD2    C4 5610   2.636   4.448  17.059 -0.4092  0.7477 -0.7760
  375MPD2    C5 5611   2.619   4.565  17.132 -0.0660 -0.0013  0.2138
  375MPD2     H 5612   2.309   4.350  17.071 -0.0206  2.1174 -4.1127
  375MPD2    H1 5613   2.738   4.422  17.035  0.2373  0.4195  2.2502
  375MPD2    H2 5614   2.482   4.707  17.221  0.7040  1.6213 -2.3031
  375MPD2    H3 5615   2.701   4.625  17.170  1.9976 -0.7121 -3.1258
  375MPD2     N 5616   2.545   4.246  16.973 -0.4008  0.6727 -0.0425
  375MPD2    H5 5617   2.643   4.223  16.959 -0.2507 -0.0635  2.1669
  375MPD2    N1 5618   2.252   4.590  17.149  0.4038  0.2888 -0.6306
  375MPD2    H7 5619   2.246   4.690  17.164  0.4559  0.0830  0.6983
  376TMC3    C1 5620   2.493   4.020  16.896 -0.1298 -0.2225 -0.1336
  376TMC3    C2 5621   2.621   3.987  16.905 -0.5857  0.5533  0.8156
  376TMC3    C3 5622   2.644   3.858  16.863 -0.5474 -0.3953 -0.5866
  376TMC3    C4 5623   2.389   3.936  16.847 -0.2367  0.4436  0.4219
  376TMC3    C5 5624   2.427   3.823  16.782  1.0967 -0.3808 -0.0045
  376TMC3    C6 5625   2.554   3.774  16.808  0.2928  0.0714 -0.6217
  376TMC3     C 5626   2.447   4.158  16.930  0.4932 -0.2829 -0.5383
  376TMC3     O 5627   2.325   4.168  16.938 -0.0003  0.3756  0.3480
  376TMC3     H 5628   2.701   4.042  16.952  1.6028  0.0361 -2.2801
  376TMC3    H1 5629   2.294   3.981  16.820 -0.1762  0.6437  0.5367
  376TMC3    H2 5630   2.581   3.676  16.771 -0.4453 -0.5309  0.4405
  376TMC3    C7 5631   2.389   3.826  16.641  0.8613 -0.4132 -0.1824
  376TMC3    C8 5632   2.785   3.834  16.831 -0.1903 -0.4360 -0.0241
  376TMC3    O1 5633   2.369   3.934  16.590  0.1458 -0.4524 -0.0609
  376TMC3    O2 5634   2.861   3.928  16.854  0.3364  0.0189 -0.0928
  377MPD2     C 5635   0.782   3.865  12.870 -0.2990  0.1128  0.0735
  377MPD2    C1 5636   0.773   3.742  12.926  0.6988  0.3018 -1.0769
  377MPD2    C2 5637   0.663   3.704  13.002 -0.2377  0.4505  0.7245
  377MPD2    C3 5638   0.551   3.792  12.996 -0.0744 -0.4000  0.9185
  377MPD2    C4 5639   0.564   3.909  12.926 -0.9333  0.0719  0.2578
  377MPD2    C5 5640   0.680   3.945  12.866 -0.4669 -0.1813 -0.1709
  377MPD2     H 5641   0.663   3.612  13.059 -1.6330  0.1374  0.2190
  377MPD2    H1 5642   0.478   3.974  12.929 -1.6166 -0.8242 -0.0760
  377MPD2    H2 5643   0.874   3.898  12.821 -0.3042  0.9930  0.6550
  377MPD2    H3 5644   0.688   4.041  12.815 -0.2887 -0.5552 -0.8497
  377MPD2     N 5645   0.429   3.774  13.059  0.3988 -0.0384 -0.1413
  377MPD2    H5 5646   0.368   3.856  13.056 -0.1171 -0.3847  0.7227
  377MPD2    N1 5647   0.890   3.663  12.919  0.3237 -0.1482  0.2721
  377MPD2    H7 5648   0.978   3.702  12.887 -1.1412  2.2779 -0.7678
  378TMC3    C1 5649   1.142   3.306  12.809 -0.1612 -0.9092 -0.3762
  378TMC3    C2 5650   1.039   3.355  12.888  0.2021  0.1725 -0.2892
  378TMC3    C3 5651   1.037   3.487  12.915 -0.0867 -0.0539 -0.0635
  378TMC3    C4 5652   1.229   3.397  12.748 -0.0547  0.7299 -0.4491
  378TMC3    C5 5653   1.225   3.530  12.779  0.4120  0.0781  0.9148
  378TMC3    C6 5654   1.127   3.574  12.861  0.0483  0.1469  0.1255
  378TMC3     C 5655   1.101   3.190  12.730  0.3107  0.4113  0.2425
  378TMC3     O 5656   0.989   3.151  12.746  0.4783  0.0119 -0.1659
  378TMC3     H 5657   0.970   3.283  12.929  2.8087 -1.4914  1.2049
  378TMC3    H1 5658   1.308   3.356  12.686  0.5160  0.6033  0.3481
  378TMC3    H2 5659   1.120   3.681  12.876 -1.3752  0.1589 -0.5983
  378TMC3    C7 5660   1.298   3.630  12.704 -1.4094  0.5414 -0.5517
  378TMC3    C8 5661   0.903   3.529  12.945 -0.1937  0.0498  1.0186
  378TMC3    O1 5662   1.282   3.748  12.735  0.2616  0.6382 -0.1157
  378TMC3    O2 5663   0.813   3.449  12.968 -0.2016  0.4453 -0.4096
  379MPD2     C 5664   1.324   2.164  16.436 -0.0942  0.7074  0.1787
  379MPD2    C1 5665   1.264   2.092  16.531 -0.6370  0.6383  0.2407
  379MPD2    C2 5666   1.322   1.987  16.597 -1.2387  0.0177 -0.4396
  379MPD2    C3 5667   1.455   1.963  16.566  0.4959 -0.2938 -0.0482
  379MPD2    C4 5668   1.517   2.035  16.466 -0.4236 -0.1732  0.3602
  379MPD2    C5 5669   1.449   2.135  16.396 -1.1103  0.6038  0.0471
  379MPD2     H 5670   1.269   1.920  16.664  0.4365 -0.0726  0.8118
  379MPD2    H1 5671   1.617   2.015  16.428 -0.1924  0.7808  0.4701
  379MPD2    H2 5672   1.280   2.247  16.383  0.7192 -0.1278 -1.7997
  379MPD2    H3 5673   1.503   2.198  16.327  1.7487  0.1505  1.8996
  379MPD2     N 5674   1.535   1.863  16.627  0.2119 -0.6373  0.0065
  379MPD2    H5 5675   1.632   1.851  16.598 -0.1800 -0.5747 -1.2887
  379MPD2    N1 5676   1.125   2.131  16.558  0.5911  0.6752  0.3200
  379MPD2    H7 5677   1.090   2.211  16.507  0.2181  1.0971  1.2419
  380TMC3    C1 5678   0.913   2.066  16.616 -0.3308 -0.2740  0.2812
  380TMC3    C2 5679   0.878   1.933  16.631  0.1054 -0.2537 -0.2746
  380TMC3    C3 5680   0.797   1.876  16.537  0.3201 -1.2521 -0.6623
  380TMC3    C4 5681   0.858   2.145  16.518  0.0312  1.2251 -0.0822
  380TMC3    C5 5682   0.765   2.094  16.435 -0.0330  0.7259 -0.8286
  380TMC3    C6 5683   0.740   1.959  16.443 -0.6857  0.5334 -0.1942
  380TMC3     C 5684   1.049   2.080  16.660 -0.1105  0.4869  0.1689
  380TMC3     O 5685   1.085   2.017  16.758 -0.3326  0.7460  0.6738
  380TMC3     H 5686   0.895   1.877  16.723  0.9383  0.8784  0.2565
  380TMC3    H1 5687   0.886   2.249  16.504  1.3009  1.1198  1.6768
  380TMC3    H2 5688   0.676   1.919  16.365 -1.7239  1.4446  0.1836
  380TMC3    C7 5689   0.691   2.186  16.344  0.5068 -0.2644  0.1254
  380TMC3    C8 5690   0.864   1.765  16.461 -0.0060  0.5606 -0.0182
  380TMC3    O1 5691   0.696   2.302  16.370 -0.2488  0.1028  0.4419
  380TMC3    O2 5692   0.809   1.718  16.363 -1.1069 -0.1141 -0.1137
  381TMC3    C1 5693   0.766   3.142  16.291 -0.8184 -0.3998 -0.0014
  381TMC3    C2 5694   0.900   3.181  16.254 -0.0133 -0.4024 -0.0744
  381TMC3    C3 5695   0.989   3.181  16.352  0.0521  0.4061  0.1460
  381TMC3    C4 5696   0.743   3.096  16.415  0.3230 -0.3652  0.4487
  381TMC3    C5 5697   0.846   3.086  16.504 -0.0547  0.3161 -0.0361
  381TMC3    C6 5698   0.966   3.134  16.474  0.5872  0.2050 -1.1562
  381TMC3     C 5699   0.658   3.226  16.236  0.1643  0.1234 -0.4362
  381TMC3     O 5700   0.555   3.229  16.299  0.5155 -0.1520 -0.3945
  381TMC3     H 5701   0.924   3.235  16.164  1.8048 -0.5253  0.3453
  381TMC3    H1 5702   0.654   3.045  16.447  0.0660 -0.3543 -0.2418
  381TMC3    H2 5703   1.052   3.118  16.538 -1.3804  2.6542  2.1856
  381TMC3    C7 5704   0.847   3.037  16.638  0.6215  0.7388  0.6924
  381TMC3    C8 5705   1.111   3.255  16.336 -0.3860  0.3873  0.2292
  381TMC3    O1 5706   0.946   2.970  16.672  0.2945 -0.0700 -0.0103
  381TMC3    O2 5707   1.150   3.285  16.226 -0.3474 -0.4999  0.0769
  382MPD2     C 5708   0.036   0.659  17.418  0.2939  0.5730  0.3072
  382MPD2    C1 5709   0.012   0.673  17.554 -0.8256 -0.3960 -0.0310
  382MPD2    C2 5710   4.678   0.575  17.629 -0.3160  0.1095  0.4639
  382MPD2    C3 5711   4.645   0.453  17.571  0.2079 -1.0071  0.4066
  382MPD2    C4 5712   4.673   0.437  17.440 -0.0210 -0.7615 -0.1685
  382MPD2    C5 5713   4.724   0.541  17.363 -0.1968 -1.0083  0.2123
  382MPD2     H 5714   4.655   0.613   0.027 -0.9164 -0.2953  0.4771
  382MPD2    H1 5715   4.644   0.348  17.385  0.5028 -0.3830 -1.0471
  382MPD2    H2 5716   0.088   0.736  17.363 -0.1045  2.6530  2.8810
  382MPD2    H3 5717   0.016   0.517  17.259  0.9876 -1.1290  0.4333
  382MPD2     N 5718   4.576   0.353  17.642 -0.3678 -0.0391  0.3433
  382MPD2    H5 5719   4.536   0.271  17.597 -1.6810  0.1791  1.1067
  382MPD2    N1 5720   0.036   0.786  17.628  0.3724 -0.1215 -0.0587
  382MPD2    H7 5721   0.002   0.792   0.022  0.6355 -0.4663  0.0577
  383TMC3    C1 5722   4.515   0.224   0.109 -0.6965  0.0807  0.3274
  383TMC3    C2 5723   4.423   0.168   0.018  0.3235  0.0029 -0.4514
  383TMC3    C3 5724   4.402   0.038   0.030 -0.2543  0.4522  0.3433
  383TMC3    C4 5725   4.564   0.152   0.212  0.2712 -0.3066 -0.0231
  383TMC3    C5 5726   4.528   0.026   0.232 -0.0533 -0.4928  0.4168
  383TMC3    C6 5727   4.451   4.692   0.134 -0.3533  0.0096  0.2751
  383TMC3     C 5728   4.576   0.346   0.074  0.4461 -0.2031  0.1346
  383TMC3     O 5729   4.644   0.408   0.158  0.2982 -0.1936  0.5029
  383TMC3     H 5730   4.375   0.221  17.637 -1.4034 -0.5202  0.2424
  383TMC3    H1 5731   4.636   0.201   0.277  1.0313 -0.6932 -0.5756
  383TMC3    H2 5732   4.421   4.590   0.156  1.6154 -0.8546 -1.0085
  383TMC3    C7 5733   4.516   4.703   0.366  0.3893  0.7434 -0.8922
  383TMC3    C8 5734   4.320   4.687  17.634  0.3581 -0.2713 -0.5591
  383TMC3    O1 5735   4.522   4.583   0.392  0.1309  0.1951 -0.3133
  383TMC3    O2 5736   4.214   0.012  17.601  0.3074 -0.7387  0.2613
  384MPD2     C 5737   2.567   1.914  12.166 -0.1033  0.2326  0.1793
  384MPD2    C1 5738   2.610   1.852  12.286 -0.7074 -0.3401 -0.3008
  384MPD2    C2 5739   2.721   1.769  12.286  0.1806  0.8267 -0.4256
  384MPD2    C3 5740   2.798   1.763  12.170  0.0845  0.6995 -0.0958
  384MPD2    C4 5741   2.763   1.835  12.059 -0.2634  0.0766 -0.2175
  384MPD2    C5 5742   2.652   1.912  12.057  0.2257 -0.2965  0.3343
  384MPD2     H 5743   2.742   1.723  12.381  0.5217  1.1031 -0.3700
  384MPD2    H1 5744   2.820   1.837  11.967 -0.3320  0.7604 -0.2450
  384MPD2    H2 5745   2.485   1.985  12.161 -1.6207 -1.3536  2.7517
  384MPD2    H3 5746   2.622   1.967  11.968 -2.7319 -2.2935  0.0970
  384MPD2     N 5747   2.916   1.686  12.156  0.7423  0.1377  0.5702
  384MPD2    H5 5748   2.965   1.677  12.068 -0.8871  0.2401 -0.3410
  384MPD2    N1 5749   2.542   1.858  12.411  0.2832  0.7984 -0.0280
  384MPD2    H7 5750   2.587   1.812  12.489 -0.5004  1.0889  0.5932
  385TMC3    C1 5751   3.042   1.506  12.209 -0.0581 -0.7162 -0.5250
  385TMC3    C2 5752   3.015   1.435  12.089 -0.0637  0.1547 -0.3236
  385TMC3    C3 5753   3.009   1.296  12.105  0.6399  0.3066 -0.6677
  385TMC3    C4 5754   3.093   1.444  12.321 -0.2514 -0.4539 -0.0100
  385TMC3    C5 5755   3.085   1.307  12.323  0.1260 -0.0875  1.1672
  385TMC3    C6 5756   3.035   1.232  12.227  0.2529  0.2005  0.2789
  385TMC3     C 5757   2.962   1.613  12.257 -0.2242  0.9948 -0.3900
  385TMC3     O 5758   2.936   1.606  12.374  0.3357  0.0016 -0.3117
  385TMC3     H 5759   2.976   1.485  12.000 -0.3697 -0.5743 -0.5966
  385TMC3    H1 5760   3.126   1.498  12.409 -2.9768  2.2277 -0.6203
  385TMC3    H2 5761   3.010   1.128  12.247 -0.3775  0.6736  1.9301
  385TMC3    C7 5762   3.044   1.262  12.458  0.6333  0.0715  0.0150
  385TMC3    C8 5763   2.903   1.244  12.030  0.3644  0.0643 -0.0007
  385TMC3    O1 5764   3.073   1.151  12.495  0.4320  0.1859  0.3410
  385TMC3    O2 5765   2.844   1.162  12.098 -0.0246 -0.3389 -0.0926
  386TMC3    C1 5766   2.125   3.826  12.359  0.1598 -1.1548 -0.1273
  386TMC3    C2 5767   2.091   3.775  12.236 -0.4529  0.1439 -0.5385
  386TMC3    C3 5768   1.997   3.838  12.162 -0.1910  0.9814 -0.1525
  386TMC3    C4 5769   2.058   3.933  12.409 -0.1227  0.1731  0.2049
  386TMC3    C5 5770   1.967   3.994  12.329 -0.8159  0.0264  0.0774
  386TMC3    C6 5771   1.932   3.952  12.207  0.2347  0.7622 -0.6202
  386TMC3     C 5772   2.248   3.776  12.423  0.4424  0.5164 -0.0587
  386TMC3     O 5773   2.307   3.863  12.494  0.0501 -0.2282 -0.9128
  386TMC3     H 5774   2.138   3.683  12.203 -1.2521 -1.3328  2.4127
  386TMC3    H1 5775   2.078   3.977  12.506  2.7140  0.4011 -0.5035
  386TMC3    H2 5776   1.841   3.982  12.156  0.2963 -0.1159 -1.2505
  386TMC3    C7 5777   1.874   4.086  12.388  0.4387  0.1434  0.1184
  386TMC3    C8 5778   1.946   3.749  12.065 -0.3891 -0.0134 -0.8329
  386TMC3    O1 5779   1.872   4.080  12.509 -0.3841  0.8012 -0.8937
  386TMC3    O2 5780   1.829   3.715  12.077 -0.4584  0.0820 -0.0049
  387MPD2     C 5781   4.657   4.243  10.005 -0.4231  0.3409 -0.4588
  387MPD2    C1 5782   4.721   4.195  10.115  1.3336 -0.3236  0.0800
  387MPD2    C2 5783   0.005   4.061  10.133  0.0377  0.2941 -0.3004
  387MPD2    C3 5784   4.677   3.973  10.043 -0.3306  0.8398 -0.5963
  387MPD2    C4 5785   4.600   4.020   9.940 -0.1803 -0.0054  0.1861
  387MPD2    C5 5786   4.595   4.154   9.921  0.3267  0.1694  0.0766
  387MPD2     H 5787   0.075   4.021  10.206 -0.4781 -1.0915 -0.5676
  387MPD2    H1 5788   4.536   3.965   9.872  0.3533 -1.6043  0.9798
  387MPD2    H2 5789   4.649   4.350   9.989  0.6240  0.5954  0.7510
  387MPD2    H3 5790   4.546   4.198   9.835 -0.3207 -1.2325 -0.2625
  387MPD2     N 5791   4.698   3.836  10.076 -1.1396 -0.1083  0.7869
  387MPD2    H5 5792   0.033   3.822  10.157  2.0895  1.8278 -1.2831
  387MPD2    N1 5793   0.086   4.265  10.201  0.1763 -0.7690 -0.0709
  387MPD2    H7 5794   0.137   4.212  10.272 -0.7927 -1.9882 -0.2808
  388TMC3    C1 5795   0.271   4.407  10.224  0.9035 -0.5351  0.2225
  388TMC3    C2 5796   0.310   4.537  10.250  0.4289 -0.0366 -0.2275
  388TMC3    C3 5797   0.446   4.551  10.276 -1.0426 -0.1042  0.0587
  388TMC3    C4 5798   0.358   4.296  10.223 -1.2653  0.3320  1.1833
  388TMC3    C5 5799   0.484   4.319  10.257  0.9963  0.4708 -0.6431
  388TMC3    C6 5800   0.535   4.444  10.281  0.0042  0.3630  0.6101
  388TMC3     C 5801   0.137   4.389  10.170 -0.2766 -0.2786 -0.4205
  388TMC3     O 5802   0.091   4.484  10.106 -0.5222  0.1666  0.6719
  388TMC3     H 5803   0.246   4.625  10.246  0.0347 -0.2973  0.3048
  388TMC3    H1 5804   0.319   4.201  10.188  2.0727 -0.5144 -0.1919
  388TMC3    H2 5805   0.641   4.454  10.297  0.1972 -1.5267  0.6071
  388TMC3    C7 5806   0.579   4.205  10.258  0.9194  0.0816 -0.0358
  388TMC3    C8 5807   0.498   4.694  10.286 -0.3301  0.2026 -0.1133
  388TMC3    O1 5808   0.692   4.222  10.220  0.6903  0.2626  0.2497
  388TMC3    O2 5809   0.410   0.064  10.299 -0.3432  0.1701  0.3971
  389MPD2     C 5810   4.199   1.246  10.634  0.4639 -0.5713  0.1525
  389MPD2    C1 5811   4.217   1.375  10.673 -0.0485  0.0248  0.2418
  389MPD2    C2 5812   4.188   1.406  10.808 -0.2329 -0.2564  0.1701
  389MPD2    C3 5813   4.156   1.311  10.901  0.1947  0.1500 -0.3565
  389MPD2    C4 5814   4.143   1.182  10.858  0.4976 -0.2705  0.3674
  389MPD2    C5 5815   4.163   1.150  10.724  0.6224  0.2568 -0.7587
  389MPD2     H 5816   4.192   1.509  10.842 -0.5414  0.3875 -1.7312
  389MPD2    H1 5817   4.112   1.105  10.926 -2.9037  0.0420 -0.8276
  389MPD2    H2 5818   4.207   1.227  10.528  0.0924  0.1519 -0.0062
  389MPD2    H3 5819   4.134   1.052  10.687  1.2828 -0.9662  1.9446
  389MPD2     N 5820   4.110   1.350  11.031 -0.5674  0.0563  0.1343
  389MPD2    H5 5821   4.078   1.273  11.090  0.9668  0.2695  1.2547
  389MPD2    N1 5822   4.252   1.469  10.576  0.1389 -0.3094  0.3632
  389MPD2    H7 5823   4.261   1.446  10.478  0.1792 -1.0533  0.5340
  390TMC3    C1 5824   4.043   1.490  11.202 -0.8551 -1.0425  0.4128
  390TMC3    C2 5825   3.914   1.447  11.190 -0.2104  0.7922  0.0090
  390TMC3    C3 5826   3.823   1.509  11.272  0.0466  0.1321 -0.6331
  390TMC3    C4 5827   4.080   1.582  11.289 -0.1372 -0.1370 -0.0137
  390TMC3    C5 5828   3.997   1.619  11.384 -0.4143 -0.3820 -0.3318
  390TMC3    C6 5829   3.866   1.583  11.379  1.3603 -0.3117  0.9237
  390TMC3     C 5830   4.122   1.474  11.085 -0.1415  0.3721  0.0647
  390TMC3     O 5831   4.179   1.575  11.046  0.3795  0.2791  0.0144
  390TMC3     H 5832   3.881   1.404  11.096  1.0013  0.5733 -0.3066
  390TMC3    H1 5833   4.185   1.608  11.300  0.1473 -2.5499  3.1692
  390TMC3    H2 5834   3.794   1.632  11.445 -0.6223  0.1591 -1.6004
  390TMC3    C7 5835   4.061   1.661  11.512 -0.5904  0.5298  0.4337
  390TMC3    C8 5836   3.688   1.461  11.265  0.1241 -0.1483  0.2264
  390TMC3    O1 5837   4.168   1.716  11.507 -0.7304  0.0096  0.4094
  390TMC3    O2 5838   3.668   1.349  11.225  0.1740 -0.2753  0.1858
  391MPD2     C 5839   3.087   3.332  11.440 -0.2503  0.0422 -0.0178
  391MPD2    C1 5840   3.198   3.412  11.426  0.7519  0.7636  0.0878
  391MPD2    C2 5841   3.250   3.428  11.302  0.1405  0.3999 -0.6521
  391MPD2    C3 5842   3.203   3.369  11.191  0.1589 -0.2458 -0.3005
  391MPD2    C4 5843   3.081   3.299  11.206  0.5425 -0.0659  0.2299
  391MPD2    C5 5844   3.025   3.289  11.328 -0.5788  0.1180  0.0266
  391MPD2     H 5845   3.333   3.497  11.292 -0.6770  1.7259  1.7373
  391MPD2    H1 5846   3.038   3.237  11.128 -0.5399 -0.1728  0.9068
  391MPD2    H2 5847   3.048   3.316  11.540  2.6931  0.6138  1.1946
  391MPD2    H3 5848   2.934   3.229  11.324 -0.7101  0.1881  1.9098
  391MPD2     N 5849   3.274   3.381  11.066 -0.6020  0.9615  0.6697
  391MPD2    H5 5850   3.360   3.434  11.075  0.5857 -1.0151  1.0154
  391MPD2    N1 5851   3.259   3.467  11.539 -0.0985 -0.3500 -0.3476
  391MPD2    H7 5852   3.221   3.437  11.629 -0.5727  0.3745 -0.3107
  392TMC3    C1 5853   3.297   3.380  10.837 -0.3785 -0.0016  0.0410
  392TMC3    C2 5854   3.216   3.390  10.729 -0.1010 -0.2658  0.0289
  392TMC3    C3 5855   3.268   3.449  10.615 -0.5608  0.4148 -0.1853
  392TMC3    C4 5856   3.422   3.433  10.845  0.2156 -0.2897  0.4110
  392TMC3    C5 5857   3.469   3.496  10.733  0.0264 -0.1243  0.1013
  392TMC3    C6 5858   3.396   3.502  10.614 -0.1121 -0.5056 -0.9326
  392TMC3     C 5859   3.224   3.338  10.951  0.1539 -1.1572 -0.4167
  392TMC3     O 5860   3.115   3.279  10.931 -0.3693  0.0647  0.1777
  392TMC3     H 5861   3.113   3.355  10.730 -0.1215 -0.3016 -2.0227
  392TMC3    H1 5862   3.476   3.422  10.939  0.1935 -0.7312  0.3730
  392TMC3    H2 5863   3.419   3.568  10.531  0.6754 -0.7465 -0.9027
  392TMC3    C7 5864   3.590   3.577  10.751 -1.5707 -0.8445  0.4900
  392TMC3    C8 5865   3.216   3.400  10.492 -0.2004  0.3353 -0.5303
  392TMC3    O1 5866   3.647   3.572  10.858  0.6784 -0.0398 -0.2891
  392TMC3    O2 5867   3.153   3.295  10.497  0.3114 -0.2146 -0.3119
  393TMC3    C1 5868   2.676   1.232  10.324 -0.3733 -0.0606 -0.6581
  393TMC3    C2 5869   2.570   1.248  10.416 -0.2193  0.6329  0.5495
  393TMC3    C3 5870   2.603   1.309  10.538  0.2021 -0.1866 -0.0893
  393TMC3    C4 5871   2.808   1.256  10.353  0.9197 -0.2713  0.3660
  393TMC3    C5 5872   2.836   1.314  10.473  0.0937  0.7853 -0.2574
  393TMC3    C6 5873   2.731   1.330  10.569  0.7443  0.2214  0.3443
  393TMC3     C 5874   2.652   1.207  10.189  0.6310  0.2859 -0.4824
  393TMC3     O 5875   2.729   1.250  10.103 -0.0962 -0.3279 -0.2502
  393TMC3     H 5876   2.465   1.236  10.390 -0.0189  0.2724 -0.0914
  393TMC3    H1 5877   2.886   1.224  10.286  1.7426  0.2876  1.0639
  393TMC3    H2 5878   2.748   1.371  10.668 -2.7708 -0.4819  1.2405
  393TMC3    C7 5879   2.973   1.322  10.526 -1.0128 -0.6120 -0.1437
  393TMC3    C8 5880   2.491   1.342  10.626  0.1014  0.3849  0.6850
  393TMC3    O1 5881   3.003   1.375  10.632 -0.4521  0.1161  0.0662
  393TMC3    O2 5882   2.393   1.270  10.611  0.1187  0.4566 -0.1747
  394TMC3    C1 5883   4.288   1.678  10.469  0.6649  0.3051 -0.6723
  394TMC3    C2 5884   4.264   1.632  10.343 -0.2888 -0.1337 -0.1605
  394TMC3    C3 5885   4.279   1.716  10.234  0.6050 -0.2047 -1.1323
  394TMC3    C4 5886   4.320   1.808  10.483  0.8762  0.0025  0.1608
  394TMC3    C5 5887   4.339   1.891  10.374  0.3687  0.4017  0.1710
  394TMC3    C6 5888   4.321   1.845  10.249  0.1109 -0.9205 -0.2358
  394TMC3     C 5889   4.274   1.602  10.599  1.0398  0.2487 -0.0427
  394TMC3     O 5890   4.300   1.661  10.703  0.2511  0.8703 -0.3537
  394TMC3     H 5891   4.221   1.533  10.339 -1.4187  0.4476 -2.3810
  394TMC3    H1 5892   4.327   1.849  10.583 -1.4433  0.4369  0.1536
  394TMC3    H2 5893   4.309   1.906  10.161 -1.0977  0.4218  0.8439
  394TMC3    C7 5894   4.353   2.030  10.393 -0.0907  0.5092 -0.4353
  394TMC3    C8 5895   4.240   1.658  10.105 -0.1978 -0.0872 -0.0501
  394TMC3    O1 5896   4.311   2.106  10.305 -0.1350  0.5601  0.5191
  394TMC3    O2 5897   4.325   1.664  10.020  0.5373 -0.7029  0.0147
  395TMC3    C1 5898   3.232   4.133  14.627 -0.0069  0.0850 -0.1905
  395TMC3    C2 5899   3.137   4.226  14.589  0.7155  0.0447  0.1631
  395TMC3    C3 5900   3.136   4.346  14.660  0.3769 -0.8758 -0.3423
  395TMC3    C4 5901   3.342   4.160  14.696  0.5829  0.4129 -0.3497
  395TMC3    C5 5902   3.350   4.298  14.736  0.6574  0.5731 -0.1561
  395TMC3    C6 5903   3.245   4.395  14.729 -0.1452 -0.4352  0.2830
  395TMC3     C 5904   3.177   4.002  14.654 -0.2218  0.0381  0.1987
  395TMC3     O 5905   3.090   3.958  14.581  0.3283 -0.4449  0.2258
  395TMC3     H 5906   3.047   4.204  14.533  0.9369  0.5552 -0.3879
  395TMC3    H1 5907   3.414   4.090  14.737 -0.4071 -0.7885 -0.6525
  395TMC3    H2 5908   3.246   4.499  14.761  1.5253  0.5739 -3.0154
  395TMC3    C7 5909   3.466   4.349  14.810 -0.0120  0.1812  0.1602
  395TMC3    C8 5910   3.020   4.363  14.750 -0.1106  0.3565 -0.1794
  395TMC3    O1 5911   3.441   4.447  14.879  0.0320 -0.2707  0.0243
  395TMC3    O2 5912   3.016   4.464  14.823  0.3141  0.5448 -0.1046
  396MPD2     C 5913   3.144   0.583  17.681 -0.2039 -0.1948  0.1914
  396MPD2    C1 5914   3.267   0.574   0.036  0.6121 -0.6871 -0.7614
  396MPD2    C2 5915   3.352   0.678   0.016 -0.6242  0.1381 -0.1893
  396MPD2    C3 5916   3.324   0.784  17.629 -0.6919  0.0728  0.6521
  396MPD2    C4 5917   3.200   0.792  17.574 -0.5983  0.0003  0.1542
  396MPD2    C5 5918   3.111   0.694  17.607 -0.4466 -0.3372  0.7783
  396MPD2     H 5919   3.442   0.687   0.075 -1.0038  0.3296  0.3634
  396MPD2    H1 5920   3.181   0.881  17.515 -0.0713  0.1004  0.1336
  396MPD2    H2 5921   3.065   0.509  17.694  1.6026 -1.9504  1.2014
  396MPD2    H3 5922   3.009   0.699  17.571 -0.0926  0.8804 -0.0650
  396MPD2     N 5923   3.428   0.863  17.599 -0.1214  0.1735  0.4850
  396MPD2    H5 5924   3.510   0.851  17.658  0.3475 -1.1553 -0.4406
  396MPD2    N1 5925   3.316   0.455   0.099 -0.5262 -0.1782 -1.1703
  396MPD2    H7 5926   3.252   0.376   0.108 -0.3817 -0.1959 -0.2766
  397TMC3    C1 5927   3.474   0.283   0.137  0.4318  0.0464 -0.3879
  397TMC3    C2 5928   3.540   0.230   0.024  1.0654 -0.2840 -0.0518
  397TMC3    C3 5929   3.511   0.108  17.681 -0.3695 -0.7442 -0.1398
  397TMC3    C4 5930   3.373   0.214   0.200  0.8360 -0.0406  0.1398
  397TMC3    C5 5931   3.359   0.086   0.163  0.3884  0.3455 -0.5218
  397TMC3    C6 5932   3.432   0.027   0.058 -0.8998  0.1193 -0.6315
  397TMC3     C 5933   3.449   0.422   0.107 -0.5646  0.6552  0.8750
  397TMC3     O 5934   3.545   0.489   0.084  0.6263  0.2826  0.3423
  397TMC3     H 5935   3.632   0.279  17.694 -0.3320  2.0248 -0.5208
  397TMC3    H1 5936   3.333   0.258   0.290  0.3689 -0.5571  0.1825
  397TMC3    H2 5937   3.404   4.652   0.025  0.7592 -0.1121 -1.2975
  397TMC3    C7 5938   3.268   0.006   0.242  0.1605 -0.4473 -0.8874
  397TMC3    C8 5939   3.484   0.105  17.542  0.4323  0.2187  0.3096
  397TMC3    O1 5940   3.261   4.617   0.196  0.0019  0.4864  0.2211
  397TMC3    O2 5941   3.384   0.042  17.508  0.6810  0.0082  0.2318
  398MPD2     C 5942   1.276   1.670   0.175  0.1707  0.4736 -0.1675
  398MPD2    C1 5943   1.298   1.646   0.307 -0.4622  0.3065 -0.0143
  398MPD2    C2 5944   1.328   1.751   0.393 -0.3391  0.9987  0.1285
  398MPD2    C3 5945   1.352   1.878   0.339  0.1445  0.6625  0.0392
  398MPD2    C4 5946   1.331   1.898   0.207 -1.0544  0.7830 -0.2570
  398MPD2    C5 5947   1.284   1.798   0.129 -0.3265  0.1085 -0.0515
  398MPD2     H 5948   1.354   1.731   0.496 -0.4701 -1.2040 -0.2567
  398MPD2    H1 5949   1.336   2.000   0.169 -2.2220  0.5900 -0.9192
  398MPD2    H2 5950   1.245   1.598   0.100 -3.4430  1.8649 -0.0350
  398MPD2    H3 5951   1.265   1.812   0.023  1.1301  1.1987 -0.1781
  398MPD2     N 5952   1.407   1.984   0.425 -0.1110 -0.1300 -0.3447
  398MPD2    H5 5953   1.432   1.960   0.521  0.9869  2.4666  0.0172
  398MPD2    N1 5954   1.301   1.517   0.371  0.3392  0.4622 -0.3709
  398MPD2    H7 5955   1.321   1.512   0.470 -0.9694 -0.0591 -0.1272
  399TMC3    C1 5956   1.294   1.278   0.386  0.2555 -0.1559 -0.1909
  399TMC3    C2 5957   1.325   1.283   0.520 -0.1903  0.6268 -0.0875
  399TMC3    C3 5958   1.289   1.174   0.594 -0.3334 -0.2364  0.3806
  399TMC3    C4 5959   1.240   1.167   0.319 -0.0247  0.2246  0.9284
  399TMC3    C5 5960   1.202   1.066   0.400  0.1226 -0.7173  0.0574
  399TMC3    C6 5961   1.217   1.069   0.541 -0.0317  0.4052 -0.1161
  399TMC3     C 5962   1.296   1.398   0.295 -0.1722  0.1224 -0.1066
  399TMC3     O 5963   1.274   1.384   0.175 -0.2460 -0.3711  0.3200
  399TMC3     H 5964   1.384   1.364   0.560  0.0368  0.2473  0.3371
  399TMC3    H1 5965   1.221   1.166   0.212 -1.2815 -0.7224  1.1589
  399TMC3    H2 5966   1.181   0.985   0.601 -0.2250  0.1779 -0.5519
  399TMC3    C7 5967   1.102   0.973   0.364  0.1391 -0.9910 -0.3529
  399TMC3    C8 5968   1.273   1.207   0.733 -0.2778  0.1365  0.6474
  399TMC3    O1 5969   1.111   0.865   0.424  0.3032 -0.0551  0.6246
  399TMC3    O2 5970   1.270   1.324   0.773 -0.3255 -0.3268  0.0843
  400TMC3    C1 5971   4.559   4.498  17.199  0.0887 -0.3579  0.0132
  400TMC3    C2 5972   4.469   4.466  17.098 -0.0371  0.3620 -0.0808
  400TMC3    C3 5973   4.377   4.560  17.062 -0.2522 -0.1333  0.2544
  400TMC3    C4 5974   4.556   4.617  17.266 -0.3419 -0.5205 -0.0346
  400TMC3    C5 5975   4.465   4.707  17.223 -0.9103  0.3119  0.0225
  400TMC3    C6 5976   4.372   4.681  17.127 -1.0417 -0.5079  1.1201
  400TMC3     C 5977   4.646   4.391  17.261  0.4954 -0.1123 -0.0952
  400TMC3     O 5978   4.612   4.273  17.248 -0.7910  0.0290  0.2376
  400TMC3     H 5979   4.456   4.366  17.059 -0.2417 -0.7306  2.7237
  400TMC3    H1 5980   4.616   4.648  17.351 -2.1907 -1.3250  1.5538
  400TMC3    H2 5981   4.293   0.027  17.103  0.8556  0.8349 -1.1683
  400TMC3    C7 5982   4.447   0.103  17.305 -0.2066 -0.9005 -0.3517
  400TMC3    C8 5983   4.257   4.528  16.980  0.0424 -0.6206  0.7751
  400TMC3    O1 5984   4.501   0.106  17.414 -0.1369 -0.3240 -0.1797
  400TMC3    O2 5985   4.173   4.619  16.974  0.6560 -0.2805 -0.7098
  401MPD2     C 5986   3.908   3.845   1.206  0.6187 -0.0810  0.0305
  401MPD2    C1 5987   4.035   3.816   1.173  0.3233 -0.4070  0.2105
  401MPD2    C2 5988   4.064   3.720   1.076 -0.6126  0.3013  0.2342
  401MPD2    C3 5989   3.959   3.659   1.005  0.1113  0.9245  0.0497
  401MPD2    C4 5990   3.831   3.694   1.044 -0.5805  0.5136  0.6342
  401MPD2    C5 5991   3.804   3.785   1.142 -0.1871 -0.2507 -0.0826
  401MPD2     H 5992   4.167   3.695   1.052 -0.2542  0.7568  1.2891
  401MPD2    H1 5993   3.741   3.661   0.992 -0.2864  3.6147 -1.8262
  401MPD2    H2 5994   3.875   3.908   1.288 -1.4268  1.8424 -2.2202
  401MPD2    H3 5995   3.701   3.815   1.156 -0.2195  0.7823 -2.3820
  401MPD2     N 5996   3.990   3.572   0.901 -0.4580  0.4416 -0.3091
  401MPD2    H5 5997   4.087   3.546   0.892 -0.1021  2.1052 -1.3184
  401MPD2    N1 5998   4.148   3.877   1.230 -0.2380 -0.7993  0.4283
  401MPD2    H7 5999   4.240   3.859   1.190  0.8563  2.1149  1.6216
  402TMC3    C1 6000   3.946   3.408   0.737 -0.0982 -0.2095  0.0470
  402TMC3    C2 6001   3.852   3.312   0.694  0.2747  0.0462 -0.3792
  402TMC3    C3 6002   3.891   3.219   0.605  0.0444 -0.0602 -0.5116
  402TMC3    C4 6003   4.068   3.417   0.672 -0.5529 -0.4672  1.0233
  402TMC3    C5 6004   4.105   3.313   0.589  0.0948 -0.4446  0.2353
  402TMC3    C6 6005   4.021   3.207   0.566 -0.6844 -0.1232  0.2611
  402TMC3     C 6006   3.893   3.508   0.833 -0.4036  0.1396 -0.5037
  402TMC3     O 6007   3.773   3.510   0.836 -0.2385 -0.0487 -0.0943
  402TMC3     H 6008   3.758   3.308   0.747 -0.1079 -3.3674 -1.2679
  402TMC3    H1 6009   4.134   3.500   0.690 -1.7157  0.6078  0.3308
  402TMC3    H2 6010   4.059   3.137   0.493  0.6303  1.3180 -0.4390
  402TMC3    C7 6011   4.221   3.330   0.497  0.6447  0.1049 -0.7569
  402TMC3    C8 6012   3.795   3.119   0.574 -0.2478  0.3417  0.0341
  402TMC3    O1 6013   4.190   3.335   0.378 -0.5034  0.4107 -0.4335
  402TMC3    O2 6014   3.675   3.146   0.597 -0.1941  0.1032  0.2209
  403MPD2     C 6015   1.668   1.580  13.742 -0.4352  0.0920 -0.4143
  403MPD2    C1 6016   1.741   1.472  13.787  0.5326  0.0467 -0.2470
  403MPD2    C2 6017   1.827   1.496  13.894 -0.4352  0.2845 -0.1015
  403MPD2    C3 6018   1.823   1.613  13.957  0.0198  0.1142  0.3604
  403MPD2    C4 6019   1.733   1.713  13.915 -0.2699  0.2912  0.2410
  403MPD2    C5 6020   1.665   1.699  13.797 -0.1501  0.0885  0.3122
  403MPD2     H 6021   1.903   1.425  13.923  0.7468  1.6714  0.1918
  403MPD2    H1 6022   1.725   1.812  13.960 -0.0338 -0.2889  1.5665
  403MPD2    H2 6023   1.602   1.573  13.656  1.3989  0.1946 -1.8249
  403MPD2    H3 6024   1.606   1.777  13.750  0.9261  0.4924 -0.3601
  403MPD2     N 6025   1.917   1.628  14.063 -0.1431  0.4931 -0.1538
  403MPD2    H5 6026   1.974   1.544  14.071  1.3536  1.3789 -1.2812
  403MPD2    N1 6027   1.730   1.347  13.732 -0.3529  0.3793 -0.1702
  403MPD2    H7 6028   1.689   1.331  13.641  1.4009  0.7118 -1.0125
  404TMC3    C1 6029   1.750   1.115  13.705 -0.7916  0.8779 -0.9594
  404TMC3    C2 6030   1.712   0.993  13.756  0.6585  0.6436  0.4984
  404TMC3    C3 6031   1.699   0.892  13.664 -0.1649 -0.5975  0.0529
  404TMC3    C4 6032   1.757   1.132  13.573  0.1174  0.1455 -0.2760
  404TMC3    C5 6033   1.735   1.031  13.486  1.0120 -0.0987 -0.2645
  404TMC3    C6 6034   1.704   0.906  13.527  0.4552 -0.0826 -0.5023
  404TMC3     C 6035   1.762   1.229  13.790  0.6944  0.1616  0.4572
  404TMC3     O 6036   1.783   1.211  13.912 -0.1789 -0.3158  0.1019
  404TMC3     H 6037   1.728   0.965  13.859  1.8453 -0.2918  0.0559
  404TMC3    H1 6038   1.788   1.225  13.527  0.0250 -0.7836 -2.2123
  404TMC3    H2 6039   1.687   0.821  13.462 -1.7543  0.6351 -0.8733
  404TMC3    C7 6040   1.786   1.042  13.349  0.4896  0.2995  0.0635
  404TMC3    C8 6041   1.724   0.762  13.724  0.2327  0.4162  0.3270
  404TMC3    O1 6042   1.878   1.119  13.333 -0.1855 -0.7686 -0.5275
  404TMC3    O2 6043   1.836   0.712  13.708  0.0670  0.2634 -0.7003
  405MPD2     C 6044   1.758   1.437  15.397 -0.5152  0.0908  0.3703
  405MPD2    C1 6045   1.738   1.431  15.260 -1.1929  0.2731 -0.6174
  405MPD2    C2 6046   1.761   1.545  15.185 -0.3307  0.4465  0.0394
  405MPD2    C3 6047   1.802   1.670  15.238  0.3571  0.2307  0.1182
  405MPD2    C4 6048   1.827   1.673  15.376 -0.0332  0.1293 -0.7545
  405MPD2    C5 6049   1.813   1.557  15.447 -0.1367  0.8726 -0.0532
  405MPD2     H 6050   1.736   1.549  15.079 -0.5479 -2.3678 -0.0170
  405MPD2    H1 6051   1.854   1.768  15.421  1.0308 -1.1753  1.3383
  405MPD2    H2 6052   1.762   1.347  15.457 -1.8393 -0.8103 -0.9186
  405MPD2    H3 6053   1.839   1.566  15.552  2.8449  0.8537 -0.8117
  405MPD2     N 6054   1.808   1.777  15.149  0.1110  0.1835  0.0787
  405MPD2    H5 6055   1.754   1.758  15.065  1.0563 -1.2928 -0.1838
  405MPD2    N1 6056   1.704   1.305  15.194  0.3283  0.2627  0.1359
  405MPD2    H7 6057   1.673   1.231  15.256  0.0774  0.9516  0.8337
  406TMC3    C1 6058   1.828   2.190  14.931 -0.1834  0.0443  0.7552
  406TMC3    C2 6059   1.861   2.123  14.817  0.5601 -0.2340  0.0342
  406TMC3    C3 6060   1.883   1.984  14.819 -0.5441  0.1382  0.0520
  406TMC3    C4 6061   1.822   2.121  15.054 -0.0405  0.2063  0.2988
  406TMC3    C5 6062   1.860   1.988  15.058  0.2402  0.2365 -0.0279
  406TMC3    C6 6063   1.889   1.915  14.942 -0.7681  0.3852 -0.5147
  406TMC3     C 6064   1.780   2.327  14.909  0.1041  0.0845  0.3251
  406TMC3     O 6065   1.843   2.380  14.813  0.2490  0.0907  0.6223
  406TMC3     H 6066   1.862   2.168  14.718  1.5743 -1.3182 -0.4495
  406TMC3    H1 6067   1.792   2.173  15.145 -2.2324  1.9400 -1.4167
  406TMC3    H2 6068   1.938   1.819  14.950  1.3906  1.6647  1.5559
  406TMC3    C7 6069   1.838   1.907  15.185  0.1174  0.2217  0.5051
  406TMC3    C8 6070   1.858   1.908  14.704  0.0643 -0.3282  0.1478
  406TMC3    O1 6071   1.865   1.960  15.296  0.5757 -0.6607 -0.4285
  406TMC3    O2 6072   1.836   1.972  14.600  0.0816  0.1486  0.2733
  407MPD2     C 6073   4.257   3.283   9.602  0.4591  0.5165  1.0244
  407MPD2    C1 6074   4.346   3.270   9.709  0.3718 -0.7929 -0.0211
  407MPD2    C2 6075   4.345   3.355   9.819 -0.2433 -0.0782  1.1836
  407MPD2    C3 6076   4.264   3.465   9.817 -0.4072  0.7868  1.2014
  407MPD2    C4 6077   4.187   3.489   9.706  0.1621 -0.4210  0.6951
  407MPD2    C5 6078   4.178   3.401   9.602  0.3246 -0.9685 -0.3416
  407MPD2     H 6079   4.404   3.324   9.904 -0.4271 -1.3227  0.8624
  407MPD2    H1 6080   4.124   3.577   9.696  0.7574 -0.2089 -1.0224
  407MPD2    H2 6081   4.263   3.225   9.510 -2.8301  0.3989  0.8779
  407MPD2    H3 6082   4.105   3.418   9.523 -1.2591  0.1254  1.3486
  407MPD2     N 6083   4.259   3.551   9.929  0.3123 -0.2092 -1.0235
  407MPD2    H5 6084   4.200   3.633   9.917  0.3993 -0.1877 -1.3053
  407MPD2    N1 6085   4.460   3.183   9.704  0.8165  0.2575  0.2448
  407MPD2    H7 6086   4.542   3.205   9.759 -0.7782 -0.1965  2.7749
  408TMC3    C1 6087   4.626   3.081   9.576  1.2530 -0.5011  0.5024
  408TMC3    C2 6088   4.683   2.959   9.599  0.1633  0.2476  0.0007
  408TMC3    C3 6089   0.087   2.967   9.637 -0.1612  0.2221 -0.1894
  408TMC3    C4 6090   4.682   3.206   9.583 -0.2238 -0.9726 -1.1881
  408TMC3    C5 6091   0.086   3.208   9.619 -0.4735  0.5917 -0.0928
  408TMC3    C6 6092   0.148   3.087   9.644 -0.9004 -0.1443  0.6052
  408TMC3     C 6093   4.480   3.094   9.602 -0.1205 -0.1064 -0.6359
  408TMC3     O 6094   4.400   3.043   9.525 -0.0666 -0.2488  0.2208
  408TMC3     H 6095   4.627   2.867   9.602 -0.2494  0.4660 -0.9154
  408TMC3    H1 6096   4.627   3.293   9.547 -0.3646 -0.6889 -0.2682
  408TMC3    H2 6097   0.248   3.094   9.685 -0.7168  2.2507 -0.2622
  408TMC3    C7 6098   0.156   3.329   9.657  0.6829 -0.1500  0.5306
  408TMC3    C8 6099   0.170   2.856   9.676 -0.0683  0.0994 -0.0734
  408TMC3    O1 6100   0.279   3.327   9.676  0.1799 -0.0562  0.3042
  408TMC3    O2 6101   0.139   2.748   9.629  0.1132 -0.0703  0.1552
  409MPD2     C 6102   3.238   3.959  17.005 -0.1994 -0.3543  0.3908
  409MPD2    C1 6103   3.360   3.937  17.057  0.4685  0.1076 -0.2780
  409MPD2    C2 6104   3.448   4.042  17.073 -0.0591  0.0773  0.0371
  409MPD2    C3 6105   3.424   4.164  17.009 -0.0652  0.0936  1.0485
  409MPD2    C4 6106   3.299   4.192  16.960  0.4290  0.0334  0.0011
  409MPD2    C5 6107   3.208   4.085  16.963 -0.2562  0.1138 -0.4197
  409MPD2     H 6108   3.541   4.012  17.119 -0.8529 -0.2821  1.4128
  409MPD2    H1 6109   3.278   4.291  16.920  0.3653 -0.2254 -0.6102
  409MPD2    H2 6110   3.168   3.878  16.986  1.0537 -1.3372  0.0372
  409MPD2    H3 6111   3.114   4.102  16.912 -0.2721  0.3714 -0.3056
  409MPD2     N 6112   3.525   4.265  17.012 -0.5539 -0.1703  0.1589
  409MPD2    H5 6113   3.508   4.334  16.940 -0.2452  0.1735  0.4160
  409MPD2    N1 6114   3.396   3.819  17.123  0.3282 -0.0013  0.0683
  409MPD2    H7 6115   3.494   3.804  17.144  0.3903  2.0704  1.2062
  410TMC3    C1 6116   3.707   4.392  17.084  0.0497  0.6762  0.1997
  410TMC3    C2 6117   3.820   4.410  17.158  0.0988 -0.5126 -0.0537
  410TMC3    C3 6118   3.906   4.514  17.135 -1.2524 -0.2071 -0.6996
  410TMC3    C4 6119   3.674   4.487  16.990 -0.2085  0.5410  0.2081
  410TMC3    C5 6120   3.754   4.601  16.972 -0.2761 -0.6323  0.9146
  410TMC3    C6 6121   3.870   4.608  17.043 -0.1449  0.2864  0.0002
  410TMC3     C 6122   3.633   4.273  17.103  0.4111  0.3220 -0.8220
  410TMC3     O 6123   3.647   4.198  17.197 -0.0791  0.3961 -0.8776
  410TMC3     H 6124   3.832   4.338  17.238 -2.7938 -1.3974 -0.4060
  410TMC3    H1 6125   3.574   4.489  16.949  0.5896  3.4385 -1.6578
  410TMC3    H2 6126   3.941   4.686  17.017  1.4167 -1.5890 -1.4308
  410TMC3    C7 6127   3.737   4.665  16.841 -0.0896 -0.3767 -0.1341
  410TMC3    C8 6128   4.015   4.530  17.223  0.3100  0.5206  0.1726
  410TMC3    O1 6129   3.672   4.606  16.757 -0.2849  0.1186  0.1349
  410TMC3    O2 6130   4.048   4.645  17.249  0.0982 -0.3491  0.5146
  411MPD2     C 6131   4.046   0.069  14.907 -0.2516  0.2649  0.2398
  411MPD2    C1 6132   3.921   0.124  14.884  0.6374 -0.1311  0.2602
  411MPD2    C2 6133   3.835   0.060  14.800 -0.5004 -0.4168  0.0752
  411MPD2    C3 6134   3.868   4.670  14.728 -0.4325  0.6355 -0.3723
  411MPD2    C4 6135   3.991   4.613  14.755 -0.6714  0.1276 -0.2380
  411MPD2    C5 6136   4.079   4.678  14.844 -0.1952  0.3932  0.2887
  411MPD2     H 6137   3.735   0.101  14.789 -0.5750 -0.9285 -1.2245
  411MPD2    H1 6138   4.022   4.533  14.689 -0.7219 -1.3855  1.5753
  411MPD2    H2 6139   4.120   0.115  14.972  1.5147  0.2347 -1.7255
  411MPD2    H3 6140   4.177   4.631  14.853 -0.4777  0.0008  1.3244
  411MPD2     N 6141   3.780   4.606  14.637  0.0606  0.0237 -0.4925
  411MPD2    H5 6142   3.813   4.515  14.606  1.7872  0.8114 -0.9619
  411MPD2    N1 6143   3.881   0.254  14.918 -0.3187  0.7838  0.6101
  411MPD2    H7 6144   3.792   0.287  14.884  0.5853  1.5861 -0.9702
  412TMC3    C1 6145   3.585   4.558  14.504 -0.0473  0.2227 -0.0005
  412TMC3    C2 6146   3.646   4.439  14.470 -0.4330  0.7607 -0.6253
  412TMC3    C3 6147   3.607   4.374  14.361 -0.0609 -0.9540  0.1307
  412TMC3    C4 6148   3.480   4.611  14.437 -0.2575 -0.3147  0.5218
  412TMC3    C5 6149   3.469   4.567  14.312  0.4473  0.3770 -0.0072
  412TMC3    C6 6150   3.546   4.461  14.274 -0.1738  0.0058  1.0165
  412TMC3     C 6151   3.653   4.652  14.600 -0.2418  0.0402  0.2064
  412TMC3     O 6152   3.603   0.034  14.631 -0.2424 -0.2345  0.4178
  412TMC3     H 6153   3.692   4.384  14.551 -0.9615 -1.6684 -1.9687
  412TMC3    H1 6154   3.455   4.712  14.465  1.4820  0.1680  0.3209
  412TMC3    H2 6155   3.529   4.417  14.177  0.4275 -0.4348  1.1149
  412TMC3    C7 6156   3.329   4.536  14.269  0.7061  0.2886 -0.5867
  412TMC3    C8 6157   3.543   4.240  14.391  0.0546  0.0851 -0.5181
  412TMC3    O1 6158   3.316   4.451  14.181  0.2748 -0.2094 -0.8289
  412TMC3    O2 6159   3.587   4.183  14.492 -0.2943  0.2799 -0.6253
  413MPD2     C 6160   0.599   2.984  15.910  0.6534  0.3739 -0.7056
  413MPD2    C1 6161   0.543   2.941  15.790 -0.0626 -0.0840  0.9424
  413MPD2    C2 6162   0.620   2.842  15.715 -0.1909  0.3029  0.0889
  413MPD2    C3 6163   0.732   2.786  15.771  0.3401 -0.0464  0.0461
  413MPD2    C4 6164   0.771   2.821  15.896 -0.1400  0.9636  0.7642
  413MPD2    C5 6165   0.707   2.923  15.960 -0.0474 -0.6226  0.5375
  413MPD2     H 6166   0.593   2.808  15.616  0.0612 -1.6698  0.7015
  413MPD2    H1 6167   0.849   2.774  15.954  0.5492 -0.5104 -1.3784
  413MPD2    H2 6168   0.546   3.058  15.969 -0.2355 -0.6529 -0.2101
  413MPD2    H3 6169   0.747   2.960  16.054  0.9736 -0.3778  0.0131
  413MPD2     N 6170   0.792   2.684  15.699 -0.0128 -0.8696 -0.3335
  413MPD2    H5 6171   0.756   2.675  15.605 -2.3544  2.0820  0.3006
  413MPD2    N1 6172   0.424   3.007  15.746  0.1463  1.3899  0.1068
  413MPD2    H7 6173   0.387   3.074  15.813 -1.5361  1.0398 -0.4712
  414TMC3    C1 6174   0.965   2.525  15.644 -0.4564 -0.7211 -0.1958
  414TMC3    C2 6175   1.032   2.413  15.686 -0.2966 -0.0809 -0.8131
  414TMC3    C3 6176   1.129   2.359  15.610 -0.5255 -0.1827 -0.1138
  414TMC3    C4 6177   0.995   2.587  15.524 -0.1122 -0.1453 -0.4686
  414TMC3    C5 6178   1.096   2.530  15.450  0.0446  0.9120  1.4237
  414TMC3    C6 6179   1.162   2.418  15.496  0.3234  0.3879  1.4947
  414TMC3     C 6180   0.904   2.605  15.743  0.3995  0.6960 -0.1938
  414TMC3     O 6181   0.966   2.617  15.850  0.3427 -0.1857 -0.3967
  414TMC3     H 6182   1.002   2.369  15.780  0.9448 -1.5882 -1.1224
  414TMC3    H1 6183   0.954   2.686  15.506 -0.5998 -0.0801  0.9636
  414TMC3    H2 6184   1.254   2.393  15.445  0.0748  2.1946  0.1784
  414TMC3    C7 6185   1.172   2.629  15.377  0.5122 -0.0003 -0.1164
  414TMC3    C8 6186   1.174   2.227  15.635  0.0200 -0.2953 -0.2708
  414TMC3    O1 6187   1.294   2.626  15.396 -0.0960  0.3879  0.5714
  414TMC3    O2 6188   1.086   2.149  15.661 -0.0301 -0.3360  0.3611
  415TMC3    C1 6189   1.691   0.484   9.918 -0.0178 -0.0063 -0.1249
  415TMC3    C2 6190   1.693   0.565   9.809 -0.5965  0.4793 -0.3135
  415TMC3    C3 6191   1.612   0.527   9.707 -0.9176  0.1958  0.5225
  415TMC3    C4 6192   1.623   0.365   9.918  0.2371 -0.1531  0.5239
  415TMC3    C5 6193   1.547   0.334   9.812  0.1859 -0.2149 -0.2136
  415TMC3    C6 6194   1.538   0.412   9.703  0.1289  0.4114 -0.0682
  415TMC3     C 6195   1.753   0.519  10.039 -0.0940 -0.6273 -0.3766
  415TMC3     O 6196   1.706   0.473  10.140  0.0128  0.1955 -0.2289
  415TMC3     H 6197   1.740   0.663   9.811 -1.2513  0.7902  0.1379
  415TMC3    H1 6198   1.625   0.302  10.006  0.7352  0.6548  1.0939
  415TMC3    H2 6199   1.477   0.378   9.621 -2.5172  2.0505  1.2189
  415TMC3    C7 6200   1.455   0.226   9.816  0.0374 -1.0912  0.9123
  415TMC3    C8 6201   1.624   0.603   9.582 -0.3212  0.8153  0.1121
  415TMC3    O1 6202   1.440   0.162   9.717 -0.4421 -0.2126  0.4511
  415TMC3    O2 6203   1.525   0.640   9.519 -0.1756 -0.4432 -0.3448
  416MPD2     C 6204   3.468   4.400  11.760  0.6848  0.3661 -0.2180
  416MPD2    C1 6205   3.343   4.344  11.785 -0.1151  0.8316 -0.1055
  416MPD2    C2 6206   3.292   4.266  11.684 -0.1908  0.1136  0.0707
  416MPD2    C3 6207   3.365   4.241  11.561 -0.3608  0.2303 -0.2839
  416MPD2    C4 6208   3.495   4.286  11.550  0.1153 -0.4027 -0.4003
  416MPD2    C5 6209   3.539   4.374  11.647  0.2944  0.5255  0.0472
  416MPD2     H 6210   3.193   4.227  11.699  0.2252 -0.4537  1.3731
  416MPD2    H1 6211   3.547   4.273  11.456 -0.5651 -3.3401 -0.3964
  416MPD2    H2 6212   3.509   4.475  11.827  0.6293  3.2936 -3.4427
  416MPD2    H3 6213   3.630   4.429  11.622 -0.2837  1.8297  0.7796
  416MPD2     N 6214   3.306   4.153  11.469 -0.5083  0.0854  0.5436
  416MPD2    H5 6215   3.211   4.118  11.479 -0.5795 -0.4292 -1.9540
  416MPD2    N1 6216   3.266   4.404  11.889  0.3585 -0.1351 -0.4553
  416MPD2    H7 6217   3.309   4.477  11.945  0.9041  0.2029 -1.3105
  417TMC3    C1 6218   3.074   4.491  11.969 -0.0829 -0.0717  0.9656
  417TMC3    C2 6219   3.162   4.575  12.033  0.2684  0.4213  0.5944
  417TMC3    C3 6220   3.130   4.708  12.027  0.2231 -0.4414 -0.2688
  417TMC3    C4 6221   2.957   4.539  11.904  0.4034  0.1362  0.4563
  417TMC3    C5 6222   2.930   4.672  11.905  0.3787 -0.3267 -0.1498
  417TMC3    C6 6223   3.010   0.032  11.973 -1.2250 -0.2705  0.9902
  417TMC3     C 6224   3.131   4.373  11.901  0.3507 -0.2459  0.1313
  417TMC3     O 6225   3.057   4.290  11.855  0.1616  0.4389 -0.5823
  417TMC3     H 6226   3.223   4.530  12.111 -0.5928 -0.4715  0.7481
  417TMC3    H1 6227   2.896   4.467  11.851  1.3195  2.4799 -3.7639
  417TMC3    H2 6228   3.002   0.140  11.965  0.0078 -0.4782 -2.9474
  417TMC3    C7 6229   2.891   4.723  11.777  0.2595 -0.7265 -0.6028
  417TMC3    C8 6230   3.168   0.067  12.138 -0.2515 -0.1959  0.7735
  417TMC3    O1 6231   2.954   0.101  11.752 -0.4927 -0.2621 -0.0547
  417TMC3    O2 6232   3.082   0.143  12.184 -0.0994 -0.2318  0.0368
  418TMC3    C1 6233   1.735   2.243   0.505 -0.2436  0.0210  0.0908
  418TMC3    C2 6234   1.615   2.254   0.439  0.3394  0.1287  0.0913
  418TMC3    C3 6235   1.512   2.182   0.496  0.0287  0.2074 -0.3831
  418TMC3    C4 6236   1.749   2.187   0.629  0.2969 -0.5491  0.1422
  418TMC3    C5 6237   1.637   2.127   0.684 -0.1318 -0.0597  0.0687
  418TMC3    C6 6238   1.518   2.118   0.616  0.6129 -0.2838 -0.4388
  418TMC3     C 6239   1.848   2.211   0.413 -0.3864 -0.1373  0.2838
  418TMC3     O 6240   1.891   2.287   0.330  0.6303  0.5208 -0.1598
  418TMC3     H 6241   1.617   2.282   0.334 -1.1293  1.0101  0.3041
  418TMC3    H1 6242   1.845   2.175   0.677  0.6535  0.5375 -0.2830
  418TMC3    H2 6243   1.436   2.062   0.660  0.2911  2.7504  2.8067
  418TMC3    C7 6244   1.645   2.074   0.821 -0.0467 -0.2171  0.0638
  418TMC3    C8 6245   1.433   2.110   0.394 -0.2367  0.7783  0.2580
  418TMC3    O1 6246   1.558   1.990   0.851  0.4459  0.2184  0.3555
  418TMC3    O2 6247   1.418   2.170   0.286 -0.3467 -0.7019  0.1741
  419MPD2     C 6248   0.873   4.589  12.626  0.6575 -0.5074  0.6841
  419MPD2    C1 6249   0.755   4.659  12.618  0.1263  0.0096  0.7497
  419MPD2    C2 6250   0.694   4.679  12.739  0.0767  0.5640  0.3914
  419MPD2    C3 6251   0.733   4.623  12.860 -0.6268  0.1773  0.0445
  419MPD2    C4 6252   0.859   4.565  12.865 -0.0238 -0.3944 -0.2194
  419MPD2    C5 6253   0.928   4.553  12.746  0.1709  0.0972 -0.2585
  419MPD2     H 6254   0.607   0.019  12.746 -2.6772 -2.9696 -0.7398
  419MPD2    H1 6255   0.898   4.525  12.958 -0.7194 -1.3939 -0.3599
  419MPD2    H2 6256   0.932   4.573  12.536  0.6548 -0.6502  0.7077
  419MPD2    H3 6257   1.026   4.508  12.754  0.6154  1.3641  1.5107
  419MPD2     N 6258   0.652   4.646  12.976  0.5766  0.4226 -0.1978
  419MPD2    H5 6259   0.561   4.686  12.954 -0.6208 -2.3547 -0.2806
  419MPD2    N1 6260   0.708   4.712  12.494 -0.2903  0.1369 -1.1649
  419MPD2    H7 6261   0.633   0.056  12.490 -2.3456 -2.0085 -0.3750
  420TMC3    C1 6262   0.566   4.621  13.195 -0.1759 -0.4863 -1.1818
  420TMC3    C2 6263   0.438   4.608  13.150  0.4059  0.0231 -0.0363
  420TMC3    C3 6264   0.337   4.650  13.229 -0.2953  0.1725  0.0187
  420TMC3    C4 6265   0.591   4.679  13.318  0.4041  0.7995 -0.7799
  420TMC3    C5 6266   0.488   4.711  13.404  0.4715 -0.5591 -0.1941
  420TMC3    C6 6267   0.362   4.697  13.357  0.0378 -0.1933 -0.0146
  420TMC3     C 6268   0.681   4.609  13.105 -0.1928  0.6551  0.4809
  420TMC3     O 6269   0.791   4.580  13.148 -0.3403 -0.2201  0.0641
  420TMC3     H 6270   0.419   4.577  13.048 -0.2350  0.2258  0.0181
  420TMC3    H1 6271   0.696   4.685  13.345  0.1024  1.2991  0.2765
  420TMC3    H2 6272   0.281   4.722  13.425 -1.6783 -2.3197 -1.2515
  420TMC3    C7 6273   0.515   0.048  13.533 -0.2975 -0.6696 -0.0096
  420TMC3    C8 6274   0.210   4.686  13.168 -0.3957 -0.5875  0.4251
  420TMC3    O1 6275   0.421   0.091  13.598  0.0801  0.3987  0.3788
  420TMC3    O2 6276   0.201   4.707  13.049  0.2462  0.2953 -0.0997
  421TMC3    C1 6277   2.028   1.688  14.258  0.6850 -0.0370 -0.4187
  421TMC3    C2 6278   2.066   1.794  14.338  0.0767 -0.0230  0.8456
  421TMC3    C3 6279   2.189   1.787  14.402  0.4831 -0.4494  0.3535
  421TMC3    C4 6280   2.116   1.578  14.238 -0.1729 -0.1644  0.3700
  421TMC3    C5 6281   2.227   1.582  14.306  0.4848 -0.5972  0.0085
  421TMC3    C6 6282   2.268   1.682  14.389 -0.0842 -0.9362 -0.1237
  421TMC3     C 6283   1.918   1.723  14.163 -0.5574  0.2805 -0.7844
  421TMC3     O 6284   1.850   1.819  14.181  0.2860  0.0150 -0.3690
  421TMC3     H 6285   1.991   1.870  14.360 -1.7255 -0.7143 -2.9700
  421TMC3    H1 6286   2.087   1.494  14.177  1.0946 -0.3762  0.0687
  421TMC3    H2 6287   2.365   1.678  14.437 -0.9844  0.1063  1.7655
  421TMC3    C7 6288   2.301   1.458  14.311 -0.3228 -0.2518  0.4769
  421TMC3    C8 6289   2.222   1.890  14.496 -0.2804  0.7024 -0.1925
  421TMC3    O1 6290   2.415   1.474  14.352  0.0351 -0.1570 -0.2533
  421TMC3    O2 6291   2.130   1.940  14.560  0.0213 -0.3722  0.2450
  422TMC3    C1 6292   3.879   2.737  12.883  0.4571 -0.1430 -0.0681
  422TMC3    C2 6293   3.874   2.825  12.986  0.4685  0.1528  0.3397
  422TMC3    C3 6294   3.822   2.779  13.106  0.2997  0.4176 -0.1288
  422TMC3    C4 6295   3.831   2.611  12.895  0.2195  0.4472 -0.8051
  422TMC3    C5 6296   3.803   2.563  13.021  0.3561  0.1064  0.0016
  422TMC3    C6 6297   3.791   2.647  13.131 -0.6511  0.2552  0.7710
  422TMC3     C 6298   3.959   2.787  12.768  0.3978  0.0958 -0.0876
  422TMC3     O 6299   3.994   2.904  12.765  0.2876  0.0079 -0.7516
  422TMC3     H 6300   3.901   2.930  12.977 -2.6201  0.6744 -2.6224
  422TMC3    H1 6301   3.826   2.542  12.812  0.6217  1.2788 -1.5242
  422TMC3    H2 6302   3.785   2.604  13.231 -0.4376  1.3139  1.2356
  422TMC3    C7 6303   3.781   2.421  13.043  0.1837  0.5288 -0.0409
  422TMC3    C8 6304   3.831   2.871  13.219  0.4351 -0.3938  0.1172
  422TMC3    O1 6305   3.848   2.340  12.974 -0.6618 -0.3682 -0.5129
  422TMC3    O2 6306   3.878   2.987  13.202  0.0425 -0.0350  0.5178
  423MPD2     C 6307   1.080   4.169   0.201 -0.5059  0.4083 -0.2645
  423MPD2    C1 6308   1.011   4.099   0.298 -0.0810 -0.1251 -0.7743
  423MPD2    C2 6309   0.930   3.991   0.266  0.6987 -0.1364 -0.5071
  423MPD2    C3 6310   0.895   3.969   0.131  0.1340 -0.1374  0.3920
  423MPD2    C4 6311   0.945   4.056   0.037 -0.0197 -0.4851  0.6813
  423MPD2    C5 6312   1.035   4.151   0.072 -0.1564  0.0917 -0.1545
  423MPD2     H 6313   0.876   3.947   0.349 -0.0367  0.3464 -0.7286
  423MPD2    H1 6314   0.921   4.050  17.632 -1.5553 -0.2465  1.0245
  423MPD2    H2 6315   1.140   4.256   0.225 -1.3653  0.6921  0.8654
  423MPD2    H3 6316   1.076   4.222   0.002  2.9252 -1.4606  0.0595
  423MPD2     N 6317   0.819   3.870   0.082 -0.3704 -0.2033 -0.5649
  423MPD2    H5 6318   0.820   3.863  17.681 -1.2551 -0.7819 -0.5314
  423MPD2    N1 6319   1.021   4.132   0.433  0.7331 -0.1185  0.2968
  423MPD2    H7 6320   0.977   4.071   0.501 -3.1776  2.6489  0.2381
  424TMC3    C1 6321   1.056   4.258   0.625 -0.4745  0.1030  1.3345
  424TMC3    C2 6322   1.083   4.149   0.703  0.7209 -0.2922 -0.4534
  424TMC3    C3 6323   1.042   4.163   0.830 -0.5351 -0.4173  0.0936
  424TMC3    C4 6324   1.027   4.382   0.674  0.6961  0.2267 -0.4247
  424TMC3    C5 6325   0.981   4.391   0.803 -0.2471 -0.0384 -0.2612
  424TMC3    C6 6326   0.985   4.280   0.883 -0.0708 -0.4241 -0.6371
  424TMC3     C 6327   1.073   4.245   0.483 -0.7100  0.1430 -0.0993
  424TMC3     O 6328   1.090   4.355   0.434 -0.1976 -0.7166 -0.1929
  424TMC3     H 6329   1.135   4.061   0.669 -0.4635 -1.2022  0.0785
  424TMC3    H1 6330   1.001   4.466   0.610 -0.2541  1.0189  1.0034
  424TMC3    H2 6331   0.935   4.275   0.979 -1.0803  1.5040 -1.0689
  424TMC3    C7 6332   0.861   4.467   0.815  0.2063  0.2719 -0.3210
  424TMC3    C8 6333   1.045   4.045   0.925 -0.7364  0.8089 -0.4886
  424TMC3    O1 6334   0.787   4.468   0.713 -0.0217 -0.7679 -0.2921
  424TMC3    O2 6335   1.045   4.069   1.049  0.2179  0.2822  0.2482
  425MPD2     C 6336   4.521   2.902   0.085 -0.0315  0.0140 -0.3668
  425MPD2    C1 6337   4.459   2.844  17.676  0.4421  0.2201  0.0286
  425MPD2    C2 6338   4.320   2.852  17.671  0.3890 -0.2605  0.1578
  425MPD2    C3 6339   4.247   2.904   0.081  0.5426  0.8034 -0.1576
  425MPD2    C4 6340   4.310   2.962   0.188 -0.5391  0.4829 -0.0696
  425MPD2    C5 6341   4.449   2.963   0.184  0.0853 -0.4114  0.4426
  425MPD2     H 6342   4.260   2.801  17.597 -1.8803  2.9704 -0.2555
  425MPD2    H1 6343   4.264   2.997   0.279 -1.2506 -0.0394 -0.2268
  425MPD2    H2 6344   4.628   2.916   0.088  0.1813 -1.3976 -1.0843
  425MPD2    H3 6345   4.497   3.011   0.269  0.3045 -1.4361  0.8951
  425MPD2     N 6346   4.104   2.893   0.074  0.1149 -0.1863  0.0519
  425MPD2    H5 6347   4.062   2.858  17.690  2.1142 -0.0262 -1.0056
  425MPD2    N1 6348   4.541   2.787  17.570  0.5517  0.2970  0.4996
  425MPD2    H7 6349   4.639   2.772  17.593  0.9745  0.6593 -1.1018
  426TMC3    C1 6350   4.610   2.703  17.358 -0.0005 -0.2967 -0.0805
  426TMC3    C2 6351   4.569   2.648  17.244  0.2579 -0.1864  0.2202
  426TMC3    C3 6352   4.664   2.568  17.185 -0.0114 -0.0366 -0.1176
  426TMC3    C4 6353   0.011   2.695  17.411 -0.4609  0.2815  0.2389
  426TMC3    C5 6354   0.107   2.620  17.339  0.5666 -0.3387  0.1403
  426TMC3    C6 6355   0.069   2.554  17.225  0.3077 -0.0940 -0.8155
  426TMC3     C 6356   4.502   2.774  17.434  0.1260 -0.4174  0.2990
  426TMC3     O 6357   4.399   2.813  17.376  0.5335 -0.1744  1.0627
  426TMC3     H 6358   4.470   2.665  17.202  0.7739  0.6133 -0.6862
  426TMC3    H1 6359   0.042   2.748  17.500  0.9348  0.0292 -0.1007
  426TMC3    H2 6360   0.138   2.491  17.169  2.7111  2.7813 -1.0993
  426TMC3    C7 6361   0.238   2.606  17.384  0.0158 -0.1551  0.3206
  426TMC3    C8 6362   4.619   2.470  17.088  0.8246 -0.1384  0.0758
  426TMC3    O1 6363   0.313   2.559  17.299 -0.1103 -0.4090 -0.3041
  426TMC3    O2 6364   4.702   2.384  17.064 -0.0732  0.0839  0.3216
  427MPD2     C 6365   3.153   0.256  15.058  0.0092 -0.4300  0.0427
  427MPD2    C1 6366   3.095   0.192  15.169 -0.3833 -0.0039 -0.1206
  427MPD2    C2 6367   2.955   0.200  15.190 -0.3573 -0.0232 -0.0061
  427MPD2    C3 6368   2.876   0.263  15.096  0.0674  0.1171  0.4544
  427MPD2    C4 6369   2.928   0.322  14.982 -0.1720  0.6428  0.4381
  427MPD2    C5 6370   3.073   0.326  14.972  0.4379 -0.2095 -0.2120
  427MPD2     H 6371   2.912   0.162  15.282 -0.0882  0.4668  0.3229
  427MPD2    H1 6372   2.869   0.378  14.910  0.8780  0.2992 -0.6895
  427MPD2    H2 6373   3.255   0.262  15.023  0.0698 -1.1006  0.1081
  427MPD2    H3 6374   3.117   0.374  14.886  1.3572 -0.2760  0.2292
  427MPD2     N 6375   2.734   0.271  15.114  0.2270 -0.1112 -0.1455
  427MPD2    H5 6376   2.685   0.318  15.038 -1.5423 -0.7592  0.5909
  427MPD2    N1 6377   3.173   0.112  15.257 -0.1412 -1.0409  0.4942
  427MPD2    H7 6378   3.121   0.049  15.317 -2.8329  0.6275 -0.0786
  428TMC3    C1 6379   3.356   0.025  15.363 -0.2179  0.0363 -0.7197
  428TMC3    C2 6380   3.283   4.642  15.409  0.5643  0.0052 -0.4070
  428TMC3    C3 6381   3.300   4.584  15.525 -0.4131 -0.4536  0.2162
  428TMC3    C4 6382   3.454   0.071  15.441 -0.4189  0.0541 -0.3118
  428TMC3    C5 6383   3.466   0.012  15.561  0.2229 -0.3378  0.2506
  428TMC3    C6 6384   3.395   4.632  15.609 -0.4277 -0.0084  1.2721
  428TMC3     C 6385   3.310   0.109  15.256 -0.1166  0.3188  0.3666
  428TMC3     O 6386   3.392   0.181  15.197  0.4665 -0.0585 -0.0017
  428TMC3     H 6387   3.211   4.601  15.339 -0.1373 -1.0355  0.9178
  428TMC3    H1 6388   3.507   0.157  15.401 -1.3338  0.6380 -0.2585
  428TMC3    H2 6389   3.426   4.587  15.703 -1.2651 -1.6228  0.7630
  428TMC3    C7 6390   3.555   0.080  15.656  0.3707  0.1017 -0.8924
  428TMC3    C8 6391   3.225   4.472  15.564 -0.5168  0.7080 -0.1910
  428TMC3    O1 6392   3.541   0.043  15.771 -0.2733 -0.1672 -0.4783
  428TMC3    O2 6393   3.169   4.409  15.480  0.0668 -0.1677  0.2505
  429MPD2     C 6394   3.631   0.017   0.548  0.4014 -0.1159  0.2101
  429MPD2    C1 6395   3.692   4.696   0.433  0.1038 -0.6428 -0.2713
  429MPD2    C2 6396   3.749   0.055   0.341  0.7262  1.2033  0.8848
  429MPD2    C3 6397   3.738   0.191   0.358 -0.2925  0.1780  0.3558
  429MPD2    C4 6398   3.674   0.239   0.471  0.4683 -0.1943  0.2504
  429MPD2    C5 6399   3.626   0.157   0.568  0.4542  0.4023  0.4713
  429MPD2     H 6400   3.793   0.013   0.251  0.8258 -1.6294  2.2569
  429MPD2    H1 6401   3.679   0.345   0.492 -0.5129  0.1491 -1.2776
  429MPD2    H2 6402   3.591   4.666   0.614  1.6804  0.4051  1.5789
  429MPD2    H3 6403   3.587   0.190   0.663  0.5728  1.1630  0.2616
  429MPD2     N 6404   3.815   0.278   0.270 -0.4630  0.7245  0.5214
  429MPD2    H5 6405   3.868   0.235   0.196  1.1383  1.0887  1.4533
  429MPD2    N1 6406   3.707   4.558   0.407 -0.2264  0.0953 -0.0499
  429MPD2    H7 6407   3.771   4.529   0.333  0.2659 -0.0985  0.4518
  430TMC3    C1 6408   3.896   0.477   0.175 -0.1372 -0.0298 -0.7051
  430TMC3    C2 6409   3.851   0.599   0.126 -0.1106  0.1154  0.2388
  430TMC3    C3 6410   3.940   0.673   0.055 -0.2542  0.5899  0.2098
  430TMC3    C4 6411   4.020   0.427   0.153 -0.2949  0.8298 -0.4658
  430TMC3    C5 6412   4.111   0.509   0.078  0.1976  0.0387 -0.5559
  430TMC3    C6 6413   4.075   0.639   0.044 -0.0534 -0.2811  0.3104
  430TMC3     C 6414   3.794   0.416   0.264 -0.0246  0.0805 -0.1320
  430TMC3     O 6415   3.718   0.493   0.325 -0.2369  0.1655 -0.9310
  430TMC3     H 6416   3.748   0.628   0.140 -0.2587 -0.6978  0.8440
  430TMC3    H1 6417   4.040   0.325   0.182 -1.9383  0.5257 -0.4272
  430TMC3    H2 6418   4.142   0.714   0.005  1.4959 -0.8394  1.9278
  430TMC3    C7 6419   4.176   0.435  17.669 -0.5432  0.2092 -0.1164
  430TMC3    C8 6420   3.894   0.697  17.620 -0.1032  0.2303  0.7923
  430TMC3    O1 6421   4.174   0.313  17.676  0.3118 -0.0228 -0.3957
  430TMC3    O2 6422   3.960   0.762  17.543  0.1267  0.1212 -0.1037
  431MPD2     C 6423   0.682   0.688  12.640  0.5857  0.3425 -0.1868
  431MPD2    C1 6424   0.785   0.675  12.545  0.0698 -0.3446  0.3367
  431MPD2    C2 6425   0.767   0.599  12.430 -1.0444  0.7699  0.0085
  431MPD2    C3 6426   0.649   0.538  12.415 -0.7283  0.0832 -0.5440
  431MPD2    C4 6427   0.545   0.550  12.510 -0.0258  0.1578  0.4075
  431MPD2    C5 6428   0.568   0.622  12.621  0.0880  0.1976 -0.1283
  431MPD2     H 6429   0.845   0.589  12.355 -1.8414  1.4017 -0.9058
  431MPD2    H1 6430   0.442   0.516  12.506  0.5243 -1.2064 -1.8141
  431MPD2    H2 6431   0.691   0.744  12.733 -2.0909 -0.1811  0.3960
  431MPD2    H3 6432   0.491   0.623  12.697 -0.9631  0.3004 -1.1910
  431MPD2     N 6433   0.630   0.444  12.314  0.0859  0.3382 -0.6192
  431MPD2    H5 6434   0.549   0.384  12.328  2.3555 -2.9539 -1.3928
  431MPD2    N1 6435   0.911   0.744  12.556  0.4158  0.1330 -0.2338
  431MPD2    H7 6436   0.977   0.726  12.481 -0.0648 -1.0084 -0.3805
  432TMC3    C1 6437   0.709   0.269  12.182  0.0607  0.4689 -0.6411
  432TMC3    C2 6438   0.758   0.225  12.062 -0.1919 -0.2519 -0.2672
  432TMC3    C3 6439   0.782   0.097  12.044  0.1837  0.2556 -0.1417
  432TMC3    C4 6440   0.690   0.181  12.288 -0.0032  1.7733 -0.4860
  432TMC3    C5 6441   0.710   0.043  12.264 -0.4945 -0.6820 -0.9314
  432TMC3    C6 6442   0.747   4.724  12.137  0.4578 -0.3328  0.2326
  432TMC3     C 6443   0.704   0.413  12.204  0.0544 -0.2482 -0.1195
  432TMC3     O 6444   0.793   0.483  12.151 -0.5654 -0.1488 -0.4684
  432TMC3     H 6445   0.772   0.302  11.987  0.2239 -1.2649 -1.2138
  432TMC3    H1 6446   0.667   0.213  12.389 -0.8087 -0.8210  0.1523
  432TMC3    H2 6447   0.777   4.622  12.117  0.7061 -0.1591 -0.2713
  432TMC3    C7 6448   0.757   4.680  12.368  0.5126  0.3556  0.6245
  432TMC3    C8 6449   0.854   0.051  11.928  0.0392  0.4150 -0.1313
  432TMC3    O1 6450   0.846   4.600  12.336 -0.3279 -0.1968  0.1354
  432TMC3    O2 6451   0.846   4.656  11.901 -0.1130 -0.0521 -0.0853
  433MPD2     C 6452   4.286   3.772  10.977 -0.5404 -0.6244 -0.2536
  433MPD2    C1 6453   4.180   3.709  11.034 -0.6939 -0.1207  0.5205
  433MPD2    C2 6454   4.152   3.717  11.165  0.1595  0.4673  0.0948
  433MPD2    C3 6455   4.210   3.814  11.245 -0.5873 -0.2735 -0.2971
  433MPD2    C4 6456   4.309   3.894  11.192  0.3594 -0.2347 -0.4312
  433MPD2    C5 6457   4.352   3.866  11.060 -0.2253 -0.5985  0.4340
  433MPD2     H 6458   4.082   3.647  11.209  0.8219  0.7063  1.5264
  433MPD2    H1 6459   4.351   3.971  11.256  0.0011 -1.5906  1.4219
  433MPD2    H2 6460   4.305   3.756  10.871  0.6749 -2.2229  0.2083
  433MPD2    H3 6461   4.431   3.926  11.017 -0.6514 -0.6714 -0.4479
  433MPD2     N 6462   4.172   3.808  11.388  1.1334 -0.1112  0.1505
  433MPD2    H5 6463   4.104   3.736  11.409 -0.7815  1.4898 -0.5077
  433MPD2    N1 6464   4.117   3.609  10.955 -0.2702  0.1217  0.2612
  433MPD2    H7 6465   4.181   3.560  10.893 -0.5959 -0.5604  0.4663
  434TMC3    C1 6466   3.975   3.435  10.923  0.1100 -0.5058 -0.0527
  434TMC3    C2 6467   4.002   3.322  11.000  0.2538  0.5516 -0.7086
  434TMC3    C3 6468   4.054   3.217  10.934 -0.1665  0.4472  0.6527
  434TMC3    C4 6469   4.029   3.444  10.794 -0.6619  0.8480  0.9152
  434TMC3    C5 6470   4.089   3.339  10.728 -0.0683  0.2007  0.2317
  434TMC3    C6 6471   4.095   3.227  10.800  0.3500 -0.1949  0.1317
  434TMC3     C 6472   3.998   3.555  10.994 -0.8315 -0.2252 -0.2494
  434TMC3     O 6473   3.912   3.599  11.071  0.0133  0.3784 -0.8103
  434TMC3     H 6474   3.981   3.325  11.107 -0.7405  0.5829 -0.9103
  434TMC3    H1 6475   4.020   3.538  10.741 -2.5258 -0.8455 -1.8359
  434TMC3    H2 6476   4.148   3.142  10.760  2.9888  1.6387 -0.2455
  434TMC3    C7 6477   4.048   3.324  10.586 -0.3178  0.0828  0.1827
  434TMC3    C8 6478   4.133   3.130  11.021 -0.8895 -0.3016 -0.0800
  434TMC3    O1 6479   3.983   3.411  10.529  0.0006  0.0178 -0.4882
  434TMC3    O2 6480   4.121   3.154  11.138  0.7742  0.3708  0.6799
  435MPD2     C 6481   1.239   4.037  15.617  0.2868  0.4995 -0.2145
  435MPD2    C1 6482   1.182   3.964  15.719  1.0813 -0.1385 -0.6321
  435MPD2    C2 6483   1.265   3.864  15.775  0.3107  0.0215 -0.3907
  435MPD2    C3 6484   1.389   3.838  15.721 -0.5307  0.4102 -0.2890
  435MPD2    C4 6485   1.431   3.901  15.609 -0.7442 -0.2084 -0.1547
  435MPD2    C5 6486   1.350   3.994  15.543 -0.1809 -0.4179 -0.9018
  435MPD2     H 6487   1.239   3.808  15.864 -0.4993  0.3541 -0.4172
  435MPD2    H1 6488   1.524   3.879  15.557 -0.4308 -1.3598  0.8881
  435MPD2    H2 6489   1.197   4.124  15.568 -0.6727 -0.9183 -1.8775
  435MPD2    H3 6490   1.382   4.054  15.459  0.0965  0.0215 -0.4784
  435MPD2     N 6491   1.469   3.741  15.792  0.1454 -0.4963 -0.1204
  435MPD2    H5 6492   1.420   3.685  15.862 -1.3391  0.3039 -0.5090
  435MPD2    N1 6493   1.057   3.988  15.785 -0.3493 -0.1443 -0.3503
  435MPD2    H7 6494   1.030   3.941  15.870  1.3880  0.2950  0.4425
  436TMC3    C1 6495   0.769   4.132  16.041  0.7079  0.6793  0.6204
  436TMC3    C2 6496   0.880   4.101  15.966 -0.0942  0.1368  0.0646
  436TMC3    C3 6497   0.858   4.100  15.834  0.1801 -0.1222 -0.1050
  436TMC3    C4 6498   0.653   4.175  15.975 -0.0101 -0.0908 -0.3818
  436TMC3    C5 6499   0.649   4.175  15.848  0.1444  0.2458 -0.6388
  436TMC3    C6 6500   0.749   4.143  15.769 -0.3998  1.0008 -0.1822
  436TMC3     C 6501   0.812   4.175  16.173 -0.7171 -0.1218 -0.2713
  436TMC3     O 6502   0.928   4.171  16.204 -0.1879 -0.5467 -0.2558
  436TMC3     H 6503   0.975   4.074  16.011  0.7198 -0.6729 -2.1326
  436TMC3    H1 6504   0.575   4.214  16.040 -0.3285 -0.2411 -0.6724
  436TMC3    H2 6505   0.735   4.139  15.662  1.3232  2.2489 -0.4444
  436TMC3    C7 6506   0.524   4.176  15.785  0.9519  0.1191  0.3558
  436TMC3    C8 6507   0.971   4.086  15.741 -0.3382  0.6345  0.5837
  436TMC3    O1 6508   0.507   4.218  15.673 -0.4089  0.0848 -0.9217
  436TMC3    O2 6509   0.973   4.167  15.651  0.3266 -0.1535  0.3603
  437TMC3    C1 6510   0.405   1.005  12.775 -0.5609 -0.1434  0.2876
  437TMC3    C2 6511   0.272   1.011  12.751 -0.0986  0.2256 -0.2314
  437TMC3    C3 6512   0.230   1.107  12.671 -0.1935 -0.6329  0.4496
  437TMC3    C4 6513   0.499   1.078  12.702  0.6771  0.5080  0.2395
  437TMC3    C5 6514   0.449   1.165  12.611 -0.1579  0.2086  0.4909
  437TMC3    C6 6515   0.312   1.185  12.596 -0.4366 -0.4276 -0.2349
  437TMC3     C 6516   0.448   0.898  12.861  0.1987 -0.3796 -0.0384
  437TMC3     O 6517   0.365   0.810  12.873 -0.1983  0.4041 -0.6303
  437TMC3     H 6518   0.207   0.943  12.806 -0.1231 -0.9065 -1.6679
  437TMC3    H1 6519   0.605   1.051  12.701  0.7050  0.4724  3.2007
  437TMC3    H2 6520   0.274   1.258  12.525 -3.5097 -1.1923  0.6203
  437TMC3    C7 6521   0.533   1.272  12.548  0.1008 -0.2081 -1.3369
  437TMC3    C8 6522   0.093   1.143  12.700  0.1513  0.0273 -0.0114
  437TMC3    O1 6523   0.485   1.338  12.456  0.2116  0.1189 -0.2829
  437TMC3    O2 6524   0.020   1.050  12.742  0.0716 -0.4961  0.0828
  438MPD2     C 6525   2.334   1.797  16.630 -0.4219  0.2399 -0.4518
  438MPD2    C1 6526   2.382   1.745  16.751 -0.4134  0.8762  0.4664
  438MPD2    C2 6527   2.321   1.779  16.870  0.2737  0.2593  0.7282
  438MPD2    C3 6528   2.220   1.871  16.871  0.0815 -0.7490  0.1658
  438MPD2    C4 6529   2.194   1.939  16.756 -0.6960  0.1055  0.4094
  438MPD2    C5 6530   2.243   1.897  16.638 -0.1019 -0.5987 -0.3547
  438MPD2     H 6531   2.361   1.733  16.960  0.8696 -0.0540  0.2975
  438MPD2    H1 6532   2.119   2.016  16.739  0.3183  0.8635 -0.5953
  438MPD2    H2 6533   2.380   1.766  16.536 -0.9541 -1.6526 -0.0799
  438MPD2    H3 6534   2.198   1.937  16.547 -0.0163  1.3392  0.4539
  438MPD2     N 6535   2.143   1.909  16.987  0.6145  1.2415  0.1188
  438MPD2    H5 6536   2.074   1.984  16.986 -2.4497 -1.5298  1.3757
  438MPD2    N1 6537   2.489   1.663  16.758  0.2324  0.8103  0.2831
  438MPD2    H7 6538   2.510   1.618  16.846  4.0433 -0.6059 -1.3555
  439TMC3    C1 6539   2.667   1.528  16.688 -0.7824  0.6307 -0.0953
  439TMC3    C2 6540   2.769   1.524  16.607 -0.4008 -0.2757 -0.3527
  439TMC3    C3 6541   2.865   1.429  16.638 -0.1847  0.0289  0.1594
  439TMC3    C4 6542   2.643   1.449  16.802 -0.7846 -0.1448 -0.3010
  439TMC3    C5 6543   2.735   1.354  16.833 -0.0477 -0.1245  0.2590
  439TMC3    C6 6544   2.849   1.350  16.758 -0.0609 -0.2254 -0.3723
  439TMC3     C 6545   2.575   1.629  16.650 -0.3265  0.1061 -0.4202
  439TMC3     O 6546   2.591   1.686  16.546  0.0204 -0.2933  0.1061
  439TMC3     H 6547   2.783   1.598  16.529 -0.6358 -0.6532 -0.7493
  439TMC3    H1 6548   2.551   1.451  16.860 -0.6908  1.5245 -0.2221
  439TMC3    H2 6549   2.933   1.291  16.791  0.0354 -0.1702 -0.5151
  439TMC3    C7 6550   2.739   1.286  16.964 -0.2557 -0.1652  0.1400
  439TMC3    C8 6551   2.995   1.444  16.587 -0.0493  0.3889  0.1319
  439TMC3    O1 6552   2.846   1.236  17.001  0.0157 -0.3182 -0.0769
  439TMC3    O2 6553   3.095   1.391  16.635 -0.3992  0.0684 -0.4810
  440MPD2     C 6554   0.507   1.691  15.461  0.2355  0.5203  0.0922
  440MPD2    C1 6555   0.584   1.757  15.564 -0.6028  0.9418 -0.3625
  440MPD2    C2 6556   0.676   1.680  15.628  0.0416 -0.1258  0.1910
  440MPD2    C3 6557   0.717   1.556  15.579 -0.8202 -0.4059 -0.3976
  440MPD2    C4 6558   0.640   1.490  15.489  0.0661  0.1353 -0.1094
  440MPD2    C5 6559   0.536   1.562  15.431  0.3121  0.2287 -0.1017
  440MPD2     H 6560   0.737   1.726  15.704 -3.1485  2.3011  1.2908
  440MPD2    H1 6561   0.675   1.397  15.447  0.0344 -0.8376  2.0458
  440MPD2    H2 6562   0.429   1.742  15.406  0.9042 -0.5200 -1.8364
  440MPD2    H3 6563   0.477   1.516  15.352  0.3402  0.7382 -0.4226
  440MPD2     N 6564   0.832   1.500  15.641 -0.1814  0.0912  0.2124
  440MPD2    H5 6565   0.858   1.544  15.729  0.7508  0.2058 -0.1195
  440MPD2    N1 6566   0.573   1.892  15.607 -0.2340  0.0354  0.9431
  440MPD2    H7 6567   0.640   1.914  15.680  0.3834  4.1611 -0.9041
  441TMC3    C1 6568   1.043   1.412  15.668  0.0549  0.2029  0.0590
  441TMC3    C2 6569   1.158   1.442  15.610  0.2392  0.3528  0.2445
  441TMC3    C3 6570   1.251   1.505  15.689  0.3114 -0.1453  0.0041
  441TMC3    C4 6571   1.020   1.429  15.804 -0.2275  0.7935 -0.7986
  441TMC3    C5 6572   1.119   1.487  15.880 -0.1577 -0.7128  0.2111
  441TMC3    C6 6573   1.240   1.525  15.825 -0.2761 -0.3900 -0.2784
  441TMC3     C 6574   0.928   1.419  15.583 -0.2455  0.3181  0.0542
  441TMC3     O 6575   0.936   1.405  15.464 -0.0169 -0.6498 -0.0768
  441TMC3     H 6576   1.170   1.437  15.503  0.3248  1.3681  0.2003
  441TMC3    H1 6577   0.930   1.398  15.856  0.8469 -0.5500  0.2670
  441TMC3    H2 6578   1.307   1.593  15.876  0.2095 -0.3645 -0.9499
  441TMC3    C7 6579   1.075   1.530  16.016  0.5563 -0.0124  0.1904
  441TMC3    C8 6580   1.339   1.596  15.619 -0.2221  0.1284  0.1459
  441TMC3    O1 6581   0.968   1.582  16.033  0.5655 -0.2158  0.0712
  441TMC3    O2 6582   1.418   1.547  15.542  0.2764 -0.1583 -0.2853
  442MPD2     C 6583   4.134   3.021  16.691 -0.1943  0.0146 -0.4517
  442MPD2    C1 6584   4.043   2.931  16.738 -0.1625 -0.3989 -0.4113
  442MPD2    C2 6585   4.034   2.803  16.692  0.2110 -0.3022 -0.1400
  442MPD2    C3 6586   4.106   2.765  16.582  0.5085  0.1209  0.0042
  442MPD2    C4 6587   4.199   2.852  16.532 -0.2661 -0.9259  0.0997
  442MPD2    C5 6588   4.218   2.978  16.587 -0.6026  0.0014 -1.1379
  442MPD2     H 6589   3.955   2.747  16.741 -0.6201 -0.1026 -1.2687
  442MPD2    H1 6590   4.263   2.838  16.446 -0.3050  3.0117 -0.5956
  442MPD2    H2 6591   4.145   3.123  16.724 -1.2875 -0.1529  0.4233
  442MPD2    H3 6592   4.281   3.045  16.530 -0.2839  0.7299  0.0778
  442MPD2     N 6593   4.079   2.639  16.520 -0.2148  0.7481 -0.2135
  442MPD2    H5 6594   4.130   2.597  16.443  2.0278 -1.0878  2.2770
  442MPD2    N1 6595   3.945   2.965  16.827 -0.7207 -0.3296 -0.3408
  442MPD2    H7 6596   3.897   2.888  16.874 -1.7767  0.1437 -0.6406
  443TMC3    C1 6597   3.791   3.091  16.962  0.0684  0.4530 -0.6082
  443TMC3    C2 6598   3.694   3.190  16.951  0.1901 -0.2341 -0.4851
  443TMC3    C3 6599   3.576   3.175  17.021  0.0874 -0.3145 -0.2622
  443TMC3    C4 6600   3.776   2.991  17.048  0.7511 -0.0352  0.0326
  443TMC3    C5 6601   3.664   2.989  17.128  0.1535 -0.2610 -0.0822
  443TMC3    C6 6602   3.562   3.081  17.114 -0.5060 -0.5474 -0.4594
  443TMC3     C 6603   3.899   3.087  16.858  0.3723  0.4749 -0.0428
  443TMC3     O 6604   3.922   3.195  16.804  0.1096  0.1356 -0.0701
  443TMC3     H 6605   3.705   3.266  16.875 -1.7988 -0.0556 -0.5862
  443TMC3    H1 6606   3.857   2.921  17.069  0.5499 -0.1869  0.2987
  443TMC3    H2 6607   3.470   3.077  17.171  0.1941  0.5240  0.7487
  443TMC3    C7 6608   3.641   2.881  17.225  0.5829 -0.2405  0.2047
  443TMC3    C8 6609   3.454   3.253  16.989  0.0905 -0.0421 -0.3192
  443TMC3    O1 6610   3.709   2.784  17.214 -0.1718 -0.1752 -0.0818
  443TMC3    O2 6611   3.388   3.294  17.082  0.7699 -0.0805 -0.4660
  444MPD2     C 6612   4.291   1.996   0.001  0.9552  0.2699 -0.5155
  444MPD2    C1 6613   4.235   1.870  17.695 -0.6463 -0.3485  0.8507
  444MPD2    C2 6614   4.296   1.773  17.621  0.2894 -0.2961 -0.1334
  444MPD2    C3 6615   4.420   1.795  17.566 -0.3004  0.5091 -0.7513
  444MPD2    C4 6616   4.473   1.927  17.558 -0.6760  0.2551  0.5277
  444MPD2    C5 6617   4.407   2.025  17.634  0.3498 -0.4364  0.7298
  444MPD2     H 6618   4.250   1.675  17.618 -0.4316  0.0329  0.2472
  444MPD2    H1 6619   4.566   1.955  17.509  0.1913 -1.7882  1.0011
  444MPD2    H2 6620   4.249   2.082   0.052  1.1240 -0.1945  0.4001
  444MPD2    H3 6621   4.443   2.127  17.622 -0.8121 -0.2300 -0.9087
  444MPD2     N 6622   4.477   1.689  17.500 -0.1218 -0.3436 -0.5117
  444MPD2    H5 6623   4.441   1.596  17.516 -0.3297 -0.3755 -1.2133
  444MPD2    N1 6624   4.103   1.834   0.044 -0.7871  0.1144  0.4434
  444MPD2    H7 6625   4.072   1.741   0.020 -0.9687  0.5023 -0.8198
  445TMC3    C1 6626   4.659   1.562  17.415 -0.1430 -0.2683 -0.3879
  445TMC3    C2 6627   4.596   1.454  17.467 -0.2535 -0.0909 -0.2907
  445TMC3    C3 6628   4.651   1.328  17.461 -0.5752 -0.0584 -0.2770
  445TMC3    C4 6629   0.053   1.552  17.349  0.3639 -0.6023 -0.5073
  445TMC3    C5 6630   0.106   1.430  17.348  0.0979  0.0367  0.4621
  445TMC3    C6 6631   0.047   1.318  17.394  0.3102  0.0589 -0.8436
  445TMC3     C 6632   4.593   1.689  17.431 -0.2387  0.4409  0.0803
  445TMC3     O 6633   4.665   1.781  17.389 -0.0895  0.3909 -0.5693
  445TMC3     H 6634   4.503   1.459  17.524 -0.6912 -0.4087 -0.9835
  445TMC3    H1 6635   0.104   1.637  17.306 -0.9488  0.6225  0.3393
  445TMC3    H2 6636   0.084   1.216  17.382  0.8702  0.0739  0.7241
  445TMC3    C7 6637   0.228   1.425  17.275 -1.0080 -0.0196 -0.8157
  445TMC3    C8 6638   4.568   1.210  17.491  0.9620 -0.6163 -0.2998
  445TMC3    O1 6639   0.251   1.515  17.190 -0.3528  0.0178 -0.1244
  445TMC3    O2 6640   4.588   1.113  17.425 -0.0249 -0.5645 -0.3753
  446MPD2     C 6641   3.872   3.016  11.633  0.0358  0.7001  0.4412
  446MPD2    C1 6642   3.886   2.993  11.496 -0.1378  0.6547  0.2256
  446MPD2    C2 6643   3.989   3.047  11.422  0.3784 -0.2134 -0.0353
  446MPD2    C3 6644   4.078   3.136  11.475  1.0975  0.5289  0.4628
  446MPD2    C4 6645   4.071   3.152  11.613 -0.1194 -0.1808  0.5821
  446MPD2    C5 6646   3.969   3.092  11.687 -0.3314 -0.6679 -0.0001
  446MPD2     H 6647   3.987   3.025  11.316 -0.4653 -2.0977  0.3635
  446MPD2    H1 6648   4.139   3.218  11.665  0.2610 -1.0367  1.1728
  446MPD2    H2 6649   3.788   2.993  11.698 -0.9947  0.3455 -0.9932
  446MPD2    H3 6650   3.965   3.128  11.789 -0.8559  2.6449 -1.2118
  446MPD2     N 6651   4.185   3.180  11.402 -0.9655  0.1741 -0.1968
  446MPD2    H5 6652   4.170   3.179  11.301 -1.6933  0.2058 -0.0908
  446MPD2    N1 6653   3.793   2.919  11.418  0.4204 -0.2801  0.2357
  446MPD2    H7 6654   3.812   2.908  11.319 -1.0327  0.4851 -0.1244
  447TMC3    C1 6655   4.410   3.222  11.342 -0.1675  0.3447 -0.0545
  447TMC3    C2 6656   4.374   3.290  11.233 -0.8880  0.6990 -0.1597
  447TMC3    C3 6657   4.473   3.322  11.150  0.1293  0.2607 -0.9289
  447TMC3    C4 6658   4.540   3.199  11.381  0.0432 -0.1325 -0.6168
  447TMC3    C5 6659   4.638   3.242  11.297  0.0696 -1.6333 -0.7844
  447TMC3    C6 6660   4.607   3.297  11.173  0.6037 -0.4474 -0.2127
  447TMC3     C 6661   4.310   3.198  11.452  0.1007  0.0953  0.7524
  447TMC3     O 6662   4.349   3.139  11.551  0.3056 -0.3137 -0.2084
  447TMC3     H 6663   4.278   3.325  11.198 -0.0137  1.4803 -1.7592
  447TMC3    H1 6664   4.561   3.160  11.480  0.3862 -0.6254 -0.8881
  447TMC3    H2 6665   4.686   3.305  11.100  2.1438 -1.4907  1.3555
  447TMC3    C7 6666   0.045   3.207  11.325  0.0789  0.0486  0.1597
  447TMC3    C8 6667   4.438   3.392  11.026 -0.3649 -0.2372  0.1172
  447TMC3    O1 6668   0.057   3.113  11.406  0.1806  0.6814  0.2689
  447TMC3    O2 6669   4.332   3.373  10.968 -0.1810 -0.2923  0.2261
  448TMC3    C1 6670   2.826   3.583  17.195  0.3824  0.1488 -0.4169
  448TMC3    C2 6671   2.823   3.458  17.130 -0.6499 -0.1252 -0.3649
  448TMC3    C3 6672   2.916   3.370  17.171  0.4733  0.4021  0.6575
  448TMC3    C4 6673   2.919   3.611  17.296  0.4707  0.6400 -0.1105
  448TMC3    C5 6674   3.013   3.516  17.332  0.1305  0.5286 -0.3979
  448TMC3    C6 6675   3.009   3.394  17.270  0.0092  0.0681 -0.3290
  448TMC3     C 6676   2.694   3.649  17.188 -0.9577  0.5119  0.0396
  448TMC3     O 6677   2.591   3.590  17.173 -0.4021  0.5722  0.8863
  448TMC3     H 6678   2.752   3.431  17.053 -0.7843  0.0546 -0.3048
  448TMC3    H1 6679   2.905   3.705  17.347  0.3082  0.5529  0.0064
  448TMC3    H2 6680   3.086   3.324  17.300  0.1110 -0.4538 -1.7662
  448TMC3    C7 6681   3.032   3.509  17.477  0.0754  0.2625 -0.2233
  448TMC3    C8 6682   2.899   3.225  17.143 -1.4823 -0.6104  0.1674
  448TMC3    O1 6683   3.085   3.604  17.533  0.6366 -0.4008  0.3752
  448TMC3    O2 6684   2.985   3.156  17.192  0.1777 -0.4086 -0.5035
  449MPD2     C 6685   4.322   1.288  13.934  0.7930 -0.2999 -0.6906
  449MPD2    C1 6686   4.210   1.283  13.863 -0.2595 -0.6077 -0.2109
  449MPD2    C2 6687   4.094   1.243  13.926 -0.3731 -0.5214  0.1056
  449MPD2    C3 6688   4.096   1.211  14.061 -0.9109  1.3937  0.1024
  449MPD2    C4 6689   4.211   1.212  14.134  0.3739 -0.1323 -0.0339
  449MPD2    C5 6690   4.327   1.242  14.063  0.6299 -0.0298  0.8503
  449MPD2     H 6691   4.005   1.223  13.867 -0.8793  0.9917  0.3586
  449MPD2    H1 6692   4.229   1.204  14.240  0.3564 -0.9463 -0.0960
  449MPD2    H2 6693   4.418   1.318  13.894 -0.0413  2.2827 -0.7947
  449MPD2    H3 6694   4.425   1.237  14.110  0.9133 -0.9452  0.1689
  449MPD2     N 6695   3.976   1.162  14.117 -0.0245 -0.4231  0.3124
  449MPD2    H5 6696   3.894   1.153  14.059  1.3016  0.9387 -1.7804
  449MPD2    N1 6697   4.200   1.298  13.724 -0.2522  0.3372 -0.1934
  449MPD2    H7 6698   4.107   1.301  13.683  0.1532 -2.6619 -1.3638
  450TMC3    C1 6699   4.252   1.243  13.505 -0.2717 -0.5088  0.0196
  450TMC3    C2 6700   4.292   1.119  13.467  0.8395 -0.5201 -0.1380
  450TMC3    C3 6701   4.189   1.037  13.419 -0.5787 -0.0846  0.0237
  450TMC3    C4 6702   4.123   1.279  13.495  0.2227 -0.7041 -0.5841
  450TMC3    C5 6703   4.028   1.192  13.452  0.4201 -0.0001  0.5816
  450TMC3    C6 6704   4.059   1.061  13.415 -0.6726 -0.3002  0.9048
  450TMC3     C 6705   4.303   1.286  13.637  0.4726 -0.0211  0.0584
  450TMC3     O 6706   4.420   1.259  13.652 -0.1026  0.3748 -0.3642
  450TMC3     H 6707   4.398   1.098  13.472  1.0841  0.7447  0.1088
  450TMC3    H1 6708   4.094   1.382  13.510  1.2449 -0.5369  0.2496
  450TMC3    H2 6709   3.992   0.986  13.374 -0.3592  0.0501 -0.2630
  450TMC3    C7 6710   3.906   1.224  13.525  0.6354 -0.3025  0.0910
  450TMC3    C8 6711   4.233   0.909  13.370  0.1347 -0.1048 -0.2525
  450TMC3    O1 6712   3.935   1.264  13.635  0.2526  0.2102  0.2602
  450TMC3    O2 6713   4.162   0.812  13.384 -0.0503  0.1885  1.0033
  451MPD2     C 6714   0.326   0.149   1.975  0.0531 -0.0980 -0.0081
  451MPD2    C1 6715   0.301   0.198   1.846 -0.1775  0.3139 -0.2437
  451MPD2    C2 6716   0.402   0.189   1.752  0.3421 -0.4408 -0.0611
  451MPD2    C3 6717   0.527   0.135   1.789 -0.8038  0.6113 -0.0030
  451MPD2    C4 6718   0.548   0.077   1.910  0.2328  0.3648  0.7150
  451MPD2    C5 6719   0.449   0.091   1.998  0.5816  0.0500 -0.0641
  451MPD2     H 6720   0.395   0.234   1.654 -0.6830  1.1197  0.7278
  451MPD2    H1 6721   0.640   0.026   1.938  0.7223  1.2869  0.7897
  451MPD2    H2 6722   0.247   0.147   2.049  0.2851  2.1959  0.3081
  451MPD2    H3 6723   0.449   0.038   2.093 -0.5147 -2.3527 -1.4203
  451MPD2     N 6724   0.636   0.121   1.695 -0.2406 -0.1915  0.4411
  451MPD2    H5 6725   0.713   0.061   1.722  0.9692  0.5300 -1.3841
  451MPD2    N1 6726   0.179   0.272   1.823  0.4284  0.2051 -0.4956
  451MPD2    H7 6727   0.104   0.272   1.892  0.6253  1.5401 -0.2823
  452TMC3    C1 6728   0.776   0.120   1.509  0.1450 -0.3567  0.3914
  452TMC3    C2 6729   0.857   0.034   1.568 -0.0491  0.1056 -0.1258
  452TMC3    C3 6730   0.959   4.707   1.488  0.2589  0.5772  0.2765
  452TMC3    C4 6731   0.788   0.146   1.369  0.7481  0.5905 -0.0099
  452TMC3    C5 6732   0.887   0.083   1.294  0.3317 -0.1346  1.1292
  452TMC3    C6 6733   0.976   4.721   1.354  0.4573 -0.4147 -0.2245
  452TMC3     C 6734   0.661   0.175   1.574  0.7346  0.1631  0.3305
  452TMC3     O 6735   0.603   0.267   1.519  0.0635 -1.0230  0.1728
  452TMC3     H 6736   0.852   0.031   1.677 -2.0845  1.5603 -0.1771
  452TMC3    H1 6737   0.719   0.205   1.309  0.5064  0.8201  0.4888
  452TMC3    H2 6738   1.060   4.670   1.308  1.3894  0.9597 -0.0426
  452TMC3    C7 6739   0.914   0.125   1.158 -0.5536  0.3740 -0.0034
  452TMC3    C8 6740   1.057   4.627   1.561 -0.0882  0.1423 -0.1491
  452TMC3    O1 6741   0.841   0.215   1.122 -0.0055 -0.2276 -0.3372
  452TMC3    O2 6742   1.086   4.522   1.509 -0.0028 -0.1712 -0.5912
  453TMC3    C1 6743   1.690   2.029  11.849 -0.6586 -0.0341 -0.2926
  453TMC3    C2 6744   1.604   1.940  11.906  0.1191  0.1596  0.0790
  453TMC3    C3 6745   1.499   1.899  11.831  0.0511  0.4488  0.2409
  453TMC3    C4 6746   1.674   2.064  11.721 -0.0336 -0.9224  0.0446
  453TMC3    C5 6747   1.566   2.024  11.644  0.2336 -0.0272 -0.0534
  453TMC3    C6 6748   1.472   1.937  11.701  0.0239 -0.3611  0.1852
  453TMC3     C 6749   1.768   2.128  11.928  0.7040 -0.7312 -0.8307
  453TMC3     O 6750   1.876   2.164  11.882 -0.2140 -0.3796 -0.1084
  453TMC3     H 6751   1.630   1.906  12.006 -0.2739 -1.7222 -0.4615
  453TMC3    H1 6752   1.742   2.140  11.685 -2.5344  0.7393 -1.1895
  453TMC3    H2 6753   1.391   1.890  11.646  0.5224  1.1411 -1.8092
  453TMC3    C7 6754   1.563   2.030  11.499 -0.9428  0.1929  0.3280
  453TMC3    C8 6755   1.411   1.793  11.875 -0.1648  0.6361 -0.3731
  453TMC3    O1 6756   1.503   1.949  11.427  0.0766  0.0058 -0.2686
  453TMC3    O2 6757   1.297   1.802  11.842  0.2256 -0.2993  0.5641
  454MPD2     C 6758   0.250   1.287  16.742  0.7246 -0.1453  0.3516
  454MPD2    C1 6759   0.195   1.418  16.728 -0.9858 -1.1330  0.4678
  454MPD2    C2 6760   0.117   1.468  16.831 -0.4479  0.8982 -0.3000
  454MPD2    C3 6761   0.069   1.384  16.933  0.3788 -0.0670  0.7481
  454MPD2    C4 6762   0.117   1.253  16.944  0.2967 -0.8320  0.2628
  454MPD2    C5 6763   0.203   1.204  16.848  0.1283 -0.2691 -0.1601
  454MPD2     H 6764   0.088   1.572  16.825 -1.8393  0.3508 -2.8303
  454MPD2    H1 6765   0.083   1.188  17.024 -0.2916 -1.0042 -0.1274
  454MPD2    H2 6766   0.323   1.238  16.679  1.0955 -0.1003  0.7431
  454MPD2    H3 6767   0.247   1.107  16.868  0.3557 -0.1551 -0.0998
  454MPD2     N 6768   4.681   1.420  17.024  0.0162  0.1254  0.0123
  454MPD2    H5 6769   4.671   1.349  17.096  3.2316 -2.1394 -1.7700
  454MPD2    N1 6770   0.225   1.507  16.620 -0.2635  0.0980 -0.4052
  454MPD2    H7 6771   0.208   1.605  16.643 -3.2850 -0.0686 -1.8751
  455TMC3    C1 6772   4.570   1.607  16.893 -0.4985  0.2797  0.4767
  455TMC3    C2 6773   4.523   1.745  16.895  0.2562  0.1677  0.2745
  455TMC3    C3 6774   4.463   1.803  16.787  0.3869 -0.1794  0.0298
  455TMC3    C4 6775   4.550   1.539  16.770 -0.4629 -0.0354 -0.0931
  455TMC3    C5 6776   4.474   1.601  16.673 -0.2010  0.1773 -0.3858
  455TMC3    C6 6777   4.442   1.729  16.672  0.8334  0.0887  0.1554
  455TMC3     C 6778   4.603   1.534  17.020  0.5878  0.8290  0.6591
  455TMC3     O 6779   4.550   1.582  17.121  0.2617 -0.0609 -0.0811
  455TMC3     H 6780   4.518   1.791  16.993  0.8731 -0.1405  0.4520
  455TMC3    H1 6781   4.573   1.434  16.754  2.8234  0.3343  2.3641
  455TMC3    H2 6782   4.404   1.775  16.581 -0.3735 -2.4557 -0.6454
  455TMC3    C7 6783   4.437   1.534  16.549 -0.0484  0.5387 -0.3088
  455TMC3    C8 6784   4.391   1.926  16.793 -0.4049  0.3698  0.2883
  455TMC3    O1 6785   4.517   1.463  16.494  0.5367  0.3235 -0.4059
  455TMC3    O2 6786   4.306   1.933  16.705 -0.3416 -0.5639 -0.0554
  456MPD2     C 6787   2.544   2.046  16.783  0.4648  0.3216 -0.4997
  456MPD2    C1 6788   2.678   2.009  16.808  0.0992 -0.0265 -0.3979
  456MPD2    C2 6789   2.732   2.061  16.925  0.1801  0.4174 -0.9357
  456MPD2    C3 6790   2.653   2.129  17.013 -0.4350  0.4914  0.4249
  456MPD2    C4 6791   2.526   2.164  16.977  0.7353 -0.2352  0.2822
  456MPD2    C5 6792   2.474   2.128  16.862  0.3041 -0.3431  0.0635
  456MPD2     H 6793   2.831   2.043  16.964 -0.6973  0.1626  1.1581
  456MPD2    H1 6794   2.466   2.226  17.043 -0.2895 -0.7182 -0.2015
  456MPD2    H2 6795   2.488   1.997  16.704 -2.4970  0.2877  1.6180
  456MPD2    H3 6796   2.371   2.160  16.846  0.8083  1.1576 -0.1585
  456MPD2     N 6797   2.718   2.188  17.128  0.3913 -0.2967  0.4121
  456MPD2    H5 6798   2.817   2.179  17.146  0.3284 -0.8003  0.4982
  456MPD2    N1 6799   2.756   1.934  16.714 -0.0808  0.3860 -0.1047
  456MPD2    H7 6800   2.714   1.913  16.624 -1.9118  1.2248  0.5505
  457TMC3    C1 6801   2.749   2.340  17.298 -0.4990 -0.7828 -0.3462
  457TMC3    C2 6802   2.800   2.447  17.233  0.5314  0.7920 -0.3154
  457TMC3    C3 6803   2.844   2.559  17.297  0.2612  0.0370  1.0044
  457TMC3    C4 6804   2.727   2.353  17.432 -0.0510 -0.5719 -0.5342
  457TMC3    C5 6805   2.775   2.464  17.496 -0.0292  0.1176  0.1395
  457TMC3    C6 6806   2.828   2.572  17.428 -0.3729  0.0255  0.2853
  457TMC3     C 6807   2.654   2.264  17.225  0.7709  0.4012 -1.0164
  457TMC3     O 6808   2.540   2.254  17.272 -0.1791 -0.2649  1.1735
  457TMC3     H 6809   2.824   2.433  17.128  0.5337 -1.0280 -0.0737
  457TMC3    H1 6810   2.673   2.286  17.498 -0.1872  1.2786  1.2330
  457TMC3    H2 6811   2.852   2.665  17.478 -0.3779  1.5632 -2.5253
  457TMC3    C7 6812   2.810   2.453  17.639 -0.5846  0.4650 -0.4575
  457TMC3    C8 6813   2.854   2.680  17.225 -0.2548 -0.2841 -0.0562
  457TMC3    O1 6814   2.740   2.377   0.003  0.1137  0.4156 -0.4859
  457TMC3    O2 6815   2.939   2.755  17.261 -0.3311 -0.5655  0.5555
  458MPD2     C 6816   0.962   1.535  12.473 -0.3102 -0.1633 -0.3367
  458MPD2    C1 6817   0.967   1.473  12.599  0.2939  0.0609  0.3670
  458MPD2    C2 6818   0.865   1.383  12.630 -0.6261 -0.2588 -0.0007
  458MPD2    C3 6819   0.758   1.359  12.546  0.0839 -0.5946 -0.9950
  458MPD2    C4 6820   0.756   1.421  12.427  0.3413 -0.4379 -0.4493
  458MPD2    C5 6821   0.861   1.505  12.390 -0.1908  0.3573  0.6998
  458MPD2     H 6822   0.863   1.336  12.728  1.6017  1.1313  0.7180
  458MPD2    H1 6823   0.676   1.404  12.356  1.4002  2.5021 -2.3224
  458MPD2    H2 6824   1.037   1.606  12.440 -1.7566  1.9929  0.9784
  458MPD2    H3 6825   0.861   1.560  12.297 -0.4374 -0.3546  0.2824
  458MPD2     N 6826   0.659   1.270  12.597  0.4488 -0.2257 -0.3558
  458MPD2    H5 6827   0.694   1.215  12.675 -1.2358  0.8955  1.2023
  458MPD2    N1 6828   1.074   1.500  12.681 -0.2446 -0.2649 -0.5594
  458MPD2    H7 6829   1.138   1.570  12.643  2.8447 -1.6692  2.0826
  459TMC3    C1 6830   1.240   1.444  12.855 -0.3895  0.0806 -0.1743
  459TMC3    C2 6831   1.347   1.469  12.777 -0.1695 -0.0170  0.0332
  459TMC3    C3 6832   1.471   1.440  12.834 -0.0019 -0.3696 -0.2179
  459TMC3    C4 6833   1.252   1.404  12.978  0.4734 -0.4254 -0.3182
  459TMC3    C5 6834   1.371   1.378  13.031  0.2303 -0.5720 -0.0853
  459TMC3    C6 6835   1.487   1.397  12.961 -0.3732 -0.0208 -0.1073
  459TMC3     C 6836   1.102   1.439  12.802  0.5850  0.2886  0.3730
  459TMC3     O 6837   1.026   1.370  12.869 -0.1554 -0.6298  0.0184
  459TMC3     H 6838   1.330   1.499  12.674  1.1491  3.0766  0.7139
  459TMC3    H1 6839   1.162   1.389  13.035  0.9622 -0.5784  0.4117
  459TMC3    H2 6840   1.581   1.370  13.006 -0.0426  1.3934  0.0623
  459TMC3    C7 6841   1.363   1.274  13.132 -0.5825 -0.4536  0.1641
  459TMC3    C8 6842   1.601   1.468  12.764 -0.8758  0.3956  0.0595
  459TMC3    O1 6843   1.279   1.187  13.112 -0.1672 -0.0800  0.0795
  459TMC3    O2 6844   1.707   1.457  12.823  0.0461 -0.0588  0.3740
  460MPD2     C 6845   4.624   3.681  10.919  0.2660  0.0539 -0.2915
  460MPD2    C1 6846   4.547   3.573  10.896  0.3585  0.3145 -0.4015
  460MPD2    C2 6847   4.490   3.553  10.773 -0.5473  0.2692 -0.3997
  460MPD2    C3 6848   4.491   3.651  10.676  0.2088 -0.1833  0.4745
  460MPD2    C4 6849   4.575   3.761  10.700  0.7339 -0.5451 -0.3047
  460MPD2    C5 6850   4.635   3.779  10.821 -0.1228  0.4356 -0.2899
  460MPD2     H 6851   4.427   3.468  10.749  0.3568 -0.9001  1.3757
  460MPD2    H1 6852   4.591   3.839  10.626 -0.2332  1.4117  1.5083
  460MPD2    H2 6853   4.690   3.704  11.002  0.5757 -2.1805  0.0913
  460MPD2    H3 6854   4.700   3.864  10.835  1.5119 -0.8526 -0.0592
  460MPD2     N 6855   4.422   3.628  10.556  0.3646 -0.0603  0.1539
  460MPD2    H5 6856   4.376   3.537  10.550 -1.2301  0.7047  0.5958
  460MPD2    N1 6857   4.532   3.484  11.006  0.2635  0.2883 -0.2919
  460MPD2    H7 6858   4.600   3.495  11.080 -0.9231  0.8948  0.7257
  461TMC3    C1 6859   4.301   3.704  10.366  0.2577 -0.1978 -0.0604
  461TMC3    C2 6860   4.312   3.597  10.287  0.1092 -0.5780 -0.2825
  461TMC3    C3 6861   4.284   3.622  10.155  1.3694 -0.9485 -0.4122
  461TMC3    C4 6862   4.253   3.824  10.326 -0.1090  0.0825 -1.0489
  461TMC3    C5 6863   4.223   3.844  10.200  0.4300  0.0548 -0.0961
  461TMC3    C6 6864   4.230   3.742  10.111  0.1793 -0.0433  0.9904
  461TMC3     C 6865   4.395   3.736  10.471 -0.2983 -0.3084 -0.5341
  461TMC3     O 6866   4.416   3.856  10.479  0.4781 -0.3717 -0.3411
  461TMC3     H 6867   4.366   3.506  10.313 -0.1729 -0.5058  0.5813
  461TMC3    H1 6868   4.215   3.901  10.393 -1.2227 -0.5819 -0.9133
  461TMC3    H2 6869   4.222   3.768  10.006  0.3046 -0.7788  0.8016
  461TMC3    C7 6870   4.268   3.971  10.145 -0.0730 -0.1265  1.0607
  461TMC3    C8 6871   4.305   3.523  10.055  0.2650 -0.7163  0.2721
  461TMC3    O1 6872   4.268   3.988  10.025  1.1177 -0.1063 -0.1229
  461TMC3    O2 6873   4.346   3.411  10.094  0.1786 -0.4925  0.2850
  462TMC3    C1 6874   4.025   0.186   0.600 -0.2169  0.5740  0.2703
  462TMC3    C2 6875   4.096   0.134   0.494 -0.1599 -0.4070 -0.2567
  462TMC3    C3 6876   4.103   4.724   0.485 -0.1872 -0.2438 -0.2955
  462TMC3    C4 6877   3.973   0.114   0.703  0.3406 -0.0872  0.7937
  462TMC3    C5 6878   3.991   4.706   0.690  0.5320  0.2744  0.9498
  462TMC3    C6 6879   4.070   4.649   0.597 -0.4170  0.5056  0.2797
  462TMC3     C 6880   4.007   0.329   0.592  0.1831 -0.4987  0.1350
  462TMC3     O 6881   4.062   0.394   0.501 -0.1345 -0.8732  0.3550
  462TMC3     H 6882   4.142   0.196   0.417  1.0856  0.3355  1.0938
  462TMC3    H1 6883   3.933   0.152   0.797 -2.3083  0.2333 -0.4897
  462TMC3    H2 6884   4.070   4.541   0.598 -1.5412  0.5089  1.7470
  462TMC3    C7 6885   3.961   4.611   0.792 -0.0061  0.2934 -0.1118
  462TMC3    C8 6886   4.126   4.660   0.361 -0.8712 -0.7456  0.0611
  462TMC3    O1 6887   4.045   4.529   0.823 -0.8819 -0.2515  0.0317
  462TMC3    O2 6888   4.095   4.721   0.258  0.2697  0.0328 -0.1183
  463MPD2     C 6889   0.196   3.188   1.602  0.3814 -0.3674  0.7514
  463MPD2    C1 6890   0.248   3.307   1.647 -0.0699 -0.1007 -0.1208
  463MPD2    C2 6891   0.375   3.316   1.709 -0.2584 -0.5595  0.3625
  463MPD2    C3 6892   0.448   3.199   1.737 -0.0724 -0.1025 -0.3157
  463MPD2    C4 6893   0.386   3.080   1.703  0.4280 -0.0602 -0.6812
  463MPD2    C5 6894   0.267   3.077   1.635 -0.9731 -0.3365  0.6040
  463MPD2     H 6895   0.422   3.411   1.731  1.4872 -1.2096 -0.6170
  463MPD2    H1 6896   0.430   2.984   1.726 -0.5954 -0.3116  0.2004
  463MPD2    H2 6897   0.095   3.183   1.562  0.7961  1.0651 -0.4951
  463MPD2    H3 6898   0.233   2.981   1.598  2.5981 -1.3314 -0.1407
  463MPD2     N 6899   0.581   3.184   1.791  0.0500  0.0801  0.3237
  463MPD2    H5 6900   0.616   3.096   1.827 -0.0809  0.7042  1.9793
  463MPD2    N1 6901   0.187   3.426   1.624  0.4484 -0.2455  0.1528
  463MPD2    H7 6902   0.235   3.507   1.663 -2.9715  0.9393  1.8840
  464TMC3    C1 6903   0.021   3.599   1.582  0.5875  0.2466 -0.7224
  464TMC3    C2 6904   0.119   3.692   1.596  0.3799 -0.2955 -0.2413
  464TMC3    C3 6905   0.073   3.814   1.640  0.9330 -0.2114  0.6503
  464TMC3    C4 6906   4.613   3.623   1.605 -0.2356  0.2990  0.0380
  464TMC3    C5 6907   4.570   3.745   1.647  0.1469 -0.5388 -0.3805
  464TMC3    C6 6908   4.663   3.838   1.669  0.8883 -0.7814 -0.4322
  464TMC3     C 6909   0.057   3.456   1.579 -0.1108 -0.3442  0.6784
  464TMC3     O 6910   4.703   3.379   1.527 -0.1490  0.0644  0.5479
  464TMC3     H 6911   0.219   3.669   1.561 -0.0290 -2.1470 -0.1970
  464TMC3    H1 6912   4.544   3.540   1.603  1.1402 -0.8109 -1.4477
  464TMC3    H2 6913   4.638   3.934   1.713  0.7122  0.0982 -2.4891
  464TMC3    C7 6914   4.426   3.785   1.652  0.2982  0.5323  0.1188
  464TMC3    C8 6915   0.141   3.932   1.578  0.8590  0.1161  0.2106
  464TMC3    O1 6916   4.395   3.880   1.720 -0.3969 -0.0210 -0.1728
  464TMC3    O2 6917   0.244   3.905   1.518 -0.3940  0.3908 -0.4259
  465MPD2     C 6918   2.333   2.479  16.926 -0.6899  0.0984  0.1795
  465MPD2    C1 6919   2.241   2.435  17.017 -0.9449 -0.6099  0.1816
  465MPD2    C2 6920   2.130   2.362  16.973  0.0047  0.0456 -0.1855
  465MPD2    C3 6921   2.117   2.332  16.840  1.0140  0.1643  0.4113
  465MPD2    C4 6922   2.204   2.391  16.746  0.5438 -0.2770 -0.8736
  465MPD2    C5 6923   2.315   2.459  16.795  0.5987 -0.5736  0.4470
  465MPD2     H 6924   2.060   2.325  17.047  0.5456  0.0448  0.3314
  465MPD2    H1 6925   2.183   2.389  16.640  2.4173  1.7209 -1.2938
  465MPD2    H2 6926   2.410   2.549  16.955  0.3297 -0.9362 -0.0494
  465MPD2    H3 6927   2.381   2.508  16.725  0.0925 -0.2314  0.2151
  465MPD2     N 6928   2.005   2.253  16.796 -0.1655  0.9071 -0.2442
  465MPD2    H5 6929   1.995   2.243  16.696 -0.2213  1.2483 -0.2739
  465MPD2    N1 6930   2.249   2.473  17.154 -0.3435  0.2501 -0.3530
  465MPD2    H7 6931   2.180   2.432  17.216 -1.5103  3.4045  0.4331
  466TMC3    C1 6932   1.578   2.094  16.890  0.0317  0.2587  0.2004
  466TMC3    C2 6933   1.526   2.185  16.803  0.3616 -0.7216  0.2344
  466TMC3    C3 6934   1.614   2.250  16.719  0.8314  0.1660  0.3033
  466TMC3    C4 6935   1.712   2.074  16.893  0.0918  0.0540 -0.6525
  466TMC3    C5 6936   1.806   2.148  16.814  0.1932 -0.0516  0.4034
  466TMC3    C6 6937   1.755   2.229  16.715  0.1083 -0.0108 -0.5206
  466TMC3     C 6938   1.497   2.053  17.003 -0.5311  0.0616 -0.1297
  466TMC3     O 6939   1.559   2.015  17.105 -0.1424 -0.3257  0.0025
  466TMC3     H 6940   1.419   2.194  16.792  0.4037  2.3508  2.1563
  466TMC3    H1 6941   1.751   1.998  16.959 -2.2724 -1.8095 -1.4105
  466TMC3    H2 6942   1.821   2.291  16.655 -2.9093  1.6586 -2.1295
  466TMC3    C7 6943   1.924   2.178  16.875 -0.4818  0.2750  0.6330
  466TMC3    C8 6944   1.560   2.340  16.618 -0.3629 -0.1506  0.5105
  466TMC3    O1 6945   1.950   2.123  16.983 -0.4437  0.5678 -0.3003
  466TMC3    O2 6946   1.635   2.357  16.522  1.0423  0.5222  0.3218
  467TMC3    C1 6947   2.483   0.809  14.000  0.0080  0.2181  0.2553
  467TMC3    C2 6948   2.404   0.791  13.890 -0.4423 -0.5010  0.4140
  467TMC3    C3 6949   2.389   0.660  13.844 -0.4158 -0.0486  0.2847
  467TMC3    C4 6950   2.534   0.707  14.072 -0.2046  0.3067 -0.2573
  467TMC3    C5 6951   2.487   0.583  14.036  0.1885 -0.0317  0.0873
  467TMC3    C6 6952   2.421   0.556  13.922  0.6188 -0.6929  0.9203
  467TMC3     C 6953   2.579   0.912  13.973  0.0343 -0.1331 -0.1700
  467TMC3     O 6954   2.538   1.018  13.930 -0.0243 -0.1815 -0.4628
  467TMC3     H 6955   2.369   0.871  13.826 -1.1438 -1.6515 -0.6488
  467TMC3    H1 6956   2.570   0.729  14.172 -0.0839  0.6346 -0.3755
  467TMC3    H2 6957   2.391   0.458  13.885  1.0027 -0.9754  1.3649
  467TMC3    C7 6958   2.507   0.481  14.134 -0.2139  0.0227 -0.0716
  467TMC3    C8 6959   2.441   0.639  13.705 -0.6329 -0.0777 -0.2350
  467TMC3    O1 6960   2.616   0.479  14.186  0.0159  0.4378 -0.8233
  467TMC3    O2 6961   2.414   0.527  13.654  0.0897 -0.0345  0.6964
  468MPD2     C 6962   1.435   3.215  10.889 -0.2894 -0.3683 -0.3009
  468MPD2    C1 6963   1.512   3.180  10.998 -0.4139  0.0969  0.3430
  468MPD2    C2 6964   1.567   3.052  11.000  0.3494  0.0238  0.4196
  468MPD2    C3 6965   1.564   2.974  10.888 -0.1922 -0.2818 -0.8127
  468MPD2    C4 6966   1.494   3.016  10.778 -0.0022  0.2844 -0.5979
  468MPD2    C5 6967   1.435   3.135  10.779 -0.1355  0.7351 -0.4425
  468MPD2     H 6968   1.620   3.011  11.085  1.9804 -0.6319 -0.9150
  468MPD2    H1 6969   1.494   2.957  10.686  0.2458 -0.0837 -0.3599
  468MPD2    H2 6970   1.383   3.310  10.890 -1.2752 -0.8900 -2.3032
  468MPD2    H3 6971   1.385   3.167  10.689 -0.4504  0.6585 -0.2934
  468MPD2     N 6972   1.613   2.846  10.883  0.2788 -0.6063 -0.4334
  468MPD2    H5 6973   1.591   2.797  10.798  1.1688  0.4617 -1.2781
  468MPD2    N1 6974   1.516   3.243  11.122 -0.2558  0.1454 -0.3063
  468MPD2    H7 6975   1.559   3.188  11.196  1.7461  0.9544 -0.8621
  469TMC3    C1 6976   1.454   3.411  11.287  0.0943 -0.0160  0.6450
  469TMC3    C2 6977   1.534   3.351  11.380 -0.0111 -0.2141 -0.2122
  469TMC3    C3 6978   1.573   3.426  11.488  0.0082  0.5340  0.3594
  469TMC3    C4 6979   1.379   3.519  11.324 -0.5319 -0.1346  0.0287
  469TMC3    C5 6980   1.422   3.592  11.430  0.2542 -0.1180  0.0113
  469TMC3    C6 6981   1.514   3.549  11.518 -0.5958 -0.1356  0.3633
  469TMC3     C 6982   1.449   3.366  11.151 -0.4366  0.2207  0.2873
  469TMC3     O 6983   1.391   3.441  11.070  0.7860 -0.1156  0.1098
  469TMC3     H 6984   1.599   3.271  11.345 -1.0743 -1.3214  0.3321
  469TMC3    H1 6985   1.298   3.557  11.263 -1.3528 -1.7625  0.0944
  469TMC3    H2 6986   1.529   3.604  11.611  0.1878 -1.8655  1.2595
  469TMC3    C7 6987   1.351   3.721  11.439  0.3947 -0.5413 -0.3242
  469TMC3    C8 6988   1.704   3.390  11.546 -0.6532 -0.2174  0.1315
  469TMC3    O1 6989   1.246   3.738  11.382  0.2580 -0.1589  0.3938
  469TMC3    O2 6990   1.770   3.319  11.474 -0.0874  0.0329 -0.1733
  470TMC3    C1 6991   2.516   4.713   1.854 -0.5181  0.6370 -0.2516
  470TMC3    C2 6992   2.642   0.033   1.891 -0.2280 -0.2637 -0.4210
  470TMC3    C3 6993   2.663   0.070   2.021  0.1711 -0.4871 -0.3042
  470TMC3    C4 6994   2.414   4.691   1.940 -0.0440 -0.1711  0.8158
  470TMC3    C5 6995   2.446   4.718   2.067 -0.5997 -1.1989  0.1542
  470TMC3    C6 6996   2.565   0.045   2.114  0.8763  0.5952 -0.0519
  470TMC3     C 6997   2.483   4.708   1.710 -0.1716 -0.0290 -0.2948
  470TMC3     O 6998   2.367   4.681   1.687 -0.1521  0.4855  0.2845
  470TMC3     H 6999   2.720   0.048   1.818  0.5304 -0.8405  0.2648
  470TMC3    H1 7000   2.319   4.653   1.904  0.4649 -0.5225 -0.1737
  470TMC3    H2 7001   2.586   0.055   2.220  0.4933  1.6650 -0.0814
  470TMC3    C7 7002   2.371   4.646   2.169  0.7127  0.2606  0.2358
  470TMC3    C8 7003   2.793   0.113   2.070 -0.1794 -0.3143  0.1715
  470TMC3    O1 7004   2.382   4.685   2.288  0.7554 -0.4191 -0.1643
  470TMC3    O2 7005   2.864   0.162   1.983 -0.3837 -0.3814 -0.6331
  471MPD2     C 7006   3.539   0.666  17.245 -0.2713 -0.1964  0.5626
  471MPD2    C1 7007   3.667   0.715  17.240  0.0906 -0.3375  0.0060
  471MPD2    C2 7008   3.740   0.714  17.358 -0.1764 -0.8226  0.4461
  471MPD2    C3 7009   3.702   0.651  17.476 -0.2263 -0.3148  0.1906
  471MPD2    C4 7010   3.577   0.589  17.473  1.0540  0.4360 -0.1669
  471MPD2    C5 7011   3.496   0.604  17.362  0.1198  0.3355  0.4154
  471MPD2     H 7012   3.836   0.765  17.352 -0.9945  0.7004  0.3815
  471MPD2    H1 7013   3.545   0.523  17.553  2.3729 -0.9266 -0.7677
  471MPD2    H2 7014   3.473   0.659  17.159  2.7971 -0.4245 -1.8074
  471MPD2    H3 7015   3.400   0.554  17.371  0.8288 -0.8510  1.4382
  471MPD2     N 7016   3.770   0.652  17.596 -0.2940 -0.4257 -0.6372
  471MPD2    H5 7017   3.730   0.589  17.665 -0.9349  0.3303 -0.3242
  471MPD2    N1 7018   3.732   0.766  17.130 -0.2157  0.0749  0.2551
  471MPD2    H7 7019   3.827   0.792  17.152  0.4890 -0.5201 -2.0734
  472TMC3    C1 7020   3.759   0.840  16.907  0.5106 -0.3772 -1.1199
  472TMC3    C2 7021   3.683   0.886  16.801 -0.1376 -0.7229 -1.0342
  472TMC3    C3 7022   3.718   0.857  16.675 -0.5762  0.1445  0.0179
  472TMC3    C4 7023   3.859   0.752  16.883 -0.8004  0.0960  0.4461
  472TMC3    C5 7024   3.883   0.706  16.755 -0.1587 -0.1810 -0.4505
  472TMC3    C6 7025   3.808   0.759  16.648 -0.4304 -0.1374 -0.8899
  472TMC3     C 7026   3.678   0.782  17.007 -0.2962 -0.4161  0.3922
  472TMC3     O 7027   3.568   0.753  16.965 -0.1090  0.2459  0.2837
  472TMC3     H 7028   3.603   0.955  16.828  0.8788  0.1897 -0.3599
  472TMC3    H1 7029   3.896   0.708  16.974 -0.7748  0.0558  0.4163
  472TMC3    H2 7030   3.834   0.753  16.543 -0.6106 -2.5138 -0.7924
  472TMC3    C7 7031   3.920   0.568  16.753 -0.0501 -0.1049  0.1744
  472TMC3    C8 7032   3.599   0.844  16.606  0.9412  0.2730  0.2087
  472TMC3    O1 7033   3.943   0.523  16.866 -0.2379  0.1769  0.4055
  472TMC3    O2 7034   3.544   0.953  16.579  0.5202 -0.1163 -0.4099
  473MPD2     C 7035   3.932   2.774  14.439 -0.5068  0.5061  0.2902
  473MPD2    C1 7036   3.947   2.897  14.369 -0.0569 -0.0685 -0.5920
  473MPD2    C2 7037   4.019   3.003  14.424  0.2999 -0.6738  0.6320
  473MPD2    C3 7038   4.091   2.980  14.545  0.6390 -0.4974 -0.1756
  473MPD2    C4 7039   4.083   2.855  14.599  0.7077  0.3163  0.6934
  473MPD2    C5 7040   4.004   2.758  14.555 -0.4469  0.4092 -0.1780
  473MPD2     H 7041   4.015   3.102  14.380  1.8055 -1.5028 -1.3855
  473MPD2    H1 7042   4.143   2.828  14.685 -0.5347 -1.4455  1.0179
  473MPD2    H2 7043   3.874   2.689  14.403 -0.3912  0.1085  1.0399
  473MPD2    H3 7044   3.997   2.663  14.607 -4.3493  0.6565 -0.2370
  473MPD2     N 7045   4.164   3.078  14.612 -1.0243 -0.3141  0.5147
  473MPD2    H5 7046   4.226   3.057  14.690  1.5453  2.5299 -0.7735
  473MPD2    N1 7047   3.881   2.915  14.239  0.0504 -0.3766 -0.3249
  473MPD2    H7 7048   3.909   3.002  14.194  0.8118 -0.9366 -0.9469
  474TMC3    C1 7049   4.217   3.306  14.681  0.3228  0.3968 -0.2082
  474TMC3    C2 7050   4.164   3.433  14.685 -0.1710 -0.0731  0.0603
  474TMC3    C3 7051   4.236   3.529  14.746 -0.3741  0.0996 -0.0467
  474TMC3    C4 7052   4.345   3.284  14.731  0.7218 -0.0990  0.7069
  474TMC3    C5 7053   4.405   3.385  14.805 -0.4706  0.1026 -0.6423
  474TMC3    C6 7054   4.350   3.508  14.814 -0.4070 -0.8638 -0.1382
  474TMC3     C 7055   4.149   3.215  14.581  0.1389 -0.6936  0.9549
  474TMC3     O 7056   4.070   3.267  14.509 -0.2933 -0.0016 -0.2879
  474TMC3     H 7057   4.087   3.453  14.611  1.0886  1.2610 -0.8973
  474TMC3    H1 7058   4.402   3.194  14.712 -0.3282 -0.8261  1.0139
  474TMC3    H2 7059   4.396   3.597  14.855 -0.4660 -0.9525  0.1218
  474TMC3    C7 7060   4.516   3.354  14.886 -0.4375 -0.0632 -0.3894
  474TMC3    C8 7061   4.214   3.677  14.703 -0.5126  0.2003 -0.2488
  474TMC3    O1 7062   4.608   3.284  14.852 -0.5198  0.0579  0.7103
  474TMC3    O2 7063   4.292   3.762  14.739  0.7714  0.0300  0.4360
  475MPD2     C 7064   3.457   1.358  10.397  0.3676  0.6421  0.1498
  475MPD2    C1 7065   3.389   1.300  10.289  0.1859 -0.2182  0.0125
  475MPD2    C2 7066   3.259   1.265  10.311 -0.4020  0.1954 -0.2563
  475MPD2    C3 7067   3.198   1.291  10.429 -0.1913 -0.2535  0.0460
  475MPD2    C4 7068   3.267   1.350  10.534 -0.1023 -0.3581  0.3316
  475MPD2    C5 7069   3.395   1.378  10.521 -0.3762  0.1301 -0.7341
  475MPD2     H 7070   3.198   1.220  10.233 -1.0703  0.7279 -0.0410
  475MPD2    H1 7071   3.225   1.370  10.632  0.8770 -1.7740  1.0475
  475MPD2    H2 7072   3.562   1.384  10.388 -0.0724  2.4264  0.1660
  475MPD2    H3 7073   3.443   1.431  10.602  1.3238 -0.3728 -1.3925
  475MPD2     N 7074   3.061   1.269  10.431 -0.0570 -0.7120 -0.0520
  475MPD2    H5 7075   3.026   1.239  10.341 -0.0435  1.9488 -0.9621
  475MPD2    N1 7076   3.466   1.276  10.173  0.1995  0.4277  0.0578
  475MPD2    H7 7077   3.567   1.286  10.182  0.1725 -0.8461  1.9042
  476TMC3    C1 7078   3.486   1.267   9.937  0.6465  0.1960 -0.2677
  476TMC3    C2 7079   3.415   1.238   9.822 -0.5259 -0.0892  0.3980
  476TMC3    C3 7080   3.441   1.305   9.708 -0.3063  0.1222  0.2370
  476TMC3    C4 7081   3.562   1.385   9.944 -0.3231  0.0261  0.2101
  476TMC3    C5 7082   3.587   1.446   9.826 -1.1457  0.5503  0.6893
  476TMC3    C6 7083   3.542   1.404   9.706  0.1955  0.3408  0.2040
  476TMC3     C 7084   3.405   1.242  10.056 -0.3157  0.3759  0.1462
  476TMC3     O 7085   3.288   1.216  10.035 -0.7491  0.9747 -0.3906
  476TMC3     H 7086   3.344   1.157   9.834 -1.9664  0.8305 -2.0499
  476TMC3    H1 7087   3.621   1.412  10.030  1.4538  1.9466 -1.6047
  476TMC3    H2 7088   3.558   1.472   9.622  1.1986 -1.8121 -1.3527
  476TMC3    C7 7089   3.665   1.568   9.826  0.3098  0.3220  0.4223
  476TMC3    C8 7090   3.331   1.318   9.611 -0.6382 -0.8907 -0.4952
  476TMC3    O1 7091   3.745   1.587   9.738  0.5849  0.1964  0.3912
  476TMC3    O2 7092   3.341   1.414   9.533  0.4661 -0.5766  0.5119
  477MPD2     C 7093   0.372   2.630  11.682 -0.5219 -0.0940  0.1583
  477MPD2    C1 7094   0.274   2.609  11.775  0.7966 -0.2381 -0.3017
  477MPD2    C2 7095   0.290   2.506  11.869 -0.1118 -0.0169 -0.6310
  477MPD2    C3 7096   0.414   2.446  11.872  0.0784  0.1203 -0.6000
  477MPD2    C4 7097   0.519   2.487  11.789 -1.3559 -0.6453  0.3669
  477MPD2    C5 7098   0.494   2.569  11.686 -0.5381  0.0342 -0.1242
  477MPD2     H 7099   0.213   2.481  11.941 -0.5062  1.2225 -0.6205
  477MPD2    H1 7100   0.619   2.447  11.801 -0.7860  0.8716  0.7217
  477MPD2    H2 7101   0.359   2.712  11.611 -0.1468  0.5448  0.8241
  477MPD2    H3 7102   0.566   2.604  11.613 -0.1628  0.6547  0.5391
  477MPD2     N 7103   0.433   2.341  11.968  0.0710  0.0961 -0.0164
  477MPD2    H5 7104   0.363   2.321  12.039 -0.4836  0.4465 -0.4670
  477MPD2    N1 7105   0.148   2.678  11.758 -0.0743  0.4276 -0.0806
  477MPD2    H7 7106   0.142   2.734  11.673 -1.0600 -1.2960 -1.1525
  478TMC3    C1 7107   4.642   2.703  11.766 -0.8184 -0.6792 -0.5213
  478TMC3    C2 7108   4.533   2.752  11.839  0.4107  0.3329  0.0340
  478TMC3    C3 7109   4.438   2.827  11.773  0.0538 -0.0430 -0.4468
  478TMC3    C4 7110   4.638   2.718  11.632 -0.7899  0.7641  0.3548
  478TMC3    C5 7111   4.538   2.792  11.571 -0.1379  0.4340 -0.2156
  478TMC3    C6 7112   4.442   2.852  11.642  0.1949 -0.4305  0.0108
  478TMC3     C 7113   0.037   2.657  11.833 -0.1743 -0.6847  0.1207
  478TMC3     O 7114   0.029   2.612  11.947 -0.0144 -0.3057  0.0472
  478TMC3     H 7115   4.525   2.741  11.946 -0.9296 -1.1276 -0.2245
  478TMC3    H1 7116   4.707   2.660  11.572 -0.7904 -0.4529  1.5425
  478TMC3    H2 7117   4.365   2.911  11.593 -0.4923 -0.1651  1.3896
  478TMC3    C7 7118   4.546   2.811  11.428 -0.5570  0.0219  0.0023
  478TMC3    C8 7119   4.338   2.884  11.861 -0.1440  0.5313  0.1415
  478TMC3    O1 7120   4.651   2.771  11.380 -0.3997  0.1787 -0.2093
  478TMC3    O2 7121   4.303   2.823  11.959  0.7801  0.4050  0.0318
  479MPD2     C 7122   3.836   0.294  15.557 -0.2891  0.4199 -0.5632
  479MPD2    C1 7123   3.758   0.220  15.646  0.2823 -0.5775 -0.3255
  479MPD2    C2 7124   3.772   0.242  15.782  0.0525  0.7276 -0.3123
  479MPD2    C3 7125   3.871   0.339  15.826 -0.3949 -0.2168 -0.2421
  479MPD2    C4 7126   3.952   0.399  15.735 -0.3766 -0.7486 -0.6002
  479MPD2    C5 7127   3.936   0.371  15.599 -0.1252 -0.4126 -0.2120
  479MPD2     H 7128   3.715   0.183  15.853  0.7203 -1.1655 -1.3471
  479MPD2    H1 7129   4.037   0.462  15.760 -0.7164 -0.5727  0.1044
  479MPD2    H2 7130   3.818   0.296  15.450 -0.1388  1.4594 -0.5628
  479MPD2    H3 7131   3.995   0.420  15.522  0.4810  0.4329  0.8057
  479MPD2     N 7132   3.892   0.374  15.964 -0.2094  0.6394 -0.1217
  479MPD2    H5 7133   3.980   0.421  15.978  0.9648 -1.5045 -0.4089
  479MPD2    N1 7134   3.651   0.147  15.592  1.0034  0.2090  0.2146
  479MPD2    H7 7135   3.661   0.136  15.491  1.0789  1.0925  0.1266
  480TMC3    C1 7136   3.492   0.180  16.163 -0.6119 -0.0734 -0.2124
  480TMC3    C2 7137   3.400   0.252  16.092  0.5400 -0.7296  0.0826
  480TMC3    C3 7138   3.442   0.342  16.007 -0.2318 -1.0313  0.0932
  480TMC3    C4 7139   3.627   0.210  16.154 -0.2275  0.0509 -0.0192
  480TMC3    C5 7140   3.669   0.310  16.070 -0.1668 -0.3073  0.1520
  480TMC3    C6 7141   3.574   0.378  16.000 -0.1914 -0.0084 -0.0501
  480TMC3     C 7142   3.457   0.073  16.245 -0.7567 -0.3072  0.3049
  480TMC3     O 7143   3.547   0.005  16.288 -0.1436  0.4938 -0.7857
  480TMC3     H 7144   3.304   0.204  16.078  1.0371 -1.7239  0.1283
  480TMC3    H1 7145   3.699   0.165  16.221  1.8872 -0.7759 -2.8272
  480TMC3    H2 7146   3.598   0.466  15.940 -0.4845 -0.1274 -0.3390
  480TMC3    C7 7147   3.815   0.354  16.079  0.2669  0.2411  0.0837
  480TMC3    C8 7148   3.356   0.362  15.892 -0.1621  0.4324  0.2419
  480TMC3    O1 7149   3.853   0.365  16.193 -0.3081  0.1978  0.1155
  480TMC3    O2 7150   3.233   0.358  15.903 -0.3572  0.0878 -0.2785
  481MPD2     C 7151   0.743   4.693  14.783 -0.9912 -0.0725 -0.8342
  481MPD2    C1 7152   0.611   4.647  14.758  0.5398 -0.1302 -0.2065
  481MPD2    C2 7153   0.544   4.560  14.839  0.5181 -0.0514 -0.5499
  481MPD2    C3 7154   0.613   4.506  14.952 -0.3080  0.0709  0.4657
  481MPD2    C4 7155   0.742   4.546  14.972 -0.1572  0.2227  0.0691
  481MPD2    C5 7156   0.803   4.648  14.902 -0.5447 -0.1193 -0.0405
  481MPD2     H 7157   0.439   4.540  14.822  0.4937 -1.7029  1.6396
  481MPD2    H1 7158   0.808   4.505  15.048  1.6655  0.8532 -1.1811
  481MPD2    H2 7159   0.796   0.042  14.723 -2.9450  1.5406 -0.5847
  481MPD2    H3 7160   0.906   4.670  14.927 -0.5109 -0.0766 -0.2176
  481MPD2     N 7161   0.564   4.410  15.036  0.3876 -1.0059  0.1418
  481MPD2    H5 7162   0.617   4.378  15.117 -0.5505 -0.4960  0.9573
  481MPD2    N1 7163   0.560   4.703  14.641 -0.1785  0.5648  0.0707
  481MPD2    H7 7164   0.608   0.053  14.593  0.4484 -0.7400 -1.3212
  482TMC3    C1 7165   0.419   4.719  14.449  0.6254  0.1779 -0.6049
  482TMC3    C2 7166   0.301   4.681  14.387 -0.4556 -1.2358 -0.1103
  482TMC3    C3 7167   0.291   0.001  14.259  0.6370  0.6977  0.0457
  482TMC3    C4 7168   0.523   0.053  14.389 -0.0943  0.6683 -0.3501
  482TMC3    C5 7169   0.505   0.096  14.262 -0.3383  0.6361 -0.2446
  482TMC3    C6 7170   0.385   0.076  14.196 -0.5326 -0.0339 -0.7026
  482TMC3     C 7171   0.444   4.657  14.574  0.7673 -0.0704  0.7196
  482TMC3     O 7172   0.361   4.573  14.616 -0.4296  0.0787 -0.4778
  482TMC3     H 7173   0.219   4.624  14.429 -1.0181  0.4631  1.0659
  482TMC3    H1 7174   0.626   0.060  14.422 -0.3417 -0.2484  0.6118
  482TMC3    H2 7175   0.358   0.120  14.101  1.1356  1.7125 -0.3598
  482TMC3    C7 7176   0.616   0.140  14.180  0.8599 -0.0098  0.0757
  482TMC3    C8 7177   0.179   4.681  14.175  0.3324 -0.2595 -0.4115
  482TMC3    O1 7178   0.722   0.179  14.232 -0.2279  0.1989 -0.1113
  482TMC3    O2 7179   0.143   0.023  14.083 -0.5054 -0.2352  0.3039
  483TMC3    C1 7180   4.262   4.051   1.335  0.1731  0.2203 -0.2153
  483TMC3    C2 7181   4.256   4.183   1.301 -0.1877  0.7010  0.2974
  483TMC3    C3 7182   4.373   4.256   1.273 -0.3466  0.2087 -0.0904
  483TMC3    C4 7183   4.381   3.986   1.335  0.1212  0.6371 -0.6922
  483TMC3    C5 7184   4.499   4.055   1.315  0.1102  0.1964  0.0040
  483TMC3    C6 7185   4.494   4.191   1.288  0.0355 -0.0452 -0.6816
  483TMC3     C 7186   4.133   3.983   1.320 -0.3450  0.4217 -0.3534
  483TMC3     O 7187   4.037   4.040   1.372 -0.3612 -0.0379  0.8200
  483TMC3     H 7188   4.159   4.231   1.300 -0.6658 -0.2615  1.0862
  483TMC3    H1 7189   4.386   3.881   1.361 -0.6655  0.8929  0.5063
  483TMC3    H2 7190   4.584   4.250   1.279  0.7027 -0.7445  1.5175
  483TMC3    C7 7191   4.617   3.975   1.295  0.5622  0.6549  0.4818
  483TMC3    C8 7192   4.348   4.293   1.133  1.0144 -0.1324  0.4696
  483TMC3    O1 7193   4.607   3.861   1.338  0.4288 -0.3535  0.2929
  483TMC3    O2 7194   4.232   4.309   1.105  0.0326  0.0095  0.3664
  484MPD2     C 7195   1.646   1.537  12.407  0.1294 -0.9363  0.7664
  484MPD2    C1 7196   1.686   1.523  12.537  0.2788 -0.6877 -0.2437
  484MPD2    C2 7197   1.818   1.555  12.562  0.4332 -0.0315 -0.3970
  484MPD2    C3 7198   1.905   1.603  12.461 -0.0519 -0.8967 -0.3056
  484MPD2    C4 7199   1.853   1.623  12.331 -0.2890 -0.3792 -0.6138
  484MPD2    C5 7200   1.717   1.603  12.316  0.4294 -0.4552  0.4536
  484MPD2     H 7201   1.854   1.551  12.664  0.3234 -0.2853 -0.3702
  484MPD2    H1 7202   1.915   1.667  12.254  2.4861 -1.0060  1.2333
  484MPD2    H2 7203   1.543   1.515  12.382  0.8128 -1.7936 -1.3446
  484MPD2    H3 7204   1.671   1.623  12.220 -1.0840  0.4489  1.3649
  484MPD2     N 7205   2.045   1.627  12.480 -0.6475 -0.2048  0.4059
  484MPD2    H5 7206   2.091   1.673  12.402 -1.1281  0.2247  0.3760
  484MPD2    N1 7207   1.587   1.490  12.631  0.3627 -0.0551  0.5151
  484MPD2    H7 7208   1.494   1.488  12.591 -0.9118  0.7676  3.3944
  485TMC3    C1 7209   2.234   1.683  12.625 -0.4435 -0.2707  0.2116
  485TMC3    C2 7210   2.330   1.635  12.705  0.4899 -0.4491  0.1042
  485TMC3    C3 7211   2.445   1.705  12.711 -0.2814 -0.5238 -0.0935
  485TMC3    C4 7212   2.250   1.806  12.555 -0.1703 -0.5908  0.0944
  485TMC3    C5 7213   2.366   1.868  12.568 -0.5325 -0.0279  0.4611
  485TMC3    C6 7214   2.461   1.832  12.658 -0.2671 -0.2596 -0.4866
  485TMC3     C 7215   2.112   1.595  12.600 -0.4359 -0.1232 -0.3473
  485TMC3     O 7216   2.081   1.520  12.691  0.3318 -0.4486  0.7456
  485TMC3     H 7217   2.326   1.540  12.756  2.9846  0.9357  2.9009
  485TMC3    H1 7218   2.173   1.825  12.481 -0.1568 -0.0426  0.2263
  485TMC3    H2 7219   2.553   1.887  12.676 -0.0119 -0.7754 -0.2230
  485TMC3    C7 7220   2.420   1.913  12.442  0.4996 -0.1161 -0.3809
  485TMC3    C8 7221   2.575   1.640  12.703 -0.3414 -0.6725 -0.4759
  485TMC3    O1 7222   2.335   1.948  12.360  0.8909  0.3552 -0.0614
  485TMC3    O2 7223   2.655   1.697  12.629 -0.3872  0.4096  0.0083
  486MPD2     C 7224   3.003   0.525  13.518 -0.3811  0.0448  0.1213
  486MPD2    C1 7225   3.108   0.505  13.433  0.2353 -0.8635  0.1992
  486MPD2    C2 7226   3.178   0.616  13.380  0.5923  0.4312  0.4726
  486MPD2    C3 7227   3.133   0.748  13.402  0.4917  0.0398 -0.1066
  486MPD2    C4 7228   3.019   0.766  13.486 -0.4580  0.0685 -0.2592
  486MPD2    C5 7229   2.961   0.653  13.547 -0.2863  0.7198 -0.1900
  486MPD2     H 7230   3.262   0.597  13.315  0.2692 -1.1222  0.5082
  486MPD2    H1 7231   2.969   0.860  13.509  1.0256  0.8411 -0.1655
  486MPD2    H2 7232   2.958   0.438  13.563 -0.4012  0.5457  1.0790
  486MPD2    H3 7233   2.870   0.681  13.600 -0.4487 -0.3689  0.0990
  486MPD2     N 7234   3.190   0.851  13.322 -0.0899  0.1274  0.1503
  486MPD2    H5 7235   3.276   0.822  13.276 -1.3148  0.8108 -2.5906
  486MPD2    N1 7236   3.133   0.369  13.408 -0.2475  0.3692  0.3085
  486MPD2    H7 7237   3.073   0.304  13.459 -1.3033  0.5149 -0.7316
  487TMC3    C1 7238   3.213   0.180  13.306  0.4962  0.7703  0.3610
  487TMC3    C2 7239   3.243   0.129  13.184  0.0246 -0.2080 -0.2365
  487TMC3    C3 7240   3.298   0.007  13.182  0.1147  0.2894  0.0458
  487TMC3    C4 7241   3.202   0.105  13.418  0.1353  0.6581  0.4067
  487TMC3    C5 7242   3.258   4.709  13.411  0.4181 -0.4888 -0.1123
  487TMC3    C6 7243   3.330   4.673  13.298  0.6541 -0.3337 -0.8549
  487TMC3     C 7244   3.211   0.320  13.307 -0.6832 -0.6204 -0.2274
  487TMC3     O 7245   3.288   0.373  13.227 -0.0079 -0.7748 -0.2365
  487TMC3     H 7246   3.255   0.194  13.098 -0.9114  0.5907  0.2274
  487TMC3    H1 7247   3.161   0.137  13.514  0.7694 -1.2617  1.3108
  487TMC3    H2 7248   3.398   4.589  13.304  0.9761  0.0544  0.8875
  487TMC3    C7 7249   3.191   4.603  13.489  0.0512 -0.2418  0.6524
  487TMC3    C8 7250   3.391   4.707  13.072 -0.1744  0.1930 -0.0300
  487TMC3    O1 7251   3.097   4.632  13.564 -0.1145  0.0096  0.0062
  487TMC3    O2 7252   3.458   0.073  13.036  0.0509  0.4762  0.3338
  488MPD2     C 7253   3.298   2.153  16.756 -0.2438  0.0120  0.5447
  488MPD2    C1 7254   3.386   2.249  16.800 -0.0694 -0.0430 -0.7464
  488MPD2    C2 7255   3.442   2.225  16.921 -0.1376  0.0280  0.3965
  488MPD2    C3 7256   3.393   2.125  17.009  0.6753 -0.1315 -0.1715
  488MPD2    C4 7257   3.296   2.034  16.963  0.6988  0.4722  0.2329
  488MPD2    C5 7258   3.250   2.053  16.833  0.5458 -0.9319 -0.5004
  488MPD2     H 7259   3.501   2.306  16.962 -0.1512  0.3333 -0.1877
  488MPD2    H1 7260   3.255   1.955  17.023 -1.1676  1.2383 -0.0476
  488MPD2    H2 7261   3.266   2.161  16.653  3.1247 -1.1142 -0.5825
  488MPD2    H3 7262   3.173   1.991  16.789 -1.6903  1.8432 -0.5305
  488MPD2     N 7263   3.442   2.121  17.143  0.1067  0.1327 -0.1860
  488MPD2    H5 7264   3.511   2.193  17.165  0.3108  0.1218 -0.7692
  488MPD2    N1 7265   3.434   2.358  16.724  0.2664 -0.3607  0.3647
  488MPD2    H7 7266   3.497   2.426  16.765  0.0188  0.1744 -0.1300
  489TMC3    C1 7267   3.468   2.063  17.358  0.3226  0.1007 -0.2907
  489TMC3    C2 7268   3.532   2.183  17.378  0.4221  0.2796  0.4640
  489TMC3    C3 7269   3.505   2.258  17.488  0.6046 -0.6280 -0.4221
  489TMC3    C4 7270   3.388   2.021  17.457  0.0778  0.1703  0.3981
  489TMC3    C5 7271   3.370   2.095  17.574 -1.0217  0.0341 -0.2841
  489TMC3    C6 7272   3.421   2.217  17.586  0.0453 -0.6787 -0.6608
  489TMC3     C 7273   3.419   2.018  17.232  0.7593 -0.0581 -0.1866
  489TMC3     O 7274   3.379   1.902  17.222  0.1212  0.0940  0.2462
  489TMC3     H 7275   3.595   2.214  17.295  0.5317  2.2912  1.3053
  489TMC3    H1 7276   3.324   1.934  17.450 -0.3469  0.7867 -2.9636
  489TMC3    H2 7277   3.428   2.269  17.681  1.7969 -0.3104 -0.9891
  489TMC3    C7 7278   3.306   2.032  17.690  0.2816 -0.6357 -0.4037
  489TMC3    C8 7279   3.534   2.400  17.463  0.2876  0.3495  0.6993
  489TMC3    O1 7280   3.215   2.095   0.046 -0.1405  0.1885  0.0468
  489TMC3    O2 7281   3.617   2.430  17.379 -0.2647 -0.0818  0.2466
  490MPD2     C 7282   3.710   1.937   0.587  0.5116  0.3816  0.3004
  490MPD2    C1 7283   3.801   1.836   0.604 -0.5043  0.4025  0.1057
  490MPD2    C2 7284   3.938   1.858   0.584 -0.4762  0.0642  0.0138
  490MPD2    C3 7285   3.987   1.974   0.531  0.1869 -0.3986 -0.4366
  490MPD2    C4 7286   3.893   2.079   0.526 -0.9354 -0.2980  0.2409
  490MPD2    C5 7287   3.758   2.062   0.544  0.3317  0.1818 -0.0446
  490MPD2     H 7288   4.009   1.776   0.594 -2.0550 -1.2198  0.5695
  490MPD2    H1 7289   3.922   2.172   0.479 -1.1536 -0.1947  0.3143
  490MPD2    H2 7290   3.605   1.921   0.607  0.4919  1.1155  0.7769
  490MPD2    H3 7291   3.689   2.143   0.525 -1.9263 -1.7663 -0.1593
  490MPD2     N 7292   4.120   1.999   0.482  0.2788 -0.1830  0.3097
  490MPD2    H5 7293   4.136   2.090   0.440 -2.0181  0.1786  0.2278
  490MPD2    N1 7294   3.761   1.705   0.633  0.2936 -0.2506  0.0306
  490MPD2    H7 7295   3.844   1.647   0.629 -0.0939 -0.8972  1.3132
  491TMC3    C1 7296   3.647   1.516   0.650  0.5117 -1.0509  0.6495
  491TMC3    C2 7297   3.593   1.446   0.754  0.1978 -0.1299 -0.7894
  491TMC3    C3 7298   3.622   1.309   0.754 -0.6274  0.3423  0.5203
  491TMC3    C4 7299   3.729   1.466   0.545 -0.0287  0.0513 -0.3755
  491TMC3    C5 7300   3.757   1.334   0.557 -0.1097  0.1162 -0.5462
  491TMC3    C6 7301   3.705   1.255   0.655  0.0640  0.3052  0.1770
  491TMC3     C 7302   3.640   1.661   0.659 -0.1367 -0.0572 -0.1585
  491TMC3     O 7303   3.536   1.713   0.698 -0.0192  0.0441 -0.5867
  491TMC3     H 7304   3.546   1.497   0.837 -2.3138 -0.1663 -2.1858
  491TMC3    H1 7305   3.774   1.530   0.469  1.1737 -0.8403 -0.4092
  491TMC3    H2 7306   3.746   1.156   0.668  1.6707  1.2021  2.0317
  491TMC3    C7 7307   3.846   1.276   0.457  0.2082  0.0243  0.1125
  491TMC3    C8 7308   3.505   1.243   0.789 -0.8794 -0.1217 -0.0199
  491TMC3    O1 7309   3.830   1.160   0.422 -0.0804 -0.3829 -0.1027
  491TMC3    O2 7310   3.420   1.299   0.859  0.4294  0.3439 -0.6994
  492MPD2     C 7311   0.136   1.728  11.051 -0.1803  0.0468 -0.3094
  492MPD2    C1 7312   0.091   1.599  11.025 -0.3850  0.1615  0.4410
  492MPD2    C2 7313   0.096   1.508  11.129  0.4072 -0.4515  0.6496
  492MPD2    C3 7314   0.156   1.536  11.250  0.8397  0.2028  0.2029
  492MPD2    C4 7315   0.185   1.665  11.275 -0.7425 -0.7365  0.3991
  492MPD2    C5 7316   0.178   1.762  11.179 -0.1690 -0.3065  0.4510
  492MPD2     H 7317   0.042   1.417  11.106 -0.7322  0.8929 -1.9253
  492MPD2    H1 7318   0.206   1.709  11.372 -1.1057  2.1843 -0.8436
  492MPD2    H2 7319   0.135   1.811  10.982  0.3337 -0.7565 -1.2788
  492MPD2    H3 7320   0.201   1.867  11.197 -1.3603  0.6697 -3.5405
  492MPD2     N 7321   0.155   1.450  11.365  0.3934  0.4421  0.8085
  492MPD2    H5 7322   0.174   1.501  11.451 -0.0654  0.0608  1.1380
  492MPD2    N1 7323   0.045   1.576  10.887 -0.0902  0.1969  0.6824
  492MPD2    H7 7324   0.054   1.659  10.830  0.8044 -0.6356 -0.3884
  493TMC3    C1 7325   4.654   1.451  10.710  0.5516 -0.5703 -0.1020
  493TMC3    C2 7326   4.659   1.560  10.627  0.3032 -0.1349  0.1979
  493TMC3    C3 7327   4.624   1.542  10.493 -0.5868 -0.0229  0.3687
  493TMC3    C4 7328   4.600   1.329  10.668  0.9707 -0.0735 -0.0802
  493TMC3    C5 7329   4.568   1.323  10.535  0.1511  0.2973  0.4806
  493TMC3    C6 7330   4.574   1.423  10.443  0.5869 -0.5016  0.0383
  493TMC3     C 7331   0.000   1.456  10.839 -0.1393  0.3469  1.1621
  493TMC3     O 7332   0.014   1.349  10.899 -0.1911 -1.1127  0.3528
  493TMC3     H 7333   4.662   1.662  10.665 -2.2930 -0.1663  0.5231
  493TMC3    H1 7334   4.594   1.242  10.732 -0.9364  0.1277  0.0070
  493TMC3    H2 7335   4.545   1.398  10.342 -1.1272  0.0643  0.3764
  493TMC3    C7 7336   4.503   1.197  10.495  0.0057  0.4772 -0.3985
  493TMC3    C8 7337   4.641   1.644  10.391  0.1388  0.2248  0.2538
  493TMC3    O1 7338   4.423   1.209  10.400  0.6752 -0.0680 -0.3509
  493TMC3    O2 7339   4.597   1.620  10.281 -0.1409  0.1804 -0.0934
  494TMC3    C1 7340   0.646   3.471   0.675  0.4490  0.4135  0.3380
  494TMC3    C2 7341   0.717   3.349   0.705  1.0518  0.2929 -0.0729
  494TMC3    C3 7342   0.724   3.252   0.608  0.7710 -0.7473  0.0215
  494TMC3    C4 7343   0.572   3.477   0.565 -0.2839  0.1524  0.3318
  494TMC3    C5 7344   0.582   3.373   0.473  0.4871  0.0841  0.4435
  494TMC3    C6 7345   0.650   3.257   0.494 -0.4429 -0.0023 -0.5304
  494TMC3     C 7346   0.687   3.589   0.746  0.1598  0.1507  0.3254
  494TMC3     O 7347   0.681   3.698   0.687 -0.2687 -0.4215  0.5906
  494TMC3     H 7348   0.797   3.342   0.778 -0.3417 -0.4003  1.3883
  494TMC3    H1 7349   0.517   3.569   0.548  0.4099  0.4244 -0.4416
  494TMC3    H2 7350   0.658   3.186   0.413  2.1504 -0.4768  0.1402
  494TMC3    C7 7351   0.520   3.388   0.348  0.1809 -0.3753  0.0084
  494TMC3    C8 7352   0.786   3.125   0.646  0.3135 -0.8017  0.3020
  494TMC3    O1 7353   0.556   3.312   0.260  0.1825 -0.4151  0.3196
  494TMC3    O2 7354   0.784   3.102   0.768 -0.5802  0.2357  0.2045
  495TMC3    C1 7355   3.878   0.464  15.026  0.2303 -0.1800  0.2528
  495TMC3    C2 7356   3.808   0.502  14.918  0.0660  0.1946 -0.3764
  495TMC3    C3 7357   3.682   0.535  14.938 -0.2395 -0.2422  0.1848
  495TMC3    C4 7358   3.826   0.486  15.156  0.7525 -0.2130  0.6170
  495TMC3    C5 7359   3.693   0.526  15.172  0.3468 -0.1829 -0.1098
  495TMC3    C6 7360   3.617   0.545  15.060  0.0244  0.1510  1.1227
  495TMC3     C 7361   3.938   0.331  15.013  0.6482 -0.3704 -0.8181
  495TMC3     O 7362   4.027   0.294  15.092 -0.3338  0.5433 -0.0467
  495TMC3     H 7363   3.844   0.485  14.817  2.8929 -0.5175  0.7477
  495TMC3    H1 7364   3.873   0.436  15.240  1.0454 -1.2808 -0.1818
  495TMC3    H2 7365   3.516   0.584  15.062  0.5406  1.4896  0.4981
  495TMC3    C7 7366   3.642   0.509  15.305 -0.3098  0.5845 -0.0429
  495TMC3    C8 7367   3.597   0.563  14.825 -0.7122 -0.3578 -0.2702
  495TMC3    O1 7368   3.719   0.538  15.391  0.2048 -0.0593 -0.1431
  495TMC3    O2 7369   3.481   0.537  14.847 -0.2671  0.9370  0.6831
  496MPD2     C 7370   1.241   0.770  15.912 -0.2210  0.4394  0.4973
  496MPD2    C1 7371   1.160   0.657  15.915  0.1714 -0.3820  0.3096
  496MPD2    C2 7372   1.097   0.623  16.036  0.0377  0.4439 -0.5497
  496MPD2    C3 7373   1.140   0.681  16.153  0.0674  0.0929 -0.3104
  496MPD2    C4 7374   1.239   0.778  16.148  0.1245  0.1777  0.1574
  496MPD2    C5 7375   1.279   0.831  16.027 -0.9762  0.1452 -0.2026
  496MPD2     H 7376   1.029   0.539  16.042  0.0174  0.7433  3.2968
  496MPD2    H1 7377   1.285   0.823  16.235 -2.3637  0.1690  1.4893
  496MPD2    H2 7378   1.272   0.807  15.815  1.0676  1.3588  1.2460
  496MPD2    H3 7379   1.330   0.927  16.027 -1.1282  0.2266  0.0094
  496MPD2     N 7380   1.081   0.635  16.269 -0.6095  0.3893  0.3574
  496MPD2    H5 7381   0.990   0.592  16.258 -1.3791  2.2391 -0.5818
  496MPD2    N1 7382   1.127   0.600  15.790 -0.2255 -0.6264 -0.7984
  496MPD2    H7 7383   1.169   0.631  15.703  2.1536 -0.6098  0.3282
  497TMC3    C1 7384   1.061   0.602  16.499  0.2436  0.1893 -0.0542
  497TMC3    C2 7385   0.953   0.513  16.479  0.9527 -0.1651 -0.4501
  497TMC3    C3 7386   0.886   0.453  16.581  0.2939  0.0359  0.3185
  497TMC3    C4 7387   1.101   0.621  16.632  0.1087 -0.4202 -0.8890
  497TMC3    C5 7388   1.022   0.559  16.734 -0.4159 -0.3514  0.4109
  497TMC3    C6 7389   0.913   0.484  16.704 -0.3006 -0.1977 -0.5882
  497TMC3     C 7390   1.124   0.669  16.397 -0.0259 -0.9333  0.6872
  497TMC3     O 7391   1.235   0.715  16.431 -0.6201 -0.5461  0.2715
  497TMC3     H 7392   0.932   0.477  16.379  1.4268 -1.1008 -0.2094
  497TMC3    H1 7393   1.190   0.679  16.654 -1.5874  2.3375 -1.2476
  497TMC3    H2 7394   0.857   0.443  16.788 -0.4592  1.4588  0.1090
  497TMC3    C7 7395   1.054   0.569  16.876 -0.0943 -0.1857  0.2314
  497TMC3    C8 7396   0.764   0.366  16.563  0.7854 -0.1621  0.5129
  497TMC3    O1 7397   0.977   0.515  16.947 -0.0155  0.2531 -0.2139
  497TMC3    O2 7398   0.715   0.311  16.664 -0.0919  0.3214  0.1194
  498MPD2     C 7399   1.936   0.785   9.218  0.1915  0.1545 -0.1050
  498MPD2    C1 7400   2.012   0.715   9.315 -0.7057 -0.6761  0.2873
  498MPD2    C2 7401   1.945   0.673   9.431  0.3786  0.2006 -0.5090
  498MPD2    C3 7402   1.810   0.680   9.446 -0.8957  0.6095  0.3231
  498MPD2    C4 7403   1.737   0.742   9.346 -0.5638 -0.2552 -0.2888
  498MPD2    C5 7404   1.801   0.795   9.236 -0.7670 -0.5595 -0.2639
  498MPD2     H 7405   2.007   0.640   9.514  0.1371 -0.2856 -0.5250
  498MPD2    H1 7406   1.628   0.749   9.347 -0.4932  0.6042  2.8494
  498MPD2    H2 7407   1.993   0.830   9.139 -0.7960 -1.2799 -1.6304
  498MPD2    H3 7408   1.741   0.840   9.157 -2.1232 -0.2908  0.9224
  498MPD2     N 7409   1.756   0.613   9.556 -0.2486  0.0986 -0.0898
  498MPD2    H5 7410   1.816   0.567   9.623 -1.1700  1.9912  2.0323
  498MPD2    N1 7411   2.152   0.702   9.314  0.5959  0.1499 -0.2057
  498MPD2    H7 7412   2.193   0.653   9.393 -0.6315  0.2430  0.4934
  499TMC3    C1 7413   2.364   0.727   9.264 -0.5375 -0.9139 -0.1765
  499TMC3    C2 7414   2.383   0.615   9.343 -0.2673  0.3692 -0.1684
  499TMC3    C3 7415   2.508   0.602   9.401 -1.0656 -0.2396 -0.9874
  499TMC3    C4 7416   2.460   0.815   9.229 -0.0850  0.3729  0.1450
  499TMC3    C5 7417   2.580   0.799   9.292  0.2290 -0.6192  0.8256
  499TMC3    C6 7418   2.604   0.696   9.385 -0.2265 -0.4812 -0.0959
  499TMC3     C 7419   2.236   0.736   9.209 -0.2705  0.0475  0.8914
  499TMC3     O 7420   2.222   0.782   9.099 -0.2061 -0.4089  0.2074
  499TMC3     H 7421   2.318   0.529   9.340 -0.0889  0.1632  1.5105
  499TMC3    H1 7422   2.439   0.881   9.145 -2.6354  2.2157  2.2307
  499TMC3    H2 7423   2.699   0.693   9.437 -0.3897  0.5155  0.2661
  499TMC3    C7 7424   2.694   0.875   9.253  0.1187  0.3657  0.0860
  499TMC3    C8 7425   2.534   0.482   9.481 -0.0199  0.5088 -0.5172
  499TMC3    O1 7426   2.803   0.817   9.276  0.2415  0.0791  0.2237
  499TMC3    O2 7427   2.442   0.405   9.477 -0.0993  0.0465  0.0103
  500MPD2     C 7428   4.094   2.468   9.764  0.1483 -0.5171 -0.1409
  500MPD2    C1 7429   4.043   2.388   9.860  0.2525 -0.0923 -0.2831
  500MPD2    C2 7430   3.944   2.300   9.820  0.2086  0.1085 -0.3064
  500MPD2    C3 7431   3.908   2.289   9.689  0.3975 -0.8316 -0.3195
  500MPD2    C4 7432   3.971   2.370   9.598 -0.4719 -0.3545 -0.0613
  500MPD2    C5 7433   4.068   2.459   9.631 -0.1197  0.8425 -0.0114
  500MPD2     H 7434   3.900   2.235   9.895 -2.5096  1.0335 -1.0699
  500MPD2    H1 7435   3.934   2.356   9.497 -2.8912  0.3442  0.7352
  500MPD2    H2 7436   4.152   2.557   9.787 -2.2231  1.3175 -1.2267
  500MPD2    H3 7437   4.111   2.536   9.569  0.3923  1.8445  1.5875
  500MPD2     N 7438   3.807   2.197   9.646 -0.3920 -0.5136 -0.0429
  500MPD2    H5 7439   3.797   2.189   9.545  0.8025  1.0521 -0.2857
  500MPD2    N1 7440   4.068   2.417   9.999 -0.1243 -0.3513  0.1922
  500MPD2    H7 7441   4.133   2.489  10.026 -1.6587  1.0062  0.2731
  501TMC3    C1 7442   4.056   2.404  10.234  0.0978 -0.1140  0.3503
  501TMC3    C2 7443   4.034   2.538  10.249 -0.2852 -0.2852  0.0665
  501TMC3    C3 7444   4.022   2.579  10.377  0.2726  0.1245  1.1439
  501TMC3    C4 7445   4.062   2.314  10.342 -0.5933 -0.7715  0.1172
  501TMC3    C5 7446   4.067   2.363  10.470 -0.1318  0.3333  1.2714
  501TMC3    C6 7447   4.055   2.499  10.487  0.0506  0.2782 -0.2261
  501TMC3     C 7448   4.036   2.338  10.108  0.1314 -0.6700 -0.2836
  501TMC3     O 7449   4.012   2.218  10.098 -0.2504 -0.6058 -0.5894
  501TMC3     H 7450   3.989   2.595  10.168  1.4492 -1.9906 -2.0872
  501TMC3    H1 7451   4.077   2.208  10.329  0.7262 -0.7230  1.2738
  501TMC3    H2 7452   4.037   2.529  10.589  2.3597  0.4709  0.1300
  501TMC3    C7 7453   4.080   2.273  10.584  0.6007 -0.5266  0.0214
  501TMC3    C8 7454   4.030   2.722  10.404  0.4106 -0.8370  0.3927
  501TMC3    O1 7455   4.117   2.330  10.689  0.0061 -0.3336 -0.2206
  501TMC3    O2 7456   4.085   2.752  10.508 -0.0607  0.0475 -0.7574
  502TMC3    C1 7457   3.018   0.778  16.020  0.2733  0.1789  0.2997
  502TMC3    C2 7458   3.047   0.892  15.955 -0.0019 -0.1391 -0.9947
  502TMC3    C3 7459   2.961   1.000  15.946 -0.3517 -0.1171 -0.5509
  502TMC3    C4 7460   2.894   0.768  16.077  1.1677  0.4956  0.4283
  502TMC3    C5 7461   2.805   0.869  16.051 -0.3215  0.3513  0.1701
  502TMC3    C6 7462   2.833   0.996  15.999 -0.0722 -0.9020  0.3654
  502TMC3     C 7463   3.130   0.708  16.091 -0.1553  0.2703  0.1065
  502TMC3     O 7464   3.093   0.615  16.162  0.0128 -0.0105  0.5355
  502TMC3     H 7465   3.147   0.908  15.917  0.2492  1.3459  0.3024
  502TMC3    H1 7466   2.868   0.665  16.097 -1.3210  1.3303  1.4997
  502TMC3    H2 7467   2.749   1.060  15.973 -1.0982 -1.7016  1.6997
  502TMC3    C7 7468   2.664   0.836  16.077 -0.3305 -0.9438  0.5270
  502TMC3    C8 7469   3.005   1.125  15.883  0.2146  0.4970 -0.4559
  502TMC3    O1 7470   2.638   0.763  16.171 -1.5040  0.0722  0.7502
  502TMC3    O2 7471   3.096   1.132  15.803  0.9370 -0.2604  0.3081
  503MPD2     C 7472   0.498   1.987  17.227  0.5720 -0.1065 -0.2786
  503MPD2    C1 7473   0.623   2.047  17.258 -0.2990  0.3494  0.1355
  503MPD2    C2 7474   0.706   1.984  17.345 -0.6090 -0.2833 -0.4533
  503MPD2    C3 7475   0.673   1.863  17.401  0.8433 -0.1849  0.0136
  503MPD2    C4 7476   0.544   1.813  17.376  0.5748  0.7330 -0.4965
  503MPD2    C5 7477   0.458   1.872  17.296 -0.4042 -0.0737  0.1776
  503MPD2     H 7478   0.795   2.041  17.371 -1.4124  0.7250  0.1154
  503MPD2    H1 7479   0.509   1.717  17.412  2.0742 -0.0185 -1.0231
  503MPD2    H2 7480   0.421   2.033  17.166 -1.9040  1.2992  3.8766
  503MPD2    H3 7481   0.362   1.822  17.284 -0.7568  0.7792 -0.5772
  503MPD2     N 7482   0.762   1.794  17.489 -0.1042  0.2168  0.0979
  503MPD2    H5 7483   0.859   1.823  17.497 -0.0359  0.2396 -0.7459
  503MPD2    N1 7484   0.651   2.189  17.227 -0.0389 -0.3868  0.4456
  503MPD2    H7 7485   0.712   2.248  17.283 -0.8931  1.6135 -0.7208
  504TMC3    C1 7486   0.854   1.616  17.613  0.3552  0.1250  0.4307
  504TMC3    C2 7487   0.850   1.533   0.026  0.0747 -0.6208 -0.0476
  504TMC3    C3 7488   0.957   1.446   0.052  0.6793 -0.5221  0.1186
  504TMC3    C4 7489   0.955   1.601  17.524 -1.1509  0.5003  0.3236
  504TMC3    C5 7490   1.049   1.506  17.549  0.4749  0.4247  0.0092
  504TMC3    C6 7491   1.063   1.427  17.667  0.2103  0.1343  0.3288
  504TMC3     C 7492   0.730   1.689  17.572 -0.1438  0.2421  0.5044
  504TMC3     O 7493   0.621   1.637  17.598  0.1461 -0.5123 -0.2751
  504TMC3     H 7494   0.766   1.545   0.092 -0.6808  1.6491 -1.4196
  504TMC3    H1 7495   0.967   1.643  17.425 -3.2816  0.8270  0.2043
  504TMC3    H2 7496   1.128   1.341  17.681  0.8124  0.4444 -0.5132
  504TMC3    C7 7497   1.169   1.514  17.470 -0.1554 -0.3935  0.5841
  504TMC3    C8 7498   0.971   1.390   0.189  0.4293 -0.1067  0.6280
  504TMC3    O1 7499   1.159   1.551  17.356  0.2592  0.0154 -0.1674
  504TMC3    O2 7500   0.983   1.269   0.187  0.4687  0.0936 -0.5819
  505MPD2     C 7501   1.067   0.554  10.941 -0.3760 -0.3666  0.1380
  505MPD2    C1 7502   1.138   0.494  10.833  0.4421  0.0481 -0.6829
  505MPD2    C2 7503   1.277   0.519  10.822 -0.8982 -0.4377 -0.0361
  505MPD2    C3 7504   1.345   0.594  10.914  0.1047  0.0884 -0.5141
  505MPD2    C4 7505   1.275   0.643  11.026  0.5031 -0.2603  0.2392
  505MPD2    C5 7506   1.131   0.633  11.030  0.2785 -0.3399  0.3619
  505MPD2     H 7507   1.323   0.505  10.725  0.6063 -1.4606  0.8300
  505MPD2    H1 7508   1.327   0.697  11.103  0.3977  2.1002 -1.3191
  505MPD2    H2 7509   0.965   0.524  10.963  0.0216 -1.7291  0.1012
  505MPD2    H3 7510   1.076   0.667  11.117  2.4974  1.9788  0.8501
  505MPD2     N 7511   1.490   0.610  10.909  0.1497 -0.3078 -0.1021
  505MPD2    H5 7512   1.541   0.655  10.985  2.2050  0.0026 -1.6746
  505MPD2    N1 7513   1.069   0.400  10.757  0.1305  0.5184  0.5721
  505MPD2    H7 7514   0.988   0.359  10.802 -0.1983 -0.4129 -0.8604
  506TMC3    C1 7515   1.069   0.206  10.638 -0.0431 -0.3323 -0.5101
  506TMC3    C2 7516   1.068   0.148  10.517 -0.3423  0.3293 -0.1212
  506TMC3    C3 7517   1.067   0.011  10.515 -0.3966  0.1662 -0.9990
  506TMC3    C4 7518   1.080   0.137  10.762  0.1169 -0.1263 -0.2446
  506TMC3    C5 7519   1.087   0.005  10.754  0.1055 -0.3316  0.0797
  506TMC3    C6 7520   1.079   4.668  10.632 -0.3441 -0.2385  0.4652
  506TMC3     C 7521   1.113   0.340  10.643 -0.4104  0.4623  0.5409
  506TMC3     O 7522   1.159   0.398  10.546  0.2558 -0.1817 -0.1560
  506TMC3     H 7523   1.077   0.208  10.427  0.7472 -0.6129 -0.6411
  506TMC3    H1 7524   1.096   0.187  10.857  3.0590  2.3308 -2.0443
  506TMC3    H2 7525   1.084   4.560  10.642 -3.4405 -0.5524 -1.1449
  506TMC3    C7 7526   1.182   4.669  10.833  0.2409  0.1623 -0.2509
  506TMC3    C8 7527   1.116   4.668  10.402 -0.2742  0.3513  0.6196
  506TMC3    O1 7528   1.155   4.577  10.904  0.8353 -0.1763  0.6033
  506TMC3    O2 7529   1.123   4.543  10.398  0.4449  0.0292  0.1709
  507TMC3    C1 7530   1.410   1.142  14.939  0.7269 -0.6806  0.2660
  507TMC3    C2 7531   1.445   1.112  14.812  0.0613  0.4906  0.6987
  507TMC3    C3 7532   1.577   1.132  14.778 -0.1298  0.2044  0.1620
  507TMC3    C4 7533   1.504   1.185  15.033  0.4408 -0.0969 -0.4307
  507TMC3    C5 7534   1.635   1.180  15.002  0.1573  0.1990  0.3773
  507TMC3    C6 7535   1.667   1.140  14.878  0.0556  0.5109 -0.1303
  507TMC3     C 7536   1.282   1.108  14.989  0.2465  0.0758 -0.0312
  507TMC3     O 7537   1.236   1.194  15.064 -0.1104  0.6299 -0.5451
  507TMC3     H 7538   1.372   1.089  14.735  0.2727 -1.2889  1.0213
  507TMC3    H1 7539   1.467   1.206  15.133 -1.2123  1.7676 -1.4174
  507TMC3    H2 7540   1.770   1.126  14.845 -1.0894 -2.7786 -2.3118
  507TMC3    C7 7541   1.719   1.282  15.055  0.0168  0.2764 -0.1798
  507TMC3    C8 7542   1.597   1.223  14.665 -0.1592 -0.7181  0.3264
  507TMC3    O1 7543   1.784   1.343  14.969  0.0906  0.1917  0.3085
  507TMC3    O2 7544   1.515   1.206  14.574 -0.0632  0.4590  0.6091
  508MPD2     C 7545   2.443   3.552  16.399 -0.6547 -0.0510 -0.0660
  508MPD2    C1 7546   2.404   3.678  16.437 -0.3351  0.1277 -0.1604
  508MPD2    C2 7547   2.395   3.773  16.345  0.1599 -0.2585 -0.1639
  508MPD2    C3 7548   2.404   3.745  16.213  0.2026  0.0502  0.0800
  508MPD2    C4 7549   2.446   3.620  16.174  0.3897  0.0970  0.1732
  508MPD2    C5 7550   2.453   3.521  16.268 -0.0618 -0.5402 -0.1103
  508MPD2     H 7551   2.383   3.874  16.383  0.1701 -0.4694  0.4054
  508MPD2    H1 7552   2.470   3.586  16.074 -0.3449 -0.6861  0.2733
  508MPD2    H2 7553   2.460   3.469  16.467 -1.7776 -0.9852 -0.9086
  508MPD2    H3 7554   2.485   3.421  16.242  1.1225  0.1729 -1.4199
  508MPD2     N 7555   2.399   3.848  16.117  0.3314 -0.5693  0.3131
  508MPD2    H5 7556   2.387   3.943  16.152  0.3072 -0.4806  0.0674
  508MPD2    N1 7557   2.395   3.699  16.574  0.3640 -0.5526 -0.3447
  508MPD2    H7 7558   2.415   3.611  16.621  0.5947  0.0489  0.6805
  509TMC3    C1 7559   2.340   4.107  15.750  0.2636 -0.1960  0.0136
  509TMC3    C2 7560   2.399   4.217  15.800 -0.3163  0.3553 -0.6858
  509TMC3    C3 7561   2.476   4.208  15.920 -0.1418 -1.5621  0.5093
  509TMC3    C4 7562   2.357   3.981  15.808  0.4751 -0.4542 -0.1328
  509TMC3    C5 7563   2.425   3.973  15.927  0.2327 -0.0826 -0.0284
  509TMC3    C6 7564   2.477   4.087  15.987  0.2826 -0.2488  0.1865
  509TMC3     C 7565   2.270   4.104  15.618  0.0683  0.7754 -0.5905
  509TMC3     O 7566   2.221   3.999  15.577 -0.1904  0.4846  0.3490
  509TMC3     H 7567   2.374   4.314  15.758  0.7078 -0.0608 -2.2757
  509TMC3    H1 7568   2.318   3.893  15.758  0.2654  0.2053 -1.1180
  509TMC3    H2 7569   2.536   4.080  16.077  2.3782  0.6882 -1.1143
  509TMC3    C7 7570   2.420   3.836  15.984 -0.3019 -0.2402  0.7004
  509TMC3    C8 7571   2.539   4.328  15.974 -0.0259  0.4196 -0.8529
  509TMC3    O1 7572   2.408   3.740  15.909  0.0334  0.2884  0.3773
  509TMC3    O2 7573   2.506   4.429  15.916  0.3505  0.6119  0.4293
  510MPD2     C 7574   0.802   1.157  14.809 -0.6324 -0.2755 -0.1198
  510MPD2    C1 7575   0.740   1.040  14.770  0.4136 -0.2486  0.0269
  510MPD2    C2 7576   0.813   0.941  14.705 -0.4200 -0.4646 -0.2730
  510MPD2    C3 7577   0.949   0.957  14.678  0.0861  0.2550 -1.0658
  510MPD2    C4 7578   1.009   1.079  14.710 -0.0700 -0.4242  0.5062
  510MPD2    C5 7579   0.934   1.173  14.775 -0.0505 -0.2536  0.2024
  510MPD2     H 7580   0.765   0.852  14.669 -2.0575 -0.1540  1.1381
  510MPD2    H1 7581   1.114   1.099  14.690 -0.0192 -0.9823  0.2026
  510MPD2    H2 7582   0.751   1.250  14.831  1.2101  0.5660  0.5417
  510MPD2    H3 7583   0.975   1.273  14.770 -0.4955 -0.0652  0.3748
  510MPD2     N 7584   1.012   0.840  14.629 -0.3817 -0.7615 -0.1765
  510MPD2    H5 7585   0.956   0.756  14.638  0.1882 -1.4479 -3.0985
  510MPD2    N1 7586   0.606   1.015  14.809 -0.0608  0.0777 -0.0602
  510MPD2    H7 7587   0.568   1.087  14.870  2.0579  0.9622  0.2086
  511TMC3    C1 7588   0.398   0.907  14.848  0.2687 -0.3171  0.2038
  511TMC3    C2 7589   0.394   0.932  14.981  0.1519 -0.2190 -0.6216
  511TMC3    C3 7590   0.311   0.845  15.059 -0.2209 -0.2475 -0.2637
  511TMC3    C4 7591   0.329   0.806  14.788 -0.3786  0.7309 -0.1616
  511TMC3    C5 7592   0.239   0.733  14.863  0.0208 -0.4194 -0.0762
  511TMC3    C6 7593   0.217   0.762  14.996 -0.6037 -0.1474  0.0561
  511TMC3     C 7594   0.528   0.909  14.782 -0.0688  0.3193 -0.1035
  511TMC3     O 7595   0.552   0.818  14.704 -0.1116 -0.0343 -0.3460
  511TMC3     H 7596   0.462   1.007  15.019  1.8105 -0.9645 -2.1076
  511TMC3    H1 7597   0.333   0.801  14.680  1.4864  4.8975 -0.3083
  511TMC3    H2 7598   0.129   0.721  15.045 -1.8237  3.6491  0.9735
  511TMC3    C7 7599   0.170   0.623  14.803 -0.2757 -0.3446  0.4460
  511TMC3    C8 7600   0.275   0.888  15.194 -0.2909  0.4585 -0.4370
  511TMC3    O1 7601   0.158   0.632  14.682  0.0629 -0.2400  0.0505
  511TMC3    O2 7602   0.263   1.009  15.216 -0.5700 -0.0533  0.1034
  512TMC3    C1 7603   3.642   0.046  13.686 -0.3103  0.9844 -0.6278
  512TMC3    C2 7604   3.762   0.037  13.761  0.2461 -0.1837 -0.5916
  512TMC3    C3 7605   3.820   4.641  13.777 -0.7324 -0.7576 -0.4607
  512TMC3    C4 7606   3.591   4.655  13.628  0.4499  0.2614  0.1706
  512TMC3    C5 7607   3.659   4.537  13.637  0.3050 -0.1831  0.3271
  512TMC3    C6 7608   3.770   4.522  13.720  0.0424  0.2165 -0.6043
  512TMC3     C 7609   3.556   0.159  13.693  0.2277 -0.3426  0.1120
  512TMC3     O 7610   3.437   0.129  13.723 -0.4760 -0.1569  0.5885
  512TMC3     H 7611   3.803   0.126  13.808  0.5924  0.5399 -2.2382
  512TMC3    H1 7612   3.502   4.658  13.566 -0.8104 -1.7326  1.8717
  512TMC3    H2 7613   3.826   4.430  13.716  1.7843  1.2981 -0.9088
  512TMC3    C7 7614   3.629   4.431  13.537  0.1531  0.0440 -0.3050
  512TMC3    C8 7615   3.941   4.626  13.854 -0.2969 -0.0198  1.1027
  512TMC3    O1 7616   3.556   4.461  13.445 -0.2127 -0.3481 -0.6361
  512TMC3    O2 7617   3.981   4.510  13.849  0.7697  0.2683 -0.4739
  513MPD2     C 7618   1.335   0.278  13.207  0.1939  0.1638 -0.6693
  513MPD2    C1 7619   1.470   0.284  13.168 -0.4448  0.1188 -0.6406
  513MPD2    C2 7620   1.562   0.320  13.271  0.3420 -0.6480 -0.2769
  513MPD2    C3 7621   1.522   0.311  13.406 -0.5865 -0.0806  0.4217
  513MPD2    C4 7622   1.387   0.292  13.440  0.5444  0.4525  0.0183
  513MPD2    C5 7623   1.297   0.273  13.338 -0.0370  0.0955 -0.6101
  513MPD2     H 7624   1.666   0.347  13.258  0.0500  1.3182  1.5006
  513MPD2    H1 7625   1.365   0.266  13.543  1.7070  2.1211  0.6835
  513MPD2    H2 7626   1.259   0.275  13.129 -2.0220 -1.4030  1.5745
  513MPD2    H3 7627   1.194   0.251  13.362  0.6740 -0.7605  1.6574
  513MPD2     N 7628   1.613   0.329  13.506 -0.0090 -0.5278  0.0829
  513MPD2    H5 7629   1.709   0.340  13.475 -1.0785  2.0043 -2.2622
  513MPD2    N1 7630   1.498   0.270  13.032 -0.5699 -0.5617  0.9216
  513MPD2    H7 7631   1.419   0.251  12.972 -0.6021  3.6111 -0.3519
  514TMC3    C1 7632   1.642   0.295  12.843 -0.0256  0.0396  0.0807
  514TMC3    C2 7633   1.577   0.199  12.782 -0.2530 -0.7374 -0.2020
  514TMC3    C3 7634   1.641   0.119  12.687  0.3764 -0.6665 -0.1429
  514TMC3    C4 7635   1.779   0.312  12.820  0.6706  0.2914  0.4428
  514TMC3    C5 7636   1.846   0.223  12.735  0.2522  0.0106  0.1681
  514TMC3    C6 7637   1.776   0.128  12.664 -0.3278  0.3198  0.2521
  514TMC3     C 7638   1.622   0.310  12.980 -0.1259 -0.1235 -0.3428
  514TMC3     O 7639   1.721   0.349  13.039  0.2817 -0.0249 -0.2298
  514TMC3     H 7640   1.473   0.174  12.798 -0.0224  0.0275  2.4624
  514TMC3    H1 7641   1.815   0.414  12.829  2.2606 -0.3745  1.4481
  514TMC3    H2 7642   1.824   0.050  12.606  0.8278  0.4020  1.1034
  514TMC3    C7 7643   1.966   0.178  12.804 -0.2686 -0.0497 -0.0699
  514TMC3    C8 7644   1.549   0.071  12.577 -0.6071  0.2400 -0.4368
  514TMC3    O1 7645   2.022   0.072  12.770  0.0991  0.5355  0.6520
  514TMC3    O2 7646   1.428   0.082  12.603 -0.0061 -0.0306  0.7009
  515MPD2     C 7647   3.803   1.894  15.044  0.4825  0.2626 -0.1854
  515MPD2    C1 7648   3.938   1.861  15.042 -0.3378  0.2774  0.3647
  515MPD2    C2 7649   4.028   1.968  15.043 -0.1835 -0.6675 -0.5236
  515MPD2    C3 7650   3.984   2.099  15.061 -0.4836 -0.0824 -0.3416
  515MPD2    C4 7651   3.858   2.122  15.062 -0.4827 -0.1274 -0.8796
  515MPD2    C5 7652   3.765   2.023  15.044 -0.3163  1.1488  0.3623
  515MPD2     H 7653   4.134   1.955  15.062 -0.1043 -0.9194 -1.1412
  515MPD2    H1 7654   3.814   2.220  15.077  0.4843 -0.1883  2.3708
  515MPD2    H2 7655   3.725   1.819  15.043  0.0614  0.6777  1.6904
  515MPD2    H3 7656   3.662   2.052  15.034 -0.7053 -2.0180 -4.9088
  515MPD2     N 7657   4.071   2.205  15.084  0.0146  0.0525  0.0047
  515MPD2    H5 7658   4.035   2.293  15.119  1.6200  2.2589 -3.8837
  515MPD2    N1 7659   3.982   1.729  15.035 -0.1928  0.8327 -0.3957
  515MPD2    H7 7660   4.073   1.707  14.996  0.2650 -0.5264  1.4306
  516TMC3    C1 7661   3.973   1.499  15.023  0.7117  0.2394  0.1274
  516TMC3    C2 7662   4.025   1.502  14.893 -0.3639  0.2473  0.2914
  516TMC3    C3 7663   4.008   1.380  14.826  0.9910  0.3782 -0.0095
  516TMC3    C4 7664   3.925   1.388  15.090  0.6914 -0.4015 -0.3449
  516TMC3    C5 7665   3.914   1.276  15.017  0.4862 -0.3832  0.5084
  516TMC3    C6 7666   3.944   1.272  14.879 -0.0097  0.2890 -0.3195
  516TMC3     C 7667   3.911   1.622  15.072 -0.0995  0.0941  0.2525
  516TMC3     O 7668   3.799   1.611  15.121  0.0856 -0.0827  0.6957
  516TMC3     H 7669   4.055   1.590  14.837 -0.5979  0.9731  1.3044
  516TMC3    H1 7670   3.871   1.400  15.184  0.3753  0.5603 -0.6429
  516TMC3    H2 7671   3.932   1.181  14.821  0.4595  0.6658 -1.0056
  516TMC3    C7 7672   3.822   1.177  15.062 -0.3039  0.1530  0.0081
  516TMC3    C8 7673   4.024   1.379  14.677  0.4229 -0.3400  0.6805
  516TMC3    O1 7674   3.822   1.130  15.175 -0.0532 -0.0147  0.0363
  516TMC3    O2 7675   3.943   1.310  14.613 -0.3370 -0.0227  0.2377
  517MPD2     C 7676   3.426   3.371   0.196  0.3113  0.1400  0.2346
  517MPD2    C1 7677   3.554   3.333   0.232 -0.1236 -0.1048  0.2939
  517MPD2    C2 7678   3.622   3.418   0.311  0.5030  0.5579 -0.2670
  517MPD2    C3 7679   3.587   3.543   0.349  0.5773  0.1709  0.1555
  517MPD2    C4 7680   3.456   3.580   0.312 -0.1229  0.4828  0.2006
  517MPD2    C5 7681   3.386   3.498   0.233 -0.3638  0.1241 -0.3908
  517MPD2     H 7682   3.718   3.384   0.349 -0.1684 -0.4108  0.5492
  517MPD2    H1 7683   3.411   3.675   0.338 -1.8455  0.0718 -1.2896
  517MPD2    H2 7684   3.372   3.314   0.122 -0.4695 -0.3629  1.1915
  517MPD2    H3 7685   3.289   3.527   0.195 -0.9778 -2.2825 -0.6202
  517MPD2     N 7686   3.659   3.620   0.440 -0.3444  0.2557  0.0181
  517MPD2    H5 7687   3.623   3.713   0.456 -1.5001 -0.3575  1.0274
  517MPD2    N1 7688   3.617   3.209   0.207 -0.0176 -0.7042 -0.1993
  517MPD2    H7 7689   3.710   3.208   0.248 -0.7552  0.6707  1.4878
  518TMC3    C1 7690   3.657   2.987   0.147  0.2208  0.4770  0.2078
  518TMC3    C2 7691   3.615   2.861   0.136 -0.4722  0.2878 -0.3492
  518TMC3    C3 7692   3.705   2.762   0.117 -0.0051 -0.2818  0.2480
  518TMC3    C4 7693   3.794   3.016   0.156 -0.6276  0.2452  0.5110
  518TMC3    C5 7694   3.884   2.920   0.124 -0.4937 -0.2758 -0.3331
  518TMC3    C6 7695   3.842   2.789   0.104 -0.8414 -0.1339 -0.5052
  518TMC3     C 7696   3.559   3.098   0.152 -0.2516  0.2000  0.1258
  518TMC3     O 7697   3.443   3.078   0.116  0.2865  0.2586 -0.0634
  518TMC3     H 7698   3.510   2.846   0.157 -0.0896 -1.3221  0.4467
  518TMC3    H1 7699   3.834   3.116   0.156 -0.3286  0.1210  0.0015
  518TMC3    H2 7700   3.908   2.709   0.074 -0.0790  0.3973 -0.2485
  518TMC3    C7 7701   4.016   2.949   0.168  0.4057 -0.7011 -0.5913
  518TMC3    C8 7702   3.674   2.622   0.142  0.2738 -0.3464 -0.5459
  518TMC3    O1 7703   4.031   2.970   0.288 -0.0098 -0.3690  0.5360
  518TMC3    O2 7704   3.748   2.544   0.085  0.2612  0.1662 -0.1349
  519MPD2     C 7705   0.583   1.655  14.603 -0.3248  0.3933  0.2157
  519MPD2    C1 7706   0.499   1.642  14.496  0.1640  0.2226 -0.6423
  519MPD2    C2 7707   0.519   1.540  14.408 -0.2088  0.0218  0.5954
  519MPD2    C3 7708   0.617   1.451  14.434  0.7190 -0.2424 -0.0642
  519MPD2    C4 7709   0.696   1.460  14.546  0.3676  0.0376  0.5187
  519MPD2    C5 7710   0.679   1.562  14.636 -0.0599  0.2898 -0.0361
  519MPD2     H 7711   0.482   1.548  14.306  1.3692  2.8338  0.2255
  519MPD2    H1 7712   0.770   1.384  14.566  0.5062  0.0369 -0.0005
  519MPD2    H2 7713   0.568   1.736  14.673  1.9024 -0.4634  1.6961
  519MPD2    H3 7714   0.750   1.573  14.718  0.4841  1.4140 -0.6550
  519MPD2     N 7715   0.645   1.348  14.334  0.0898  0.1504  1.0409
  519MPD2    H5 7716   0.734   1.300  14.339 -0.8700 -1.9963 -2.5290
  519MPD2    N1 7717   0.402   1.735  14.461  0.2093  0.9480  0.1606
  519MPD2    H7 7718   0.345   1.718  14.379  0.6575 -0.8835  0.2273
  520TMC3    C1 7719   0.635   1.214  14.135 -0.3457 -0.5034  0.9808
  520TMC3    C2 7720   0.607   1.224  14.003  0.3244 -0.0002 -0.4064
  520TMC3    C3 7721   0.699   1.174  13.917  0.2380  0.3266 -0.3737
  520TMC3    C4 7722   0.741   1.147  14.190  0.3883 -0.2518  0.1395
  520TMC3    C5 7723   0.825   1.091  14.102  0.1330  0.3238 -0.1825
  520TMC3    C6 7724   0.813   1.105  13.965  0.3095 -0.6299  0.1712
  520TMC3     C 7725   0.578   1.320  14.215 -0.4150  0.2539  0.3301
  520TMC3     O 7726   0.468   1.356  14.176  0.6537 -0.3928  0.1724
  520TMC3     H 7727   0.518   1.277  13.973 -0.7099 -1.5642 -0.0501
  520TMC3    H1 7728   0.744   1.126  14.296  0.0694  1.3913  0.4728
  520TMC3    H2 7729   0.867   1.052  13.887 -0.4596 -0.4675 -0.4831
  520TMC3    C7 7730   0.953   1.043  14.157  0.0918  0.2434 -0.6882
  520TMC3    C8 7731   0.687   1.203  13.777 -0.4894 -0.0486  0.2336
  520TMC3    O1 7732   0.954   1.011  14.276 -0.1260 -0.0994  0.0098
  520TMC3    O2 7733   0.783   1.174  13.708 -0.4917 -0.2259 -0.3093
  521MPD2     C 7734   1.264   4.545  17.588  0.6618 -0.0191 -0.6823
  521MPD2    C1 7735   1.235   4.514  17.459 -1.2982  0.7192 -0.1499
  521MPD2    C2 7736   1.335   4.525  17.356  0.0631  0.4959 -0.4485
  521MPD2    C3 7737   1.468   4.550  17.395  0.0752 -0.4031  0.3312
  521MPD2    C4 7738   1.491   4.579  17.528  0.6126 -0.6370  0.3583
  521MPD2    C5 7739   1.393   4.572  17.625 -0.2772 -0.4278  0.4807
  521MPD2     H 7740   1.309   4.507  17.253  0.3642 -1.9273 -0.1264
  521MPD2    H1 7741   1.592   4.600  17.564  0.0489 -1.5845  2.4374
  521MPD2    H2 7742   1.188   4.552  17.665  1.1819  0.3124 -0.1998
  521MPD2    H3 7743   1.408   4.607   0.026  3.6651 -2.4589  0.6148
  521MPD2     N 7744   1.572   4.558  17.300  0.1220  0.0099 -0.6316
  521MPD2    H5 7745   1.544   4.555  17.202 -0.6880  2.7163 -0.4842
  521MPD2    N1 7746   1.101   4.475  17.432 -0.4514 -0.0025 -0.0664
  521MPD2    H7 7747   1.031   4.485  17.505 -0.9138 -1.7575 -0.2692
  522TMC3    C1 7748   1.788   4.574  17.222  0.4373 -0.3796  0.1604
  522TMC3    C2 7749   1.920   4.552  17.245  0.4350  0.8674 -0.4778
  522TMC3    C3 7750   2.018   4.605  17.166  0.0881  0.2901  0.2656
  522TMC3    C4 7751   1.748   4.664  17.123 -0.0504 -0.5311  0.2560
  522TMC3    C5 7752   1.848   4.717  17.045 -0.7422 -0.6752 -0.2157
  522TMC3    C6 7753   1.981   4.680  17.061 -0.0066 -0.0582 -0.5682
  522TMC3     C 7754   1.703   4.559  17.334 -1.3865  0.1747 -0.0347
  522TMC3     O 7755   1.759   4.552  17.438  0.2582  0.0710 -0.4243
  522TMC3     H 7756   1.949   4.482  17.321 -2.3194  2.2490  1.8673
  522TMC3    H1 7757   1.642   4.685  17.110 -0.0568  0.8054  2.3745
  522TMC3    H2 7758   2.052   4.713  16.986  0.1466  0.2086 -0.3071
  522TMC3    C7 7759   1.816   0.057  16.916  0.7165 -0.1229 -0.0117
  522TMC3    C8 7760   2.133   4.515  17.149 -0.3821 -0.0167 -0.6668
  522TMC3    O1 7761   1.903   0.120  16.863  0.2986  0.0931  0.5292
  522TMC3    O2 7762   2.122   4.402  17.199 -0.2988  0.2843 -0.0857
  523MPD2     C 7763   4.452   4.235  10.320 -0.0976  0.4820 -0.3609
  523MPD2    C1 7764   4.370   4.181  10.219  0.2713 -0.0501  0.6010
  523MPD2    C2 7765   4.319   4.264  10.118  0.3593  0.3730 -1.0250
  523MPD2    C3 7766   4.367   4.396  10.101 -0.1885 -0.8157 -0.1340
  523MPD2    C4 7767   4.449   4.446  10.203 -0.0800 -0.2950  0.1184
  523MPD2    C5 7768   4.491   4.363  10.310 -0.5687 -0.4218 -0.4163
  523MPD2     H 7769   4.254   4.225  10.041 -2.5178 -0.0571  1.6164
  523MPD2    H1 7770   4.484   4.548  10.209  1.3470 -0.7097 -0.9882
  523MPD2    H2 7771   4.494   4.172  10.398  1.0717 -1.4335 -2.5389
  523MPD2    H3 7772   4.554   4.405  10.388 -2.0465  1.9108 -0.4895
  523MPD2     N 7773   4.325   4.483  10.004 -0.6603  0.5575 -0.1164
  523MPD2    H5 7774   4.380   4.568  10.004 -1.2337  0.9212 -2.0000
  523MPD2    N1 7775   4.329   4.050  10.239 -0.4270  0.3851 -0.3436
  523MPD2    H7 7776   4.339   4.008  10.331  0.6692  1.0190 -0.1783
  524TMC3    C1 7777   4.183   4.579   9.837  0.7548 -0.0482 -0.2304
  524TMC3    C2 7778   4.071   4.583   9.755 -0.0554 -0.2129  0.2267
  524TMC3    C3 7779   4.022   4.702   9.719  0.2937 -0.2019  0.5533
  524TMC3    C4 7780   4.264   4.694   9.848  0.1277 -0.1468 -0.1626
  524TMC3    C5 7781   4.221   0.086   9.799 -0.3610  0.5826  0.5176
  524TMC3    C6 7782   4.097   0.088   9.744  0.0030  0.3977  0.0334
  524TMC3     C 7783   4.219   4.458   9.909  0.8464  0.1609  0.0812
  524TMC3     O 7784   4.155   4.357   9.888 -0.0587 -0.0944 -0.1559
  524TMC3     H 7785   3.998   4.503   9.766 -1.1899  0.6462 -0.9496
  524TMC3    H1 7786   4.368   4.688   9.877  1.0425  0.1140 -3.3570
  524TMC3    H2 7787   4.067   0.180   9.695 -0.9900  0.4087  0.6671
  524TMC3    C7 7788   4.309   0.204   9.813  0.5949 -1.0275  0.5761
  524TMC3    C8 7789   3.906   4.719   9.633  0.5448  0.2225 -0.4277
  524TMC3    O1 7790   4.408   0.181   9.877  0.3027 -0.6818  0.0626
  524TMC3    O2 7791   3.830   0.087   9.649 -0.5520  0.6859  0.3866
  525MPD2     C 7792   1.964   0.974  14.686  0.8449 -0.3461  0.3562
  525MPD2    C1 7793   2.077   0.996  14.765  0.3170  0.3674 -0.2168
  525MPD2    C2 7794   2.165   1.096  14.736 -0.2205  0.0935 -0.1855
  525MPD2    C3 7795   2.129   1.188  14.643  0.3064 -0.5225  0.2519
  525MPD2    C4 7796   2.020   1.168  14.564 -0.6819 -0.4227  0.2820
  525MPD2    C5 7797   1.937   1.058  14.589 -0.2560  0.4169  1.1121
  525MPD2     H 7798   2.241   1.121  14.809 -0.3056  1.4093 -0.5589
  525MPD2    H1 7799   1.995   1.236  14.484  1.0920 -1.6134 -1.2725
  525MPD2    H2 7800   1.903   0.885  14.697  3.5707 -2.5211 -2.0893
  525MPD2    H3 7801   1.850   1.040  14.527 -0.0610  0.5084  0.8104
  525MPD2     N 7802   2.186   1.322  14.640 -0.4517 -0.7270 -0.1450
  525MPD2    H5 7803   2.126   1.388  14.593 -0.3986 -2.1126 -2.1599
  525MPD2    N1 7804   2.104   0.908  14.873  0.3624  0.0062  1.2597
  525MPD2    H7 7805   2.195   0.917  14.918  0.2936  2.0341  0.9626
  526TMC3    C1 7806   2.111   0.718  15.025 -0.0118 -0.5964 -0.1436
  526TMC3    C2 7807   2.036   0.705  15.141 -0.6863 -0.2694 -0.1651
  526TMC3    C3 7808   2.105   0.681  15.262  0.2868  0.5029 -0.1462
  526TMC3    C4 7809   2.247   0.706  15.027 -0.1793 -0.0368 -0.2836
  526TMC3    C5 7810   2.311   0.687  15.149 -0.7796  0.5937  0.1707
  526TMC3    C6 7811   2.241   0.663  15.267 -0.6964 -0.3522 -0.0607
  526TMC3     C 7812   2.040   0.792  14.912 -0.4199 -0.5437  0.0879
  526TMC3     O 7813   1.920   0.767  14.891  0.3575 -0.3030  0.0099
  526TMC3     H 7814   1.934   0.742  15.148 -0.3490  0.5764  0.2624
  526TMC3    H1 7815   2.298   0.708  14.932  1.8682 -2.7227  0.7794
  526TMC3    H2 7816   2.289   0.653  15.364 -2.3213  1.2916  0.9066
  526TMC3    C7 7817   2.449   0.670  15.166  0.0036 -0.3027  0.3582
  526TMC3    C8 7818   2.036   0.711  15.382 -0.2427 -0.0179  0.6120
  526TMC3    O1 7819   2.496   0.625  15.266  0.2983  0.8859 -0.3954
  526TMC3    O2 7820   2.084   0.792  15.461  0.3283 -0.1555  0.2905
  527MPD2     C 7821   0.498   4.720   1.058 -0.2377 -0.1609  0.0122
  527MPD2    C1 7822   0.568   4.649   1.153 -0.4320 -0.0895  0.1962
  527MPD2    C2 7823   0.682   4.588   1.114 -0.2452  1.0254 -0.1329
  527MPD2    C3 7824   0.710   4.577   0.976 -0.7472  0.0422 -0.3671
  527MPD2    C4 7825   0.647   4.650   0.884  0.1460  0.4011  0.1539
  527MPD2    C5 7826   0.543   4.721   0.927  0.6668  0.3759  0.9020
  527MPD2     H 7827   0.753   4.544   1.182  1.0134  0.0899 -2.0601
  527MPD2    H1 7828   0.675   4.658   0.780 -0.5093 -1.8856 -0.2005
  527MPD2    H2 7829   0.422   0.069   1.081  0.1856  0.0715  0.6708
  527MPD2    H3 7830   0.496   0.064   0.857  0.9698 -0.4577 -0.1138
  527MPD2     N 7831   0.822   4.496   0.943 -0.4355 -0.3984  0.0726
  527MPD2    H5 7832   0.887   4.470   1.016  0.6458 -0.2594 -0.8376
  527MPD2    N1 7833   0.529   4.634   1.287 -0.9477  0.7987 -0.0036
  527MPD2    H7 7834   0.579   4.566   1.343  1.1762  0.3081 -2.5177
  528TMC3    C1 7835   0.381   4.659   1.478 -0.6988 -0.2076 -0.8373
  528TMC3    C2 7836   0.443   4.555   1.542  0.4999 -0.6105  1.0539
  528TMC3    C3 7837   0.378   4.514   1.655  0.0482 -0.6353 -0.2750
  528TMC3    C4 7838   0.270   0.004   1.529  0.0669 -0.1373 -0.1628
  528TMC3    C5 7839   0.209   4.677   1.644 -0.1075 -0.5755  0.6113
  528TMC3    C6 7840   0.262   4.564   1.701  0.0494  0.5011 -0.6462
  528TMC3     C 7841   0.417   4.701   1.345  0.1504 -0.9809 -0.0332
  528TMC3     O 7842   0.358   0.072   1.296 -0.0421 -0.1575  0.5060
  528TMC3     H 7843   0.524   4.502   1.494 -0.3330  0.1127 -1.1418
  528TMC3    H1 7844   0.217   0.081   1.474 -1.3008 -1.2401 -0.4085
  528TMC3    H2 7845   0.231   4.528   1.799  2.7792  0.7426  0.3115
  528TMC3    C7 7846   0.071   4.697   1.669  0.1856  0.1245 -0.0371
  528TMC3    C8 7847   0.435   4.399   1.716 -0.2656  0.0331  0.9774
  528TMC3    O1 7848   0.027   4.652   1.779 -0.4081 -0.5082 -0.6778
  528TMC3    O2 7849   0.548   4.382   1.675 -0.2326  0.9567  0.2094
  529MPD2     C 7850   1.930   2.798   0.862  0.4030  0.0785 -0.0458
  529MPD2    C1 7851   2.067   2.796   0.863 -0.5461  0.6280 -0.0641
  529MPD2    C2 7852   2.132   2.881   0.776 -0.4793  0.5192  0.3034
  529MPD2    C3 7853   2.066   2.946   0.670 -0.0637 -0.0695  0.8725
  529MPD2    C4 7854   1.928   2.933   0.657  0.2591 -0.7931  0.4840
  529MPD2    C5 7855   1.860   2.863   0.761  0.6053  0.0711  0.1488
  529MPD2     H 7856   2.236   2.852   0.780 -0.6958 -0.2594  0.2569
  529MPD2    H1 7857   1.871   2.985   0.581  0.9739  2.4694  2.1599
  529MPD2    H2 7858   1.876   2.746   0.941 -0.7956  0.2255 -0.7793
  529MPD2    H3 7859   1.754   2.843   0.753  0.0893  2.0181  2.0475
  529MPD2     N 7860   2.135   3.008   0.566  0.5081  0.1163  0.6215
  529MPD2    H5 7861   2.080   3.049   0.492  4.5099  2.1954 -1.1635
  529MPD2    N1 7862   2.150   2.712   0.951 -0.2392  0.9436  0.0180
  529MPD2    H7 7863   2.251   2.721   0.947 -0.1938  1.0783  1.3402
  530TMC3    C1 7864   2.192   2.565   1.131 -0.0279 -0.3423 -0.0548
  530TMC3    C2 7865   2.297   2.644   1.164  0.0986  0.5180 -0.4904
  530TMC3    C3 7866   2.396   2.597   1.248  0.5102  0.7874  0.3050
  530TMC3    C4 7867   2.174   2.443   1.182 -0.3700  0.3464  0.3571
  530TMC3    C5 7868   2.273   2.403   1.265 -0.0670 -0.1807  0.4965
  530TMC3    C6 7869   2.391   2.472   1.300  0.3153  0.4795  0.7597
  530TMC3     C 7870   2.097   2.616   1.030 -0.0725  1.4756  0.1391
  530TMC3     O 7871   1.991   2.554   1.014  0.5742 -0.6193 -0.2310
  530TMC3     H 7872   2.315   2.743   1.122 -0.3647  0.9850  0.4107
  530TMC3    H1 7873   2.086   2.385   1.156  0.3219 -0.2156 -0.7461
  530TMC3    H2 7874   2.466   2.428   1.365 -0.5374  1.3845  2.3696
  530TMC3    C7 7875   2.233   2.277   1.331  0.9792  0.3458  0.0036
  530TMC3    C8 7876   2.493   2.691   1.289  0.9558  0.2112 -1.1541
  530TMC3    O1 7877   2.149   2.215   1.271 -0.0796  0.2461 -0.2608
  530TMC3    O2 7878   2.458   2.809   1.288 -0.1259 -0.2388  0.1781
  531MPD2     C 7879   2.191   0.132  13.268 -0.2919  0.3235  0.0285
  531MPD2    C1 7880   2.082   0.218  13.278  0.2583 -0.2436  0.6930
  531MPD2    C2 7881   2.016   0.253  13.161 -0.0645  0.5355 -0.0488
  531MPD2    C3 7882   2.053   0.198  13.037  0.4415 -0.1938  0.2194
  531MPD2    C4 7883   2.157   0.108  13.038 -0.4599 -0.0085 -0.0247
  531MPD2    C5 7884   2.223   0.078  13.147  0.3471  0.0698 -0.2141
  531MPD2     H 7885   1.932   0.322  13.163  0.2246  0.9493 -2.1742
  531MPD2    H1 7886   2.203   0.073  12.946 -0.1468 -0.3560  0.2638
  531MPD2    H2 7887   2.258   0.114  13.351 -2.6535 -2.2221  1.4075
  531MPD2    H3 7888   2.307   0.009  13.146  0.8395  0.6777 -0.8094
  531MPD2     N 7889   1.975   0.237  12.930 -0.6514  0.1509  0.4545
  531MPD2    H5 7890   1.898   0.296  12.960 -0.8898 -0.1859  0.5051
  531MPD2    N1 7891   2.043   0.247  13.405  0.4137 -0.6302  0.0777
  531MPD2    H7 7892   2.095   0.209  13.483  0.5708  0.6808  0.6175
  532TMC3    C1 7893   1.930   0.347  13.582  0.4841  0.8339 -0.5807
  532TMC3    C2 7894   1.808   0.410  13.612  0.1933  0.1951 -0.0996
  532TMC3    C3 7895   1.722   0.364  13.702  0.5530  0.8542  0.7814
  532TMC3    C4 7896   1.971   0.239  13.649  0.6439  0.5918  0.0755
  532TMC3    C5 7897   1.880   0.185  13.745 -0.9534 -0.5446  0.0042
  532TMC3    C6 7898   1.760   0.247  13.775 -0.3188  1.0959  0.4432
  532TMC3     C 7899   1.952   0.346  13.439  0.0864  0.1027 -0.1196
  532TMC3     O 7900   1.866   0.405  13.370 -0.2235  0.2633  0.0473
  532TMC3     H 7901   1.775   0.495  13.553  0.6477 -0.3970 -1.2264
  532TMC3    H1 7902   2.076   0.211  13.651  0.2671 -0.6242  2.3177
  532TMC3    H2 7903   1.695   0.207  13.852  0.5214 -1.5011 -0.1980
  532TMC3    C7 7904   1.912   0.064  13.808 -0.3547 -0.5060 -0.6115
  532TMC3    C8 7905   1.593   0.340  13.643 -0.4116  0.0372 -0.3734
  532TMC3    O1 7906   1.865   0.030  13.913 -0.8900  0.1649  0.3741
  532TMC3    O2 7907   1.501   0.321  13.721 -0.4728 -0.7265  0.3903
  533TMC3    C1 7908   2.339   1.495  14.683  0.7421 -0.2829  0.3691
  533TMC3    C2 7909   2.462   1.524  14.719  0.3143 -0.6798 -0.0431
  533TMC3    C3 7910   2.490   1.646  14.783  0.4277  0.3267 -0.4367
  533TMC3    C4 7911   2.238   1.581  14.715  0.2022 -0.3620 -0.1526
  533TMC3    C5 7912   2.256   1.698  14.788 -0.2277 -0.0992  0.1516
  533TMC3    C6 7913   2.385   1.736  14.811 -0.0516 -0.5997  0.5119
  533TMC3     C 7914   2.312   1.357  14.689  0.4738 -0.6374 -0.1040
  533TMC3     O 7915   2.404   1.283  14.724 -0.4512  0.8651 -0.3896
  533TMC3     H 7916   2.546   1.459  14.696 -0.7781 -2.0341 -0.2408
  533TMC3    H1 7917   2.137   1.551  14.688  0.9219 -0.9217 -2.1756
  533TMC3    H2 7918   2.410   1.833  14.853  0.6587 -0.9940  1.0013
  533TMC3    C7 7919   2.168   1.706  14.904 -0.7490 -0.4919 -0.0771
  533TMC3    C8 7920   2.616   1.677  14.844  0.5245  0.0849 -0.7379
  533TMC3    O1 7921   2.078   1.622  14.905  0.8790 -0.1291  0.1983
  533TMC3    O2 7922   2.620   1.734  14.955 -0.1749 -0.4891  0.2516
  534MPD2     C 7923   4.125   3.794   1.635 -0.1790 -0.2675 -0.2358
  534MPD2    C1 7924   4.202   3.703   1.570 -0.6082  0.3143 -0.1491
  534MPD2    C2 7925   4.144   3.628   1.465 -0.1622  0.0387  0.5017
  534MPD2    C3 7926   4.006   3.613   1.461 -0.1849 -0.7267  0.0660
  534MPD2    C4 7927   3.932   3.695   1.537  0.6006 -0.1184  0.3380
  534MPD2    C5 7928   3.989   3.795   1.613  0.6067 -0.0544  0.1438
  534MPD2     H 7929   4.211   3.557   1.416 -0.5624  0.2424 -0.3371
  534MPD2    H1 7930   3.824   3.690   1.525  0.4253 -1.0756  2.3134
  534MPD2    H2 7931   4.166   3.871   1.699  0.1708 -0.8321  0.2203
  534MPD2    H3 7932   3.924   3.869   1.661  1.6297  0.4797  0.7056
  534MPD2     N 7933   3.942   3.524   1.374  0.5661 -0.1638  0.3926
  534MPD2    H5 7934   3.840   3.522   1.376  0.5513  0.3609  0.1909
  534MPD2    N1 7935   4.345   3.696   1.587 -0.1893  0.2787  0.2242
  534MPD2    H7 7936   4.389   3.622   1.533 -3.2298  0.2074 -2.1227
  535TMC3    C1 7937   3.927   3.363   1.191 -0.1445  0.7274  0.4041
  535TMC3    C2 7938   3.790   3.371   1.197  0.0337  0.1707  0.7180
  535TMC3    C3 7939   3.723   3.283   1.114 -0.4935 -0.0917 -0.8001
  535TMC3    C4 7940   3.990   3.266   1.116 -0.5951 -0.1519 -0.9062
  535TMC3    C5 7941   3.918   3.178   1.040 -0.3473 -0.1925 -0.0268
  535TMC3    C6 7942   3.780   3.189   1.030  0.3503 -0.1529  0.3876
  535TMC3     C 7943   4.008   3.426   1.294 -0.3044 -0.1655 -0.0257
  535TMC3     O 7944   4.129   3.404   1.288  0.2162 -0.3430 -0.8881
  535TMC3     H 7945   3.732   3.433   1.264 -1.5400  0.5815 -1.0123
  535TMC3    H1 7946   4.094   3.238   1.129 -1.1502 -0.7672  2.2031
  535TMC3    H2 7947   3.723   3.138   0.953  0.4552  0.5164 -0.1335
  535TMC3    C7 7948   3.983   3.071   0.969 -0.4816 -0.3668 -0.1422
  535TMC3    C8 7949   3.580   3.282   1.104  0.3283  0.7250 -0.6329
  535TMC3    O1 7950   4.102   3.093   0.941  0.8922  0.4265 -0.6620
  535TMC3    O2 7951   3.533   3.243   0.997  0.3017  0.5490 -0.0488
  536MPD2     C 7952   4.125   0.994  17.066  0.3111  0.2112 -0.3681
  536MPD2    C1 7953   3.993   1.032  17.057 -0.3160 -0.2388 -0.0893
  536MPD2    C2 7954   3.938   1.082  16.940  0.3443  0.1877  0.2809
  536MPD2    C3 7955   4.014   1.081  16.826 -0.3319  0.9504 -0.1030
  536MPD2    C4 7956   4.131   1.026  16.830  0.1504 -0.4601  0.2561
  536MPD2    C5 7957   4.187   0.982  16.944 -0.0762 -0.5971  0.0677
  536MPD2     H 7958   3.833   1.106  16.933  1.2283  2.6772 -4.0073
  536MPD2    H1 7959   4.186   1.001  16.740 -1.6546  0.5790 -1.1448
  536MPD2    H2 7960   4.175   0.945  17.149  1.6709  1.4892 -0.4424
  536MPD2    H3 7961   4.282   0.933  16.928 -0.5199 -1.4820  0.1705
  536MPD2     N 7962   3.967   1.126  16.705  0.5309  1.0065  0.3295
  536MPD2    H5 7963   4.023   1.111  16.622  3.8091  0.4927  2.6488
  536MPD2    N1 7964   3.921   1.036  17.175  0.1240 -0.4206 -0.6472
  536MPD2    H7 7965   3.965   1.009  17.262 -1.7984 -3.9198 -0.7729
  537TMC3    C1 7966   3.746   1.068  17.328  0.2355 -0.0984 -0.3418
  537TMC3    C2 7967   3.827   1.083  17.435 -0.2156 -0.6756 -0.3740
  537TMC3    C3 7968   3.773   1.069  17.559 -0.3817  0.1770  0.1462
  537TMC3    C4 7969   3.616   1.020  17.341 -0.2267 -0.4313 -0.7379
  537TMC3    C5 7970   3.569   0.996  17.468  0.0736 -0.0576 -0.2008
  537TMC3    C6 7971   3.654   1.010  17.578  0.9453  0.0146  0.4915
  537TMC3     C 7972   3.798   1.084  17.195 -0.6520  0.1283  0.1147
  537TMC3     O 7973   3.716   1.135  17.124 -0.0843  0.4540  0.3057
  537TMC3     H 7974   3.930   1.114  17.422 -0.4139  0.2717  0.2634
  537TMC3    H1 7975   3.580   0.977  17.248 -0.0915 -1.7149 -0.2055
  537TMC3    H2 7976   3.621   1.001  17.681  2.8641 -1.1636  1.0055
  537TMC3    C7 7977   3.439   0.937  17.482 -0.8748  0.6529 -0.2952
  537TMC3    C8 7978   3.846   1.113  17.674  1.5487 -0.9516 -0.1798
  537TMC3    O1 7979   3.357   0.975  17.394 -0.0704  0.3716 -0.2313
  537TMC3    O2 7980   3.824   1.050   0.078  0.4065 -0.0082  0.7611
  538TMC3    C1 7981   0.145   3.606  11.499 -0.0542  0.1081 -0.6006
  538TMC3    C2 7982   0.279   3.599  11.498  0.7061 -0.1054 -0.5147
  538TMC3    C3 7983   0.338   3.708  11.439  0.1697  0.9355  0.5272
  538TMC3    C4 7984   0.070   3.717  11.453 -0.1724  0.7289  0.3136
  538TMC3    C5 7985   0.138   3.824  11.405  0.5853 -0.4216  0.0624
  538TMC3    C6 7986   0.272   3.817  11.390 -0.0977 -0.2752 -0.3573
  538TMC3     C 7987   0.070   3.499  11.561 -0.0678 -1.1395  0.2565
  538TMC3     O 7988   4.678   3.514  11.566  0.0216  0.1173  0.0190
  538TMC3     H 7989   0.341   3.514  11.526 -0.2160 -1.3909 -2.3285
  538TMC3    H1 7990   4.687   3.720  11.464 -0.1501 -1.6489  1.0918
  538TMC3    H2 7991   0.322   3.909  11.365  0.7696 -1.4492 -2.9148
  538TMC3    C7 7992   0.058   3.919  11.339 -0.3766  0.5070  0.3522
  538TMC3    C8 7993   0.482   3.687  11.414  0.7535  0.0985 -0.4481
  538TMC3    O1 7994   4.673   3.947  11.382  0.3680 -0.3863 -0.2816
  538TMC3    O2 7995   0.534   3.606  11.492  0.0707  0.4806  0.6708
  539MPD2     C 7996   4.173   3.083  12.020  0.1630 -0.0242  0.2300
  539MPD2    C1 7997   4.248   3.116  11.912 -0.0530  0.8278 -0.2062
  539MPD2    C2 7998   4.258   3.250  11.874 -0.3805 -0.0827 -0.2665
  539MPD2    C3 7999   4.185   3.351  11.939 -0.1678  0.2259 -0.2181
  539MPD2    C4 8000   4.112   3.317  12.048  0.2113  0.0143 -0.0982
  539MPD2    C5 8001   4.111   3.186  12.088 -0.3642  0.3717  0.1986
  539MPD2     H 8002   4.323   3.264  11.788  1.3552  0.8313  1.1781
  539MPD2    H1 8003   4.066   3.391  12.112 -1.6158 -2.1908  1.1483
  539MPD2    H2 8004   4.167   2.983  12.060  0.3993 -0.7653 -1.5798
  539MPD2    H3 8005   4.053   3.168  12.178 -0.7474  0.2015 -0.0829
  539MPD2     N 8006   4.188   3.495  11.909  0.5387 -0.0723 -0.4746
  539MPD2    H5 8007   4.125   3.556  11.961  0.3724 -0.6579  0.0129
  539MPD2    N1 8008   4.313   3.018  11.835 -0.0769  0.0801 -0.0146
  539MPD2    H7 8009   4.355   3.048  11.748 -0.2186 -1.8115 -0.7345
  540TMC3    C1 8010   4.212   3.681  11.768  0.0559 -0.5085 -0.7216
  540TMC3    C2 8011   4.197   3.718  11.633  0.2708 -0.1986 -0.8798
  540TMC3    C3 8012   4.158   3.848  11.617 -0.9412  0.1731 -0.5166
  540TMC3    C4 8013   4.193   3.766  11.874 -0.0315  0.4277  0.0022
  540TMC3    C5 8014   4.164   3.895  11.847 -0.3131  0.6665  0.4065
  540TMC3    C6 8015   4.154   3.942  11.718  0.2471 -0.5909 -0.2088
  540TMC3     C 8016   4.247   3.545  11.795  0.1956 -0.1793  0.4763
  540TMC3     O 8017   4.313   3.483  11.714 -0.3640  0.1898 -0.2602
  540TMC3     H 8018   4.198   3.646  11.553 -1.2145  0.0439 -1.1045
  540TMC3    H1 8019   4.220   3.740  11.976  2.0011 -0.6069 -0.7982
  540TMC3    H2 8020   4.133   4.048  11.705 -0.1877 -0.5145  1.1511
  540TMC3    C7 8021   4.100   3.967  11.954 -0.4498 -0.1833 -0.1365
  540TMC3    C8 8022   4.200   3.904  11.485  0.0203 -0.6531 -0.9118
  540TMC3    O1 8023   4.014   3.896  12.009  0.4893  0.5114 -0.8418
  540TMC3    O2 8024   4.263   4.009  11.471  0.3239  0.4208 -0.2253
  541MPD2     C 8025   2.695   0.242  13.391 -0.1606  0.2644 -0.6468
  541MPD2    C1 8026   2.743   0.158  13.297 -0.3234 -0.3714 -0.1869
  541MPD2    C2 8027   2.829   0.206  13.201  0.0620 -0.0016  0.2498
  541MPD2    C3 8028   2.850   0.347  13.190 -0.2836  0.0965  0.0279
  541MPD2    C4 8029   2.797   0.432  13.283 -0.1398 -0.2403  0.4818
  541MPD2    C5 8030   2.729   0.373  13.387  0.1830 -0.3857 -0.7679
  541MPD2     H 8031   2.874   0.138  13.129 -2.3911 -0.0508 -1.2419
  541MPD2    H1 8032   2.816   0.539  13.273 -2.0037  0.0938  0.5008
  541MPD2    H2 8033   2.627   0.210  13.470 -2.3121  0.6744 -2.3301
  541MPD2    H3 8034   2.682   0.437  13.460 -0.4329 -0.4745 -1.0922
  541MPD2     N 8035   2.919   0.405  13.079 -0.7726  0.0244  0.7822
  541MPD2    H5 8036   2.938   0.504  13.073 -3.2813  0.2550 -3.2022
  541MPD2    N1 8037   2.717   0.023  13.322  0.0556  0.5695 -0.4799
  541MPD2    H7 8038   2.652   0.007  13.398  1.3718 -2.7350 -0.0610
  542TMC3    C1 8039   3.006   0.434  12.869  0.2323  0.8185 -0.8796
  542TMC3    C2 8040   3.102   0.391  12.779 -0.4747 -0.1767  0.8128
  542TMC3    C3 8041   3.138   0.476  12.672  0.4516  0.4310 -0.3334
  542TMC3    C4 8042   2.919   0.533  12.843  0.3054 -0.6980  0.0905
  542TMC3    C5 8043   2.955   0.612  12.739 -0.0526 -0.1004 -0.0432
  542TMC3    C6 8044   3.060   0.590  12.652 -0.3944 -0.6553  0.2700
  542TMC3     C 8045   2.969   0.336  12.967  0.7020  0.0649  0.3376
  542TMC3     O 8046   2.990   0.217  12.946  0.6625 -0.2019  0.1122
  542TMC3     H 8047   3.165   0.305  12.801  1.7747  1.5103  0.9764
  542TMC3    H1 8048   2.818   0.531  12.884 -0.0122  1.4924 -0.5593
  542TMC3    H2 8049   3.074   0.647  12.561 -0.8553  1.1080  1.3005
  542TMC3    C7 8050   2.862   0.722  12.718 -0.4068 -0.2285 -0.0664
  542TMC3    C8 8051   3.198   0.406  12.561  0.0121 -0.1115  0.2125
  542TMC3    O1 8052   2.791   0.750  12.810 -0.4724 -0.7396  0.4237
  542TMC3    O2 8053   3.149   0.434  12.448 -0.5043  0.0225 -0.1054
  543TMC3    C1 8054   2.042   1.876  17.209  0.6445 -0.2804 -0.0925
  543TMC3    C2 8055   2.001   1.781  17.302  0.5827  0.7521 -0.2142
  543TMC3    C3 8056   1.994   1.828  17.430 -0.6827 -0.7995 -0.1984
  543TMC3    C4 8057   2.082   1.999  17.240 -0.2823 -0.5730  0.2906
  543TMC3    C5 8058   2.068   2.041  17.372  0.3848  0.1137  0.3607
  543TMC3    C6 8059   2.017   1.960  17.467  0.9883 -0.5013  0.0737
  543TMC3     C 8060   2.124   1.822  17.096  0.3080  0.5472 -0.1156
  543TMC3     O 8061   2.166   1.707  17.111 -0.6431  0.1837  0.2273
  543TMC3     H 8062   1.966   1.681  17.279 -0.5394  1.0395  0.2803
  543TMC3    H1 8063   2.143   2.058  17.173  0.4768 -1.7022 -0.0179
  543TMC3    H2 8064   2.017   1.979  17.574  0.0840 -2.3521  0.4019
  543TMC3    C7 8065   2.147   2.156  17.418  0.3422  0.7149 -0.6476
  543TMC3    C8 8066   1.933   1.731  17.522  0.1563  0.1839 -0.1107
  543TMC3    O1 8067   2.214   2.213  17.336 -0.3689 -0.1167 -0.0391
  543TMC3    O2 8068   1.972   1.618  17.525  0.1607 -0.2585  0.5151
  544MPD2     C 8069   1.689   1.704   0.278  0.1413 -0.2362  0.2479
  544MPD2    C1 8070   1.733   1.599   0.198  0.2640 -0.6600 -0.1047
  544MPD2    C2 8071   1.791   1.627   0.077 -0.1151 -0.0005 -0.2148
  544MPD2    C3 8072   1.789   1.760   0.031  0.7681 -0.7472 -0.1139
  544MPD2    C4 8073   1.736   1.860   0.104 -0.4859 -0.6114 -0.7338
  544MPD2    C5 8074   1.677   1.834   0.226 -0.1536  0.1568  1.1228
  544MPD2     H 8075   1.831   1.550   0.012 -0.2342 -0.7148  0.5641
  544MPD2    H1 8076   1.731   1.964   0.076  2.9929 -0.7155 -1.7654
  544MPD2    H2 8077   1.634   1.691   0.370 -3.9378 -0.2178 -2.2077
  544MPD2    H3 8078   1.628   1.916   0.277 -1.7259  0.3817 -0.7091
  544MPD2     N 8079   1.846   1.799  17.604 -0.2588 -0.0630  0.1277
  544MPD2    H5 8080   1.843   1.896  17.576 -0.0662  0.7582  3.0280
  544MPD2    N1 8081   1.717   1.464   0.249  0.0588 -0.3989 -0.1877
  544MPD2    H7 8082   1.674   1.452   0.339 -0.8970 -0.2403 -0.6228
  545TMC3    C1 8083   1.732   1.237   0.257  0.3545  0.5175 -0.5524
  545TMC3    C2 8084   1.744   1.120   0.186 -0.0578 -0.0964  0.0685
  545TMC3    C3 8085   1.749   1.004   0.264  0.3279 -0.0407  0.0738
  545TMC3    C4 8086   1.727   1.245   0.400  1.0164  0.0253 -0.0821
  545TMC3    C5 8087   1.728   1.120   0.464  0.3518  0.0618  0.3805
  545TMC3    C6 8088   1.734   1.002   0.396  1.0196  0.2082  0.2486
  545TMC3     C 8089   1.764   1.355   0.186 -0.4776  0.7993 -0.3786
  545TMC3     O 8090   1.824   1.341   0.076 -0.7735 -0.0632 -0.4474
  545TMC3     H 8091   1.722   1.117   0.080 -1.0147  3.2431  0.1710
  545TMC3    H1 8092   1.729   1.335   0.461 -1.1759 -0.9054  1.3674
  545TMC3    H2 8093   1.740   0.908   0.448 -1.3554  0.8010  1.5791
  545TMC3    C7 8094   1.690   1.111   0.603 -0.6256 -0.0312  0.6465
  545TMC3    C8 8095   1.772   0.882   0.197 -0.2170  0.5251 -0.0252
  545TMC3    O1 8096   1.614   1.201   0.643 -0.4533  0.3506 -0.3716
  545TMC3    O2 8097   1.750   0.787   0.269 -0.2680 -0.1580 -0.4242
  546MPD2     C 8098   3.511   1.325  17.437  0.7817 -0.1405  0.8408
  546MPD2    C1 8099   3.473   1.313  17.567 -0.3926 -0.1020 -0.1832
  546MPD2    C2 8100   3.548   1.375  17.662  0.0163  0.3132  0.9389
  546MPD2    C3 8101   3.665   1.444  17.620  0.4147  0.2335 -0.0762
  546MPD2    C4 8102   3.701   1.451  17.491 -0.6265 -0.2399  0.7870
  546MPD2    C5 8103   3.626   1.395  17.398 -0.5103 -0.2057 -1.0566
  546MPD2     H 8104   3.523   1.382   0.067  0.0810  0.4823  0.9423
  546MPD2    H1 8105   3.793   1.500  17.461 -0.7587 -1.4108 -1.5133
  546MPD2    H2 8106   3.444   1.285  17.361  2.0167  0.6733 -0.6603
  546MPD2    H3 8107   3.657   1.385  17.295  0.3986  1.9651 -0.9973
  546MPD2     N 8108   3.728   1.533   0.013  0.4984 -0.7911  0.3175
  546MPD2    H5 8109   3.803   1.591  17.678  0.6293 -1.7856 -1.0248
  546MPD2    N1 8110   3.341   1.254  17.591 -0.2210  0.0580 -0.7770
  546MPD2    H7 8111   3.280   1.236  17.512 -0.8880  0.3989 -0.3425
  547TMC3    C1 8112   3.168   1.155   0.017 -0.4663 -0.5340 -0.8839
  547TMC3    C2 8113   3.095   1.142  17.599 -0.1541 -0.3180  0.2306
  547TMC3    C3 8114   2.963   1.152  17.611 -0.3127 -0.5657 -0.5462
  547TMC3    C4 8115   3.118   1.153   0.147 -0.2930  0.2755  0.7327
  547TMC3    C5 8116   2.984   1.156   0.151 -0.1311  0.4056 -0.8489
  547TMC3    C6 8117   2.904   1.159   0.042 -0.1009  0.1073  0.6376
  547TMC3     C 8118   3.306   1.199   0.010 -0.4721 -0.4306  0.0947
  547TMC3     O 8119   3.374   1.193   0.113  0.4750 -0.1321 -0.6119
  547TMC3     H 8120   3.149   1.142  17.504  3.4982 -0.2318  2.2842
  547TMC3    H1 8121   3.186   1.178   0.227 -2.0951  0.3562  2.2436
  547TMC3    H2 8122   2.796   1.148   0.050 -0.1913  0.3384 -0.2341
  547TMC3    C7 8123   2.929   1.159   0.284 -1.3466 -0.2013 -0.2742
  547TMC3    C8 8124   2.897   1.162  17.484 -0.7435 -0.1131  0.4275
  547TMC3    O1 8125   2.821   1.213   0.288  0.2703 -0.4803 -0.6406
  547TMC3    O2 8126   2.964   1.153  17.382  0.7037 -0.0487  0.0360
  548MPD2     C 8127   3.551   2.055  12.386 -1.3574  0.2566  0.5549
  548MPD2    C1 8128   3.529   2.002  12.512  0.0814  0.4966  0.3654
  548MPD2    C2 8129   3.606   1.896  12.555  0.2116  0.1198 -0.3163
  548MPD2    C3 8130   3.714   1.843  12.475  0.5932  0.1034 -0.7261
  548MPD2    C4 8131   3.736   1.907  12.349  0.3388  0.8876 -0.5399
  548MPD2    C5 8132   3.647   1.996  12.305 -0.1249 -0.1726  0.7484
  548MPD2     H 8133   3.585   1.861  12.655 -0.0839  0.2181 -0.3444
  548MPD2    H1 8134   3.814   1.873  12.283 -0.7041 -1.9395 -0.2988
  548MPD2    H2 8135   3.481   2.125  12.342 -1.7043 -1.6129 -1.8644
  548MPD2    H3 8136   3.654   2.023  12.200 -0.5117  0.9153  1.0076
  548MPD2     N 8137   3.788   1.730  12.526  0.1120 -0.3417  0.1036
  548MPD2    H5 8138   3.780   1.709  12.625  1.3368 -3.2969 -0.4065
  548MPD2    N1 8139   3.414   2.039  12.585  1.1648 -0.4982  0.8996
  548MPD2    H7 8140   3.382   2.133  12.564  0.7830 -1.0136 -0.8299
  549TMC3    C1 8141   3.270   2.075  12.760  0.1963  0.4078  0.5563
  549TMC3    C2 8142   3.208   2.170  12.684 -0.1261  0.4193  0.2227
  549TMC3    C3 8143   3.108   2.238  12.754  0.3221 -0.0259 -0.6342
  549TMC3    C4 8144   3.242   2.041  12.886 -0.5557 -0.6333  0.2817
  549TMC3    C5 8145   3.137   2.103  12.949 -0.4033 -0.2246  0.3952
  549TMC3    C6 8146   3.078   2.208  12.884  0.0515 -0.5783  0.9619
  549TMC3     C 8147   3.349   1.982  12.693 -0.4670 -0.2344  0.2757
  549TMC3     O 8148   3.363   1.868  12.728  0.1814 -0.1868 -0.0382
  549TMC3     H 8149   3.213   2.179  12.576 -0.2481 -3.2463 -0.1113
  549TMC3    H1 8150   3.307   1.963  12.923 -0.4443 -0.5538  0.2544
  549TMC3    H2 8151   2.982   2.240  12.922  0.6472  1.6309  0.5803
  549TMC3    C7 8152   3.083   2.056  13.070 -0.1644  0.0540  0.0117
  549TMC3    C8 8153   3.016   2.332  12.686  0.8533 -0.0288  0.6122
  549TMC3    O1 8154   3.042   2.136  13.154  0.0904  0.1294  0.0886
  549TMC3    O2 8155   2.983   2.303  12.570  0.5662 -0.2278 -0.0081
  550TMC3    C1 8156   2.457   0.609  12.260  0.4989  0.5606  0.6375
  550TMC3    C2 8157   2.476   0.581  12.394 -0.7585 -0.4094 -0.4203
  550TMC3    C3 8158   2.416   0.670  12.480  0.1728  0.4840  1.1940
  550TMC3    C4 8159   2.385   0.713  12.210 -0.1195  0.2848 -0.5437
  550TMC3    C5 8160   2.328   0.798  12.302 -0.4459 -0.5947  0.8244
  550TMC3    C6 8161   2.339   0.778  12.441  0.4689  0.3551 -0.2367
  550TMC3     C 8162   2.518   0.499  12.172  0.3032 -0.3479  1.0503
  550TMC3     O 8163   2.629   0.458  12.199  0.0044 -0.0537  0.3823
  550TMC3     H 8164   2.528   0.493  12.430  0.4542  0.5126  0.0790
  550TMC3    H1 8165   2.375   0.726  12.103  1.3889  1.8034 -0.4919
  550TMC3    H2 8166   2.291   0.843  12.513  2.5419  1.3923  0.2148
  550TMC3    C7 8167   2.197   0.854  12.275 -0.6247  0.6498 -0.3482
  550TMC3    C8 8168   2.430   0.651  12.627  0.1818  0.5153  0.6012
  550TMC3    O1 8169   2.149   0.935  12.351  0.5319  0.3874  0.5501
  550TMC3    O2 8170   2.364   0.721  12.703 -0.0350 -0.3737 -0.9776
  551TMC3    C1 8171   4.422   2.567  13.448 -0.5944  0.3658  0.2873
  551TMC3    C2 8172   4.431   2.661  13.349 -0.4389 -0.1078 -0.3809
  551TMC3    C3 8173   4.435   2.787  13.386  0.0970 -0.5029  0.3723
  551TMC3    C4 8174   4.430   2.598  13.581 -0.3575 -0.4607  0.4864
  551TMC3    C5 8175   4.429   2.731  13.617 -0.1473 -0.3282 -0.5564
  551TMC3    C6 8176   4.429   2.827  13.519  0.8586  0.3097 -0.2352
  551TMC3     C 8177   4.404   2.423  13.407  0.2578 -0.5096  0.4400
  551TMC3     O 8178   4.400   2.408  13.290  0.0486 -0.0893  0.4208
  551TMC3     H 8179   4.414   2.632  13.246 -1.3686 -0.8076 -0.0312
  551TMC3    H1 8180   4.411   2.526  13.660  1.9644  0.2884  1.7539
  551TMC3    H2 8181   4.436   2.930  13.552 -0.9150  1.0930 -2.3207
  551TMC3    C7 8182   4.333   2.747  13.727  0.3425  0.4132  0.2476
  551TMC3    C8 8183   4.404   2.888  13.288 -0.2983 -0.0049  0.3284
  551TMC3    O1 8184   4.220   2.793  13.705 -0.2471  0.2722  0.3113
  551TMC3    O2 8185   4.320   2.863  13.204  0.1251  0.9985  0.5569
  552MPD2     C 8186   1.416   4.540  14.425  0.0479 -0.3718  0.8591
  552MPD2    C1 8187   1.526   4.567  14.348  0.5898 -0.0715 -0.2238
  552MPD2    C2 8188   1.652   4.555  14.402 -0.2570  0.6275  0.1410
  552MPD2    C3 8189   1.669   4.532  14.537  0.0320 -0.3881 -0.5533
  552MPD2    C4 8190   1.555   4.522  14.618 -0.1537  0.1295 -0.2967
  552MPD2    C5 8191   1.431   4.525  14.569 -0.3948  1.0291  0.2813
  552MPD2     H 8192   1.741   4.538  14.341  1.0625  5.4896  0.7592
  552MPD2    H1 8193   1.560   4.497  14.723 -0.3191 -1.3995 -0.6643
  552MPD2    H2 8194   1.317   4.539  14.382  0.3096  0.5637  0.2225
  552MPD2    H3 8195   1.344   4.513  14.633 -0.7471  3.5721  0.2589
  552MPD2     N 8196   1.802   4.508  14.601  0.4682  0.9394 -0.1458
  552MPD2    H5 8197   1.809   4.495  14.701  0.5696 -0.9114 -0.3934
  552MPD2    N1 8198   1.515   4.584  14.211 -1.0159  0.1417 -0.4112
  552MPD2    H7 8199   1.604   4.596  14.163 -0.0531 -0.3560  1.2525
  553TMC3    C1 8200   1.438   4.532  14.000 -0.0785  0.2907  0.2540
  553TMC3    C2 8201   1.551   4.584  13.935  0.1870  0.6925  0.1454
  553TMC3    C3 8202   1.602   4.515  13.833 -0.3995 -0.1792  0.0936
  553TMC3    C4 8203   1.392   4.409  13.971  0.2536 -0.0494 -0.3872
  553TMC3    C5 8204   1.461   4.339  13.875 -0.1182 -0.2529 -0.6293
  553TMC3    C6 8205   1.577   4.381  13.816  0.0184 -0.2347  0.4243
  553TMC3     C 8206   1.404   4.577  14.133  0.3384  0.1869 -0.2483
  553TMC3     O 8207   1.285   4.573  14.163 -0.5098  0.0394 -0.6223
  553TMC3     H 8208   1.578   4.688  13.948 -0.0268  1.0044 -1.9912
  553TMC3    H1 8209   1.298   4.368  14.007  0.6009 -0.9544 -0.4982
  553TMC3    H2 8210   1.609   4.334  13.723 -1.4198 -1.4884  0.5556
  553TMC3    C7 8211   1.463   4.202  13.904 -0.1987  0.1612 -0.9402
  553TMC3    C8 8212   1.634   4.595  13.720  0.2602  0.4236 -0.5491
  553TMC3    O1 8213   1.356   4.139  13.913 -0.1582 -0.6121 -0.0449
  553TMC3    O2 8214   1.598   4.713  13.735 -0.0061  0.3222  0.9013
  554TMC3    C1 8215   3.451   3.520  11.903  0.3257 -0.4113  0.0300
  554TMC3    C2 8216   3.391   3.496  11.781  0.0029  0.0413  0.1130
  554TMC3    C3 8217   3.401   3.592  11.686  0.0829  0.2360 -1.3174
  554TMC3    C4 8218   3.536   3.627  11.923  0.2231  0.1134  0.0729
  554TMC3    C5 8219   3.560   3.706  11.815  0.7582 -1.2686  0.8172
  554TMC3    C6 8220   3.493   3.689  11.699  0.1029 -0.1542 -1.3091
  554TMC3     C 8221   3.422   3.423  12.012 -0.5733  0.1820  0.3523
  554TMC3     O 8222   3.375   3.315  11.984 -0.4498 -0.0035  0.0037
  554TMC3     H 8223   3.340   3.401  11.769  3.4715 -1.3910 -3.4043
  554TMC3    H1 8224   3.615   3.633  11.998  0.8014 -2.2649 -0.3297
  554TMC3    H2 8225   3.505   3.760  11.618  0.7857  1.0583 -0.1313
  554TMC3    C7 8226   3.656   3.811  11.830 -0.4371  0.7914  0.3627
  554TMC3    C8 8227   3.366   3.558  11.546  0.7035  0.2143 -0.2290
  554TMC3    O1 8228   3.682   3.848  11.941  0.1432  0.5809  0.0300
  554TMC3    O2 8229   3.420   3.618  11.455  0.1706  0.0977  0.4754
  555TMC3    C1 8230   2.258   2.995  15.130 -0.6412 -0.1385  0.2460
  555TMC3    C2 8231   2.271   3.083  15.231  0.6776 -0.2138  0.0630
  555TMC3    C3 8232   2.261   3.038  15.360 -0.3422 -0.5177  0.3203
  555TMC3    C4 8233   2.238   2.861  15.144 -0.4207 -0.3598 -0.5210
  555TMC3    C5 8234   2.220   2.816  15.277  0.4453 -0.1891 -1.1750
  555TMC3    C6 8235   2.232   2.904  15.384 -0.3478 -0.2689 -0.2323
  555TMC3     C 8236   2.290   3.027  14.995  1.1515  0.2932  0.0538
  555TMC3     O 8237   2.340   2.940  14.922  0.1655 -0.0805  0.5021
  555TMC3     H 8238   2.298   3.184  15.206  0.1972  0.0535  0.6101
  555TMC3    H1 8239   2.214   2.796  15.061 -0.6297  0.9078 -1.4493
  555TMC3    H2 8240   2.215   2.861  15.482 -1.6004 -0.1482 -0.3981
  555TMC3    C7 8241   2.185   2.682  15.310 -0.4480 -0.0518 -0.2515
  555TMC3    C8 8242   2.274   3.129  15.468  0.3617 -0.0406  0.0093
  555TMC3    O1 8243   2.154   2.659  15.426 -0.3243  0.1473 -0.5895
  555TMC3    O2 8244   2.244   3.248  15.439  0.0927 -0.5674  0.2327
  556MPD2     C 8245   0.759   0.103  10.727  0.2816  0.0644 -0.3189
  556MPD2    C1 8246   0.760   0.026  10.841 -0.3895 -0.4174  0.8709
  556MPD2    C2 8247   0.748   4.613  10.831 -0.9099 -0.0755 -0.3491
  556MPD2    C3 8248   0.763   4.549  10.705 -0.2126 -0.4317  0.6783
  556MPD2    C4 8249   0.758   4.629  10.596  0.5863  0.3327  0.1353
  556MPD2    C5 8250   0.740   0.040  10.609  0.5159 -0.0640 -0.0446
  556MPD2     H 8251   0.750   4.547  10.918 -0.2230 -1.9019 -1.7326
  556MPD2    H1 8252   0.742   4.581  10.501  0.0580  0.0786  0.3539
  556MPD2    H2 8253   0.755   0.211  10.722 -1.9429  0.0013  0.2947
  556MPD2    H3 8254   0.709   0.097  10.522 -3.0328  0.0592  1.3056
  556MPD2     N 8255   0.778   4.407  10.705 -0.0715  0.3857  0.1040
  556MPD2    H5 8256   0.777   4.357  10.793 -2.9488  1.0359  0.4378
  556MPD2    N1 8257   0.786   0.079  10.974 -0.0030 -0.4260 -0.3085
  556MPD2    H7 8258   0.760   0.014  11.047  0.3892 -1.7101 -1.3287
  557TMC3    C1 8259   0.830   4.193  10.623 -0.5644  0.0909  0.3802
  557TMC3    C2 8260   0.895   4.123  10.525  0.1213  0.0389 -0.4343
  557TMC3    C3 8261   0.907   3.988  10.536 -0.1314  0.1138 -0.2279
  557TMC3    C4 8262   0.784   4.132  10.736 -1.0377 -0.4209 -0.5737
  557TMC3    C5 8263   0.811   3.998  10.754 -0.2513  0.5209 -0.3378
  557TMC3    C6 8264   0.878   3.927  10.654 -0.3662 -0.4893  0.0196
  557TMC3     C 8265   0.808   4.330  10.592  0.1158  0.5209  0.4072
  557TMC3     O 8266   0.812   4.366  10.474  0.3406  0.6679  0.0057
  557TMC3     H 8267   0.921   4.169  10.430  0.3041 -1.6047 -1.1943
  557TMC3    H1 8268   0.721   4.193  10.799 -2.0780  0.1173 -2.1434
  557TMC3    H2 8269   0.890   3.820  10.669  1.2783 -0.3381 -0.2140
  557TMC3    C7 8270   0.758   3.937  10.879  0.3163  0.3672 -0.3357
  557TMC3    C8 8271   0.971   3.917  10.426  0.1562 -0.1021  0.0622
  557TMC3    O1 8272   0.666   3.999  10.923 -0.5284  0.0878 -0.5845
  557TMC3    O2 8273   1.009   3.981  10.330  0.4094  0.9787 -0.1542
  558TMC3    C1 8274   3.639   2.040   9.644 -0.0851 -0.1398 -0.1975
  558TMC3    C2 8275   3.522   1.991   9.701  0.0360  0.1195 -0.1187
  558TMC3    C3 8276   3.476   1.870   9.657 -0.1107 -0.1723 -0.1629
  558TMC3    C4 8277   3.715   1.957   9.562 -0.4174  0.0763  0.1831
  558TMC3    C5 8278   3.669   1.833   9.526  0.0213  0.1608 -0.3596
  558TMC3    C6 8279   3.548   1.786   9.576 -0.4423  0.3022 -0.3094
  558TMC3     C 8280   3.711   2.138   9.729  0.6000 -0.3781 -0.1753
  558TMC3     O 8281   3.697   2.153   9.852  0.4034 -0.2440  0.8542
  558TMC3     H 8282   3.469   2.068   9.755  0.0503 -0.8245  1.2378
  558TMC3    H1 8283   3.790   2.005   9.500  0.5933  0.3459  1.6137
  558TMC3    H2 8284   3.505   1.692   9.544 -1.0154  0.3620  0.2795
  558TMC3    C7 8285   3.757   1.754   9.438 -0.1603 -0.1782  1.0554
  558TMC3    C8 8286   3.382   1.806   9.746 -0.0985  0.0407  0.3175
  558TMC3    O1 8287   3.875   1.786   9.444  0.2001  0.0430 -0.5111
  558TMC3    O2 8288   3.361   1.689   9.719 -0.3863 -0.0712  0.0182
  559MPD2     C 8289   3.194   3.020  10.637  0.1139 -0.8021  0.2222
  559MPD2    C1 8290   3.163   2.889  10.677 -0.0326 -0.8092  0.4324
  559MPD2    C2 8291   3.243   2.816  10.764  0.3056  0.5845  0.3165
  559MPD2    C3 8292   3.358   2.880  10.821  0.4199 -0.5003 -0.3011
  559MPD2    C4 8293   3.381   3.013  10.777 -0.6183 -0.0296 -0.7590
  559MPD2    C5 8294   3.308   3.076  10.682  0.3669 -0.4988 -0.0153
  559MPD2     H 8295   3.209   2.715  10.786 -0.1509  0.7528  0.3776
  559MPD2    H1 8296   3.463   3.072  10.816 -2.0783  3.2856 -2.7419
  559MPD2    H2 8297   3.132   3.074  10.566  0.9316 -0.1470  0.0074
  559MPD2    H3 8298   3.342   3.169  10.638 -1.6217 -0.3135 -1.1267
  559MPD2     N 8299   3.418   2.824  10.935  0.0229 -0.3736  0.1134
  559MPD2    H5 8300   3.399   2.726  10.955  0.3116 -0.4462  0.0393
  559MPD2    N1 8301   3.038   2.847  10.630 -0.1542 -0.3625  0.1704
  559MPD2    H7 8302   2.975   2.921  10.599 -0.5698 -1.0534 -0.6189
  560TMC3    C1 8303   3.532   2.804  11.141 -0.2536  0.1595 -0.3758
  560TMC3    C2 8304   3.478   2.674  11.157  0.5347 -0.3269  0.1282
  560TMC3    C3 8305   3.490   2.619  11.282 -0.1420 -0.3820  0.2443
  560TMC3    C4 8306   3.609   2.865  11.244  0.6664 -0.4278  0.7329
  560TMC3    C5 8307   3.606   2.805  11.367 -0.7176  0.1317 -0.5114
  560TMC3    C6 8308   3.550   2.685  11.385 -0.3428 -0.0162 -0.2749
  560TMC3     C 8309   3.495   2.888  11.030 -0.0391 -0.5713  0.1275
  560TMC3     O 8310   3.529   3.003  11.049 -0.2470  0.7106 -0.1895
  560TMC3     H 8311   3.419   2.635  11.075  0.2504 -1.1844  0.7427
  560TMC3    H1 8312   3.663   2.956  11.226  1.6409 -1.3456 -0.9453
  560TMC3    H2 8313   3.556   2.625  11.476  1.1668 -0.4428 -0.6607
  560TMC3    C7 8314   3.680   2.861  11.470  0.4068  0.1778  0.3121
  560TMC3    C8 8315   3.464   2.475  11.292 -0.2216  0.6356 -0.1607
  560TMC3    O1 8316   3.642   2.843  11.586 -0.1481 -0.2593  0.6268
  560TMC3    O2 8317   3.432   2.433  11.401 -0.6949  0.1798  0.2680
  561TMC3    C1 8318   1.387   1.647  11.378 -0.1132  0.4520  0.1774
  561TMC3    C2 8319   1.331   1.572  11.477 -0.1519 -0.3306  0.0650
  561TMC3    C3 8320   1.209   1.614  11.521 -0.3655  0.4414  0.2193
  561TMC3    C4 8321   1.323   1.759  11.318  0.6942 -0.4199  0.2606
  561TMC3    C5 8322   1.192   1.779  11.350 -0.1968 -0.5104  0.2581
  561TMC3    C6 8323   1.136   1.706  11.447 -1.5822 -0.1958 -0.6194
  561TMC3     C 8324   1.529   1.642  11.376 -0.1959 -0.0912 -0.0204
  561TMC3     O 8325   1.592   1.599  11.469 -0.2689  0.1566  0.0206
  561TMC3     H 8326   1.391   1.496  11.527  1.5192  1.1119  0.2603
  561TMC3    H1 8327   1.376   1.826  11.252 -0.1705 -0.1156 -0.1214
  561TMC3    H2 8328   1.030   1.718  11.468 -1.9529 -0.0422 -2.5342
  561TMC3    C7 8329   1.135   1.906  11.342 -0.4362 -0.4357  0.9256
  561TMC3    C8 8330   1.148   1.546  11.640 -0.4887 -0.5700 -0.4130
  561TMC3    O1 8331   1.047   1.932  11.427 -0.0580  0.2629 -0.1994
  561TMC3    O2 8332   1.182   1.429  11.658 -0.1987  0.0146  0.1025
  562TMC3    C1 8333   2.217   3.179  16.430 -0.5640  0.3100 -0.1482
  562TMC3    C2 8334   2.169   3.299  16.388 -0.4569  0.4103  0.7532
  562TMC3    C3 8335   2.147   3.331  16.253 -0.0334 -0.4527  0.7796
  562TMC3    C4 8336   2.245   3.077  16.336  0.2699 -0.0602 -0.4429
  562TMC3    C5 8337   2.226   3.110  16.205  0.7972 -0.4767 -0.2359
  562TMC3    C6 8338   2.167   3.231  16.157  0.4090 -0.3186  0.4189
  562TMC3     C 8339   2.225   3.161  16.571  0.3201  0.8725  0.5123
  562TMC3     O 8340   2.243   3.268  16.629  0.2374  0.4561 -0.2814
  562TMC3     H 8341   2.131   3.372  16.459  0.3296  1.1999  0.3523
  562TMC3    H1 8342   2.269   2.980  16.377 -0.8717 -1.5683 -3.3896
  562TMC3    H2 8343   2.153   3.247  16.050  1.0159  1.4515  0.6049
  562TMC3    C7 8344   2.215   2.996  16.110  0.9744 -1.1466 -0.3250
  562TMC3    C8 8345   2.096   3.465  16.218 -0.2079  0.0090 -0.2112
  562TMC3    O1 8346   2.155   3.018  16.009 -0.3556 -0.1832  0.0220
  562TMC3    O2 8347   2.044   3.535  16.303 -0.0989 -0.0540  0.5542
  563MPD2     C 8348   4.175   0.006  15.904 -0.2767 -0.1464 -0.6160
  563MPD2    C1 8349   4.218   0.023  16.035  0.4966  0.8332 -0.4205
  563MPD2    C2 8350   4.329   4.681  16.080 -0.7702 -0.6551  0.7627
  563MPD2    C3 8351   4.407   4.609  15.993  0.5621  0.1951  0.2562
  563MPD2    C4 8352   4.363   4.575  15.865 -0.4385  0.0995 -0.2508
  563MPD2    C5 8353   4.250   4.639  15.824 -0.2814  0.4725 -0.5742
  563MPD2     H 8354   4.368   4.684  16.181 -2.5264  0.8453  1.3923
  563MPD2    H1 8355   4.424   4.519  15.795  0.9779  0.1724  0.9385
  563MPD2    H2 8356   4.087   0.053  15.863 -0.1635 -1.9087 -2.8821
  563MPD2    H3 8357   4.217   4.621  15.723 -1.1361 -1.1036 -0.0085
  563MPD2     N 8358   4.527   4.560  16.051  0.3682  0.6371 -0.0754
  563MPD2    H5 8359   4.529   4.574  16.152 -1.9434 -0.7794  0.1558
  563MPD2    N1 8360   4.136   0.095  16.119  0.3812  0.4624 -0.0538
  563MPD2    H7 8361   4.048   0.128  16.081  0.0112  0.1156  0.4930
  564TMC3    C1 8362   4.051   0.122  16.328  0.0675  0.6145  0.1774
  564TMC3    C2 8363   3.956   0.049  16.268  0.5291 -0.2801  0.1899
  564TMC3    C3 8364   3.902   4.679  16.351  0.8200 -0.9133 -0.6386
  564TMC3    C4 8365   4.101   0.109  16.455  0.4926  0.2001  0.3233
  564TMC3    C5 8366   4.047   0.008  16.523 -0.7103  0.0363 -0.4427
  564TMC3    C6 8367   3.937   4.664  16.480  0.0383 -0.4907 -0.4889
  564TMC3     C 8368   4.172   0.126  16.249  0.2738  0.0532 -0.8323
  564TMC3     O 8369   4.284   0.129  16.295 -0.3944 -0.1900 -0.8415
  564TMC3     H 8370   3.912   0.074  16.173  0.3922 -0.1618  0.2836
  564TMC3    H1 8371   4.184   0.165  16.498  0.7456  1.9101 -2.4399
  564TMC3    H2 8372   3.917   4.579  16.544  1.5309 -0.2522  0.3048
  564TMC3    C7 8373   4.153   4.645  16.570 -0.8450 -0.5237 -0.8781
  564TMC3    C8 8374   3.858   4.550  16.305 -0.3899 -0.2795  0.0610
  564TMC3    O1 8375   4.215   4.677  16.667 -0.4503 -0.2141 -0.6616
  564TMC3    O2 8376   3.831   4.467  16.388  0.3376  0.0624  0.1268
  565TMC3    C1 8377   0.622   0.991   9.996 -0.0239  0.5268 -0.1264
  565TMC3    C2 8378   0.538   0.907  10.064 -0.5924  0.1586  0.5827
  565TMC3    C3 8379   0.447   0.823   9.997 -0.6576  0.0860 -0.4280
  565TMC3    C4 8380   0.624   0.984   9.860  0.7220 -0.7427 -0.1402
  565TMC3    C5 8381   0.535   0.889   9.798  0.6007  0.2039  0.0824
  565TMC3    C6 8382   0.440   0.815   9.861 -0.3655  1.2862 -0.4344
  565TMC3     C 8383   0.740   1.049  10.065 -0.4343  0.4525  0.2825
  565TMC3     O 8384   0.826   1.084   9.984 -0.3123 -0.4474  0.2386
  565TMC3     H 8385   0.541   0.908  10.172 -0.3364  3.7962  0.5402
  565TMC3    H1 8386   0.685   1.056   9.807  1.3079 -0.3975  1.0272
  565TMC3    H2 8387   0.396   0.736   9.802  0.0312 -1.1832  2.5483
  565TMC3    C7 8388   0.528   0.890   9.650  0.2287 -0.0008 -0.5369
  565TMC3    C8 8389   0.390   0.718  10.080  0.0066  0.6043  0.0132
  565TMC3    O1 8390   0.451   0.805   9.607  0.2991  0.1363  0.1629
  565TMC3    O2 8391   0.427   0.713  10.194  0.2829  0.1828  0.8781
  566MPD2     C 8392   1.756   3.456  14.173 -0.0087  0.1685  0.2651
  566MPD2    C1 8393   1.830   3.362  14.234  0.0092  0.4869  0.1824
  566MPD2    C2 8394   1.767   3.242  14.264 -0.7475  0.5999 -0.2615
  566MPD2    C3 8395   1.632   3.226  14.237 -0.1990 -0.9599  0.8704
  566MPD2    C4 8396   1.560   3.324  14.187  0.5469 -0.4821  0.2219
  566MPD2    C5 8397   1.617   3.443  14.154 -0.9736  0.5319 -0.9914
  566MPD2     H 8398   1.821   3.157  14.303  0.6412  1.6390  0.0750
  566MPD2    H1 8399   1.453   3.316  14.170  0.0968  2.0407  1.7709
  566MPD2    H2 8400   1.796   3.548  14.132 -1.5255  1.4269  1.6163
  566MPD2    H3 8401   1.558   3.524  14.111 -1.5505 -1.3216 -3.6892
  566MPD2     N 8402   1.574   3.097  14.232  0.0897  0.2679 -0.0425
  566MPD2    H5 8403   1.478   3.103  14.199  0.5467  1.2250 -1.1618
  566MPD2    N1 8404   1.969   3.381  14.232  0.5138 -0.1585  0.0213
  566MPD2    H7 8405   2.003   3.462  14.182 -0.4223 -0.2357 -0.7446
  567TMC3    C1 8406   2.175   3.271  14.206  0.2427  0.3207 -0.1643
  567TMC3    C2 8407   2.156   3.246  14.069  0.1434 -0.3317 -0.8949
  567TMC3    C3 8408   2.238   3.148  14.018 -0.0818 -0.4402 -0.2661
  567TMC3    C4 8409   2.257   3.203  14.280 -0.4981  0.7895 -0.2001
  567TMC3    C5 8410   2.322   3.092  14.229 -0.2270 -0.2881  0.1510
  567TMC3    C6 8411   2.318   3.068  14.097  0.0944  0.1231  0.1740
  567TMC3     C 8412   2.053   3.281  14.280  0.6038 -0.0234 -0.3504
  567TMC3     O 8413   2.041   3.198  14.368 -0.4282 -0.5476  0.4567
  567TMC3     H 8414   2.078   3.299  14.015 -1.1041 -1.3554 -0.0977
  567TMC3    H1 8415   2.280   3.234  14.381 -3.0213  0.5140  0.4560
  567TMC3    H2 8416   2.365   2.980  14.055  0.5392 -0.2110  1.3802
  567TMC3    C7 8417   2.325   2.976  14.311 -0.3766 -0.1084 -0.5662
  567TMC3    C8 8418   2.229   3.136  13.873 -0.3670 -0.3642  0.3235
  567TMC3    O1 8419   2.378   2.878  14.256 -0.2286 -0.6156 -0.3247
  567TMC3    O2 8420   2.144   3.209  13.822  0.0352 -0.4348 -0.2799
  568MPD2     C 8421   4.712   3.458  16.773  0.5884 -0.5051  0.2510
  568MPD2    C1 8422   4.580   3.418  16.776  1.2271  0.1431 -0.8620
  568MPD2    C2 8423   4.488   3.480  16.698 -0.2672 -0.0258 -0.4064
  568MPD2    C3 8424   4.521   3.595  16.625  0.0112  0.0330 -0.5397
  568MPD2    C4 8425   4.658   3.632  16.615 -1.0275  0.8681 -0.1073
  568MPD2    C5 8426   0.019   3.571  16.698 -0.0276  0.1358 -0.5094
  568MPD2     H 8427   4.383   3.453  16.697 -0.4547  0.7280 -0.6834
  568MPD2    H1 8428   4.689   3.710  16.547 -0.2314  1.2584  0.6955
  568MPD2    H2 8429   0.058   3.409  16.840 -1.0000 -0.8062  1.7053
  568MPD2    H3 8430   0.122   3.606  16.700 -0.0959  0.2874  0.2583
  568MPD2     N 8431   4.414   3.664  16.560 -0.6129 -0.0089  0.0466
  568MPD2    H5 8432   4.319   3.636  16.584 -1.2310  0.9032 -1.3227
  568MPD2    N1 8433   4.544   3.315  16.863  0.5777  0.0796 -0.2357
  568MPD2    H7 8434   4.614   3.249  16.896  1.5312  0.5920 -1.2140
  569TMC3    C1 8435   4.290   3.823  16.453  0.2684  0.0822  0.6600
  569TMC3    C2 8436   4.185   3.834  16.544 -0.1312 -0.2067  0.5012
  569TMC3    C3 8437   4.063   3.883  16.498  0.1224 -0.2680  0.7042
  569TMC3    C4 8438   4.268   3.844  16.321 -0.2308  0.4955 -0.1193
  569TMC3    C5 8439   4.141   3.873  16.280  0.0090  0.5435  0.1864
  569TMC3    C6 8440   4.038   3.885  16.362 -0.5976  0.4363  0.2440
  569TMC3     C 8441   4.419   3.778  16.489 -0.3403 -0.1943 -0.1260
  569TMC3     O 8442   4.516   3.826  16.430  0.0551  0.3313  0.3051
  569TMC3     H 8443   4.202   3.813  16.649 -3.1272 -0.8890  0.8366
  569TMC3    H1 8444   4.347   3.828  16.248  0.9903  0.7634  1.1645
  569TMC3    H2 8445   3.937   3.894  16.324 -1.1488  0.6902  1.7952
  569TMC3    C7 8446   4.147   3.978  16.181 -0.6158  0.3327  0.3038
  569TMC3    C8 8447   4.001   4.005  16.552  0.0811 -0.0614  0.0749
  569TMC3    O1 8448   4.241   3.975  16.105  0.2199  0.1986  0.4751
  569TMC3    O2 8449   3.923   4.068  16.482 -0.4140  0.2510 -0.4488
  570TMC3    C1 8450   3.491   2.484  16.548 -0.2712 -0.1603 -0.1208
  570TMC3    C2 8451   3.568   2.474  16.440  0.1714 -0.3539  0.5225
  570TMC3    C3 8452   3.663   2.569  16.423  0.8265 -0.5037  0.0633
  570TMC3    C4 8453   3.501   2.592  16.625  0.7526 -0.3497 -0.9889
  570TMC3    C5 8454   3.599   2.681  16.604  0.3237 -0.6956 -0.5406
  570TMC3    C6 8455   3.684   2.674  16.498 -0.6843 -0.1876  0.1151
  570TMC3     C 8456   3.417   2.368  16.589  0.3457  0.0376 -0.0354
  570TMC3     O 8457   3.365   2.293  16.502  0.2802 -0.4873  0.5005
  570TMC3     H 8458   3.554   2.395  16.367  1.9206  0.5379 -0.7443
  570TMC3    H1 8459   3.416   2.619  16.686  0.8703  0.1301 -1.0335
  570TMC3    H2 8460   3.775   2.732  16.504 -0.4740 -0.4806 -0.2176
  570TMC3    C7 8461   3.578   2.816  16.666  0.1546 -0.1264  0.4046
  570TMC3    C8 8462   3.759   2.544  16.312 -0.2023  0.2231  0.6712
  570TMC3    O1 8463   3.526   2.814  16.777 -0.2072  0.4390 -0.6428
  570TMC3    O2 8464   3.816   2.642  16.271 -0.7908 -0.3169 -0.1627
  571MPD2     C 8465   1.356   4.042  17.343  0.5077  0.4633  0.8178
  571MPD2    C1 8466   1.380   3.931  17.418  0.3180 -0.4437 -0.1493
  571MPD2    C2 8467   1.384   3.943  17.555 -0.5870  0.2671 -0.1857
  571MPD2    C3 8468   1.385   4.071  17.607 -0.1037 -0.4220  0.0162
  571MPD2    C4 8469   1.362   4.178  17.523 -0.8260  0.6701 -0.0896
  571MPD2    C5 8470   1.345   4.166  17.390 -0.0050 -0.7322 -0.2376
  571MPD2     H 8471   1.418   3.858  17.613 -1.2569  0.1630  0.0587
  571MPD2    H1 8472   1.360   4.279  17.562  1.6473  1.1935 -1.3435
  571MPD2    H2 8473   1.351   4.034  17.235  0.0540 -2.4901  1.0727
  571MPD2    H3 8474   1.337   4.254  17.327 -1.9400  0.5008  1.7401
  571MPD2     N 8475   1.401   4.102   0.039  0.2084  0.1707 -0.1385
  571MPD2    H5 8476   1.420   4.200   0.057 -0.5728  0.6055 -1.6347
  571MPD2    N1 8477   1.418   3.815  17.350 -0.3041  0.3551 -0.1692
  571MPD2    H7 8478   1.437   3.832  17.252 -0.9368 -0.5580 -0.4486
  572TMC3    C1 8479   1.399   4.079   0.272 -0.2106 -0.0959 -0.5459
  572TMC3    C2 8480   1.458   4.002   0.368  0.4080  0.0304  0.1836
  572TMC3    C3 8481   1.475   4.059   0.488  0.5889  0.7381  0.9515
  572TMC3    C4 8482   1.397   4.214   0.281  0.7678  0.6348 -0.1670
  572TMC3    C5 8483   1.428   4.271   0.403 -0.3304  0.0231  1.0729
  572TMC3    C6 8484   1.460   4.197   0.508  0.0980 -0.5157 -0.2114
  572TMC3     C 8485   1.398   4.014   0.144 -0.0744 -0.2380  0.2948
  572TMC3     O 8486   1.398   3.891   0.139 -0.0806 -0.3570 -0.7871
  572TMC3     H 8487   1.445   3.895   0.362  0.7012  0.0521 -0.8507
  572TMC3    H1 8488   1.363   4.276   0.199 -0.9555 -1.9692 -1.4198
  572TMC3    H2 8489   1.500   4.244   0.598 -0.6781 -0.4550  0.1044
  572TMC3    C7 8490   1.412   4.416   0.405 -0.4268  0.2278  0.1297
  572TMC3    C8 8491   1.511   3.965   0.594 -0.4803  0.2667  0.3834
  572TMC3    O1 8492   1.357   4.474   0.313 -0.6636  0.0664 -0.2449
  572TMC3    O2 8493   1.556   3.853   0.565 -0.4989  0.5087 -0.2976
  573MPD2     C 8494   2.684   0.365   1.732  0.6574  0.6382 -0.1706
  573MPD2    C1 8495   2.605   0.475   1.762  0.2509 -0.3935 -0.0665
  573MPD2    C2 8496   2.503   0.501   1.663  0.7108  0.2343 -0.3826
  573MPD2    C3 8497   2.481   0.428   1.552  0.0281 -0.0700  0.0340
  573MPD2    C4 8498   2.564   0.321   1.523 -0.6093  0.3947  0.4775
  573MPD2    C5 8499   2.667   0.298   1.612 -0.3810  0.6971 -0.3559
  573MPD2     H 8500   2.441   0.589   1.678 -2.3691 -2.0116 -0.1086
  573MPD2    H1 8501   2.548   0.259   1.436  0.3889  0.3889  0.3024
  573MPD2    H2 8502   2.772   0.344   1.791  0.7740  0.2667 -0.4783
  573MPD2    H3 8503   2.729   0.213   1.586 -0.9981  0.4325 -0.9467
  573MPD2     N 8504   2.394   0.464   1.448 -0.6665  0.1627  0.2927
  573MPD2    H5 8505   2.418   0.426   1.357 -0.5056 -0.1658  0.4748
  573MPD2    N1 8506   2.638   0.557   1.869  0.3736  0.2235 -0.0889
  573MPD2    H7 8507   2.710   0.523   1.932 -0.6329  0.3417  1.1191
  574TMC3    C1 8508   2.246   0.612   1.340 -0.9222 -0.5768  0.2752
  574TMC3    C2 8509   2.124   0.669   1.327  0.3793  0.0026  0.4538
  574TMC3    C3 8510   2.108   0.759   1.222  0.1371  0.3970  0.1103
  574TMC3    C4 8511   2.349   0.650   1.259 -0.2841  0.0049 -0.6926
  574TMC3    C5 8512   2.334   0.735   1.163 -0.8249 -0.1259  0.7448
  574TMC3    C6 8513   2.218   0.800   1.146  1.0970  0.3559  0.3569
  574TMC3     C 8514   2.283   0.545   1.462  0.2525 -0.1952  0.1690
  574TMC3     O 8515   2.234   0.590   1.566  0.1406 -0.6753  0.3383
  574TMC3     H 8516   2.045   0.651   1.400  0.0363  2.0395  0.5646
  574TMC3    H1 8517   2.444   0.600   1.273  0.3819  1.3931 -0.3201
  574TMC3    H2 8518   2.210   0.875   1.068  1.1210  1.8121  1.7507
  574TMC3    C7 8519   2.447   0.764   1.071  0.4119 -0.5312 -0.3800
  574TMC3    C8 8520   1.978   0.819   1.199  0.2260  0.3489  0.0117
  574TMC3    O1 8521   2.411   0.817   0.966  0.0306  0.0852 -0.0676
  574TMC3    O2 8522   1.903   0.831   1.300 -0.1155  0.6640  0.0840
  575TMC3    C1 8523   0.424   0.243  10.783  0.3095 -0.4626  0.3898
  575TMC3    C2 8524   0.378   0.111  10.789 -0.4715  0.0171  0.3488
  575TMC3    C3 8525   0.309   0.062  10.679  0.5937 -0.2143  0.1707
  575TMC3    C4 8526   0.395   0.317  10.671 -0.1110 -0.8068 -0.0484
  575TMC3    C5 8527   0.328   0.262  10.566 -0.3719  0.1072 -0.3706
  575TMC3    C6 8528   0.285   0.135  10.570 -0.0423 -0.0184  0.2568
  575TMC3     C 8529   0.483   0.306  10.903  0.0241  0.5614 -1.0680
  575TMC3     O 8530   0.471   0.241  11.008 -0.3924 -0.3728 -0.3354
  575TMC3     H 8531   0.399   0.060  10.882 -1.2570 -0.6459  0.1659
  575TMC3    H1 8532   0.407   0.425  10.677  1.4146 -0.9846  0.1649
  575TMC3    H2 8533   0.241   0.086  10.484  1.9087  2.7750 -2.3404
  575TMC3    C7 8534   0.309   0.355  10.452  0.3490 -0.2558  0.1973
  575TMC3    C8 8535   0.298   4.642  10.657 -0.0637  0.0834 -0.6181
  575TMC3    O1 8536   0.375   0.458  10.450  0.4806 -0.2603 -0.8418
  575TMC3    O2 8537   0.244   4.592  10.557  0.7784  0.2220  0.1247
  576MPD2     C 8538   0.362   2.294  12.663  0.0765  0.0038 -0.1474
  576MPD2    C1 8539   0.448   2.361  12.581  0.1721 -1.0290 -0.3070
  576MPD2    C2 8540   0.483   2.491  12.601  1.0980 -0.6255  0.1261
  576MPD2    C3 8541   0.434   2.561  12.711 -0.3597 -0.6146  0.4821
  576MPD2    C4 8542   0.357   2.486  12.803  0.1790  0.0095  0.1670
  576MPD2    C5 8543   0.322   2.357  12.777 -0.2829 -0.3449  0.1574
  576MPD2     H 8544   0.556   2.538  12.536 -0.9205  1.4369 -0.6801
  576MPD2    H1 8545   0.313   2.522  12.895  1.6887  0.3469  0.7615
  576MPD2    H2 8546   0.328   2.192  12.657 -1.2691  0.4854 -0.8988
  576MPD2    H3 8547   0.253   2.304  12.842 -0.1861 -1.8833 -0.9876
  576MPD2     N 8548   0.470   2.696  12.721  0.6638 -0.1652  0.1458
  576MPD2    H5 8549   0.519   2.741  12.644  2.2038 -0.3887  0.9924
  576MPD2    N1 8550   0.499   2.295  12.466 -0.0493  0.2015 -0.6352
  576MPD2    H7 8551   0.547   2.352  12.397 -0.2873  0.7733 -0.3248
  577TMC3    C1 8552   0.525   2.124  12.299 -0.0153  0.3661 -0.2578
  577TMC3    C2 8553   0.583   2.000  12.283  0.1054  0.5664 -0.7880
  577TMC3    C3 8554   0.634   1.967  12.163  0.4362 -0.1159 -0.4331
  577TMC3    C4 8555   0.512   2.214  12.202 -0.3290 -0.0442  0.2533
  577TMC3    C5 8556   0.546   2.167  12.077  0.4363  0.5471  0.2650
  577TMC3    C6 8557   0.613   2.046  12.058 -0.1682  0.0749 -0.3344
  577TMC3     C 8558   0.482   2.163  12.433 -0.2227 -0.4899 -0.2369
  577TMC3     O 8559   0.436   2.077  12.502  0.3555  0.1215 -0.1092
  577TMC3     H 8560   0.606   1.945  12.373 -0.5655 -0.9512 -1.5341
  577TMC3    H1 8561   0.461   2.308  12.217 -0.4283 -0.1275  0.4307
  577TMC3    H2 8562   0.641   2.010  11.959  0.7312 -0.5057  0.1310
  577TMC3    C7 8563   0.536   2.248  11.960  0.7697  0.4242 -0.7664
  577TMC3    C8 8564   0.711   1.842  12.160  0.0514 -0.4589 -0.4506
  577TMC3    O1 8565   0.617   2.232  11.872  0.3431 -0.0658 -0.2178
  577TMC3    O2 8566   0.712   1.777  12.260 -0.7006  0.2867  0.5642
  578MPD2     C 8567   3.848   2.776   0.462 -0.5355  0.2874  1.0747
  578MPD2    C1 8568   3.787   2.877   0.535  0.1901  0.0270  0.0581
  578MPD2    C2 8569   3.674   2.855   0.616 -0.4217 -0.3038 -0.5399
  578MPD2    C3 8570   3.620   2.727   0.629  0.1170 -0.9801 -0.6552
  578MPD2    C4 8571   3.683   2.622   0.563  0.3231 -0.6778  0.7602
  578MPD2    C5 8572   3.789   2.651   0.476 -0.0523  0.4739  0.1157
  578MPD2     H 8573   3.638   2.935   0.680 -0.8784 -0.1911 -0.9343
  578MPD2    H1 8574   3.662   2.516   0.573 -0.9053 -0.6202 -1.0742
  578MPD2    H2 8575   3.940   2.787   0.406  0.2001 -0.7685  2.0663
  578MPD2    H3 8576   3.838   2.563   0.435 -1.4482  0.3479 -1.2931
  578MPD2     N 8577   3.503   2.708   0.701  0.1966  0.1191  0.4501
  578MPD2    H5 8578   3.454   2.793   0.727  0.1540 -0.6859  3.0731
  578MPD2    N1 8579   3.853   3.002   0.532  0.3231 -0.0608  0.2211
  578MPD2    H7 8580   3.949   3.007   0.498 -0.3617 -0.0615 -1.6869
  579TMC3    C1 8581   3.327   2.615   0.810  0.3204 -0.4518 -0.6305
  579TMC3    C2 8582   3.291   2.750   0.827  0.0063 -0.6108  0.7007
  579TMC3    C3 8583   3.213   2.782   0.934 -0.4053 -0.3538 -0.6741
  579TMC3    C4 8584   3.278   2.516   0.890  0.0537  0.2251  0.2817
  579TMC3    C5 8585   3.225   2.557   1.011 -0.1397 -0.0965  0.3793
  579TMC3    C6 8586   3.186   2.690   1.032  0.0774 -0.3876  0.2078
  579TMC3     C 8587   3.444   2.585   0.732 -0.1795 -0.2545  1.1671
  579TMC3     O 8588   3.484   2.467   0.728  0.1751  0.2807 -0.4804
  579TMC3     H 8589   3.313   2.825   0.752 -0.7352  0.1090  1.1923
  579TMC3    H1 8590   3.311   2.414   0.878 -1.1828 -0.0767 -0.5120
  579TMC3    H2 8591   3.143   2.718   1.128 -1.1019  0.3758 -0.5427
  579TMC3    C7 8592   3.155   2.453   1.089 -0.5516 -0.3326  0.6203
  579TMC3    C8 8593   3.249   2.912   0.988  0.8281 -0.0340  0.2472
  579TMC3    O1 8594   3.223   2.374   1.153  0.4002 -0.3289  0.1369
  579TMC3    O2 8595   3.343   2.964   0.931  0.8109  0.3751 -0.1533
  580TMC3    C1 8596   3.389   1.745  12.251  0.1531 -0.5397  0.3823
  580TMC3    C2 8597   3.448   1.713  12.135 -0.1149  0.2630 -0.1224
  580TMC3    C3 8598   3.542   1.618  12.122  0.0623 -0.1299  0.2163
  580TMC3    C4 8599   3.415   1.667  12.366 -0.3880 -0.3802 -0.9080
  580TMC3    C5 8600   3.514   1.573  12.349  0.0096 -0.5138 -0.9640
  580TMC3    C6 8601   3.586   1.550  12.235  0.1704  0.2348 -0.7136
  580TMC3     C 8602   3.278   1.831  12.269 -0.2667  0.0097 -0.0599
  580TMC3     O 8603   3.214   1.821  12.370  0.3383 -0.0911 -0.0436
  580TMC3     H 8604   3.425   1.761  12.040 -0.4062  0.2002 -0.0836
  580TMC3    H1 8605   3.360   1.687  12.456  0.4019  0.4698 -0.6105
  580TMC3    H2 8606   3.668   1.479  12.240  1.3195  1.6044  0.0645
  580TMC3    C7 8607   3.537   1.494  12.469  0.2827 -0.3870  0.7611
  580TMC3    C8 8608   3.643   1.633  12.013  0.5062  0.7866  0.5954
  580TMC3    O1 8609   3.522   1.543  12.579  0.0902  0.0257  0.0833
  580TMC3    O2 8610   3.588   1.612  11.904  0.0847 -0.3732  0.5525
  581MPD2     C 8611   0.915   1.479  15.114 -0.3784  0.0754  0.4288
  581MPD2    C1 8612   0.799   1.407  15.133 -0.1793 -0.6667 -0.2084
  581MPD2    C2 8613   0.679   1.459  15.089  0.7580 -0.6177 -0.3930
  581MPD2    C3 8614   0.676   1.579  15.022 -0.0470 -0.2748 -0.5809
  581MPD2    C4 8615   0.796   1.649  14.994  0.0328  0.6424 -0.4510
  581MPD2    C5 8616   0.916   1.592  15.038 -0.0848  0.2834 -0.4485
  581MPD2     H 8617   0.590   1.403  15.116 -0.8210  0.6277 -3.0434
  581MPD2    H1 8618   0.793   1.740  14.935  1.4385 -0.2022 -1.8327
  581MPD2    H2 8619   1.007   1.450  15.163 -0.0750 -0.5385 -0.5113
  581MPD2    H3 8620   1.008   1.648  15.024  0.4749 -0.9818 -1.8617
  581MPD2     N 8621   0.559   1.638  14.968 -0.0452 -0.1071  0.0588
  581MPD2    H5 8622   0.566   1.731  14.928  0.2686 -0.9385 -1.8117
  581MPD2    N1 8623   0.812   1.287  15.213  0.2551  0.2479 -0.0054
  581MPD2    H7 8624   0.893   1.286  15.274 -0.7187  0.6749  1.2751
  582TMC3    C1 8625   0.738   1.104  15.339 -0.2792  0.1707 -0.2066
  582TMC3    C2 8626   0.849   1.109  15.417 -0.8450  0.6504 -0.5324
  582TMC3    C3 8627   0.826   1.057  15.544 -0.4812 -0.6683  0.2339
  582TMC3    C4 8628   0.629   1.022  15.360  0.4366  0.6118  0.3092
  582TMC3    C5 8629   0.630   0.946  15.468 -0.6379  0.3341  0.0116
  582TMC3    C6 8630   0.714   0.983  15.566  0.0025  0.2682 -0.3683
  582TMC3     C 8631   0.714   1.193  15.226  0.5978  0.0223  0.1870
  582TMC3     O 8632   0.612   1.171  15.163 -0.0129  0.4237  0.0824
  582TMC3     H 8633   0.932   1.176  15.399 -0.8001  1.1097  1.4491
  582TMC3    H1 8634   0.554   1.008  15.284 -0.9239 -0.2896  1.8034
  582TMC3    H2 8635   0.697   0.937  15.662  0.3659 -1.5896 -1.1940
  582TMC3    C7 8636   0.504   0.924  15.525  0.4345  0.2503  0.1980
  582TMC3    C8 8637   0.919   1.078  15.651 -0.5778 -0.4985  0.2016
  582TMC3    O1 8638   0.500   0.846  15.616 -0.2754  0.0934  0.4068
  582TMC3    O2 8639   1.041   1.097  15.630 -0.2169 -0.6724 -0.4129
  583MPD2     C 8640   0.790   2.986  16.931  0.4539 -0.2985 -0.2125
  583MPD2    C1 8641   0.712   3.063  16.845  0.1203 -0.2624 -0.0092
  583MPD2    C2 8642   0.597   3.122  16.893  0.4256  0.0743  0.9565
  583MPD2    C3 8643   0.568   3.131  17.025 -0.7947 -0.0416 -0.0305
  583MPD2    C4 8644   0.649   3.066  17.111  0.4539 -0.2112 -0.2878
  583MPD2    C5 8645   0.757   2.992  17.066  0.0070  0.6751  0.4465
  583MPD2     H 8646   0.544   3.180  16.818  0.8230 -1.2292 -0.3258
  583MPD2    H1 8647   0.632   3.076  17.218  0.5772 -1.8754 -0.1120
  583MPD2    H2 8648   0.880   2.929  16.911 -0.1324 -0.1906 -3.2247
  583MPD2    H3 8649   0.822   2.940  17.135 -1.0665 -0.5180  0.5468
  583MPD2     N 8650   0.467   3.219  17.066 -0.3633  0.0396  0.4316
  583MPD2    H5 8651   0.395   3.246  17.001 -0.1752 -0.3591  0.0516
  583MPD2    N1 8652   0.734   3.074  16.702 -0.4533  0.2894  0.1004
  583MPD2    H7 8653   0.680   3.138  16.644 -0.7672 -0.4081 -0.3812
  584TMC3    C1 8654   0.362   3.381  17.204 -0.1510  0.0010 -0.5814
  584TMC3    C2 8655   0.319   3.445  17.088  1.0285 -0.0019 -0.6020
  584TMC3    C3 8656   0.241   3.556  17.109  1.0739  1.5761 -0.6352
  584TMC3    C4 8657   0.345   3.425  17.331  0.0683  0.2509  0.6492
  584TMC3    C5 8658   0.257   3.534  17.348  0.2649 -0.1626 -0.1835
  584TMC3    C6 8659   0.207   3.600  17.235 -0.1218  0.1671 -0.4530
  584TMC3     C 8660   0.465   3.277  17.193  0.3642  0.4164 -0.5743
  584TMC3     O 8661   0.544   3.268  17.285 -0.4340  0.1441  0.3476
  584TMC3     H 8662   0.346   3.415  16.987 -1.1591 -2.6219 -0.4047
  584TMC3    H1 8663   0.391   3.378  17.417  2.3733 -2.3750 -2.0577
  584TMC3    H2 8664   0.137   3.682  17.248  1.2136  1.5373 -2.0409
  584TMC3    C7 8665   0.237   3.594  17.481 -0.5873  0.5395 -0.4878
  584TMC3    C8 8666   0.270   3.656  17.013  0.2975 -0.0576  0.1581
  584TMC3    O1 8667   0.205   3.712  17.481 -0.2150  0.4932  0.5508
  584TMC3    O2 8668   0.298   3.620  16.898 -0.0705  0.7131 -0.0445
  585MPD2     C 8669   0.200   2.542   0.462 -0.0645  0.4583 -0.0219
  585MPD2    C1 8670   0.063   2.562   0.477 -0.4087 -0.0878  0.0819
  585MPD2    C2 8671   4.705   2.451   0.460  0.8548 -0.3132 -0.1172
  585MPD2    C3 8672   0.030   2.334   0.419  0.0043  0.3150 -0.3165
  585MPD2    C4 8673   0.160   2.320   0.389  0.7848 -0.5132 -0.0758
  585MPD2    C5 8674   0.246   2.421   0.421 -0.2880 -0.4203 -0.8952
  585MPD2     H 8675   4.601   2.457   0.487  1.2297  1.0633  0.9805
  585MPD2    H1 8676   0.190   2.226   0.343  1.8388  0.1424 -0.7130
  585MPD2    H2 8677   0.273   2.619   0.486  2.1663 -1.5530 -0.3756
  585MPD2    H3 8678   0.351   2.409   0.397  0.1220 -1.1846  1.2637
  585MPD2     N 8679   4.666   2.222   0.392  0.1641 -0.5412  0.1136
  585MPD2    H5 8680   4.712   2.139   0.355  0.4176 -0.3078 -0.1030
  585MPD2    N1 8681   0.030   2.691   0.529 -0.3317 -0.0852 -0.1801
  585MPD2    H7 8682   0.110   2.748   0.554 -0.4329  0.8454 -1.9732
  586TMC3    C1 8683   4.479   2.107   0.326  0.2053 -0.2202 -0.1272
  586TMC3    C2 8684   4.557   2.031   0.251 -0.1264  0.3893  0.0043
  586TMC3    C3 8685   4.508   1.905   0.235  0.0784 -0.9268  0.0430
  586TMC3    C4 8686   4.364   2.070   0.390 -0.2590 -0.9631  0.3807
  586TMC3    C5 8687   4.315   1.946   0.365 -0.2626  0.4533 -0.1516
  586TMC3    C6 8688   4.391   1.864   0.293 -0.2713 -0.2851 -0.4152
  586TMC3     C 8689   4.531   2.224   0.385  0.0195  0.9816 -0.4465
  586TMC3     O 8690   4.457   2.315   0.411 -0.9352 -0.8680  0.3695
  586TMC3     H 8691   4.643   2.071   0.198  1.8692 -0.6653  2.4471
  586TMC3    H1 8692   4.329   2.130   0.474 -0.5279  1.0643 -1.1964
  586TMC3    H2 8693   4.349   1.766   0.272  0.5944 -0.5631 -0.8601
  586TMC3    C7 8694   4.197   1.898   0.432 -0.0890  0.4318  0.0043
  586TMC3    C8 8695   4.592   1.799   0.181  0.2032  0.2947  0.5329
  586TMC3    O1 8696   4.175   1.778   0.432  0.2200  0.0362  0.1089
  586TMC3    O2 8697   4.549   1.684   0.188  0.3315 -0.6499 -0.7873
  587TMC3    C1 8698   2.536   1.130  16.599  0.6491  0.2494  0.3197
  587TMC3    C2 8699   2.424   1.150  16.536  0.1156 -0.3079 -0.9217
  587TMC3    C3 8700   2.430   1.162  16.398 -0.0539 -0.2008  0.5310
  587TMC3    C4 8701   2.658   1.108  16.539  0.1092 -0.5143  0.1881
  587TMC3    C5 8702   2.666   1.101  16.402  0.1258  0.5856  0.6800
  587TMC3    C6 8703   2.549   1.138  16.335  0.7732  0.3927  0.0239
  587TMC3     C 8704   2.524   1.068  16.732  0.0090  0.1072 -0.1865
  587TMC3     O 8705   2.623   1.011  16.777 -0.3894 -0.4607  0.2000
  587TMC3     H 8706   2.334   1.103  16.575  1.6404 -0.8990  1.8611
  587TMC3    H1 8707   2.744   1.076  16.596  0.7250  0.0098 -0.4562
  587TMC3    H2 8708   2.549   1.134  16.227  0.8108  1.6102 -0.0219
  587TMC3    C7 8709   2.784   1.120  16.326  0.0566 -0.0087 -0.3294
  587TMC3    C8 8710   2.332   1.235  16.330 -0.4289 -0.6640  0.2645
  587TMC3    O1 8711   2.788   1.179  16.219  0.4956  0.5669 -0.2747
  587TMC3    O2 8712   2.343   1.244  16.208  0.9347 -0.0545 -0.8095
  588TMC3    C1 8713   0.002   3.610  10.041  0.1450 -0.0871 -1.0540
  588TMC3    C2 8714   4.682   3.486  10.018 -0.1276  0.0118 -0.4393
  588TMC3    C3 8715   0.036   3.375  10.047 -0.1948  0.2731 -0.5741
  588TMC3    C4 8716   0.135   3.633  10.079  0.3144  0.1325 -0.4368
  588TMC3    C5 8717   0.214   3.527  10.105 -0.4203  0.7100 -0.0843
  588TMC3    C6 8718   0.160   3.404  10.100 -0.4721 -0.6608 -0.7515
  588TMC3     C 8719   4.644   3.726  10.011  0.4931  1.0672  0.9643
  588TMC3     O 8720   4.560   3.717   9.925  0.0913  0.7415  0.5003
  588TMC3     H 8721   4.583   3.472   9.976 -0.0001 -0.2730 -0.6449
  588TMC3    H1 8722   0.185   3.729  10.074  0.5819  0.0700  0.9871
  588TMC3    H2 8723   0.231   3.325  10.121  0.0589  0.1497  0.5127
  588TMC3    C7 8724   0.348   3.537  10.158  0.1778  0.2718 -0.3178
  588TMC3    C8 8725   0.001   3.246   9.996 -0.2094  0.0725 -0.1741
  588TMC3    O1 8726   0.434   3.459  10.117 -0.7921  0.0127 -0.2999
  588TMC3    O2 8727   4.647   3.239   9.902  0.0708 -0.0627 -0.5142
  589TMC3    C1 8728   3.495   0.580   1.942 -0.1696  0.5963  0.3841
  589TMC3    C2 8729   3.602   0.570   2.019  0.0091 -0.1102 -0.6340
  589TMC3    C3 8730   3.613   0.458   2.094  0.0073 -0.3448 -0.7123
  589TMC3    C4 8731   3.394   0.491   1.950 -0.5861  0.8695  0.6685
  589TMC3    C5 8732   3.405   0.385   2.029  0.2719  0.1359  0.5099
  589TMC3    C6 8733   3.515   0.367   2.103  0.4818 -0.4532  0.3737
  589TMC3     C 8734   3.470   0.711   1.894 -0.1065 -0.0938 -0.3596
  589TMC3     O 8735   3.405   0.721   1.794  0.4014  0.1528 -0.1489
  589TMC3     H 8736   3.687   0.637   2.016  0.5739 -0.7849  0.1494
  589TMC3    H1 8737   3.308   0.511   1.887 -0.4833 -1.9739 -0.4058
  589TMC3    H2 8738   3.526   0.294   2.183 -1.0065 -2.6073 -1.3929
  589TMC3    C7 8739   3.275   0.316   2.061 -0.0936  0.1105 -0.3541
  589TMC3    C8 8740   3.747   0.413   2.141  0.5610 -0.7405 -0.3696
  589TMC3    O1 8741   3.172   0.366   2.018 -0.5693  0.0162 -0.3745
  589TMC3    O2 8742   3.736   0.339   2.238 -0.4091  0.7404  0.0302
  590MPD2     C 8743   2.995   3.543  16.813  0.0970  0.1467 -0.5668
  590MPD2    C1 8744   2.956   3.673  16.783  0.1437 -0.9406 -0.1032
  590MPD2    C2 8745   3.044   3.766  16.730 -0.2861  0.0338 -0.5384
  590MPD2    C3 8746   3.181   3.738  16.725 -0.6021  0.0509  0.5747
  590MPD2    C4 8747   3.220   3.605  16.762 -0.2417  0.6746 -0.2982
  590MPD2    C5 8748   3.125   3.515  16.809  0.1061 -0.2889  0.8656
  590MPD2     H 8749   3.011   3.867  16.709  2.8679  1.0173 -0.6635
  590MPD2    H1 8750   3.322   3.569  16.775 -0.6485 -1.1176 -2.0044
  590MPD2    H2 8751   2.932   3.462  16.849 -1.1774  1.3990 -0.0068
  590MPD2    H3 8752   3.161   3.421  16.850 -1.6010 -1.3371 -0.0340
  590MPD2     N 8753   3.271   3.835  16.686  0.2214 -0.0433  0.2189
  590MPD2    H5 8754   3.229   3.916  16.641 -1.2497 -0.7267  0.3816
  590MPD2    N1 8755   2.819   3.705  16.807  0.3791 -0.2053  0.3669
  590MPD2    H7 8756   2.747   3.634  16.813 -0.0625  0.2987  1.0653
  591TMC3    C1 8757   3.466   3.956  16.672  0.0399  0.3846  0.0059
  591TMC3    C2 8758   3.568   3.930  16.582  0.4607 -0.2443 -0.2551
  591TMC3    C3 8759   3.573   4.014  16.469  0.2358  0.0236 -0.3283
  591TMC3    C4 8760   3.381   4.066  16.658 -0.4315  0.3718 -0.2330
  591TMC3    C5 8761   3.403   4.154  16.561  0.0929  0.0074  0.0956
  591TMC3    C6 8762   3.493   4.129  16.458 -0.1543 -0.0821 -0.2366
  591TMC3     C 8763   3.406   3.824  16.709  0.2969 -0.6873  0.0358
  591TMC3     O 8764   3.473   3.728  16.735 -0.6108  1.0744  0.5181
  591TMC3     H 8765   3.635   3.845  16.582  0.8124  0.0353  1.8407
  591TMC3    H1 8766   3.302   4.066  16.732  0.6321  1.2850  0.8979
  591TMC3    H2 8767   3.485   4.186  16.366 -0.2229  2.7862  1.5446
  591TMC3    C7 8768   3.306   4.263  16.550  0.5817  0.4547 -0.6677
  591TMC3    C8 8769   3.639   3.963  16.347  0.0048 -0.0974  0.5999
  591TMC3    O1 8770   3.213   4.262  16.629  0.3668 -0.2320 -0.1390
  591TMC3    O2 8771   3.687   3.851  16.356  0.5199  0.3577  0.3945
  592MPD2     C 8772   3.843   0.794  11.572 -0.3562 -0.6435 -0.2694
  592MPD2    C1 8773   3.854   0.858  11.693  0.3095 -0.0532 -0.2684
  592MPD2    C2 8774   3.811   0.794  11.808  0.7485 -0.6931  0.1120
  592MPD2    C3 8775   3.790   0.655  11.811 -1.0807 -0.3780  0.2038
  592MPD2    C4 8776   3.798   0.587  11.690 -0.4747  0.6716  0.3720
  592MPD2    C5 8777   3.806   0.659  11.573  0.2314  0.2060  0.5068
  592MPD2     H 8778   3.811   0.839  11.906 -0.6492 -0.1726 -0.1226
  592MPD2    H1 8779   3.773   0.481  11.689  3.4537 -0.2545  2.7538
  592MPD2    H2 8780   3.876   0.839  11.479 -0.0849  0.4894  0.3666
  592MPD2    H3 8781   3.812   0.611  11.476 -0.4679  2.3779 -0.6215
  592MPD2     N 8782   3.782   0.588  11.938  0.0903 -0.6146  0.5596
  592MPD2    H5 8783   3.786   0.654  12.015 -3.2248 -0.6867  0.8194
  592MPD2    N1 8784   3.902   0.996  11.696 -0.1582  0.2029  0.1710
  592MPD2    H7 8785   3.933   1.026  11.604 -0.9455 -2.3989 -0.9431
  593TMC3    C1 8786   3.971   1.203  11.775  1.0110 -0.2348  0.0401
  593TMC3    C2 8787   3.981   1.280  11.890 -1.0837 -0.3791 -0.0778
  593TMC3    C3 8788   4.091   1.357  11.915 -0.9852 -0.5312 -0.2073
  593TMC3    C4 8789   4.070   1.220  11.680  0.6276 -0.1459 -0.1118
  593TMC3    C5 8790   4.168   1.315  11.702 -0.3696  0.0729 -0.0743
  593TMC3    C6 8791   4.183   1.382  11.817 -0.6676 -0.2038 -0.7011
  593TMC3     C 8792   3.916   1.069  11.808  0.1359 -0.3674 -0.4565
  593TMC3     O 8793   3.852   1.053  11.912 -0.4383 -0.2076 -0.1959
  593TMC3     H 8794   3.913   1.261  11.972  1.9709  0.5620  2.6865
  593TMC3    H1 8795   4.074   1.149  11.598 -1.3971 -1.3003  0.7848
  593TMC3    H2 8796   4.264   1.452  11.834 -0.7826 -0.1934 -0.1812
  593TMC3    C7 8797   4.276   1.343  11.608 -0.0236 -0.7508  0.0905
  593TMC3    C8 8798   4.107   1.403  12.059  0.0988 -0.1340 -0.2502
  593TMC3    O1 8799   4.364   1.419  11.645  0.0633 -0.6344 -0.1551
  593TMC3    O2 8800   4.010   1.385  12.127  0.3583 -0.4709  1.0887
  594MPD2     C 8801   2.420   4.684  14.229 -0.1215  0.0527 -0.4232
  594MPD2    C1 8802   2.456   4.652  14.353 -0.3667 -0.2746  0.5261
  594MPD2    C2 8803   2.574   4.704  14.404 -0.2205  0.7498 -0.0166
  594MPD2    C3 8804   2.656   0.059  14.316  0.1326  0.1183 -0.3011
  594MPD2    C4 8805   2.616   0.084  14.184  0.3024 -0.2177  0.4197
  594MPD2    C5 8806   2.500   0.029  14.148 -0.6936 -0.5268  0.2379
  594MPD2     H 8807   2.610   4.682  14.504 -2.6237 -0.4762  0.5764
  594MPD2    H1 8808   2.675   0.137  14.110  0.6178 -1.5529 -0.2898
  594MPD2    H2 8809   2.336   4.641  14.175 -0.0024  0.5680 -1.0173
  594MPD2    H3 8810   2.470   0.051  14.047  0.2050 -0.0965  0.0697
  594MPD2     N 8811   2.764   0.126  14.370  0.1106 -0.2933  0.1347
  594MPD2    H5 8812   2.785   0.126  14.469 -0.6816 -0.7740  0.3018
  594MPD2    N1 8813   2.365   4.585  14.437 -0.4787  0.4693  0.5001
  594MPD2    H7 8814   2.278   4.557  14.392  0.3942 -1.1345 -0.1808
  595TMC3    C1 8815   3.090   0.462  14.427  0.2362  0.2248  0.0123
  595TMC3    C2 8816   3.042   0.358  14.359 -0.2770 -0.7519 -0.8889
  595TMC3    C3 8817   2.913   0.315  14.389 -0.0730  0.0301  1.1301
  595TMC3    C4 8818   3.014   0.532  14.517  0.8612 -0.1594  0.1972
  595TMC3    C5 8819   2.888   0.487  14.546 -0.3400  0.3269 -0.2934
  595TMC3    C6 8820   2.830   0.384  14.476  0.0571 -0.5358 -0.1978
  595TMC3     C 8821   3.226   0.487  14.425  0.0918  0.0306 -0.1795
  595TMC3     O 8822   3.303   0.394  14.437 -0.0571 -0.0721 -0.0081
  595TMC3     H 8823   3.099   0.306  14.283  1.9179  3.8714 -2.3426
  595TMC3    H1 8824   3.055   0.614  14.575  2.3308 -1.3535  0.8740
  595TMC3    H2 8825   2.729   0.364  14.508  0.2381  0.5130  0.9863
  595TMC3    C7 8826   2.814   0.552  14.654  0.5008 -0.0552  0.8032
  595TMC3    C8 8827   2.847   0.213  14.305 -0.1263  0.0354  0.1590
  595TMC3    O1 8828   2.699   0.514  14.666  0.2795  0.1552  0.1513
  595TMC3    O2 8829   2.883   0.210  14.191  0.4053 -0.4878 -0.1862
  596MPD2     C 8830   1.536   2.981  16.744 -0.5299  0.1004 -0.3031
  596MPD2    C1 8831   1.501   3.086  16.661 -0.0134 -0.2451 -0.0817
  596MPD2    C2 8832   1.500   3.063  16.530 -0.2572  0.0378  0.3247
  596MPD2    C3 8833   1.552   2.945  16.480 -0.0268  0.1395  0.7110
  596MPD2    C4 8834   1.597   2.846  16.568 -0.6389  0.1836 -0.6621
  596MPD2    C5 8835   1.580   2.862  16.702 -0.6217  0.6755 -0.1586
  596MPD2     H 8836   1.459   3.133  16.458 -1.8554 -0.7948  0.4109
  596MPD2    H1 8837   1.643   2.757  16.527  0.1781  0.8645 -1.2066
  596MPD2    H2 8838   1.531   2.975  16.852  0.8362 -0.5974 -0.2875
  596MPD2    H3 8839   1.608   2.786  16.775 -0.1926  1.0252  0.0406
  596MPD2     N 8840   1.564   2.923  16.340 -0.0182  0.4731 -0.0291
  596MPD2    H5 8841   1.614   2.837  16.317 -0.7544  0.4018 -1.3384
  596MPD2    N1 8842   1.470   3.216  16.713 -0.3520  0.1173 -0.8512
  596MPD2    H7 8843   1.448   3.289  16.646  0.5617  0.8691 -0.3279
  597TMC3    C1 8844   1.426   3.391  16.867 -0.8364  0.5541  0.5608
  597TMC3    C2 8845   1.480   3.477  16.778  0.1000 -0.7537  0.0934
  597TMC3    C3 8846   1.441   3.603  16.800 -0.1389  0.1629  0.0816
  597TMC3    C4 8847   1.338   3.419  16.965  0.5184  0.2561 -0.6836
  597TMC3    C5 8848   1.290   3.544  16.966  0.2328 -0.3844 -0.0865
  597TMC3    C6 8849   1.338   3.639  16.885 -0.1338 -0.2247  0.7966
  597TMC3     C 8850   1.472   3.252  16.846 -0.4314 -0.2595 -0.3137
  597TMC3     O 8851   1.488   3.173  16.943 -0.8481  0.3992  0.5114
  597TMC3     H 8852   1.559   3.442  16.712 -1.4525 -2.1610 -1.0455
  597TMC3    H1 8853   1.319   3.344  17.040  2.7549  0.5073  0.1280
  597TMC3    H2 8854   1.309   3.743  16.898  0.0617 -0.2948  1.8086
  597TMC3    C7 8855   1.192   3.575  17.063 -0.2951  0.5682  1.0359
  597TMC3    C8 8856   1.521   3.705  16.741 -0.4867  0.1948  0.3512
  597TMC3    O1 8857   1.178   3.492  17.151  0.8593  0.0569 -0.0713
  597TMC3    O2 8858   1.517   3.818  16.786 -0.2556 -0.0691 -0.4378
  598TMC3    C1 8859   4.510   0.102  15.439 -0.4310 -0.4051 -0.3553
  598TMC3    C2 8860   4.443   4.725  15.478 -0.2970 -0.5837  0.5435
  598TMC3    C3 8861   4.387   4.650  15.377  0.1019 -0.8258  1.0195
  598TMC3    C4 8862   4.534   0.145  15.314  0.5601 -0.1732 -0.0783
  598TMC3    C5 8863   4.473   0.068  15.217 -0.6554  0.5602 -0.3090
  598TMC3    C6 8864   4.406   4.679  15.246 -0.9529 -0.1317  0.1240
  598TMC3     C 8865   4.574   0.183  15.544  0.2142 -0.0213 -0.9922
  598TMC3     O 8866   4.678   0.244  15.513  0.1109  0.4269  0.0191
  598TMC3     H 8867   4.436   4.692  15.581 -0.9611 -0.9309  0.3891
  598TMC3    H1 8868   4.591   0.233  15.291  2.4823 -1.0470  1.3028
  598TMC3    H2 8869   4.378   4.613  15.165  0.3886 -1.6538  0.9066
  598TMC3    C7 8870   4.508   0.096  15.077  0.3919  0.4820 -0.1783
  598TMC3    C8 8871   4.308   4.537  15.415  0.0065  0.2881  0.3318
  598TMC3    O1 8872   4.410   0.082  15.002 -0.2267  0.3292  0.0018
  598TMC3    O2 8873   4.271   4.527  15.530 -0.0843 -0.6071  0.0607
  599MPD2     C 8874   0.018   2.098  16.631 -0.2559 -0.2515  1.2879
  599MPD2    C1 8875   4.679   2.036  16.526 -0.4018  0.6416  0.9047
  599MPD2    C2 8876   4.562   2.093  16.475 -0.3769 -0.3118 -0.3722
  599MPD2    C3 8877   4.520   2.218  16.516  0.0628 -0.8624  0.5251
  599MPD2    C4 8878   4.598   2.285  16.608  0.1242  0.8233  0.1793
  599MPD2    C5 8879   4.708   2.223  16.662  0.2611  0.5264 -0.2675
  599MPD2     H 8880   4.525   2.047  16.385  1.6680  0.8131 -1.7789
  599MPD2    H1 8881   4.578   2.382  16.652  1.2246  0.7072  0.9243
  599MPD2    H2 8882   0.110   2.061  16.676  1.4698  2.7993  0.2969
  599MPD2    H3 8883   0.040   2.275  16.739  0.1588 -1.4805  1.1475
  599MPD2     N 8884   4.404   2.277  16.467 -0.1642 -0.7289 -0.4970
  599MPD2    H5 8885   4.390   2.367  16.512 -0.9711 -1.7042  1.2238
  599MPD2    N1 8886   4.719   1.900  16.499 -0.3643 -0.2009 -0.4812
  599MPD2    H7 8887   0.074   1.866  16.553 -1.4976  0.1350  1.3899
  600TMC3    C1 8888   4.169   2.266  16.408 -0.2641 -0.6071  0.4177
  600TMC3    C2 8889   4.068   2.174  16.407 -0.6808 -0.2702 -0.0474
  600TMC3    C3 8890   3.949   2.201  16.464  0.1965  0.0236 -0.5602
  600TMC3    C4 8891   4.148   2.392  16.463 -0.3916  0.9276  0.0312
  600TMC3    C5 8892   4.018   2.423  16.499 -0.0899 -0.2233  0.1425
  600TMC3    C6 8893   3.925   2.328  16.512  0.3911 -0.8656 -0.5655
  600TMC3     C 8894   4.309   2.216  16.385  0.8532  0.1740  0.3300
  600TMC3     O 8895   4.318   2.108  16.328  0.1266 -0.2346 -0.9015
  600TMC3     H 8896   4.087   2.082  16.353 -2.8105 -1.5218  1.3675
  600TMC3    H1 8897   4.230   2.461  16.442 -0.5291  0.7871 -0.9344
  600TMC3    H2 8898   3.829   2.358  16.555  0.3166 -1.1734 -0.5221
  600TMC3    C7 8899   3.988   2.546  16.561  0.3944 -0.0508  0.2388
  600TMC3    C8 8900   3.836   2.122  16.437  0.4730 -0.0039  1.0052
  600TMC3    O1 8901   3.915   2.546  16.658  0.1760  0.5991 -0.0224
  600TMC3    O2 8902   3.730   2.182  16.411  0.0114  0.6974 -0.0493
  601MPD2     C 8903   1.468   0.137   0.650  0.0954  0.2305 -0.4926
  601MPD2    C1 8904   1.398   0.114   0.536 -0.3508  0.0049  0.6092
  601MPD2    C2 8905   1.405   4.708   0.484 -0.4519 -0.4664  0.2130
  601MPD2    C3 8906   1.456   4.604   0.560  0.1626  0.6556 -0.0209
  601MPD2    C4 8907   1.525   4.631   0.676  0.4202  0.5591 -0.0587
  601MPD2    C5 8908   1.534   0.036   0.713 -0.5688 -0.2308 -0.6941
  601MPD2     H 8909   1.342   4.685   0.398 -0.4785 -1.8092  0.5933
  601MPD2    H1 8910   1.576   4.555   0.734 -0.5661 -0.0468 -0.0044
  601MPD2    H2 8911   1.479   0.235   0.694 -1.7769  0.4991 -0.6404
  601MPD2    H3 8912   1.592   0.060   0.802  0.2434  0.7776 -1.5042
  601MPD2     N 8913   1.455   4.466   0.522  0.5364  0.4124 -0.4466
  601MPD2    H5 8914   1.515   4.407   0.579 -1.9903 -0.1064  1.6427
  601MPD2    N1 8915   1.325   0.201   0.465 -0.3676  0.4578 -0.1938
  601MPD2    H7 8916   1.287   0.175   0.375  1.5161 -0.3597 -0.7463
  602TMC3    C1 8917   1.266   0.400   0.380 -0.2378  0.0960  0.3387
  602TMC3    C2 8918   1.317   0.526   0.346  0.2072 -0.0485  0.0470
  602TMC3    C3 8919   1.274   0.595   0.240  0.4987 -0.1781  0.7074
  602TMC3    C4 8920   1.163   0.350   0.300  0.5194  0.4959 -1.1328
  602TMC3    C5 8921   1.124   0.424   0.189  0.3448 -0.1533  0.4783
  602TMC3    C6 8922   1.178   0.551   0.154 -0.1530 -0.0774 -0.1927
  602TMC3     C 8923   1.331   0.331   0.488  0.6149 -0.0535  0.2411
  602TMC3     O 8924   1.406   0.399   0.559  0.0220  0.2803  0.7285
  602TMC3     H 8925   1.410   0.554   0.396 -0.6548 -0.3460  1.8035
  602TMC3    H1 8926   1.123   0.254   0.329 -1.3353  1.9237  0.9730
  602TMC3    H2 8927   1.125   0.618   0.088 -1.5156 -1.5284 -0.5796
  602TMC3    C7 8928   1.032   0.362   0.103 -0.0778  0.8366  0.4224
  602TMC3    C8 8929   1.355   0.708   0.205 -0.1175 -0.5706  0.1582
  602TMC3    O1 8930   0.960   0.272   0.141 -0.0325 -0.1247 -0.3932
  602TMC3    O2 8931   1.413   0.769   0.296 -0.2620 -0.6339 -0.4515
  603TMC3    C1 8932   4.521   0.255  11.210 -0.4788  0.2775 -0.4814
  603TMC3    C2 8933   4.542   0.265  11.343 -0.0697 -0.6787 -1.3080
  603TMC3    C3 8934   4.662   0.318  11.373  0.2752  0.1166  0.3933
  603TMC3    C4 8935   4.622   0.288  11.119  0.9378 -0.1491 -0.3204
  603TMC3    C5 8936   0.025   0.331  11.161  0.7507  0.0364 -0.3693
  603TMC3    C6 8937   0.049   0.336  11.293  0.3251 -0.2954  0.0640
  603TMC3     C 8938   4.393   0.222  11.151 -0.4080  0.0813  0.1474
  603TMC3     O 8939   4.397   0.172  11.037 -0.0083  0.3145 -0.0109
  603TMC3     H 8940   4.466   0.236  11.414  0.1893 -0.8328 -1.0935
  603TMC3    H1 8941   4.611   0.277  11.012 -2.0666  0.5869 -0.0842
  603TMC3    H2 8942   0.129   0.395  11.335 -0.6393 -0.1059  1.6660
  603TMC3    C7 8943   0.120   0.400  11.071  0.0164  0.8190  0.4789
  603TMC3    C8 8944   4.694   0.356  11.509 -0.0247 -0.6030  0.2517
  603TMC3    O1 8945   0.223   0.446  11.125  0.7487  0.1703 -0.3056
  603TMC3    O2 8946   0.085   0.342  11.546  0.0374 -0.6967  0.2510
  604MPD2     C 8947   0.695   4.333  16.650  0.1278 -0.3283 -0.9004
  604MPD2    C1 8948   0.580   4.284  16.592  0.7151  0.9727 -0.2659
  604MPD2    C2 8949   0.589   4.240  16.463  0.5287 -0.0425  0.0652
  604MPD2    C3 8950   0.705   4.234  16.393 -0.6388 -0.9910  0.5188
  604MPD2    C4 8951   0.820   4.270  16.456 -0.4457 -0.0670  0.2936
  604MPD2    C5 8952   0.813   4.329  16.577  0.6389 -0.1849  0.6828
  604MPD2     H 8953   0.498   4.214  16.410  1.0582 -0.4013 -0.6706
  604MPD2    H1 8954   0.916   4.275  16.406  0.2228  1.4837  1.7180
  604MPD2    H2 8955   0.700   4.363  16.754 -1.1117  0.1015 -0.9658
  604MPD2    H3 8956   0.905   4.366  16.619  2.5805 -1.8459 -2.1177
  604MPD2     N 8957   0.702   4.192  16.257 -0.6540 -0.1539  0.2176
  604MPD2    H5 8958   0.610   4.161  16.228 -1.0417  0.8363  0.3635
  604MPD2    N1 8959   0.467   4.281  16.675 -0.3497 -0.3784 -0.0893
  604MPD2    H7 8960   0.476   4.325  16.766  0.7359 -1.2652  0.2348
  605TMC3    C1 8961   0.244   4.267  16.758 -0.6374  0.0711 -0.5066
  605TMC3    C2 8962   0.290   4.321  16.872  0.3832  0.0596  0.4403
  605TMC3    C3 8963   0.209   4.401  16.937  0.1691 -0.2971  0.2095
  605TMC3    C4 8964   0.115   4.281  16.716  0.0280 -0.0857 -0.6340
  605TMC3    C5 8965   0.027   4.355  16.795 -0.0583 -0.4620 -0.7987
  605TMC3    C6 8966   0.078   4.423  16.902  0.3136 -0.1515 -0.7613
  605TMC3     C 8967   0.343   4.224  16.655  0.1366 -0.1075 -0.1222
  605TMC3     O 8968   0.290   4.168  16.558  0.2641  0.0914 -0.1158
  605TMC3     H 8969   0.385   4.300  16.920  0.3751 -0.2964  0.3063
  605TMC3    H1 8970   0.083   4.237  16.622  1.0841  0.5844 -1.3107
  605TMC3    H2 8971   0.023   4.499  16.956 -0.5025 -0.0663 -1.7237
  605TMC3    C7 8972   4.625   4.413  16.745 -0.5083 -0.6037  0.6668
  605TMC3    C8 8973   0.275   4.503  17.028 -0.0218 -0.0410 -0.0773
  605TMC3    O1 8974   4.586   4.523  16.782  0.1443  0.6063  0.6367
  605TMC3    O2 8975   0.216   4.566  17.114  0.1371 -0.8152  0.3151
  606TMC3    C1 8976   1.850   3.016  16.920  0.6345 -0.7343  0.1590
  606TMC3    C2 8977   1.868   3.112  17.013 -0.1580  0.1069 -0.0627
  606TMC3    C3 8978   1.894   3.069  17.138  0.5951  0.7188  0.2302
  606TMC3    C4 8979   1.863   2.881  16.945 -0.4410 -0.1832  0.2995
  606TMC3    C5 8980   1.901   2.844  17.073  0.6120 -0.4091 -0.5245
  606TMC3    C6 8981   1.907   2.935  17.175 -0.4924 -0.8521  0.1371
  606TMC3     C 8982   1.844   3.065  16.782 -0.9512 -0.7221  0.7948
  606TMC3     O 8983   1.831   3.189  16.775 -0.1898  0.0142 -0.9179
  606TMC3     H 8984   1.846   3.216  16.996 -2.8648 -0.5361 -0.3919
  606TMC3    H1 8985   1.839   2.805  16.871 -0.7206  0.8550 -0.6879
  606TMC3    H2 8986   1.908   2.903  17.279  1.0932 -0.3148  0.2920
  606TMC3    C7 8987   1.919   2.706  17.100 -0.1947  0.6201 -0.5453
  606TMC3    C8 8988   1.919   3.180  17.243 -0.1561  0.6011  0.1135
  606TMC3    O1 8989   1.955   2.643  17.004 -0.2739 -0.1203  0.1963
  606TMC3    O2 8990   1.891   3.295  17.228 -0.1344 -0.6289  0.2356
  607MPD2     C 8991   4.288   0.880  11.735 -0.2997  0.7686 -0.4146
  607MPD2    C1 8992   4.356   0.984  11.801 -0.6787 -0.1778 -0.6875
  607MPD2    C2 8993   4.318   1.018  11.932  0.1287 -0.3528 -0.4147
  607MPD2    C3 8994   4.212   0.949  11.996 -0.2478 -0.2219 -0.1488
  607MPD2    C4 8995   4.142   0.851  11.931  0.4650 -0.2455  0.0768
  607MPD2    C5 8996   4.182   0.817  11.802  0.9182  0.4848  0.1608
  607MPD2     H 8997   4.372   1.100  11.979  3.0358 -1.4312 -1.8842
  607MPD2    H1 8998   4.069   0.791  11.983 -1.4208  0.2049 -2.0452
  607MPD2    H2 8999   4.311   0.844  11.635 -0.9626  0.8679 -0.6093
  607MPD2    H3 9000   4.132   0.736  11.750  1.9932 -0.7033  0.9633
  607MPD2     N 9001   4.192   0.982  12.133 -0.5196 -0.3909 -0.2416
  607MPD2    H5 9002   4.249   1.058  12.168 -0.7914 -0.1149 -0.3924
  607MPD2    N1 9003   4.471   1.053  11.751 -0.1533  0.1996 -0.3180
  607MPD2    H7 9004   4.501   1.122  11.819  1.4085  0.1835 -0.9936
  608TMC3    C1 9005   4.655   1.106  11.617  0.6013 -0.2835  0.3718
  608TMC3    C2 9006   4.720   1.137  11.732 -0.2014  0.1188  0.4104
  608TMC3    C3 9007   0.092   1.236  11.723  0.5157  0.0330 -0.1690
  608TMC3    C4 9008   4.683   1.172  11.496 -0.0907 -0.7225  0.1620
  608TMC3    C5 9009   0.059   1.268  11.496 -0.1480  0.4673 -0.9078
  608TMC3    C6 9010   0.134   1.305  11.609 -0.2571  0.1397  0.0239
  608TMC3     C 9011   4.529   1.032  11.632  0.9363  0.2612 -0.1967
  608TMC3     O 9012   4.494   0.953  11.544 -0.1493  0.8126  0.5739
  608TMC3     H 9013   4.695   1.086  11.825 -1.5027 -0.7226 -0.4128
  608TMC3    H1 9014   4.629   1.145  11.406 -1.0210  2.5730 -0.2799
  608TMC3    H2 9015   0.209   1.383  11.604  0.6816 -0.6182  2.2180
  608TMC3    C7 9016   0.095   1.326  11.361 -0.7769 -0.0915 -0.2205
  608TMC3    C8 9017   0.141   1.287  11.854  0.0374  0.6971  0.0774
  608TMC3    O1 9018   0.067   1.255  11.261 -0.0520 -0.1521  1.0154
  608TMC3    O2 9019   0.256   1.319  11.868 -0.2486  0.1912 -0.0872
  609TMC3    C1 9020   3.117   4.622   9.526  0.2118  0.3076  0.2067
  609TMC3    C2 9021   3.106   4.700   9.409 -0.6511 -0.3776 -0.1999
  609TMC3    C3 9022   3.215   4.700   9.324 -0.1587 -0.0284 -0.4609
  609TMC3    C4 9023   3.220   4.536   9.546  0.1484 -0.3473 -0.1113
  609TMC3    C5 9024   3.323   4.527   9.449  0.4785  0.4175  0.2173
  609TMC3    C6 9025   3.319   4.608   9.339 -0.5770 -0.0937 -0.5861
  609TMC3     C 9026   3.002   4.608   9.610  0.5666  0.4546 -0.1478
  609TMC3     O 9027   2.900   4.623   9.548 -0.0085 -0.0880 -0.1874
  609TMC3     H 9028   3.025   0.046   9.418  2.3989  3.3491 -2.0244
  609TMC3    H1 9029   3.222   4.484   9.641  0.8184  1.0055  0.6177
  609TMC3    H2 9030   3.396   4.607   9.262  2.1087  2.1027  2.0742
  609TMC3    C7 9031   3.434   4.439   9.475  0.2329 -0.1630  1.2593
  609TMC3    C8 9032   3.209   0.042   9.199 -0.4127  0.6678 -0.5175
  609TMC3    O1 9033   3.436   4.403   9.592 -0.1831  0.3154 -0.2650
  609TMC3    O2 9034   3.314   0.064   9.141  0.6186 -0.0190  0.1477
  610TMC3    C1 9035   4.558   0.693  12.884 -0.1873 -0.3764  0.1985
  610TMC3    C2 9036   4.647   0.727  12.783  0.1821  0.0991 -0.3493
  610TMC3    C3 9037   0.010   0.630  12.744  0.4192  0.2268 -0.4751
  610TMC3    C4 9038   4.562   0.583  12.945  0.0294  0.0968  0.5396
  610TMC3    C5 9039   4.655   0.485  12.898  0.2728 -0.2311  0.5647
  610TMC3    C6 9040   0.027   0.510  12.801  0.0081 -0.7741  0.1118
  610TMC3     C 9041   4.447   0.779  12.909 -0.3529  0.4774  1.0711
  610TMC3     O 9042   4.336   0.726  12.929  0.2931  0.3748  0.3951
  610TMC3     H 9043   4.661   0.829  12.748  0.1760 -0.0567 -0.8054
  610TMC3    H1 9044   4.505   0.572  13.036 -1.1826  0.1538 -0.2084
  610TMC3    H2 9045   0.094   0.434  12.763 -0.3007 -2.0876  2.1950
  610TMC3    C7 9046   4.685   0.376  12.983 -0.4403  0.2270  0.2027
  610TMC3    C8 9047   0.119   0.662  12.656 -0.1961 -0.1255 -0.1014
  610TMC3    O1 9048   0.074   0.345  12.962 -0.0738  0.6121 -1.1451
  610TMC3    O2 9049   0.220   0.593  12.652  0.8626 -0.6673  0.1200
  611MPD2     C 9050   3.931   0.730   9.979  0.0544  0.1970  0.7944
  611MPD2    C1 9051   3.975   0.647  10.081 -0.0395 -0.3503  0.1837
  611MPD2    C2 9052   4.111   0.633  10.102 -0.2646  1.3046  0.1783
  611MPD2    C3 9053   4.200   0.720  10.040  0.0910  0.4175 -0.0721
  611MPD2    C4 9054   4.151   0.801   9.941 -0.4959  0.0384  0.6207
  611MPD2    C5 9055   4.019   0.802   9.906  0.3341 -0.5007  0.4334
  611MPD2     H 9056   4.149   0.569  10.180  0.3519 -1.7575 -2.6388
  611MPD2    H1 9057   4.224   0.861   9.889  0.4967 -1.8283 -0.1329
  611MPD2    H2 9058   3.825   0.734   9.961 -0.0427 -0.7273  1.2040
  611MPD2    H3 9059   3.989   0.870   9.827  0.2957  1.2240  1.9495
  611MPD2     N 9060   4.332   0.735  10.076  0.1905  0.0036 -0.8691
  611MPD2    H5 9061   4.371   0.815  10.028  2.9734  0.1497  1.6140
  611MPD2    N1 9062   3.882   0.570  10.151  0.2206  0.4363  0.5834
  611MPD2    H7 9063   3.787   0.582  10.117  0.6229  0.0021 -0.6995
  612TMC3    C1 9064   4.530   0.714  10.192  0.6433  0.0902  0.1892
  612TMC3    C2 9065   4.605   0.696  10.305  0.2914  0.2779 -0.1962
  612TMC3    C3 9066   0.012   0.741  10.304  0.9755  0.2156  0.4078
  612TMC3    C4 9067   4.580   0.782  10.084  0.6760  0.5607 -0.1226
  612TMC3    C5 9068   4.702   0.832  10.090  0.3305 -0.1713 -0.0818
  612TMC3    C6 9069   0.063   0.814  10.198  0.3394 -0.1649  0.5111
  612TMC3     C 9070   4.395   0.667  10.177  0.6773  0.2293  0.0821
  612TMC3     O 9071   4.351   0.584  10.254  0.1949 -0.5056  0.4252
  612TMC3     H 9072   4.564   0.644  10.391 -0.3588  2.5001  0.8312
  612TMC3    H1 9073   4.527   0.794   9.990 -1.5282  0.1061  1.0598
  612TMC3    H2 9074   0.166   0.848  10.199 -0.0423  1.1066 -1.9656
  612TMC3    C7 9075   0.028   0.901   9.980 -0.1804 -0.1177  1.0157
  612TMC3    C8 9076   0.083   0.749  10.428  0.4902  0.0614  0.1841
  612TMC3    O1 9077   0.002   0.863   9.865 -0.1948 -0.6994  0.9085
  612TMC3    O2 9078   0.159   0.850  10.441  0.5463 -0.4107  0.3536
  613MPD2     C 9079   2.764   2.618  16.747  0.6707  0.3480 -0.6546
  613MPD2    C1 9080   2.671   2.662  16.651 -0.0521  0.5935  0.0032
  613MPD2    C2 9081   2.585   2.574  16.592 -0.0616  0.4859 -0.5961
  613MPD2    C3 9082   2.586   2.436  16.632  0.2070 -0.4080  0.2590
  613MPD2    C4 9083   2.663   2.404  16.745  0.3545 -0.3354 -0.1809
  613MPD2    C5 9084   2.757   2.488  16.794  0.2158  0.7459  0.1332
  613MPD2     H 9085   2.508   2.609  16.523 -1.4153 -0.3207  0.5036
  613MPD2    H1 9086   2.669   2.301  16.776 -1.0409 -1.1323 -2.6154
  613MPD2    H2 9087   2.833   2.687  16.794  0.7165 -1.0578  1.3183
  613MPD2    H3 9088   2.818   2.456  16.878  0.8436  0.7138 -0.3377
  613MPD2     N 9089   2.527   2.331  16.564  0.6437  0.0260  0.3868
  613MPD2    H5 9090   2.542   2.235  16.593  0.3660 -1.2280 -3.5695
  613MPD2    N1 9091   2.690   2.793  16.597  0.0265 -0.5938  0.4908
  613MPD2    H7 9092   2.774   2.839  16.631 -0.3878  1.5132 -1.3599
  614TMC3    C1 9093   2.703   2.947  16.432  0.4931  0.1636 -0.4500
  614TMC3    C2 9094   2.815   2.880  16.385 -0.2672 -0.1186 -0.6081
  614TMC3    C3 9095   2.839   2.880  16.249 -0.2549  0.4581 -0.1054
  614TMC3    C4 9096   2.622   3.016  16.341 -0.0249  0.8962  0.9588
  614TMC3    C5 9097   2.652   3.014  16.209  0.4802  0.0246  1.1534
  614TMC3    C6 9098   2.763   2.952  16.161  0.2157  0.1120  0.0491
  614TMC3     C 9099   2.613   2.859  16.507  0.2830  0.7543 -0.7700
  614TMC3     O 9100   2.500   2.837  16.469  0.0007 -0.8245 -0.2885
  614TMC3     H 9101   2.880   2.823  16.450 -1.8370 -1.1454  0.0713
  614TMC3    H1 9102   2.529   3.054  16.382 -0.1941  1.9531 -0.4358
  614TMC3    H2 9103   2.791   2.964  16.057  2.9833 -0.5438  0.7297
  614TMC3    C7 9104   2.581   3.106  16.134 -0.0136 -0.7639  0.5112
  614TMC3    C8 9105   2.875   2.744  16.216 -0.5007 -0.3099  0.1148
  614TMC3    O1 9106   2.547   3.208  16.196  0.1935 -0.5233  0.7912
  614TMC3    O2 9107   2.851   2.662  16.302 -0.0628  0.2070  0.0327
  615MPD2     C 9108   2.225   4.612  15.825  0.4127 -0.0405 -0.3746
  615MPD2    C1 9109   2.191   4.533  15.928 -0.3666 -0.5679 -0.2120
  615MPD2    C2 9110   2.112   4.411  15.901 -0.2614 -0.4437 -0.5899
  615MPD2    C3 9111   2.076   4.388  15.768  0.0881 -0.0021  0.4675
  615MPD2    C4 9112   2.101   4.481  15.673 -0.5172  0.4224 -0.5333
  615MPD2    C5 9113   2.186   4.587  15.700 -0.1044 -0.1447  0.0443
  615MPD2     H 9114   2.083   4.349  15.985 -0.7885 -0.6146 -0.8976
  615MPD2    H1 9115   2.072   4.462  15.570 -0.6463  0.1962 -0.4543
  615MPD2    H2 9116   2.274   4.707  15.842  1.5770 -1.0756  2.1844
  615MPD2    H3 9117   2.206   4.652  15.615 -1.1851  0.5735  0.3353
  615MPD2     N 9118   1.991   4.284  15.732 -0.0998  0.2932  0.1084
  615MPD2    H5 9119   1.967   4.291  15.634 -1.7543  0.3372  0.5031
  615MPD2    N1 9120   2.212   4.569  16.061 -0.3482 -0.1294 -0.3901
  615MPD2    H7 9121   2.182   4.498  16.127  1.4297 -0.2102  0.3249
  616TMC3    C1 9122   2.288   4.669  16.252 -0.2681 -0.5327  0.0401
  616TMC3    C2 9123   2.339   4.559  16.307  0.0569 -1.2142  0.1142
  616TMC3    C3 9124   2.365   4.563  16.447  0.3989  0.7061  0.1702
  616TMC3    C4 9125   2.252   0.058  16.322  0.3636  0.4923  0.6807
  616TMC3    C5 9126   2.282   0.056  16.455 -0.5416  0.1278  0.2971
  616TMC3    C6 9127   2.344   4.680  16.523  0.3514  0.0539  0.2262
  616TMC3     C 9128   2.272   4.680  16.110  0.0056  0.0712 -0.3060
  616TMC3     O 9129   2.320   0.058  16.055  0.0137  0.3228 -0.7560
  616TMC3     H 9130   2.382   4.482  16.244  2.0734  0.0231 -0.0344
  616TMC3    H1 9131   2.201   0.141  16.274 -1.2702 -1.5675 -1.1566
  616TMC3    H2 9132   2.371   4.688  16.628  1.3643 -2.0105  0.1293
  616TMC3    C7 9133   2.263   0.178  16.534  0.3519  0.2371  0.2654
  616TMC3    C8 9134   2.457   4.460  16.498  0.0395  0.0349  0.4744
  616TMC3    O1 9135   2.344   0.202  16.625 -0.1551 -0.3817  0.3529
  616TMC3    O2 9136   2.465   4.357  16.433  0.2718  0.2615  0.8125
  617MPD2     C 9137   0.721   2.822  14.092  0.5790  0.7159  0.1191
  617MPD2    C1 9138   0.669   2.762  14.201  0.1917 -0.1828 -0.1660
  617MPD2    C2 9139   0.537   2.730  14.208  0.4825  0.4666 -0.2266
  617MPD2    C3 9140   0.452   2.745  14.102  0.4571  0.4184 -0.0805
  617MPD2    C4 9141   0.503   2.797  13.988  0.9226  0.3450 -0.4973
  617MPD2    C5 9142   0.635   2.839  13.984  0.0084 -0.4734 -0.7680
  617MPD2     H 9143   0.500   2.682  14.298 -0.2980 -1.0527 -1.3409
  617MPD2    H1 9144   0.438   2.818  13.903  0.3504  0.8394  0.0584
  617MPD2    H2 9145   0.824   2.851  14.076  1.2536 -1.6596  0.2160
  617MPD2    H3 9146   0.667   2.887  13.893 -1.1597  1.4368 -0.1709
  617MPD2     N 9147   0.317   2.706  14.105  0.5938 -0.4022  0.0068
  617MPD2    H5 9148   0.267   2.727  14.019  1.2704  0.4712 -0.1687
  617MPD2    N1 9149   0.767   2.717  14.295 -0.1977  0.1357  0.5415
  617MPD2    H7 9150   0.865   2.730  14.270 -0.8385  0.2190 -1.9690
  618TMC3    C1 9151   0.881   2.622  14.471 -0.1112 -0.1123  0.1927
  618TMC3    C2 9152   0.910   2.501  14.524 -0.0181  0.4786  0.3167
  618TMC3    C3 9153   1.024   2.496  14.597 -0.1039  0.8702 -0.0338
  618TMC3    C4 9154   0.957   2.738  14.488 -0.5514 -0.2161  0.2955
  618TMC3    C5 9155   1.069   2.719  14.564 -1.0136  0.9658  0.0566
  618TMC3    C6 9156   1.104   2.600  14.614  0.3083 -0.3628  0.4150
  618TMC3     C 9157   0.752   2.633  14.397 -0.0326  0.0933 -0.1039
  618TMC3     O 9158   0.650   2.577  14.434  0.5133  0.1144 -0.6942
  618TMC3     H 9159   0.860   2.407  14.508  1.0808  0.3767 -2.4189
  618TMC3    H1 9160   0.922   2.835  14.453 -0.1477 -0.7675 -1.6496
  618TMC3    H2 9161   1.207   2.598  14.648  0.4363 -1.6378 -0.0258
  618TMC3    C7 9162   1.164   2.834  14.570 -0.3108  0.1224 -0.2197
  618TMC3    C8 9163   1.078   2.368  14.621 -0.1643  0.4319 -0.0207
  618TMC3    O1 9164   1.112   2.935  14.617 -0.5988  0.0018  0.1897
  618TMC3    O2 9165   0.999   2.276  14.641  0.0374  0.6950 -0.2781
  619MPD2     C 9166   2.041   3.807  13.491  0.1853  0.0541 -0.3409
  619MPD2    C1 9167   1.985   3.928  13.452  0.2295  0.0597  0.0725
  619MPD2    C2 9168   1.850   3.950  13.474  0.4616 -0.3190  0.0013
  619MPD2    C3 9169   1.766   3.855  13.540  0.2208 -0.6127 -0.4130
  619MPD2    C4 9170   1.822   3.732  13.576  0.4542 -0.1615 -0.6240
  619MPD2    C5 9171   1.962   3.717  13.554  0.1103  0.2527 -0.1267
  619MPD2     H 9172   1.816   4.052  13.456 -2.2666 -1.0791  0.8048
  619MPD2    H1 9173   1.769   3.659  13.636  1.6894  0.6268  1.4231
  619MPD2    H2 9174   2.144   3.780  13.473  0.8318  3.1123 -1.2795
  619MPD2    H3 9175   2.006   3.623  13.587  2.0248  0.4657 -2.0944
  619MPD2     N 9176   1.633   3.875  13.584 -0.5236 -0.1174 -0.3367
  619MPD2    H5 9177   1.581   3.794  13.616  1.1884 -0.1513  2.2842
  619MPD2    N1 9178   2.061   4.030  13.395  0.4895  0.6734  0.4707
  619MPD2    H7 9179   2.003   4.104  13.357  0.2316 -0.1745 -0.7982
  620TMC3    C1 9180   2.229   4.140  13.299 -0.3028 -0.1010 -1.1131
  620TMC3    C2 9181   2.136   4.183  13.212 -1.0925  0.0173 -0.0317
  620TMC3    C3 9182   2.137   4.314  13.182 -0.5260  0.4594 -0.5357
  620TMC3    C4 9183   2.335   4.219  13.338  0.4976  0.1909  0.4915
  620TMC3    C5 9184   2.333   4.352  13.308 -0.1933 -0.6847  0.2330
  620TMC3    C6 9185   2.237   4.399  13.220  0.1789 -0.2336 -1.1761
  620TMC3     C 9186   2.200   4.035  13.386  0.6209 -0.8277 -0.2139
  620TMC3     O 9187   2.286   3.983  13.457 -0.2423  0.4635 -0.2539
  620TMC3     H 9188   2.062   4.119  13.166 -1.5999  0.3040  0.3868
  620TMC3    H1 9189   2.412   4.182  13.405 -2.8040 -3.5131  2.2193
  620TMC3    H2 9190   2.223   4.507  13.212 -2.1046 -0.7320 -3.8241
  620TMC3    C7 9191   2.324   4.435  13.422 -0.1282 -0.7156 -0.1474
  620TMC3    C8 9192   2.010   4.350  13.239 -0.1995 -0.2372  0.2507
  620TMC3    O1 9193   2.317   4.556  13.401  0.0036  0.2136  0.0629
  620TMC3    O2 9194   1.952   4.265  13.310  0.5931 -0.4960  0.0518
  621MPD2     C 9195   1.968   4.413  11.253  0.1652 -0.0236 -0.2776
  621MPD2    C1 9196   2.029   4.299  11.209 -0.0071  0.3223  0.7112
  621MPD2    C2 9197   2.049   4.287  11.071  0.4208 -0.1535  0.0745
  621MPD2    C3 9198   2.020   4.388  10.978 -0.3662 -0.1939  0.7197
  621MPD2    C4 9199   1.969   4.505  11.025  0.0607  1.1125  0.3180
  621MPD2    C5 9200   1.938   4.513  11.162 -0.3887 -0.4953  0.0716
  621MPD2     H 9201   2.090   4.191  11.040  0.0319 -0.1248 -0.5182
  621MPD2    H1 9202   1.947   4.591  10.963  0.4680  2.4412  2.0108
  621MPD2    H2 9203   1.950   4.433  11.358  0.3922 -2.7821  0.2813
  621MPD2    H3 9204   1.879   4.592  11.207 -1.1621 -1.7751  1.3163
  621MPD2     N 9205   2.055   4.365  10.841 -0.6874 -0.1224 -0.4927
  621MPD2    H5 9206   2.112   4.284  10.819 -0.4162  0.1611 -0.8363
  621MPD2    N1 9207   2.066   4.196  11.286  0.1605  0.1585  0.1490
  621MPD2    H7 9208   2.082   4.109  11.235 -1.9880  0.4187 -0.9546
  622TMC3    C1 9209   2.026   4.047  11.462  0.9088 -0.4700 -0.5359
  622TMC3    C2 9210   1.904   4.019  11.509 -0.2687  0.4633  0.3866
  622TMC3    C3 9211   1.868   3.885  11.515  0.1761 -0.0365 -0.0222
  622TMC3    C4 9212   2.125   3.961  11.439  0.4565 -0.3082 -0.0397
  622TMC3    C5 9213   2.091   3.832  11.458 -0.0402  0.0916  0.0453
  622TMC3    C6 9214   1.972   3.797  11.509  0.3080  0.5404  0.1134
  622TMC3     C 9215   2.034   4.187  11.421 -0.5204 -0.2123 -0.5862
  622TMC3     O 9216   1.993   4.267  11.509 -0.5679  0.1856  0.1536
  622TMC3     H 9217   1.830   4.098  11.500 -1.6700 -0.7421  1.2760
  622TMC3    H1 9218   2.223   3.990  11.403 -0.4443  0.9733 -1.4796
  622TMC3    H2 9219   1.951   3.690  11.505 -0.1126  0.5859  1.1247
  622TMC3    C7 9220   2.186   3.730  11.416 -0.1909  0.2172  0.3740
  622TMC3    C8 9221   1.769   3.847  11.421  0.8292  0.9819 -0.1699
  622TMC3    O1 9222   2.187   3.620  11.474 -0.4241  0.3782  0.4646
  622TMC3    O2 9223   1.724   3.731  11.436  0.0087 -0.4913  0.6021
  623MPD2     C 9224   0.552   4.528  15.906  0.1431 -0.0443 -0.6304
  623MPD2    C1 9225   0.510   4.481  16.027 -0.3373  0.0238  0.6369
  623MPD2    C2 9226   0.593   4.499  16.139  0.1745  0.3985  0.9379
  623MPD2    C3 9227   0.720   4.547  16.130  0.0975  0.3611 -0.0388
  623MPD2    C4 9228   0.758   4.584  16.005  0.1045  0.1808  0.8637
  623MPD2    C5 9229   0.677   4.574  15.895  0.1918 -0.8016  0.2133
  623MPD2     H 9230   0.565   4.457  16.235  2.3373  1.5892  2.0945
  623MPD2    H1 9231   0.861   4.619  15.995  0.0878  0.0386  0.1457
  623MPD2    H2 9232   0.492   4.522  15.817 -0.8751  0.7197  0.0049
  623MPD2    H3 9233   0.714   4.617  15.803  0.0912 -1.1832 -0.0032
  623MPD2     N 9234   0.789   4.569  16.248  0.3908 -0.1893 -0.3969
  623MPD2    H5 9235   0.733   4.572  16.333  1.9662 -4.9369  0.7827
  623MPD2    N1 9236   0.380   4.429  16.036 -0.2691  0.7509 -0.2957
  623MPD2    H7 9237   0.310   4.468  15.974 -0.7869  0.1852 -0.0605
  624TMC3    C1 9238   1.110   4.615  16.579 -0.0802 -0.3700  0.1863
  624TMC3    C2 9239   1.013   4.662  16.668 -0.8535 -0.0939  1.0023
  624TMC3    C3 9240   0.891   4.693  16.615 -0.0828  0.0508  0.1121
  624TMC3    C4 9241   1.087   4.597  16.446  0.7721 -0.7279  0.1049
  624TMC3    C5 9242   0.963   4.631  16.401 -0.0372  0.1863  0.7028
  624TMC3    C6 9243   0.866   4.682  16.480 -0.0535  1.1609  0.2685
  624TMC3     C 9244   1.249   4.629  16.636  0.4654 -0.0634  0.6255
  624TMC3     O 9245   1.256   4.613  16.757 -0.0746 -0.4997 -0.3488
  624TMC3     H 9246   1.047   4.680  16.769  0.0298  1.8271  0.3545
  624TMC3    H1 9247   1.165   4.545  16.391  2.8541  0.8736  1.5436
  624TMC3    H2 9248   0.769   4.713  16.442 -1.4198 -1.7870  1.2943
  624TMC3    C7 9249   0.926   4.595  16.266  0.3346 -0.1839  0.2724
  624TMC3    C8 9250   0.782   4.695  16.707 -0.9335 -0.6974  0.2848
  624TMC3    O1 9251   1.015   4.569  16.186 -0.1309  0.2604  0.1363
  624TMC3    O2 9252   0.679   4.666  16.653  0.2780  0.4843  0.4093
  625MPD2     C 9253   0.971   1.626   1.436 -0.3483 -0.1233 -0.1015
  625MPD2    C1 9254   1.047   1.675   1.332  0.4086 -0.7252  0.2832
  625MPD2    C2 9255   1.181   1.661   1.340  0.5172  0.1806  1.0161
  625MPD2    C3 9256   1.251   1.589   1.424  0.4940  0.4995 -0.4351
  625MPD2    C4 9257   1.176   1.519   1.516  0.3436  0.0230 -0.3548
  625MPD2    C5 9258   1.040   1.545   1.521  0.2990  0.1198 -0.1642
  625MPD2     H 9259   1.238   1.718   1.267  1.2561  0.6308  1.9421
  625MPD2    H1 9260   1.213   1.464   1.601 -0.4912 -0.7457 -0.4823
  625MPD2    H2 9261   0.866   1.649   1.449  0.0851  0.6699  1.8991
  625MPD2    H3 9262   0.982   1.498   1.600 -0.8805  2.0536  0.1236
  625MPD2     N 9263   1.391   1.587   1.409  0.3521  0.3862  0.4833
  625MPD2    H5 9264   1.435   1.657   1.350  0.7342  0.7059  1.1545
  625MPD2    N1 9265   0.997   1.752   1.227  0.2251  0.8940  0.2962
  625MPD2    H7 9266   1.065   1.794   1.165  0.4697  1.1859  0.7590
  626TMC3    C1 9267   0.835   1.852   1.099  0.9675  0.2783 -0.3934
  626TMC3    C2 9268   0.872   1.777   0.987  0.0267  0.6472 -0.8350
  626TMC3    C3 9269   0.800   1.795   0.874 -0.4150  0.7195 -0.5607
  626TMC3    C4 9270   0.724   1.940   1.096 -0.8534 -0.7221 -0.9723
  626TMC3    C5 9271   0.653   1.948   0.976 -0.2384  0.5083  0.3958
  626TMC3    C6 9272   0.698   1.886   0.870 -0.5904 -0.1132  0.8613
  626TMC3     C 9273   0.869   1.797   1.224  0.2022  0.3407  0.2543
  626TMC3     O 9274   0.777   1.803   1.307  0.5310  0.2131  0.4487
  626TMC3     H 9275   0.957   1.710   0.996 -1.5555 -1.3759 -1.0054
  626TMC3    H1 9276   0.689   1.995   1.184  2.2203  0.5738 -0.5780
  626TMC3    H2 9277   0.642   1.903   0.778  0.4130  1.7262  0.6034
  626TMC3    C7 9278   0.526   2.013   0.980 -0.8245  0.6500 -0.3096
  626TMC3    C8 9279   0.832   1.735   0.746 -0.5619  0.2419 -0.2359
  626TMC3    O1 9280   0.514   2.106   1.056 -0.3416  0.6746 -0.3936
  626TMC3    O2 9281   0.830   1.808   0.649  0.5142  0.6104 -0.3099
  627MPD2     C 9282   4.566   1.430  14.540 -0.1016  0.0960 -0.5826
  627MPD2    C1 9283   4.627   1.395  14.661  0.4479 -0.1746  0.8462
  627MPD2    C2 9284   4.570   1.289  14.732  0.2442  0.7870 -0.5346
  627MPD2    C3 9285   4.475   1.202  14.687 -0.6918 -0.5828  0.5233
  627MPD2    C4 9286   4.422   1.237  14.558 -0.1086 -0.6969  0.6961
  627MPD2    C5 9287   4.476   1.340  14.482  0.6172  0.3998 -0.1040
  627MPD2     H 9288   4.609   1.261  14.829 -0.7997  0.5328 -0.1822
  627MPD2    H1 9289   4.338   1.189  14.509  0.9870  0.1170 -1.9341
  627MPD2    H2 9290   4.584   1.521  14.485 -0.1901  0.7703  0.5019
  627MPD2    H3 9291   4.431   1.359  14.385  0.6762  0.9701 -0.0219
  627MPD2     N 9292   4.424   1.100  14.766  0.5050  0.5273 -0.6357
  627MPD2    H5 9293   4.457   1.092  14.862  3.0083  0.8310 -1.4872
  627MPD2    N1 9294   4.717   1.484  14.736 -0.1490 -0.1091  0.1008
  627MPD2    H7 9295   0.025   1.452  14.826 -2.2076  1.6213  1.4598
  628TMC3    C1 9296   0.139   1.653  14.777 -0.4154  0.2131 -0.3134
  628TMC3    C2 9297   0.241   1.583  14.828  0.0836 -0.0538  0.7386
  628TMC3    C3 9298   0.344   1.655  14.891  0.1189 -0.0558 -0.7060
  628TMC3    C4 9299   0.133   1.788  14.779  0.9846 -0.8202 -0.2149
  628TMC3    C5 9300   0.231   1.857  14.849  0.4944  0.6038 -0.5083
  628TMC3    C6 9301   0.340   1.795  14.905  0.0689  0.4582 -0.5407
  628TMC3     C 9302   0.051   1.594  14.678 -0.5858  0.0505  0.0501
  628TMC3     O 9303   0.035   1.640  14.565 -0.2087  0.5890 -0.1757
  628TMC3     H 9304   0.239   1.475  14.831 -0.5796 -0.0300  1.2779
  628TMC3    H1 9305   0.045   1.834  14.737  1.1925 -0.4596 -0.2624
  628TMC3    H2 9306   0.423   1.849  14.949 -0.3460  0.2587  0.4887
  628TMC3    C7 9307   0.206   1.996  14.879 -0.1663  0.2003 -0.4489
  628TMC3    C8 9308   0.436   1.578  14.963 -0.6881 -0.0091 -0.3587
  628TMC3    O1 9309   0.293   2.054  14.946  0.3979 -0.3990 -0.6638
  628TMC3    O2 9310   0.404   1.465  14.992  0.1969  0.2697 -0.6789
  629MPD2     C 9311   2.868   4.330  16.778  0.3223 -0.1497  0.6283
  629MPD2    C1 9312   2.851   4.466  16.790  0.8583  0.2375  0.5389
  629MPD2    C2 9313   2.734   4.521  16.739  0.0755 -0.1431  0.1642
  629MPD2    C3 9314   2.647   4.440  16.663 -0.5564 -0.1031  0.6622
  629MPD2    C4 9315   2.679   4.304  16.637  0.0528  0.4488 -0.9055
  629MPD2    C5 9316   2.785   4.251  16.702 -0.2467 -0.1420  0.3194
  629MPD2     H 9317   2.715   4.627  16.742 -3.0482 -0.7026  0.2882
  629MPD2    H1 9318   2.622   4.246  16.566 -1.3389  0.3132  0.3172
  629MPD2    H2 9319   2.953   4.272  16.812  2.1117  2.1541  0.0299
  629MPD2    H3 9320   2.807   4.146  16.692 -0.5763  0.0208 -2.1093
  629MPD2     N 9321   2.539   4.509  16.599 -0.0619 -0.0037 -0.1241
  629MPD2    H5 9322   2.521   4.607  16.617 -1.4871  0.2386 -2.8525
  629MPD2    N1 9323   2.951   4.543  16.847  0.8487 -0.5701 -0.6562
  629MPD2    H7 9324   3.029   4.493  16.889  0.7123  1.4535  1.9589
  630TMC3    C1 9325   3.104   4.716  16.839  0.2188  0.2223  0.1601
  630TMC3    C2 9326   3.137   0.098  16.755  0.0276 -0.0520 -0.0669
  630TMC3    C3 9327   3.268   0.117  16.727  1.6906  0.0237 -0.6510
  630TMC3    C4 9328   3.201   4.635  16.896 -0.4047  0.7575  0.2140
  630TMC3    C5 9329   3.332   4.666  16.877  0.4003 -0.8130  0.2604
  630TMC3    C6 9330   3.362   0.042  16.781  0.5150  0.3949 -0.1486
  630TMC3     C 9331   2.966   4.675  16.834 -0.2925 -0.3465  0.3708
  630TMC3     O 9332   2.889   0.029  16.786  0.5418 -0.1554  0.0297
  630TMC3     H 9333   3.054   0.152  16.712  0.3034 -1.1340 -1.9658
  630TMC3    H1 9334   3.165   4.579  16.981 -3.0754 -0.2850 -1.5805
  630TMC3    H2 9335   3.466   0.049  16.752 -0.0312  3.3380 -1.3792
  630TMC3    C7 9336   3.394   4.698  17.002 -0.4379  0.0912 -0.1988
  630TMC3    C8 9337   3.324   0.253  16.711  0.1987  0.5273  0.5541
  630TMC3    O1 9338   3.394   4.609  17.086 -0.3827 -0.2565 -0.4967
  630TMC3    O2 9339   3.426   0.286  16.768  0.3087  0.1699  0.4441
  631MPD2     C 9340   1.055   4.543  15.794  0.0517 -0.8726 -0.7744
  631MPD2    C1 9341   1.157   4.601  15.716  0.2881  0.4850  0.5602
  631MPD2    C2 9342   1.279   4.539  15.699 -0.0694  0.1485  0.8463
  631MPD2    C3 9343   1.292   4.418  15.757  0.1844 -0.7881  0.6430
  631MPD2    C4 9344   1.186   4.353  15.815  0.1476 -0.2515  0.0172
  631MPD2    C5 9345   1.064   4.412  15.835 -0.7204 -0.4978  0.0215
  631MPD2     H 9346   1.364   4.571  15.642 -0.2740 -1.8172 -0.5683
  631MPD2    H1 9347   1.205   4.248  15.835  0.2648  0.1115  1.7800
  631MPD2    H2 9348   0.958   4.592  15.794  0.9445  0.9118 -0.7873
  631MPD2    H3 9349   0.980   4.356  15.873 -0.4982 -0.2224  0.9221
  631MPD2     N 9350   1.415   4.353  15.733  0.7298  0.1910 -0.2992
  631MPD2    H5 9351   1.476   4.399  15.666 -0.7446  1.8856 -0.5038
  631MPD2    N1 9352   1.120   0.002  15.661  0.2493 -0.2394 -0.3659
  631MPD2    H7 9353   1.026   0.038  15.676  0.1018 -1.0172  0.6031
  632TMC3    C1 9354   1.143   0.211  15.553 -0.3463  0.0183  0.4000
  632TMC3    C2 9355   1.078   0.282  15.653  0.6492 -0.2690 -0.0817
  632TMC3    C3 9356   1.063   0.417  15.640 -0.8002  0.1955  0.3077
  632TMC3    C4 9357   1.190   0.279  15.444 -0.0809  0.0460 -0.3560
  632TMC3    C5 9358   1.170   0.413  15.430 -0.4587  0.5954  0.3654
  632TMC3    C6 9359   1.116   0.487  15.531  0.3155 -1.1442  0.4255
  632TMC3     C 9360   1.206   0.079  15.585 -0.0294 -0.0051  0.6589
  632TMC3     O 9361   1.311   0.044  15.529  0.4293  0.0022 -0.7024
  632TMC3     H 9362   1.055   0.227  15.743 -1.5092  0.1831 -0.3664
  632TMC3    H1 9363   1.241   0.230  15.362  1.1858  3.3405 -1.5562
  632TMC3    H2 9364   1.102   0.594  15.524  1.5763 -1.1762 -2.3501
  632TMC3    C7 9365   1.266   0.479  15.345  0.0999  0.5402  0.2118
  632TMC3    C8 9366   1.051   0.486  15.773  0.5841  0.6301 -1.0895
  632TMC3    O1 9367   1.307   0.589  15.391 -0.0902 -0.8800  0.1257
  632TMC3    O2 9368   1.005   0.411  15.861  0.4150  0.4099  0.3129
  633MPD2     C 9369   1.312   3.048  17.525  0.3448  0.6105  0.3355
  633MPD2    C1 9370   1.276   2.936  17.453  0.3001 -0.5561  0.2718
  633MPD2    C2 9371   1.320   2.815  17.498 -0.9444 -0.0542  0.0602
  633MPD2    C3 9372   1.383   2.796  17.620 -0.4956  0.2030  0.1433
  633MPD2    C4 9373   1.412   2.904   0.005  0.2260 -0.2435 -0.5462
  633MPD2    C5 9374   1.377   3.029  17.647  0.5085 -0.4576 -0.4718
  633MPD2     H 9375   1.288   2.731  17.437  2.4145  0.2923 -2.1746
  633MPD2    H1 9376   1.463   2.899   0.101 -0.1203 -0.5565 -0.3768
  633MPD2    H2 9377   1.298   3.151  17.495  0.0697  0.9572  1.6367
  633MPD2    H3 9378   1.401   3.117   0.005  2.1484 -2.5161  1.9555
  633MPD2     N 9379   1.419   2.665  17.669  0.0406  0.3224  0.0484
  633MPD2    H5 9380   1.458   2.664   0.063  1.1534  0.3587 -0.4130
  633MPD2    N1 9381   1.206   2.945  17.333  0.0717 -0.0599 -0.9351
  633MPD2    H7 9382   1.180   2.857  17.290 -0.4733 -1.0064  1.3321
  634TMC3    C1 9383   1.125   3.043  17.141 -0.3939 -0.3706 -0.3951
  634TMC3    C2 9384   1.192   2.946  17.070 -0.1949 -0.1347  0.4513
  634TMC3    C3 9385   1.196   2.953  16.936 -0.0731 -1.5020  0.4079
  634TMC3    C4 9386   1.079   3.146  17.074  0.1999 -0.3860 -0.6426
  634TMC3    C5 9387   1.096   3.155  16.945  0.4386  0.6940 -0.2564
  634TMC3    C6 9388   1.160   3.063  16.861 -0.4028 -0.6520 -0.7198
  634TMC3     C 9389   1.146   3.054  17.287  0.1054 -1.0925  0.3872
  634TMC3     O 9390   1.131   3.163  17.339  0.3190 -0.8194  0.0692
  634TMC3     H 9391   1.249   2.868  17.119 -0.2856 -0.5368 -0.0874
  634TMC3    H1 9392   1.052   3.234  17.131 -0.4655 -2.2275  1.8882
  634TMC3    H2 9393   1.180   3.084  16.756 -0.4164 -2.2419 -1.0455
  634TMC3    C7 9394   1.028   3.260  16.866 -0.1266 -0.0223 -0.3692
  634TMC3    C8 9395   1.243   2.840  16.863  0.0046 -0.1240 -0.5997
  634TMC3    O1 9396   1.065   3.273  16.749 -0.5696  0.1940  0.5496
  634TMC3    O2 9397   1.309   2.765  16.934 -0.2159  0.0256 -0.0401
  635TMC3    C1 9398   1.510   3.593  17.340  0.3107  0.2255  0.7232
  635TMC3    C2 9399   1.584   3.641  17.235  0.0393  0.5949  0.0256
  635TMC3    C3 9400   1.632   3.552  17.144  0.1003 -0.4717  0.1006
  635TMC3    C4 9401   1.495   3.465  17.372  0.1811 -0.0261 -0.2872
  635TMC3    C5 9402   1.542   3.377  17.275 -0.2763 -0.4346  0.1481
  635TMC3    C6 9403   1.608   3.420  17.160  0.0954 -0.2258 -0.1013
  635TMC3     C 9404   1.429   3.690  17.408  0.1819 -0.7335  0.9047
  635TMC3     O 9405   1.393   3.650  17.519 -0.2581  0.0683  0.2089
  635TMC3     H 9406   1.593   3.748  17.222 -1.4734  0.6567 -0.5548
  635TMC3    H1 9407   1.432   3.437  17.456  1.8597 -0.9035  0.6914
  635TMC3    H2 9408   1.662   3.354  17.092  1.1140 -1.0455  1.4924
  635TMC3    C7 9409   1.561   3.243  17.322 -0.3494  0.2651  0.1687
  635TMC3    C8 9410   1.726   3.598  17.043 -0.6826 -0.0531 -0.0807
  635TMC3    O1 9411   1.561   3.240  17.447  0.5598  0.3095 -0.6243
  635TMC3    O2 9412   1.759   3.520  16.956 -0.1011  0.1376  0.2648
  636MPD2     C 9413   2.277   2.781  15.908  0.2455 -0.5256  0.0736
  636MPD2    C1 9414   2.314   2.780  16.043 -0.5726  0.2045  0.3461
  636MPD2    C2 9415   2.353   2.661  16.104  0.5889 -0.2946  1.0514
  636MPD2    C3 9416   2.356   2.550  16.019 -0.3411  0.2934  0.8174
  636MPD2    C4 9417   2.322   2.556  15.884 -0.1752  0.0056 -0.1725
  636MPD2    C5 9418   2.281   2.676  15.825 -0.5706 -0.6861 -0.3217
  636MPD2     H 9419   2.384   2.660  16.208  2.2719 -0.5600  0.5457
  636MPD2    H1 9420   2.331   2.471  15.817 -1.6898  0.0527 -0.4332
  636MPD2    H2 9421   2.255   2.873  15.855 -2.0609 -0.2099  1.5616
  636MPD2    H3 9422   2.254   2.682  15.720  0.5659  0.9047 -0.5221
  636MPD2     N 9423   2.391   2.429  16.075 -0.1954 -0.1042 -0.1041
  636MPD2    H5 9424   2.412   2.429  16.174 -1.0905  0.0005  0.0831
  636MPD2    N1 9425   2.310   2.893  16.131  0.3622 -0.3067 -0.5296
  636MPD2    H7 9426   2.362   2.899  16.218 -0.6958  1.4470 -0.0133
  637TMC3    C1 9427   2.445   2.218  16.135 -0.6901 -0.0631 -0.5549
  637TMC3    C2 9428   2.392   2.245  16.256 -0.1962  0.2643 -0.0295
  637TMC3    C3 9429   2.472   2.228  16.362 -0.3878  0.1604 -0.0364
  637TMC3    C4 9430   2.565   2.144  16.119  0.4535  0.2326 -0.4388
  637TMC3    C5 9431   2.651   2.145  16.226 -0.2028  0.2563  0.0577
  637TMC3    C6 9432   2.597   2.171  16.352 -0.1302 -0.6336  0.0259
  637TMC3     C 9433   2.419   2.307  16.023  0.1636  0.0202 -0.0530
  637TMC3     O 9434   2.428   2.266  15.911  0.0064  0.6685  0.3536
  637TMC3     H 9435   2.289   2.276  16.270 -0.2579  0.1786 -0.2961
  637TMC3    H1 9436   2.595   2.124  16.017 -1.9161  0.1689 -1.1147
  637TMC3    H2 9437   2.663   2.156  16.437  1.5300  0.8810 -0.9837
  637TMC3    C7 9438   2.762   2.241  16.202 -0.4875  0.1110 -0.1338
  637TMC3    C8 9439   2.469   2.350  16.436 -0.0498  0.1029  0.0891
  637TMC3    O1 9440   2.793   2.309  16.303 -0.1914  0.2941  1.1769
  637TMC3    O2 9441   2.441   2.454  16.381  0.9108 -0.0309 -0.1885
  638MPD2     C 9442   2.279   1.836  15.226  0.1787 -0.5003 -0.3321
  638MPD2    C1 9443   2.214   1.749  15.143 -0.2118  1.1095  0.1267
  638MPD2    C2 9444   2.136   1.648  15.198 -0.2454  0.4067  0.4233
  638MPD2    C3 9445   2.154   1.610  15.328 -0.5598  0.6429 -0.3151
  638MPD2    C4 9446   2.227   1.687  15.411 -0.0382 -0.1023  0.4773
  638MPD2    C5 9447   2.271   1.807  15.360 -0.2195  0.0840  0.0344
  638MPD2     H 9448   2.074   1.586  15.134  1.9556 -1.0851 -0.2325
  638MPD2    H1 9449   2.241   1.673  15.518  1.8637 -1.7557  0.0149
  638MPD2    H2 9450   2.339   1.919  15.190 -0.4739 -0.1266 -0.5589
  638MPD2    H3 9451   2.319   1.877  15.427  1.0901  0.8558 -1.6896
  638MPD2     N 9452   2.110   1.481  15.356  0.2956  0.1465  0.5860
  638MPD2    H5 9453   2.054   1.439  15.283  4.7552 -0.5231 -2.4450
  638MPD2    N1 9454   2.232   1.769  15.003  0.4230 -0.0945  0.3506
  638MPD2    H7 9455   2.306   1.837  14.986  1.9059 -1.7037  0.4374
  639TMC3    C1 9456   2.099   1.277  15.478 -0.7007  0.1468 -0.1807
  639TMC3    C2 9457   2.028   1.223  15.373 -0.2881 -0.3030  0.7120
  639TMC3    C3 9458   1.942   1.122  15.404  0.3814 -0.1546  0.2930
  639TMC3    C4 9459   2.088   1.233  15.609  0.3546 -0.1816  0.3925
  639TMC3    C5 9460   1.999   1.131  15.630  0.2644  0.3415 -0.7393
  639TMC3    C6 9461   1.917   1.082  15.534 -0.8674  0.0166 -0.9882
  639TMC3     C 9462   2.157   1.408  15.467  0.4203  0.0749 -0.2975
  639TMC3     O 9463   2.227   1.437  15.558 -0.6003 -0.1483 -0.1132
  639TMC3     H 9464   2.031   1.261  15.271 -0.3350 -0.3322  0.7000
  639TMC3    H1 9465   2.156   1.273  15.683  0.9351 -1.0163  0.3175
  639TMC3    H2 9466   1.848   1.006  15.567  0.6859 -0.8924  0.1892
  639TMC3    C7 9467   2.036   1.036  15.734  0.0322  0.3494  0.4321
  639TMC3    C8 9468   1.873   1.051  15.295  0.1610  0.2035 -0.5599
  639TMC3    O1 9469   1.949   0.965  15.781 -0.8318  0.6160 -0.2416
  639TMC3    O2 9470   1.916   1.066  15.180 -0.4520  0.2149  0.2731
  640MPD2     C 9471   3.053   0.245  10.165  0.0980 -0.1056  0.1941
  640MPD2    C1 9472   3.099   0.324  10.065  0.2600  0.4772  0.1964
  640MPD2    C2 9473   3.017   0.424  10.008 -0.3057  0.0823  0.4269
  640MPD2    C3 9474   2.887   0.436  10.058  0.2105  0.2512  0.8015
  640MPD2    C4 9475   2.848   0.357  10.162  0.2174  0.0766 -0.2673
  640MPD2    C5 9476   2.926   0.260  10.210 -0.2515 -0.3966 -0.7924
  640MPD2     H 9477   3.057   0.495   9.936 -2.5556 -0.4394 -1.3696
  640MPD2    H1 9478   2.756   0.359  10.220 -0.3611 -0.6611 -1.1790
  640MPD2    H2 9479   3.115   0.168  10.210 -0.4628 -1.2931 -1.0173
  640MPD2    H3 9480   2.890   0.190  10.284 -1.0397  0.5080 -0.3210
  640MPD2     N 9481   2.795   0.543  10.018  0.1497 -0.6133 -0.6136
  640MPD2    H5 9482   2.704   0.537  10.064  0.0655  3.1855 -0.2307
  640MPD2    N1 9483   3.233   0.301  10.024  0.1487  0.1446 -0.4282
  640MPD2    H7 9484   3.286   0.233  10.078  0.8864  0.5036 -0.6983
  641TMC3    C1 9485   3.444   0.343   9.920  0.0966  0.0982  0.0508
  641TMC3    C2 9486   3.505   0.260  10.009  1.1665  0.1345  0.0496
  641TMC3    C3 9487   3.634   0.226   9.984  0.2050 -0.1886 -0.1113
  641TMC3    C4 9488   3.513   0.392   9.814  0.6134  0.3025  0.4183
  641TMC3    C5 9489   3.640   0.356   9.785 -0.7641 -0.0552 -0.0073
  641TMC3    C6 9490   3.705   0.276   9.878  0.5792 -0.9202  0.0915
  641TMC3     C 9491   3.305   0.380   9.935  1.0358 -1.1523 -0.9170
  641TMC3     O 9492   3.280   0.471   9.862  0.3398 -0.4973  0.3024
  641TMC3     H 9493   3.451   0.222  10.095  1.1266  1.5633  0.6500
  641TMC3    H1 9494   3.475   0.472   9.752 -2.5710 -2.0057 -0.6511
  641TMC3    H2 9495   3.795   0.227   9.843  2.3377  1.6254  1.0056
  641TMC3    C7 9496   3.719   0.434   9.692  0.0670  0.0542 -0.5629
  641TMC3    C8 9497   3.696   0.120  10.070 -0.6963 -0.3762 -0.7084
  641TMC3    O1 9498   3.676   0.548   9.667 -0.5458  0.7229 -0.2048
  641TMC3    O2 9499   3.610   0.044  10.122  0.0711 -0.5456  0.0586
  642TMC3    C1 9500   3.897   1.539  12.541 -0.1033  0.5203 -0.3654
  642TMC3    C2 9501   3.949   1.578  12.660  0.6620 -0.1352 -1.0563
  642TMC3    C3 9502   3.994   1.484  12.742  0.1173 -0.5462 -0.9271
  642TMC3    C4 9503   3.884   1.414  12.501  0.6908  0.5034 -0.1079
  642TMC3    C5 9504   3.929   1.315  12.588 -1.0661  0.1812 -0.1646
  642TMC3    C6 9505   3.985   1.352  12.712 -0.0739 -0.4942  0.8055
  642TMC3     C 9506   3.864   1.644  12.455 -0.1792 -0.1501  0.3284
  642TMC3     O 9507   3.862   1.613  12.337  0.1886  0.3425  0.1565
  642TMC3     H 9508   3.946   1.681  12.695 -0.8012 -0.4010 -0.3624
  642TMC3    H1 9509   3.849   1.399  12.399 -0.5617 -1.5436  0.6095
  642TMC3    H2 9510   4.033   1.280  12.777 -1.2827 -1.3918  0.7050
  642TMC3    C7 9511   3.937   1.176  12.536  0.4786  0.4023  0.3252
  642TMC3    C8 9512   4.057   1.517  12.870 -0.3778  0.4424 -0.5001
  642TMC3    O1 9513   3.904   1.152  12.420  0.2179  0.2473 -0.4175
  642TMC3    O2 9514   4.077   1.414  12.936  0.0624 -0.4053 -0.3731
  643TMC3    C1 9515   2.495   1.436   1.032 -0.0453 -0.2167  0.3849
  643TMC3    C2 9516   2.379   1.487   0.975 -0.0402 -0.6234 -0.0183
  643TMC3    C3 9517   2.334   1.453   0.855  0.8534 -0.1525 -0.2398
  643TMC3    C4 9518   2.574   1.362   0.953 -0.4102  0.6550  0.1352
  643TMC3    C5 9519   2.526   1.325   0.826  0.8098 -0.6845  0.0985
  643TMC3    C6 9520   2.410   1.374   0.776  0.3822 -0.6244 -0.2541
  643TMC3     C 9521   2.565   1.539   1.112  0.6441  0.4667 -0.3572
  643TMC3     O 9522   2.552   1.651   1.062  0.1152 -0.4442 -0.5258
  643TMC3     H 9523   2.321   1.554   1.038  1.9174  1.4581 -0.4509
  643TMC3    H1 9524   2.671   1.341   0.996 -0.8318 -0.2848  0.6320
  643TMC3    H2 9525   2.374   1.350   0.676 -1.7720  1.1037  0.1047
  643TMC3    C7 9526   2.613   1.273   0.729  0.3126 -0.9934 -0.3078
  643TMC3    C8 9527   2.273   1.557   0.780  0.7132  0.1970 -0.7023
  643TMC3    O1 9528   2.585   1.297   0.611 -0.2414 -0.1421 -0.1738
  643TMC3    O2 9529   2.218   1.540   0.671 -0.5169 -0.0019 -0.4902
  644MPD2     C 9530   3.540   1.216   9.349 -0.3164 -0.3186  0.1302
  644MPD2    C1 9531   3.620   1.100   9.366  0.0480 -0.9748 -0.6739
  644MPD2    C2 9532   3.565   0.981   9.327  0.2024  0.5613 -0.7401
  644MPD2    C3 9533   3.436   0.971   9.291  0.2490 -0.4109 -0.0641
  644MPD2    C4 9534   3.353   1.077   9.295  0.7060  0.0981 -0.5941
  644MPD2    C5 9535   3.407   1.201   9.316 -0.4362 -0.3877 -0.3158
  644MPD2     H 9536   3.622   0.889   9.335 -2.1833 -0.7831  0.6185
  644MPD2    H1 9537   3.247   1.077   9.274  0.5747 -1.3338  0.0798
  644MPD2    H2 9538   3.568   1.320   9.363  0.2730 -0.7440  2.0470
  644MPD2    H3 9539   3.338   1.283   9.303  2.2022  1.6326 -1.4730
  644MPD2     N 9540   3.396   0.833   9.282  0.3562 -0.2805 -0.4137
  644MPD2    H5 9541   3.463   0.762   9.311  1.0667  0.8204  0.6251
  644MPD2    N1 9542   3.753   1.110   9.422  0.5444  0.6478 -0.2881
  644MPD2    H7 9543   3.794   1.203   9.426  0.4365  0.7394 -1.1507
  645TMC3    C1 9544   3.236   0.655   9.227  0.1532 -1.0293 -0.4525
  645TMC3    C2 9545   3.332   0.563   9.260  0.4329  0.4018 -0.0173
  645TMC3    C3 9546   3.290   0.441   9.293 -0.5721  0.1992  0.3896
  645TMC3    C4 9547   3.106   0.625   9.228  0.4325  0.7375 -0.1235
  645TMC3    C5 9548   3.072   0.498   9.255  0.1966  0.5949 -0.6654
  645TMC3    C6 9549   3.159   0.405   9.306  0.5409  0.1952 -0.2188
  645TMC3     C 9550   3.273   0.798   9.236 -0.2918  0.6137 -0.4909
  645TMC3     O 9551   3.193   0.875   9.188  0.1190 -0.4812 -0.4247
  645TMC3     H 9552   3.440   0.571   9.253  0.3688  0.8944 -0.4724
  645TMC3    H1 9553   3.043   0.713   9.222 -0.4540  0.0865 -0.3476
  645TMC3    H2 9554   3.121   0.306   9.329 -1.1443  0.3217 -2.4471
  645TMC3    C7 9555   2.931   0.462   9.248  0.4025 -0.9568  0.4365
  645TMC3    C8 9556   3.373   0.354   9.367 -1.1340 -0.4049 -1.0559
  645TMC3    O1 9557   2.895   0.362   9.304 -0.1399 -0.3945 -0.0611
  645TMC3    O2 9558   3.485   0.323   9.333  0.0480 -0.3826 -0.0850
  646MPD2     C 9559   2.353   0.514  14.668 -0.6130 -0.3593  0.5781
  646MPD2    C1 9560   2.268   0.461  14.765  0.0959 -0.0621 -0.4002
  646MPD2    C2 9561   2.136   0.488  14.754 -0.4505 -0.5341 -0.2802
  646MPD2    C3 9562   2.086   0.555  14.645 -0.1227 -0.9120  0.5696
  646MPD2    C4 9563   2.173   0.609  14.557  0.0444 -0.0467 -0.7908
  646MPD2    C5 9564   2.309   0.596  14.562  0.2583  0.3985 -0.0265
  646MPD2     H 9565   2.070   0.447  14.830  1.0083  2.7746  2.7721
  646MPD2    H1 9566   2.142   0.666  14.470 -1.4184  0.7262  0.2412
  646MPD2    H2 9567   2.456   0.480  14.676 -0.3444 -0.1615 -2.2231
  646MPD2    H3 9568   2.377   0.635  14.487  1.1501 -1.4195 -0.1640
  646MPD2     N 9569   1.947   0.576  14.641 -0.8232 -0.1509  0.2328
  646MPD2    H5 9570   1.895   0.547  14.724 -3.0408 -1.4270 -1.6160
  646MPD2    N1 9571   2.324   0.386  14.877  0.4864 -0.0900 -0.1991
  646MPD2    H7 9572   2.425   0.375  14.869  0.7295  0.6187  1.9239
  647TMC3    C1 9573   2.323   0.243  15.068 -0.0213 -0.2645  0.8580
  647TMC3    C2 9574   2.264   0.129  15.125 -0.5094 -0.0801  0.1452
  647TMC3    C3 9575   2.343   0.050  15.208  0.5730  0.4904  0.0886
  647TMC3    C4 9576   2.453   0.280  15.097 -0.2287 -0.9250  0.5163
  647TMC3    C5 9577   2.529   0.188  15.174 -0.7232  0.4243  0.1764
  647TMC3    C6 9578   2.470   0.071  15.229 -0.6428 -0.0604 -0.2665
  647TMC3     C 9579   2.246   0.330  14.975 -0.4221  0.6194 -0.4925
  647TMC3     O 9580   2.128   0.308  14.991 -0.0414 -0.2054  0.0777
  647TMC3     H 9581   2.162   0.101  15.106  0.2650 -2.0814 -1.0219
  647TMC3    H1 9582   2.493   0.374  15.059 -0.7149  0.6709  3.9300
  647TMC3    H2 9583   2.534   4.725  15.279 -0.3838  0.3001 -0.0877
  647TMC3    C7 9584   2.663   0.214  15.217  0.1184  0.7771  0.1623
  647TMC3    C8 9585   2.288   4.674  15.299  0.1037 -0.1152 -0.7016
  647TMC3    O1 9586   2.697   0.158  15.317  0.8771 -0.3831 -0.3167
  647TMC3    O2 9587   2.331   4.684  15.415  0.6337  0.5466 -0.0287
  648TMC3    C1 9588   1.582   2.983  16.107 -0.2766 -0.4002 -0.0576
  648TMC3    C2 9589   1.567   2.847  16.071 -0.0616 -0.0244  0.1119
  648TMC3    C3 9590   1.551   2.828  15.936 -0.2308 -0.8312 -0.2221
  648TMC3    C4 9591   1.575   3.085  16.025  0.0341 -0.3547 -0.2896
  648TMC3    C5 9592   1.560   3.057  15.892  0.2437  0.6332  0.4218
  648TMC3    C6 9593   1.564   2.930  15.842 -1.2749 -0.4091  0.1234
  648TMC3     C 9594   1.524   3.011  16.235 -0.4724 -0.0146 -0.1323
  648TMC3     O 9595   1.446   3.106  16.230  0.4620 -0.1745 -0.3534
  648TMC3     H 9596   1.577   2.769  16.145 -0.9385 -1.5482 -1.3725
  648TMC3    H1 9597   1.574   3.185  16.068 -1.7700 -0.1310 -0.8421
  648TMC3    H2 9598   1.555   2.914  15.736  1.3562  1.3554 -0.3579
  648TMC3    C7 9599   1.473   3.150  15.821  0.5915 -0.0299  0.1020
  648TMC3    C8 9600   1.560   2.690  15.896  0.3825 -0.0803  0.8060
  648TMC3    O1 9601   1.471   3.138  15.699  0.2855 -0.3575  0.5128
  648TMC3    O2 9602   1.612   2.662  15.791 -0.0720  0.5185  0.7389
  649TMC3    C1 9603   0.599   4.238  13.143  0.5335 -0.1923  0.3580
  649TMC3    C2 9604   0.727   4.272  13.132 -0.2502  0.0014 -0.5349
  649TMC3    C3 9605   0.821   4.185  13.183 -0.1351 -0.0302 -0.7684
  649TMC3    C4 9606   0.558   4.124  13.205  0.2542 -0.3480 -0.0281
  649TMC3    C5 9607   0.652   4.041  13.254 -0.9735 -0.7109 -0.2455
  649TMC3    C6 9608   0.787   4.068  13.249  0.1648 -0.2361  0.3804
  649TMC3     C 9609   0.508   4.276  13.045 -0.1364 -0.5836  0.2347
  649TMC3     O 9610   0.392   4.266  13.080  0.1257  0.3489 -0.0343
  649TMC3     H 9611   0.759   4.357  13.073 -1.3288  0.6897 -0.1254
  649TMC3    H1 9612   0.460   4.078  13.193  0.0754 -0.4537  1.8273
  649TMC3    H2 9613   0.866   4.000  13.279 -0.9278 -0.8538  1.8555
  649TMC3    C7 9614   0.600   3.944  13.344 -0.0319  0.0216 -0.1009
  649TMC3    C8 9615   0.956   4.227  13.211 -0.3760  0.3516  0.1002
  649TMC3    O1 9616   0.483   3.951  13.384 -0.1780 -0.6731  0.3291
  649TMC3    O2 9617   1.035   4.141  13.247  0.8557  0.2365  0.2146
  650TMC3    C1 9618   3.247   1.071  13.242  0.1914  0.4931 -0.1082
  650TMC3    C2 9619   3.229   1.200  13.273  0.7489  0.3647 -0.6624
  650TMC3    C3 9620   3.310   1.284  13.202  0.1281 -0.1878 -0.4675
  650TMC3    C4 9621   3.331   1.015  13.155 -0.3987 -0.0110 -0.3295
  650TMC3    C5 9622   3.403   1.100  13.086 -0.0711  0.4953 -0.0673
  650TMC3    C6 9623   3.395   1.234  13.106  0.7716  0.3663  0.6970
  650TMC3     C 9624   3.152   0.982  13.318 -0.5014 -0.2045 -0.7467
  650TMC3     O 9625   3.059   1.033  13.379  0.1104  0.6239  0.0478
  650TMC3     H 9626   3.149   1.235  13.337  0.8673 -0.7159  0.0734
  650TMC3    H1 9627   3.327   0.911  13.127 -1.5128  0.2023 -0.9486
  650TMC3    H2 9628   3.449   1.310  13.050 -0.6301  0.8122 -0.0576
  650TMC3    C7 9629   3.446   1.059  12.953  0.1581  0.6115  0.3770
  650TMC3    C8 9630   3.272   1.423  13.187  0.3342  0.1833  0.3275
  650TMC3    O1 9631   3.418   0.938  12.927  1.1633 -0.4817 -0.7427
  650TMC3    O2 9632   3.280   1.460  13.070  0.6402  0.3098  0.0481
  651MPD2     C 9633   2.087   2.361  10.517 -0.0705 -0.0295 -0.0768
  651MPD2    C1 9634   2.086   2.447  10.624 -0.0488  1.2853  0.1492
  651MPD2    C2 9635   2.211   2.484  10.671  0.3307 -0.4455 -0.5635
  651MPD2    C3 9636   2.328   2.452  10.608 -0.3344 -0.1512 -0.0130
  651MPD2    C4 9637   2.326   2.367  10.500  0.8736  0.7358  1.1707
  651MPD2    C5 9638   2.201   2.326  10.452  0.0576  0.4878 -0.7705
  651MPD2     H 9639   2.217   2.531  10.769  2.1250 -1.3179 -0.2466
  651MPD2    H1 9640   2.409   2.321  10.448 -0.2151 -0.5378  0.5527
  651MPD2    H2 9641   1.993   2.330  10.474 -0.8888  0.8514  1.1053
  651MPD2    H3 9642   2.212   2.265  10.364  2.4383  0.4843 -0.4707
  651MPD2     N 9643   2.451   2.511  10.650 -0.0540 -0.6467 -0.7101
  651MPD2    H5 9644   2.437   2.578  10.726 -3.1082 -0.5447 -1.3589
  651MPD2    N1 9645   1.971   2.482  10.707  0.5650  0.2578  1.1085
  651MPD2    H7 9646   1.987   2.539  10.790  2.1796  0.0297  0.9374
  652TMC3    C1 9647   2.854   2.709  10.659 -0.1417 -0.1509  0.3322
  652TMC3    C2 9648   2.787   2.601  10.619 -0.1996  0.2999  0.1044
  652TMC3    C3 9649   2.668   2.579  10.680 -0.0002 -0.2840  0.5171
  652TMC3    C4 9650   2.794   2.804  10.746  0.6388 -0.4471 -0.0862
  652TMC3    C5 9651   2.675   2.781  10.805 -0.3598  0.0787  1.1362
  652TMC3    C6 9652   2.610   2.663  10.773  0.7163  0.2848  0.5873
  652TMC3     C 9653   2.997   2.719  10.645 -0.2027  0.1053 -0.4979
  652TMC3     O 9654   3.059   2.613  10.659  0.4145  0.2057  0.1329
  652TMC3     H 9655   2.826   2.532  10.545 -1.1723  1.3110 -1.3511
  652TMC3    H1 9656   2.842   2.896  10.777 -0.5019 -0.6617  2.3528
  652TMC3    H2 9657   2.518   2.641  10.826  1.3160 -1.5968  0.8660
  652TMC3    C7 9658   2.645   2.851  10.927  0.0213  0.4382  0.3102
  652TMC3    C8 9659   2.582   2.487  10.610 -0.4380  0.7134 -0.0355
  652TMC3    O1 9660   2.592   2.789  11.019  0.0307 -0.2568  0.1477
  652TMC3    O2 9661   2.632   2.421  10.520  0.0421 -0.0563  0.1303
  653MPD2     C 9662   0.920   3.054  17.626  0.1386  0.2050 -0.1701
  653MPD2    C1 9663   0.807   3.098  17.564 -0.2563 -0.1685 -0.1386
  653MPD2    C2 9664   0.743   3.007  17.480 -0.4327 -0.2523  0.3354
  653MPD2    C3 9665   0.796   2.882  17.455  0.0056  0.0504  0.7007
  653MPD2    C4 9666   0.914   2.846  17.513 -0.1992 -0.2656 -0.7451
  653MPD2    C5 9667   0.976   2.934  17.599 -0.0006  0.2118 -0.5748
  653MPD2     H 9668   0.657   3.046  17.428 -1.5344  0.4317  2.6872
  653MPD2    H1 9669   0.960   2.749  17.499  0.8771 -0.1007  1.7461
  653MPD2    H2 9670   0.982   3.116  17.690 -1.0761  0.0512  1.1633
  653MPD2    H3 9671   1.069   2.912  17.650  0.5116 -3.3216 -3.0755
  653MPD2     N 9672   0.722   2.798  17.370 -0.3178 -0.2115  0.0696
  653MPD2    H5 9673   0.635   2.841  17.338 -0.8982 -1.1611  0.3414
  653MPD2    N1 9674   0.743   3.227  17.591 -0.5418  0.1735  0.0606
  653MPD2    H7 9675   0.654   3.250  17.549 -0.8368 -0.3720  0.3842
  654TMC3    C1 9676   0.680   2.604  17.229 -0.2894  0.1972 -0.1207
  654TMC3    C2 9677   0.598   2.682  17.154  0.2457 -0.6407  0.2632
  654TMC3    C3 9678   0.520   2.618  17.060  0.0627  0.1523  0.6931
  654TMC3    C4 9679   0.684   2.463  17.221 -0.4552 -0.4918  0.4629
  654TMC3    C5 9680   0.603   2.404  17.129 -0.0405  0.3502  0.3123
  654TMC3    C6 9681   0.519   2.478  17.048  0.2033 -0.4382 -0.0125
  654TMC3     C 9682   0.771   2.679  17.318 -0.0375 -0.5838 -0.4748
  654TMC3     O 9683   0.863   2.611  17.366 -0.3014 -0.3392 -0.5164
  654TMC3     H 9684   0.590   2.788  17.173  0.0575 -0.3371 -1.5076
  654TMC3    H1 9685   0.755   2.416  17.289 -0.3959 -0.5458  0.3623
  654TMC3    H2 9686   0.442   2.427  16.991  0.9397 -1.7540  0.1545
  654TMC3    C7 9687   0.577   2.260  17.132  0.2773 -0.1317  0.5682
  654TMC3    C8 9688   0.414   2.702  17.006  0.3150 -0.1787 -0.0013
  654TMC3    O1 9689   0.484   2.220  17.062 -0.0607 -0.1187  0.0800
  654TMC3    O2 9690   0.364   2.786  17.084 -0.2243  0.0832  0.3386
  655MPD2     C 9691   1.886   3.038  15.792 -0.6036  0.4515  0.4257
  655MPD2    C1 9692   1.874   3.159  15.725 -0.0776 -0.4834  0.1001
  655MPD2    C2 9693   1.887   3.149  15.586  0.2713 -0.0162  0.1459
  655MPD2    C3 9694   1.898   3.031  15.520 -0.3991  0.0644  0.1067
  655MPD2    C4 9695   1.905   2.915  15.589  0.1391 -0.1659  0.2717
  655MPD2    C5 9696   1.901   2.918  15.727 -0.2346  0.3636 -0.1613
  655MPD2     H 9697   1.878   3.242  15.531 -1.4729 -0.4904 -0.3792
  655MPD2    H1 9698   1.917   2.817  15.544  1.7659  0.5193 -0.7810
  655MPD2    H2 9699   1.869   3.040  15.899  0.8519 -1.1521  0.6838
  655MPD2    H3 9700   1.897   2.830  15.790  0.3213 -0.0899 -0.7453
  655MPD2     N 9701   1.878   3.033  15.383  0.2843 -0.3378  0.1868
  655MPD2    H5 9702   1.875   3.124  15.337 -1.7195 -0.8460 -0.6936
  655MPD2    N1 9703   1.840   3.281  15.778  0.7263 -0.0903  0.0955
  655MPD2    H7 9704   1.826   3.353  15.708 -0.0259 -0.2956  0.0345
  656TMC3    C1 9705   1.789   3.445  15.939 -0.4428  0.0577  0.5449
  656TMC3    C2 9706   1.739   3.460  16.062  0.3744 -0.8675  0.0664
  656TMC3    C3 9707   1.647   3.558  16.087 -0.2575 -0.5522  0.8086
  656TMC3    C4 9708   1.738   3.521  15.835 -0.5639 -0.3587  0.7260
  656TMC3    C5 9709   1.646   3.612  15.871  0.1748 -0.8041  0.1712
  656TMC3    C6 9710   1.599   3.634  15.993  0.0925 -0.0039 -0.6083
  656TMC3     C 9711   1.836   3.309  15.912  0.4403 -0.1181  0.2180
  656TMC3     O 9712   1.861   3.240  16.009 -0.5066  0.0575 -0.2272
  656TMC3     H 9713   1.794   3.407  16.139 -1.0081 -0.5692  1.2420
  656TMC3    H1 9714   1.771   3.522  15.732  1.5353 -0.6290  1.3870
  656TMC3    H2 9715   1.534   3.715  16.024  0.4597  0.6726 -1.6066
  656TMC3    C7 9716   1.597   3.700  15.767  0.3146  0.5245 -0.5661
  656TMC3    C8 9717   1.548   3.511  16.177  0.1606 -0.1035  0.1401
  656TMC3    O1 9718   1.665   3.733  15.669  0.1677  0.3762  0.1388
  656TMC3    O2 9719   1.555   3.391  16.204 -0.5722 -0.0561 -0.8024
  657TMC3    C1 9720   0.556   2.123  15.590  0.1724 -0.2579 -0.6763
  657TMC3    C2 9721   0.620   2.132  15.714 -0.5995  0.2244  0.1294
  657TMC3    C3 9722   0.657   2.253  15.766  0.0914 -0.9306  0.6002
  657TMC3    C4 9723   0.535   2.227  15.511 -0.2734  0.0790  0.2212
  657TMC3    C5 9724   0.571   2.347  15.559 -0.0506  0.5312  0.6374
  657TMC3    C6 9725   0.628   2.366  15.685  0.1333  0.0268 -0.6164
  657TMC3     C 9726   0.527   1.996  15.530  0.3334 -0.1191  0.4612
  657TMC3     O 9727   0.475   1.991  15.419 -0.0926  0.0180  0.0846
  657TMC3     H 9728   0.646   2.043  15.769  0.0926  0.2605 -0.1409
  657TMC3    H1 9729   0.510   2.225  15.405 -2.2624  0.1683  0.7006
  657TMC3    H2 9730   0.634   2.466  15.728 -2.0393 -0.2138  0.2632
  657TMC3    C7 9731   0.561   2.453  15.467 -0.8157  0.1076 -0.8329
  657TMC3    C8 9732   0.741   2.270  15.875 -0.1545  0.5220 -0.7748
  657TMC3    O1 9733   0.630   2.547  15.492  0.4129  0.1896 -0.6441
  657TMC3    O2 9734   0.742   2.376  15.932  0.1421 -0.0378  0.3974
  658MPD2     C 9735   2.123   2.703  14.688 -0.2675  0.3258  0.2555
  658MPD2    C1 9736   2.068   2.825  14.695  0.0946 -0.0680  0.4836
  658MPD2    C2 9737   2.112   2.916  14.604 -0.2426  0.3653 -0.5467
  658MPD2    C3 9738   2.200   2.891  14.505  0.4567  0.3792  0.1355
  658MPD2    C4 9739   2.247   2.763  14.494 -0.2947 -0.0960  0.3940
  658MPD2    C5 9740   2.210   2.669  14.588  0.5297  0.9196 -0.9658
  658MPD2     H 9741   2.057   3.009  14.596 -0.1214  0.4548 -0.3453
  658MPD2    H1 9742   2.311   2.733  14.413 -1.5379 -0.7687 -0.3377
  658MPD2    H2 9743   2.104   2.628  14.764  2.3427 -0.4573  0.1520
  658MPD2    H3 9744   2.252   2.570  14.582  1.9693  1.3422  1.9404
  658MPD2     N 9745   2.238   2.989  14.412 -0.4076  0.6710  0.0944
  658MPD2    H5 9746   2.184   3.075  14.417 -0.5011  0.6098  0.1279
  658MPD2    N1 9747   1.978   2.848  14.801 -0.1910 -0.2560 -0.2757
  658MPD2    H7 9748   1.958   2.766  14.858  0.9361 -0.0986  0.3522
  659TMC3    C1 9749   1.829   2.960  14.934  0.0551 -0.6129 -0.0552
  659TMC3    C2 9750   1.884   2.921  15.056  0.1605 -0.2623 -0.5941
  659TMC3    C3 9751   1.819   2.962  15.172  0.0543 -0.0906 -0.2386
  659TMC3    C4 9752   1.723   3.041  14.930  1.0318 -0.3056  0.3650
  659TMC3    C5 9753   1.658   3.076  15.045  0.4956  0.3406  0.1283
  659TMC3    C6 9754   1.703   3.036  15.171  0.4619  0.7100 -0.0826
  659TMC3     C 9755   1.919   2.968  14.823  0.8558 -0.6077  0.0137
  659TMC3     O 9756   1.931   3.072  14.767 -0.2033  0.4287 -0.7029
  659TMC3     H 9757   1.972   2.858  15.068  0.0866 -0.2894 -0.1938
  659TMC3    H1 9758   1.685   3.067  14.832 -2.5715 -4.2672  0.7535
  659TMC3    H2 9759   1.647   3.065  15.260  0.0647  0.2134 -0.1693
  659TMC3    C7 9760   1.512   3.043  15.033 -0.3348  0.2491 -0.2254
  659TMC3    C8 9761   1.869   2.920  15.300 -0.3712 -0.6870 -0.2566
  659TMC3    O1 9762   1.465   3.048  14.917 -0.1551  0.6752  0.2947
  659TMC3    O2 9763   1.886   2.805  15.315  0.2348  0.0060 -0.3705
  660MPD2     C 9764   0.685   1.574  12.808  0.9475 -0.0781  0.3047
  660MPD2    C1 9765   0.556   1.526  12.797  0.0900 -0.4949  0.6468
  660MPD2    C2 9766   0.508   1.427  12.886  0.4625 -0.3292  0.2413
  660MPD2    C3 9767   0.594   1.379  12.991  0.6601 -0.4495 -0.0254
  660MPD2    C4 9768   0.721   1.433  12.998 -0.1072  0.3087  0.7342
  660MPD2    C5 9769   0.766   1.528  12.910 -0.3496  1.1606 -0.0754
  660MPD2     H 9770   0.414   1.380  12.861  0.7830 -1.5039  1.2141
  660MPD2    H1 9771   0.790   1.386  13.067 -0.2485 -1.9623 -0.6660
  660MPD2    H2 9772   0.712   1.654  12.740  0.6641 -0.3056 -0.0744
  660MPD2    H3 9773   0.866   1.569  12.925  0.7300 -1.8909  1.1943
  660MPD2     N 9774   0.558   1.272  13.073 -0.7021 -0.2985 -0.5555
  660MPD2    H5 9775   0.625   1.212  13.119 -1.5013 -1.2100 -0.5898
  660MPD2    N1 9776   0.471   1.583  12.700 -0.1553 -0.0054 -0.3100
  660MPD2    H7 9777   0.512   1.651  12.637 -1.2201 -0.2328 -1.2436
  661TMC3    C1 9778   0.288   1.641  12.570 -0.1464 -0.1149 -0.1814
  661TMC3    C2 9779   0.357   1.648  12.452 -0.4718 -0.6954 -0.3608
  661TMC3    C3 9780   0.283   1.663  12.336 -0.2440  0.4387 -0.6252
  661TMC3    C4 9781   0.149   1.661  12.578 -0.1729  0.1636 -0.4393
  661TMC3    C5 9782   0.080   1.680  12.460 -0.6001 -0.5279  0.0509
  661TMC3    C6 9783   0.148   1.678  12.340  0.1125  0.2810 -0.4580
  661TMC3     C 9784   0.343   1.562  12.683 -0.4436  0.0568 -0.4076
  661TMC3     O 9785   0.260   1.500  12.748  0.3803  0.2307 -0.1819
  661TMC3     H 9786   0.464   1.634  12.456 -0.3867  0.0454 -0.0163
  661TMC3    H1 9787   0.089   1.660  12.669 -0.4733 -1.5038 -0.6683
  661TMC3    H2 9788   0.093   1.693  12.248  1.1307 -0.9953 -1.2648
  661TMC3    C7 9789   4.660   1.692  12.462 -0.1594 -0.0944  0.4428
  661TMC3    C8 9790   0.343   1.728  12.227  0.1396  0.2121 -0.2963
  661TMC3    O1 9791   4.610   1.753  12.554  0.6510 -0.3991 -0.8954
  661TMC3    O2 9792   0.420   1.666  12.154 -0.2467  0.0949  0.2877
  662MPD2     C 9793   0.265   1.620  17.627 -0.1512 -0.2901 -0.2597
  662MPD2    C1 9794   0.170   1.552   0.000 -0.0392  1.0599 -0.3746
  662MPD2    C2 9795   0.068   1.625   0.057  0.1002  0.1436  0.7583
  662MPD2    C3 9796   0.058   1.761   0.035 -1.1684 -0.8693 -0.0181
  662MPD2    C4 9797   0.152   1.825  17.656  0.7441 -0.3691 -0.8095
  662MPD2    C5 9798   0.259   1.756  17.616 -0.6658  1.2297  0.1665
  662MPD2     H 9799   0.002   1.575   0.127  1.4556  1.2403  2.8449
  662MPD2    H1 9800   0.153   1.928  17.623 -0.4620 -0.3104 -0.6266
  662MPD2    H2 9801   0.350   1.574  17.578  0.4322  0.4727  0.0294
  662MPD2    H3 9802   0.341   1.810  17.570 -1.1368  1.8971  0.1108
  662MPD2     N 9803   4.687   1.842   0.100 -0.7526  0.6680 -0.5302
  662MPD2    H5 9804   4.686   1.943   0.086 -0.4361  1.0806  2.2546
  662MPD2    N1 9805   0.178   1.413   0.032 -0.0926  0.7946 -0.1247
  662MPD2    H7 9806   0.112   1.377   0.100  1.5781  0.3899  1.2503
  663TMC3    C1 9807   0.238   1.187   0.030 -0.0528 -0.1810  0.0815
  663TMC3    C2 9808   0.174   1.198   0.154 -0.3507  0.4619  0.5432
  663TMC3    C3 9809   0.080   1.104   0.187  0.6120 -0.0016  0.1167
  663TMC3    C4 9810   0.196   1.108  17.634  0.1201 -0.3567  0.1346
  663TMC3    C5 9811   0.104   1.014  17.669  0.0861  0.3456 -0.5860
  663TMC3    C6 9812   0.047   1.013   0.092  0.4802 -0.4446 -0.0477
  663TMC3     C 9813   0.264   1.317  17.671  0.1686  0.3399  0.1648
  663TMC3     O 9814   0.317   1.331  17.564  0.4989  0.8236 -0.0566
  663TMC3     H 9815   0.219   1.247   0.240 -2.5265  0.3250  1.7521
  663TMC3    H1 9816   0.249   1.105  17.539  2.6350  4.1184  1.3755
  663TMC3    H2 9817   4.678   0.958   0.092  0.6006 -0.6610  1.3317
  663TMC3    C7 9818   0.101   0.898  17.580  0.3987  0.5647  0.0500
  663TMC3    C8 9819   4.704   1.190   0.244  0.9586 -0.5025 -0.3785
  663TMC3    O1 9820   0.140   0.918  17.466 -0.6408  0.3010  0.4554
  663TMC3    O2 9821   4.703   1.304   0.206 -0.2940  0.1468  0.1917
  664MPD2     C 9822   3.041   4.621   0.398  0.2841 -0.6184 -0.1416
  664MPD2    C1 9823   3.102   0.014   0.432  0.2645  0.2591 -0.4264
  664MPD2    C2 9824   3.054   0.084   0.545 -0.4092 -0.4384  0.2421
  664MPD2    C3 9825   2.950   0.042   0.624  0.2197 -0.6905 -0.9218
  664MPD2    C4 9826   2.892   4.652   0.585  0.1715  0.2905 -0.2156
  664MPD2    C5 9827   2.942   4.571   0.485 -0.4639  0.2620 -0.0747
  664MPD2     H 9828   3.103   0.176   0.575 -1.9216 -0.4923  2.8943
  664MPD2    H1 9829   2.805   4.610   0.633  0.4902  0.3305  0.3900
  664MPD2    H2 9830   3.071   4.562   0.312 -0.7954  0.4225 -1.2419
  664MPD2    H3 9831   2.896   4.474   0.473 -0.4889  0.3431 -0.6648
  664MPD2     N 9832   2.901   0.115   0.737 -0.6505  0.3608 -0.1251
  664MPD2    H5 9833   2.952   0.199   0.759  1.1898 -0.2107 -2.2143
  664MPD2    N1 9834   3.217   0.063   0.354 -0.5622 -0.3650  0.0392
  664MPD2    H7 9835   3.255   0.152   0.383 -1.0412 -1.0096  2.6106
  665TMC3    C1 9836   2.769   0.184   0.916  0.4923 -0.6794 -0.0150
  665TMC3    C2 9837   2.648   0.244   0.926  0.4248 -0.2290  0.1311
  665TMC3    C3 9838   2.633   0.327   1.033  0.8399 -0.6428 -0.4397
  665TMC3    C4 9839   2.880   0.228   0.989  0.2780  0.5931 -0.6316
  665TMC3    C5 9840   2.857   0.307   1.100  0.2958  0.0637 -0.0299
  665TMC3    C6 9841   2.734   0.355   1.124  0.4925  0.4182 -0.2230
  665TMC3     C 9842   2.786   0.098   0.808  1.5793 -0.2186 -0.0847
  665TMC3     O 9843   2.694   0.026   0.781 -0.6912 -0.5661  0.2341
  665TMC3     H 9844   2.564   0.227   0.859  1.7861 -1.4164 -1.2677
  665TMC3    H1 9845   2.971   0.170   0.982  0.3095  0.3206  2.3209
  665TMC3    H2 9846   2.704   0.407   1.214  0.9006  1.3717 -0.6398
  665TMC3    C7 9847   2.939   0.272   1.215  0.2540 -0.1139  0.7351
  665TMC3    C8 9848   2.496   0.349   1.068  0.3080  0.0932 -0.4717
  665TMC3    O1 9849   3.001   0.167   1.212 -0.2716  0.0446  0.0790
  665TMC3    O2 9850   2.480   0.360   1.189 -0.6117 -0.1575 -0.2040
  666TMC3    C1 9851   2.087   4.407  10.606 -0.3037  0.0191  0.6084
  666TMC3    C2 9852   2.164   4.295  10.600 -0.6074  0.6658 -0.2477
  666TMC3    C3 9853   2.264   4.282  10.509 -0.1075 -0.3937 -0.1056
  666TMC3    C4 9854   2.114   4.506  10.522  0.4888 -0.0584 -0.0815
  666TMC3    C5 9855   2.226   4.500  10.442  0.1584 -0.3941 -1.0063
  666TMC3    C6 9856   2.298   4.385  10.424 -0.4609 -0.1080  0.1914
  666TMC3     C 9857   2.031   4.451  10.735  0.0403  0.0889 -0.1706
  666TMC3     O 9858   1.976   4.563  10.741  0.0908 -0.2371  0.3002
  666TMC3     H 9859   2.136   4.203  10.650  0.1826  0.5162 -0.0699
  666TMC3    H1 9860   2.054   4.596  10.532  0.1677 -0.2412 -0.3620
  666TMC3    H2 9861   2.385   4.386  10.360  0.0487  0.6834  0.8991
  666TMC3    C7 9862   2.274   4.626  10.388 -0.9469 -0.3043  0.1340
  666TMC3    C8 9863   2.354   4.176  10.534 -0.0718  0.1403  0.1754
  666TMC3    O1 9864   2.207   4.723  10.419  0.2354  0.2810  0.5916
  666TMC3    O2 9865   2.343   4.121  10.644  0.0350 -0.0840  0.9439
  667MPD2     C 9866   3.969   4.324  14.916 -0.5592  0.4064  0.0145
  667MPD2    C1 9867   3.866   4.390  14.984  0.5564 -0.6441 -0.3840
  667MPD2    C2 9868   3.738   4.381  14.939 -0.7474 -0.1016 -0.5229
  667MPD2    C3 9869   3.711   4.306  14.822 -0.1185  0.4886 -0.1956
  667MPD2    C4 9870   3.812   4.237  14.759  0.4494 -0.5355 -1.1988
  667MPD2    C5 9871   3.939   4.251  14.804 -0.4552  0.4641 -0.4709
  667MPD2     H 9872   3.663   4.439  14.991 -0.9054 -0.1202 -0.7312
  667MPD2    H1 9873   3.800   4.182  14.666  0.3307 -2.6575  0.0684
  667MPD2    H2 9874   4.070   4.327  14.955  0.0634  1.7510 -1.6529
  667MPD2    H3 9875   4.024   4.206  14.754 -0.2637 -0.2219  0.4699
  667MPD2     N 9876   3.580   4.283  14.774 -0.3035  0.2766 -0.3515
  667MPD2    H5 9877   3.575   4.222  14.694 -1.1454  0.8519 -0.7355
  667MPD2    N1 9878   3.880   4.474  15.097 -0.5607  0.4709 -0.1580
  667MPD2    H7 9879   3.795   4.504  15.144  0.0333 -0.0236  1.2318
  668TMC3    C1 9880   3.978   4.589  15.260 -0.7628 -0.4060 -0.5311
  668TMC3    C2 9881   4.060   4.694  15.286  0.0863 -0.2469  0.7822
  668TMC3    C3 9882   4.056   0.024  15.409  0.3722 -0.0077  0.0343
  668TMC3    C4 9883   3.886   4.540  15.351 -0.5524  1.0222  0.3932
  668TMC3    C5 9884   3.889   4.601  15.479  0.1048 -0.1319 -0.6575
  668TMC3    C6 9885   3.975   4.705  15.512 -0.7008  0.6044 -0.0518
  668TMC3     C 9886   3.998   4.523  15.140 -0.4700  0.0661  0.4071
  668TMC3     O 9887   4.108   4.513  15.090 -0.1356  0.1932  0.3766
  668TMC3     H 9888   4.123   0.009  15.207 -0.6265 -1.1528 -0.2324
  668TMC3    H1 9889   3.819   4.458  15.327  1.2077 -0.3668  0.2301
  668TMC3    H2 9890   3.964   0.032  15.606 -2.0177  0.2040  0.0220
  668TMC3    C7 9891   3.819   4.540  15.600  0.5574 -0.1472 -0.3089
  668TMC3    C8 9892   4.141   0.143  15.436 -0.1087  0.2285 -0.1981
  668TMC3    O1 9893   3.834   4.596  15.705 -0.3716  0.0321  0.0797
  668TMC3    O2 9894   4.178   0.159  15.551  0.6493 -0.4108 -0.5363
  669TMC3    C1 9895   2.150   4.352  14.759 -0.3257 -0.4121 -0.1663
  669TMC3    C2 9896   2.029   4.408  14.729 -0.1185  0.0074  0.1380
  669TMC3    C3 9897   2.030   4.498  14.627  0.1143 -0.4453  0.1453
  669TMC3    C4 9898   2.272   4.406  14.724  0.4178  0.2881  0.1713
  669TMC3    C5 9899   2.261   4.510  14.634  0.5720  0.4616  0.1204
  669TMC3    C6 9900   2.147   4.558  14.582 -0.0256  0.1254 -0.1237
  669TMC3     C 9901   2.156   4.230  14.839 -0.3724 -0.5782 -0.6793
  669TMC3     O 9902   2.053   4.206  14.906  0.5378  0.4816 -0.2434
  669TMC3     H 9903   1.934   4.365  14.760 -0.1312  1.7082  2.4765
  669TMC3    H1 9904   2.364   4.377  14.772 -0.8542 -0.3645  2.2423
  669TMC3    H2 9905   2.143   4.631  14.502 -0.8558 -0.5359 -0.6964
  669TMC3    C7 9906   2.382   4.553  14.575 -0.1644  0.6206  0.0434
  669TMC3    C8 9907   1.921   4.522  14.536 -0.5250  0.6856  1.0021
  669TMC3    O1 9908   2.487   4.537  14.634  0.9091  0.7812  0.3372
  669TMC3    O2 9909   1.952   4.551  14.421 -0.1431 -0.1252  0.6112
  670MPD2     C 9910   0.419   2.365  13.802 -0.5420 -0.4289 -0.7160
  670MPD2    C1 9911   0.495   2.365  13.921  0.0041 -0.4677  0.1616
  670MPD2    C2 9912   0.429   2.328  14.037  0.5474  0.3244 -0.1891
  670MPD2    C3 9913   0.302   2.277  14.033 -0.1574 -0.9766  0.0210
  670MPD2    C4 9914   0.230   2.280  13.917 -0.3920  0.1268 -0.1228
  670MPD2    C5 9915   0.294   2.321  13.803 -0.0351 -0.2754  1.0644
  670MPD2     H 9916   0.496   2.338  14.122  0.7614 -2.2855 -0.0752
  670MPD2    H1 9917   0.136   2.228  13.900  0.3162 -1.6244  1.3353
  670MPD2    H2 9918   0.455   2.403  13.708  1.4146 -0.5556 -0.0130
  670MPD2    H3 9919   0.238   2.312  13.711 -1.8221  3.9924  1.7339
  670MPD2     N 9920   0.235   2.218  14.147 -0.4323 -0.5389 -0.3205
  670MPD2    H5 9921   0.159   2.156  14.122 -1.1105 -0.4083  1.4014
  670MPD2    N1 9922   0.636   2.397  13.931  0.7428  0.2979 -0.3815
  670MPD2    H7 9923   0.676   2.398  14.025 -0.6898 -2.1512  0.2577
  671TMC3    C1 9924   0.207   2.132  14.365  0.2217  0.0675 -0.4801
  671TMC3    C2 9925   0.285   2.074  14.459 -0.2286  0.2835  0.4750
  671TMC3    C3 9926   0.275   1.937  14.463  0.1496  0.1587 -0.5710
  671TMC3    C4 9927   0.099   2.068  14.306  0.1768 -0.3440 -0.8843
  671TMC3    C5 9928   0.091   1.933  14.314  0.2023 -0.3664  0.2881
  671TMC3    C6 9929   0.186   1.866  14.387 -0.2076 -0.2402 -0.0498
  671TMC3     C 9930   0.278   2.228  14.279  0.0707  0.4728  1.1009
  671TMC3     O 9931   0.362   2.308  14.318  0.1630  0.1598 -0.0014
  671TMC3     H 9932   0.378   2.117  14.494  1.2921 -1.6200 -1.2754
  671TMC3    H1 9933   0.019   2.113  14.249 -0.0038  0.6343  0.1604
  671TMC3    H2 9934   0.171   1.760  14.406  0.6077 -0.5722 -1.2523
  671TMC3    C7 9935   4.724   1.854  14.234 -0.1990 -0.3364 -0.1746
  671TMC3    C8 9936   0.397   1.865  14.510  1.2452 -0.0753  0.3263
  671TMC3    O1 9937   4.680   1.920  14.140  0.9132  0.0845  0.0226
  671TMC3    O2 9938   0.479   1.926  14.582 -0.1108  0.4832  0.0754
  672MPD2     C 9939   0.742   2.875   1.409 -0.0497 -0.2104  0.2971
  672MPD2    C1 9940   0.881   2.858   1.398  0.5694  1.0559 -0.4021
  672MPD2    C2 9941   0.964   2.960   1.436 -0.2493  0.0832 -0.6526
  672MPD2    C3 9942   0.916   3.089   1.461 -0.3123 -0.4177 -0.1742
  672MPD2    C4 9943   0.777   3.100   1.475  0.2304 -0.0632 -0.3243
  672MPD2    C5 9944   0.695   2.996   1.448 -0.5149  0.1640 -0.0569
  672MPD2     H 9945   1.071   2.957   1.416 -0.4728 -0.5634 -1.7027
  672MPD2    H1 9946   0.733   3.191   1.515 -1.6648 -0.9286 -0.4342
  672MPD2    H2 9947   0.675   2.791   1.393  0.1907  0.0432 -2.0391
  672MPD2    H3 9948   0.588   3.010   1.443 -0.4519  1.0148  1.1702
  672MPD2     N 9949   0.996   3.208   1.473 -0.3390 -0.4797 -0.0390
  672MPD2    H5 9950   0.944   3.294   1.459 -0.0879 -0.3019  0.1066
  672MPD2    N1 9951   0.936   2.746   1.338  0.4172  0.1014  0.0180
  672MPD2    H7 9952   1.037   2.735   1.335  0.4204 -0.4551  2.5340
  673TMC3    C1 9953   0.951   2.561   1.189 -0.5177 -0.0758  0.5099
  673TMC3    C2 9954   1.066   2.510   1.242  0.3305  1.0671 -0.1794
  673TMC3    C3 9955   1.157   2.442   1.159 -0.2657  0.3694 -0.1177
  673TMC3    C4 9956   0.929   2.554   1.060  0.1718 -0.0173  0.0823
  673TMC3    C5 9957   1.021   2.499   0.974  0.3084  0.1676  0.2913
  673TMC3    C6 9958   1.140   2.444   1.022  0.1965 -0.1057 -0.7444
  673TMC3     C 9959   0.867   2.658   1.256 -0.3040  0.0233  0.2469
  673TMC3     O 9960   0.749   2.653   1.219  0.0664  0.3583 -0.1478
  673TMC3     H 9961   1.077   2.507   1.350  1.1201 -3.4177 -0.3611
  673TMC3    H1 9962   0.842   2.600   1.016  0.9322  2.4158  1.1107
  673TMC3    H2 9963   1.213   2.407   0.951 -0.5710 -0.4669 -1.3622
  673TMC3    C7 9964   1.013   2.537   0.834 -0.2100 -0.0100 -0.4928
  673TMC3    C8 9965   1.273   2.377   1.210  0.6451 -0.3218 -0.4019
  673TMC3    O1 9966   1.078   2.470   0.755 -0.6432 -0.3320  0.2086
  673TMC3    O2 9967   1.329   2.298   1.136 -0.4268 -0.0054  0.5573
  674MPD2     C 9968   0.024   2.322  17.481  0.2942  0.1518  0.6979
  674MPD2    C1 9969   0.098   2.324  17.596  0.4821  0.4185 -0.6750
  674MPD2    C2 9970   0.048   2.391   0.006 -0.5585 -1.0111 -0.2150
  674MPD2    C3 9971   4.642   2.438   0.008  0.5974  0.2163 -0.2893
  674MPD2    C4 9972   4.561   2.425  17.595  0.0335 -0.1804  0.1548
  674MPD2    C5 9973   4.618   2.369  17.482 -0.3257  0.4305 -0.7285
  674MPD2     H 9974   0.106   2.403   0.097 -1.0884  0.5911 -0.0884
  674MPD2    H1 9975   4.456   2.454  17.592 -0.3509 -1.2415  3.0494
  674MPD2    H2 9976   0.063   2.283  17.387  0.9120  1.5524  0.3688
  674MPD2    H3 9977   4.555   2.354  17.395 -0.2286  0.4700 -0.8056
  674MPD2     N 9978   4.585   2.484   0.126 -0.0194  0.2040  0.0236
  674MPD2    H5 9979   4.640   2.502   0.209 -0.1233 -2.3385  0.6517
  674MPD2    N1 9980   0.218   2.258  17.594  0.3622  0.8640  0.3497
  674MPD2    H7 9981   0.248   2.233  17.500  0.9247 -0.3033  0.8395
  675TMC3    C1 9982   0.407   2.135  17.661 -0.4837  0.4621 -0.1734
  675TMC3    C2 9983   0.436   2.030   0.040  0.1346  0.0035 -0.0592
  675TMC3    C3 9984   0.565   1.982   0.061  0.6773 -1.2463 -0.0851
  675TMC3    C4 9985   0.510   2.208  17.603 -0.1561 -0.8275  0.0847
  675TMC3    C5 9986   0.641   2.163  17.628  0.2749 -0.1002  0.4613
  675TMC3    C6 9987   0.672   2.051   0.007  0.6869  0.5988  0.0152
  675TMC3     C 9988   0.282   2.201  17.699 -0.3341  0.9417  0.3683
  675TMC3     O 9989   0.248   2.202   0.115 -0.2032 -0.3656 -0.1089
  675TMC3     H 9990   0.350   1.985   0.088 -0.9551  0.9463 -1.1607
  675TMC3    H1 9991   0.492   2.301  17.550  3.1304 -1.5907 -2.4106
  675TMC3    H2 9992   0.776   2.029   0.024 -0.0480 -0.2810  3.3545
  675TMC3    C7 9993   0.759   2.247  17.602  0.5265 -0.0543 -0.7866
  675TMC3    C8 9994   0.603   1.889   0.163 -0.0544  0.2049  0.1763
  675TMC3    O1 9995   0.780   2.274  17.487 -0.0629  0.0592  0.1615
  675TMC3    O2 9996   0.721   1.880   0.196  0.5468  0.1061  0.2073
  676MPD2     C 9997   3.221   0.564  11.032 -0.0392  0.2733 -0.0038
  676MPD2    C1 9998   3.229   0.516  11.162  0.0465 -0.0788 -0.0049
  676MPD2    C2 9999   3.238   0.379  11.187 -0.0004 -0.3482  0.1865
  676MPD2    C310000   3.255   0.297  11.077  0.6238  0.3959  0.3506
  676MPD2    C410001   3.263   0.349  10.944  0.1058 -0.7735  0.3456
  676MPD2    C510002   3.247   0.481  10.922 -0.1652  0.6365  0.4204
  676MPD2     H10003   3.245   0.343  11.288 -0.1033  2.3674  1.1613
  676MPD2    H110004   3.279   0.290  10.854 -0.3293 -0.1572 -0.1335
  676MPD2    H210005   3.197   0.669  11.019  1.3410  0.3907 -1.5289
  676MPD2    H310006   3.251   0.507  10.817 -0.7219  0.5616  0.3779
  676MPD2     N10007   3.277   0.155  11.094 -0.7519 -0.0125 -0.2326
  676MPD2    H510008   3.270   0.100  11.009  5.1535 -1.0980  0.0363
  676MPD2    N110009   3.218   0.595  11.273 -0.0640 -0.2108  0.2332
  676MPD2    H710010   3.191   0.543  11.356 -0.4837  1.9476  1.4353
  677TMC3    C110011   3.223   0.789  11.399  0.9129 -0.1451 -0.1147
  677TMC3    C210012   3.158   0.711  11.493  0.3134  0.4474  0.1516
  677TMC3    C310013   3.099   0.780  11.596  0.8711 -0.0281 -0.8061
  677TMC3    C410014   3.218   0.923  11.398 -0.3910  0.3487 -0.0196
  677TMC3    C510015   3.171   0.985  11.506 -0.3912 -0.4054 -0.2370
  677TMC3    C610016   3.101   0.915  11.604  0.4398 -0.5977  0.4049
  677TMC3     C10017   3.250   0.732  11.272 -0.6601  0.0627  0.7899
  677TMC3     O10018   3.308   0.798  11.182  0.3715 -1.0987 -0.2328
  677TMC3     H10019   3.180   0.605  11.498 -0.4934  0.1741 -2.5194
  677TMC3    H110020   3.258   0.979  11.314 -0.1623  0.1383 -0.0525
  677TMC3    H210021   3.035   0.968  11.672 -0.1550  0.4968 -1.0160
  677TMC3    C710022   3.164   1.131  11.510 -0.5336 -0.4772 -0.4801
  677TMC3    C810023   3.096   0.709  11.723  0.5170 -0.2192  0.7049
  677TMC3    O110024   3.067   1.182  11.565 -0.7276  0.0854  0.2145
  677TMC3    O210025   3.126   0.591  11.734  0.1569  0.0410  0.3528
  678MPD2     C10026   4.261   0.395   2.161  0.3801 -0.5512  0.0364
  678MPD2    C110027   4.232   0.429   2.029  0.3728  1.0007 -0.4960
  678MPD2    C210028   4.099   0.449   2.003 -0.0481 -0.0551  0.8742
  678MPD2    C310029   3.997   0.430   2.100  0.3962  0.6226 -0.1560
  678MPD2    C410030   4.031   0.397   2.224  0.2363 -0.2707  0.0057
  678MPD2    C510031   4.161   0.368   2.253 -0.1401  0.4469  0.4826
  678MPD2     H10032   4.067   0.473   1.902 -1.4819  0.4549  1.4544
  678MPD2    H110033   3.962   0.373   2.303  0.0800 -1.4280 -0.4714
  678MPD2    H210034   4.359   0.354   2.184 -0.6851 -2.2924  1.4868
  678MPD2    H310035   4.188   0.317   2.344 -3.0915 -1.9024  0.0369
  678MPD2     N10036   3.855   0.456   2.067  0.3453 -0.3987  0.1999
  678MPD2    H510037   3.830   0.508   1.983  0.0246 -0.2031  0.4165
  678MPD2    N110038   4.328   0.441   1.924 -0.2003  0.1655  0.4847
  678MPD2    H710039   4.292   0.470   1.834  1.2706  0.6588  0.0605
  679TMC3    C110040   0.029   0.420   1.708  0.4280 -0.4152  0.3223
  679TMC3    C210041   4.677   0.396   1.818  0.3868 -0.1414  0.4139
  679TMC3    C310042   4.537   0.424   1.811  0.9776 -0.5515  0.4501
  679TMC3    C410043   4.704   0.444   1.583  0.1320  0.1488  0.0057
  679TMC3    C510044   4.570   0.463   1.574  0.4188  0.1460  0.6030
  679TMC3    C610045   4.488   0.454   1.686 -0.7437 -0.5305 -0.2452
  679TMC3     C10046   0.156   0.345   1.707 -0.6574 -0.1348  0.2085
  679TMC3     O10047   0.222   0.351   1.606  0.0797  0.1884 -0.1418
  679TMC3     H10048   4.708   0.371   1.918  0.8785 -0.1783  0.2532
  679TMC3    H110049   0.051   0.458   1.503  1.3221 -2.4665  0.6273
  679TMC3    H210050   4.385   0.477   1.663 -0.9059  0.0284  1.0178
  679TMC3    C710051   4.516   0.490   1.448 -0.0950  0.0684  0.8180
  679TMC3    C810052   4.461   0.415   1.937 -0.7688  0.0551  0.0372
  679TMC3    O110053   4.400   0.520   1.439  1.2154 -0.0629  0.0510
  679TMC3    O210054   4.522   0.400   2.042 -0.0743 -0.1220  0.5664
  680MPD2     C10055   4.668   4.276  13.943 -0.1657  0.2084  0.1144
  680MPD2    C110056   0.046   4.232  14.021  0.7881 -0.3433  1.0726
  680MPD2    C210057   0.124   4.322  14.093 -0.2463  0.5195  0.4437
  680MPD2    C310058   0.088   4.456  14.105  0.0157  0.3927  0.3180
  680MPD2    C410059   4.705   4.499  14.033  0.4182 -0.3907  0.5426
  680MPD2    C510060   4.639   4.411  13.950 -0.2711 -0.1847 -0.6782
  680MPD2     H10061   0.202   4.286  14.158 -1.0943 -1.6984  0.2093
  680MPD2    H110062   4.670   4.597  14.063  0.4912  0.2893 -1.6091
  680MPD2    H210063   4.603   4.219  13.876 -0.5228  0.2350  0.4356
  680MPD2    H310064   4.553   4.444  13.894  1.1062  0.6514 -2.3122
  680MPD2     N10065   0.167   4.541  14.192 -0.1736 -0.0843 -0.2170
  680MPD2    H510066   0.232   4.498  14.256 -0.6444 -0.4336  0.0291
  680MPD2    N110067   0.091   4.098  14.000 -0.0343  0.7746  0.2396
  680MPD2    H710068   0.019   4.031  13.976  1.6728 -0.0151 -2.6831
  681TMC3    C110069   0.228   3.911  13.985  0.0659  0.1415 -0.2001
  681TMC3    C210070   0.131   3.837  14.040 -0.3894  0.4518  0.3388
  681TMC3    C310071   0.154   3.705  14.071 -0.3771 -0.8769  1.1013
  681TMC3    C410072   0.350   3.854  13.959 -0.5269 -0.9753 -0.3148
  681TMC3    C510073   0.367   3.722  13.987 -0.1529  0.4302  0.0460
  681TMC3    C610074   0.276   3.643  14.049 -0.2107  0.7293 -0.7601
  681TMC3     C10075   0.223   4.052  14.014 -0.1192 -0.0195 -0.0156
  681TMC3     O10076   0.320   4.122  14.030  0.5946 -0.1754 -0.1307
  681TMC3     H10077   0.037   3.879  14.073 -1.1277 -0.2176 -0.9136
  681TMC3    H110078   0.433   3.922  13.940 -1.3961 -0.9468 -4.0121
  681TMC3    H210079   0.292   3.538  14.068 -3.1378  0.5180  0.4991
  681TMC3    C710080   0.462   3.645  13.905  0.6092 -0.3678 -0.2228
  681TMC3    C810081   0.074   3.661  14.181  0.3378 -0.1112  0.4264
  681TMC3    O110082   0.516   3.543  13.955  0.0819  0.0425  0.2826
  681TMC3    O210083   4.680   3.701  14.192  0.3063 -0.6894  0.6040
  682MPD2     C10084   2.820   0.968  10.614 -0.3138 -0.2905  0.2864
  682MPD2    C110085   2.688   0.957  10.646 -0.2672 -0.1444  0.1228
  682MPD2    C210086   2.643   1.037  10.751  0.5412 -0.0561  0.7392
  682MPD2    C310087   2.725   1.111  10.836 -0.3563 -0.1415  0.0923
  682MPD2    C410088   2.856   1.114  10.808  0.4084 -0.0099  0.7232
  682MPD2    C510089   2.902   1.045  10.694 -0.1687  0.3219 -0.4148
  682MPD2     H10090   2.540   1.016  10.778  0.9780 -1.8209  1.0581
  682MPD2    H110091   2.931   1.158  10.872 -0.3888  2.0131  0.2727
  682MPD2    H210092   2.865   0.900  10.542  0.1154 -0.2402  0.5104
  682MPD2    H310093   3.009   1.043  10.678 -0.0934  2.6021 -0.2835
  682MPD2     N10094   2.673   1.169  10.953  0.4273  0.7203 -0.4151
  682MPD2    H510095   2.737   1.222  11.012  1.1809 -1.2927  0.5801
  682MPD2    N110096   2.589   0.884  10.572 -0.6069 -1.0502 -0.2031
  682MPD2    H710097   2.494   0.883  10.608 -1.8913  2.3900 -3.5020
  683TMC3    C110098   2.583   1.385  11.299 -0.0193 -0.1459 -0.8641
  683TMC3    C210099   2.457   1.417  11.329  0.7396 -0.4105  0.4120
  683TMC3    C310100   2.362   1.374  11.245 -0.4285 -0.0946 -0.2444
  683TMC3    C410101   2.622   1.320  11.178 -0.0244 -0.5213 -0.0304
  683TMC3    C510102   2.525   1.274  11.096 -0.1472 -0.2557 -0.6137
  683TMC3    C610103   2.399   1.303  11.129  0.2802 -0.3716  0.1129
  683TMC3     C10104   2.659   1.353  11.416 -0.1828  0.3995  0.2186
  683TMC3     O10105   2.781   1.324  11.403  0.1137 -0.0415  0.0439
  683TMC3     H10106   2.430   1.482  11.412  0.9210 -0.5135  0.5532
  683TMC3    H110107   2.727   1.293  11.170  0.5964  3.1418 -4.6898
  683TMC3    H210108   2.317   1.283  11.061 -0.2317  1.0382  0.3039
  683TMC3    C710109   2.544   1.192  10.982 -0.1003 -0.0049 -0.3250
  683TMC3    C810110   2.236   1.322  11.303  0.1106  0.7641  0.2559
  683TMC3    O110111   2.445   1.142  10.933 -0.0432 -0.1752  0.2345
  683TMC3    O210112   2.164   1.403  11.364  0.7898  0.6030  0.0864
  684MPD2     C10113   0.120   0.042  16.633 -0.3964 -0.1667 -0.6090
  684MPD2    C110114   0.125   0.058  16.495  0.3177  0.4955 -0.2228
  684MPD2    C210115   0.156   0.183  16.445  0.6135  0.1320  0.4948
  684MPD2    C310116   0.196   0.290  16.521  1.4068  0.0098 -0.6531
  684MPD2    C410117   0.191   0.276  16.651  0.1981  0.3199 -0.3686
  684MPD2    C510118   0.143   0.156  16.711  0.8557  0.2096 -0.3144
  684MPD2     H10119   0.149   0.204  16.339  1.5200  0.4013  0.4870
  684MPD2    H110120   0.227   0.356  16.714 -1.0492  1.2567 -0.8369
  684MPD2    H210121   0.090   4.677  16.686  1.0994 -1.2169 -1.5068
  684MPD2    H310122   0.147   0.145  16.819 -0.1388 -1.3223 -0.4238
  684MPD2     N10123   0.249   0.407  16.458  0.4591 -0.4074 -0.2368
  684MPD2    H510124   0.283   0.478  16.523  0.1411 -0.3351 -0.1502
  684MPD2    N110125   0.085   4.688  16.402 -0.2830  0.3695  0.2770
  684MPD2    H710126   0.053   4.724  16.313 -3.0620  1.3903  1.6840
  685TMC3    C110127   0.070   4.465  16.315 -0.0887 -0.1139  0.5776
  685TMC3    C210128   4.720   4.514  16.214 -0.1913  0.5521 -0.0466
  685TMC3    C310129   0.014   4.476  16.089  0.4987 -0.0591  0.1247
  685TMC3    C410130   0.171   4.372  16.287 -0.6433 -0.5004  0.3318
  685TMC3    C510131   0.199   4.345  16.158 -0.0172  0.4710  0.3687
  685TMC3    C610132   0.120   4.395  16.062 -0.3128  0.3892  0.8787
  685TMC3     C10133   0.087   4.555  16.426 -0.2308  0.3469  0.2224
  685TMC3     O10134   0.151   4.498  16.514 -0.6648  0.2192 -0.1706
  685TMC3     H10135   4.648   4.589  16.243  1.5160  0.7786  3.5448
  685TMC3    H110136   0.233   4.328  16.364 -0.5311 -0.9479 -0.0123
  685TMC3    H210137   0.128   4.362  15.959 -2.1682 -1.6842  1.3748
  685TMC3    C710138   0.340   4.338  16.133  1.3967  0.3910  0.4213
  685TMC3    C810139   4.639   4.508  15.987 -0.2762 -0.3953  0.5656
  685TMC3    O110140   0.415   4.278  16.212  0.4276 -0.0131 -0.2245
  685TMC3    O210141   4.674   4.489  15.872 -0.0319  0.5545  0.0000
  686MPD2     C10142   1.868   4.719  15.594 -0.2057  0.1756  0.7134
  686MPD2    C110143   1.807   4.619  15.665 -0.6137 -0.4367 -0.3293
  686MPD2    C210144   1.774   4.504  15.602 -0.5213 -0.1178 -0.1862
  686MPD2    C310145   1.804   4.488  15.466 -0.1175  0.4199  0.5945
  686MPD2    C410146   1.885   4.589  15.404 -0.0791  0.0964  0.2930
  686MPD2    C510147   1.906   4.707  15.465 -0.0279  0.4804  0.1100
  686MPD2     H10148   1.720   4.428  15.658 -1.6702 -0.0474 -1.2190
  686MPD2    H110149   1.913   4.572  15.301  3.3469 -0.9270  1.3962
  686MPD2    H210150   1.895   0.086  15.646  0.1391 -0.1681  1.1385
  686MPD2    H310151   1.962   0.062  15.417 -0.2323 -0.1118 -1.1210
  686MPD2     N10152   1.769   4.380  15.384  0.1361  0.8771 -0.5188
  686MPD2    H510153   1.803   4.385  15.289 -0.7340  1.7064 -0.7942
  686MPD2    N110154   1.782   4.641  15.806  0.3981 -0.6561  0.2378
  686MPD2    H710155   1.829   4.720  15.849 -2.6231  0.8147  0.8146
  687TMC3    C110156   1.701   4.209  15.543 -0.0179 -0.3174 -0.8477
  687TMC3    C210157   1.581   4.223  15.601 -0.2384 -0.7181  0.7766
  687TMC3    C310158   1.580   4.185  15.731 -1.0638  0.1531 -0.5654
  687TMC3    C410159   1.816   4.165  15.604  0.1965  0.3238 -0.1741
  687TMC3    C510160   1.812   4.134  15.736 -0.1451  0.4052 -0.2709
  687TMC3    C610161   1.691   4.134  15.801  0.1097 -0.7478  0.8575
  687TMC3     C10162   1.715   4.257  15.412  0.0916 -0.3801 -0.0957
  687TMC3     O10163   1.671   4.184  15.323  0.2678  0.5796 -1.0465
  687TMC3     H10164   1.495   4.242  15.538  0.3010 -2.0449 -0.3545
  687TMC3    H110165   1.906   4.148  15.546 -0.1630 -2.5672  0.1024
  687TMC3    H210166   1.688   4.130  15.909  0.5049  3.1360  0.9785
  687TMC3    C710167   1.930   4.189  15.805 -0.2398  0.2192 -0.0760
  687TMC3    C810168   1.463   4.236  15.798  0.6870 -1.2186  0.0284
  687TMC3    O110169   1.950   4.165  15.922  0.0459 -0.3081 -0.1852
  687TMC3    O210170   1.426   4.193  15.907  0.2598  0.1847 -0.6391
  688MPD2     C10171   0.713   3.758  17.143  0.0428  0.0324 -0.1863
  688MPD2    C110172   0.793   3.680  17.223  0.2266 -0.4891  0.3479
  688MPD2    C210173   0.928   3.651  17.187 -0.2882  0.0263 -0.2184
  688MPD2    C310174   0.972   3.688  17.064  0.2264  0.3704  0.4418
  688MPD2    C410175   0.892   3.768  16.987 -0.4660 -0.3523  0.2217
  688MPD2    C510176   0.768   3.805  17.023 -0.3056  1.2500 -0.3883
  688MPD2     H10177   1.000   3.605  17.254 -1.7265 -3.0337 -0.7188
  688MPD2    H110178   0.926   3.798  16.889  0.3890  0.3500  0.7329
  688MPD2    H210179   0.606   3.771  17.155 -0.1562 -0.8198 -1.0381
  688MPD2    H310180   0.712   3.868  16.955 -0.3483  1.4740 -0.1461
  688MPD2     N10181   1.105   3.666  17.019 -0.3628  0.1540  0.4526
  688MPD2    H510182   1.142   3.703  16.932 -0.3163  0.7193  0.7134
  688MPD2    N110183   0.750   3.642  17.352  0.6928  0.4920 -0.0114
  688MPD2    H710184   0.821   3.587  17.401  1.1156  0.3240 -0.8143
  689TMC3    C110185   0.640   3.627  17.549 -0.3033  0.6067 -0.2103
  689TMC3    C210186   0.656   3.713  17.650 -0.2970 -0.1122  0.3604
  689TMC3    C310187   0.709   3.667   0.068  0.2318  0.6842 -0.2396
  689TMC3    C410188   0.682   3.499  17.564 -0.1248  0.0684  0.0550
  689TMC3    C510189   0.733   3.451  17.678 -0.3304  0.5894 -0.1788
  689TMC3    C610190   0.739   3.533   0.085 -0.0075  0.0135  0.4644
  689TMC3     C10191   0.633   3.678  17.412  0.0943  0.4346  0.7001
  689TMC3     O10192   0.548   3.766  17.388  0.6751 -0.2409  0.3982
  689TMC3     H10193   0.637   3.818  17.627 -2.8775 -0.8901 -1.0835
  689TMC3    H110194   0.664   3.431  17.483 -1.3729  0.4113  0.0517
  689TMC3    H210195   0.794   3.510   0.176 -0.9161 -0.8809  0.7884
  689TMC3    C710196   0.797   3.321  17.680 -0.6378 -0.7161  0.3503
  689TMC3    C810197   0.771   3.766   0.154  0.2147  0.0113  0.1912
  689TMC3    O110198   0.876   3.301   0.073 -0.2472  0.3655 -0.7858
  689TMC3    O210199   0.782   3.731   0.274 -0.9895  0.2541 -0.3761
  690MPD2     C10200   2.496   0.655  15.746 -0.2539 -1.2444  0.2749
  690MPD2    C110201   2.594   0.572  15.801 -0.7335 -0.4539 -0.3527
  690MPD2    C210202   2.723   0.590  15.760  0.1506  0.3061 -0.2348
  690MPD2    C310203   2.757   0.689  15.675  0.0130  0.6909  0.1400
  690MPD2    C410204   2.662   0.772  15.622  0.1915  0.1330 -0.2848
  690MPD2    C510205   2.532   0.753  15.660  1.0925  0.5598 -0.0177
  690MPD2     H10206   2.789   0.517  15.805 -0.0197  1.2240  1.5087
  690MPD2    H110207   2.678   0.853  15.551  0.3815 -1.4388 -2.0485
  690MPD2    H210208   2.390   0.640  15.766 -0.8609  0.9227 -1.3429
  690MPD2    H310209   2.452   0.810  15.614  0.8769 -2.1445 -2.9680
  690MPD2     N10210   2.897   0.700  15.638 -0.5487 -0.7220 -0.6215
  690MPD2    H510211   2.957   0.636  15.689  1.3583  1.6111  0.0537
  690MPD2    N110212   2.574   0.485  15.912  0.0821 -0.2957 -0.0496
  690MPD2    H710213   2.652   0.437  15.955  0.6000  0.7175  0.1606
  691TMC3    C110214   2.469   0.414  16.101 -0.6591 -0.0470 -0.2699
  691TMC3    C210215   2.399   0.475  16.208 -0.2134  0.3702 -0.0114
  691TMC3    C310216   2.425   0.434  16.335 -0.0087  0.2284 -0.0464
  691TMC3    C410217   2.570   0.327  16.126 -0.2326 -0.2154  0.0235
  691TMC3    C510218   2.586   0.287  16.258 -0.2811  0.0891 -0.3141
  691TMC3    C610219   2.523   0.347  16.363 -0.0762  0.2459 -0.1853
  691TMC3     C10220   2.451   0.471  15.971 -0.1915  0.5333 -0.5485
  691TMC3     O10221   2.338   0.497  15.942 -0.0712  0.0798  0.2751
  691TMC3     H10222   2.321   0.547  16.185  0.0205 -0.4969 -3.5694
  691TMC3    H110223   2.627   0.271  16.052  3.0918  0.5950  1.9409
  691TMC3    H210224   2.539   0.323  16.467 -1.3147 -0.8942 -0.2464
  691TMC3    C710225   2.648   0.153  16.297  0.2926 -0.3450 -0.5508
  691TMC3    C810226   2.385   0.523  16.445 -0.3377 -0.0953 -0.3178
  691TMC3    O110227   2.704   0.149  16.407  0.0032 -0.8652  0.2039
  691TMC3    O210228   2.474   0.555  16.528 -0.2815 -0.0098 -0.0938
  692TMC3    C110229   0.015   1.697  16.372 -0.2729  0.3964  0.7858
  692TMC3    C210230   0.133   1.662  16.443 -0.7918 -0.4826 -0.1819
  692TMC3    C310231   0.225   1.569  16.395 -0.8761  0.1210  0.2888
  692TMC3    C410232   4.692   1.623  16.268 -0.5069  0.2206 -0.0225
  692TMC3    C510233   0.058   1.529  16.221  0.4399 -0.1771  0.4007
  692TMC3    C610234   0.183   1.510  16.281 -0.2751 -0.4174  0.0790
  692TMC3     C10235   4.664   1.825  16.398 -0.5349  0.5268 -0.4632
  692TMC3     O10236   4.563   1.837  16.328  0.1994 -0.6908  0.5953
  692TMC3     H10237   0.177   1.732  16.512 -2.1040 -1.9345  2.1249
  692TMC3    H110238   4.593   1.636  16.226 -1.2528  1.9313  2.3360
  692TMC3    H210239   0.248   1.432  16.245 -2.2693 -2.1731  0.2352
  692TMC3    C710240   4.712   1.418  16.160 -0.4408  0.0699  0.2367
  692TMC3    C810241   0.256   1.467  16.491  0.7410  0.5831  0.0095
  692TMC3    O110242   4.593   1.439  16.121  0.3515 -0.5918 -0.3045
  692TMC3    O210243   0.276   1.355  16.451 -0.7169  0.7968 -0.4354
  693MPD2     C10244   4.640   4.246  10.953 -0.2823 -0.8585 -0.3990
  693MPD2    C110245   4.565   4.176  11.050 -0.0151  0.3077 -0.6116
  693MPD2    C210246   4.627   4.093  11.137 -0.7168 -0.3258  0.2759
  693MPD2    C310247   0.043   4.065  11.135 -0.2423  0.6012  0.2546
  693MPD2    C410248   0.111   4.114  11.023  0.4209 -0.1453  0.3854
  693MPD2    C510249   0.047   4.209  10.938 -0.3035  0.0272 -0.2049
  693MPD2     H10250   4.568   4.047  11.215 -1.2036 -2.4621 -1.3662
  693MPD2    H110251   0.219   4.108  11.010  0.4864  0.3281  0.6981
  693MPD2    H210252   4.602   4.334  10.903  0.3543 -0.5028 -0.2537
  693MPD2    H310253   0.102   4.275  10.873 -0.4412  0.6961  0.3571
  693MPD2     N10254   0.113   3.977  11.223 -0.2168  0.9553 -0.3398
  693MPD2    H510255   0.206   3.951  11.190 -0.6440  0.3531 -1.0884
  693MPD2    N110256   4.424   4.199  11.072 -0.9282  0.2387 -0.1707
  693MPD2    H710257   4.387   4.171  11.162  0.4539 -3.5785 -0.7846
  694TMC3    C110258   4.199   4.204  11.017 -0.6187  0.6528 -0.7843
  694TMC3    C210259   4.135   4.111  10.936  0.0738  0.1470  0.3026
  694TMC3    C310260   4.016   4.064  10.986  0.3177  0.3864 -0.1134
  694TMC3    C410261   4.168   4.222  11.143 -0.0246 -1.1594  0.1767
  694TMC3    C510262   4.058   4.163  11.190 -0.5450 -0.8187  0.8573
  694TMC3    C610263   3.972   4.086  11.114 -0.0813  0.5433  0.1669
  694TMC3     C10264   4.336   4.227  10.970 -0.3373 -0.1877 -0.0940
  694TMC3     O10265   4.360   4.249  10.854 -0.7322  0.0048 -0.6338
  694TMC3     H10266   4.174   4.096  10.836 -0.1013 -0.0305  0.2621
  694TMC3    H110267   4.223   4.296  11.202  1.0647 -0.3263 -1.8845
  694TMC3    H210268   3.880   4.043  11.153 -0.2799 -0.7078 -1.6218
  694TMC3    C710269   4.023   4.185  11.327 -0.0854  0.2046 -0.6408
  694TMC3    C810270   3.952   3.959  10.914  0.0275 -0.0948  0.1963
  694TMC3    O110271   4.070   4.287  11.381 -0.0973 -0.1098  0.8247
  694TMC3    O210272   3.846   3.923  10.966 -0.4675  0.6594  0.1919
  695MPD2     C10273   0.642   1.357  13.517  0.2659  0.5610  0.0354
  695MPD2    C110274   0.549   1.322  13.612  0.1660 -0.1224  0.6521
  695MPD2    C210275   0.419   1.381  13.594  0.1768  0.1086 -0.4843
  695MPD2    C310276   0.394   1.468  13.486 -0.0842  0.9012  0.2765
  695MPD2    C410277   0.490   1.485  13.385  0.5382  0.8109 -0.0824
  695MPD2    C510278   0.614   1.425  13.399 -0.2686 -0.1760 -0.4571
  695MPD2     H10279   0.343   1.364  13.669  0.1068  0.0240 -0.5761
  695MPD2    H110280   0.469   1.552  13.303  0.8953 -0.6700 -1.3746
  695MPD2    H210281   0.741   1.315  13.520  0.8699  2.0995  1.5852
  695MPD2    H310282   0.691   1.439  13.323  0.0721  0.2161 -0.0404
  695MPD2     N10283   0.269   1.532  13.495  0.7681 -0.4047 -0.0695
  695MPD2    H510284   0.222   1.512  13.583 -1.5984 -0.9876 -1.4811
  695MPD2    N110285   0.570   1.265  13.743 -0.4156 -0.3357  0.3294
  695MPD2    H710286   0.494   1.267  13.810 -0.3638 -0.4335  0.3916
  696TMC3    C110287   0.108   1.712  13.473  0.7142  0.9208 -1.2303
  696TMC3    C210288   0.043   1.676  13.590  0.3915  0.1571  0.3887
  696TMC3    C310289   4.654   1.738  13.637 -0.1138  0.7930  0.5557
  696TMC3    C410290   0.065   1.829  13.406  0.0840 -0.3875 -0.7504
  696TMC3    C510291   4.687   1.906  13.466  0.6005  0.1563  0.3114
  696TMC3    C610292   4.616   1.865  13.583  0.1221  0.3185  0.2476
  696TMC3     C10293   0.220   1.636  13.414 -0.6763 -0.1034  0.1189
  696TMC3     O10294   0.269   1.687  13.316 -1.0340 -0.2589  0.7030
  696TMC3     H10295   0.081   1.592  13.647 -1.4495 -1.3753 -0.6431
  696TMC3    H110296   0.122   1.865  13.322  1.4358 -0.5878  0.0886
  696TMC3    H210297   4.524   1.911  13.617  0.3121  2.9419 -2.7467
  696TMC3    C710298   4.694   2.041  13.436 -0.0871 -0.0083 -0.2708
  696TMC3    C810299   4.597   1.708  13.768 -0.3582  0.3319  0.3272
  696TMC3    O110300   4.721   2.071  13.317  0.3536 -0.2733 -0.4754
  696TMC3    O210301   4.529   1.794  13.821 -0.0470 -0.6147 -0.3001
  697MPD2     C10302   4.428   3.233  16.260  0.0954  0.0263 -0.5205
  697MPD2    C110303   4.454   3.194  16.130  0.0627 -0.1130 -0.0529
  697MPD2    C210304   4.494   3.288  16.033  0.0024 -0.1323 -0.0137
  697MPD2    C310305   4.495   3.422  16.067  0.1933  0.0970  0.2620
  697MPD2    C410306   4.449   3.464  16.194  0.7884 -0.0579 -0.4333
  697MPD2    C510307   4.433   3.369  16.285  0.9543  0.7342 -0.1656
  697MPD2     H10308   4.524   3.255  15.934  0.1043  4.5075 -1.5070
  697MPD2    H110309   4.437   3.566  16.230 -0.9536 -1.2811  2.4651
  697MPD2    H210310   4.412   3.167  16.345  0.0178  0.3615 -0.2755
  697MPD2    H310311   4.403   3.394  16.387 -1.4368 -0.5356 -0.5563
  697MPD2     N10312   4.510   3.506  15.957 -0.2855  0.3765  0.0703
  697MPD2    H510313   4.535   3.461  15.869  1.7313 -0.2672  0.9908
  697MPD2    N110314   4.448   3.061  16.089 -0.0603 -0.0078  0.3158
  697MPD2    H710315   4.431   3.042  15.991  2.0668  0.5478 -0.1353
  698TMC3    C110316   4.459   3.704  15.824  0.9745  0.1285  0.2865
  698TMC3    C210317   4.406   3.835  15.821  0.5421  0.8758  0.1950
  698TMC3    C310318   4.370   3.890  15.704 -0.1225 -0.2046 -0.3913
  698TMC3    C410319   4.459   3.625  15.710 -0.8272 -0.4105  0.1677
  698TMC3    C510320   4.406   3.687  15.601  0.0993  0.0338  0.6541
  698TMC3    C610321   4.376   3.816  15.586  0.0166 -0.3994  0.0730
  698TMC3     C10322   4.490   3.640  15.957  0.0419 -0.3049 -0.6703
  698TMC3     O10323   4.486   3.718  16.052 -0.1805 -0.0526  0.0910
  698TMC3     H10324   4.387   3.881  15.917  2.3798  0.2173  0.8804
  698TMC3    H110325   4.485   3.520  15.710  2.6315  0.4315 -0.4456
  698TMC3    H210326   4.336   3.853  15.493  1.7409  0.3078 -0.3798
  698TMC3    C710327   4.411   3.611  15.477 -0.0724 -0.3881  0.4189
  698TMC3    C810328   4.390   4.034  15.690 -0.2520  0.4692  0.0516
  698TMC3    O110329   4.335   3.648  15.390 -0.2877  0.2335 -0.4126
  698TMC3    O210330   4.378   4.106  15.790 -0.4737  0.1269 -0.3950
  699TMC3    C110331   0.410   1.100  13.135 -0.2602  0.3029 -0.5160
  699TMC3    C210332   0.480   1.061  13.244 -0.2829 -0.5422  0.2355
  699TMC3    C310333   0.426   0.961  13.324  0.7849  0.8124 -0.6133
  699TMC3    C410334   0.293   1.033  13.095 -0.4643 -0.0421  0.1351
  699TMC3    C510335   0.247   0.936  13.178  0.3216  0.2452  0.3320
  699TMC3    C610336   0.308   0.896  13.291  0.3035  0.2514 -0.3349
  699TMC3     C10337   0.430   1.227  13.080 -0.0416  0.2457  0.2583
  699TMC3     O10338   0.335   1.281  13.034 -0.5265 -0.2517 -0.8630
  699TMC3     H10339   0.568   1.113  13.280 -0.1258  0.0530 -1.0124
  699TMC3    H110340   0.231   1.072  13.014 -0.1248 -2.4397 -1.2737
  699TMC3    H210341   0.261   0.825  13.358 -0.1966 -1.7041 -2.7450
  699TMC3    C710342   0.104   0.905  13.160 -0.3422  0.0819  0.0662
  699TMC3    C810343   0.470   0.951  13.463  0.5724  0.3713  0.1324
  699TMC3    O110344   0.038   1.000  13.110  0.1049 -0.0485 -0.0400
  699TMC3    O210345   0.581   0.983  13.498  0.6144 -0.2200 -0.4391
  700TMC3    C110346   3.373   3.648  17.273  0.5542  0.5148 -0.4902
  700TMC3    C210347   3.487   3.575  17.244  1.0527 -0.0194 -0.0948
  700TMC3    C310348   3.571   3.528  17.338  0.1159 -0.2845 -0.6820
  700TMC3    C410349   3.349   3.677  17.404  1.0415 -0.1652 -0.0087
  700TMC3    C510350   3.438   3.622  17.496  0.2161  0.2032  1.0976
  700TMC3    C610351   3.548   3.551  17.466 -0.1169 -0.6280  0.6909
  700TMC3     C10352   3.311   3.731  17.172  0.6020 -0.0233 -0.3016
  700TMC3     O10353   3.188   3.739  17.185  0.1435 -0.1822 -0.1040
  700TMC3     H10354   3.513   3.540  17.145  0.9554  2.2255 -0.9180
  700TMC3    H110355   3.276   3.752  17.432  0.7625 -0.7499  0.8510
  700TMC3    H210356   3.626   3.550  17.541 -0.5548  0.8968  1.1639
  700TMC3    C710357   3.440   3.706  17.625  0.0589  0.4389 -0.5378
  700TMC3    C810358   3.670   3.431  17.296  0.0723 -0.2536  0.7692
  700TMC3    O110359   3.551   3.754  17.646 -0.3193 -0.4622  0.3456
  700TMC3    O210360   3.726   3.463  17.197 -0.1650 -0.3768  0.7237
  701TMC3    C110361   3.668   2.596  15.940 -0.3875  0.2588  0.4250
  701TMC3    C210362   3.701   2.500  15.849  0.9444 -0.3879  0.5073
  701TMC3    C310363   3.827   2.500  15.796  0.5150  0.1282  0.3417
  701TMC3    C410364   3.768   2.692  15.980  0.2780 -0.4460 -0.4380
  701TMC3    C510365   3.896   2.675  15.934 -0.1286 -0.5216  0.1750
  701TMC3    C610366   3.926   2.583  15.835 -0.6141  0.5605 -0.4488
  701TMC3     C10367   3.545   2.599  16.010  0.3533  0.0076 -0.0387
  701TMC3     O10368   3.526   2.690  16.087  0.2117  0.2634 -0.0837
  701TMC3     H10369   3.628   2.424  15.821 -0.3703  1.0246  0.1179
  701TMC3    H110370   3.738   2.769  16.050 -1.8552 -1.7476  0.0865
  701TMC3    H210371   4.030   2.569  15.808 -0.4526  0.0227  0.4578
  701TMC3    C710372   3.997   2.762  15.984 -0.6156  0.8653  0.4999
  701TMC3    C810373   3.863   2.408  15.691  1.1448 -0.0843 -0.0823
  701TMC3    O110374   4.084   2.805  15.912  0.2543  0.2502  0.3365
  701TMC3    O210375   3.969   2.418  15.629 -0.5291  0.2993 -0.3093
  702MPD2     C10376   3.508   4.401  10.655  0.1596  0.2776 -0.1189
  702MPD2    C110377   3.518   4.523  10.718 -0.0592  0.1848 -1.3344
  702MPD2    C210378   3.577   4.626  10.641  0.0950 -0.4514  0.0160
  702MPD2    C310379   3.608   4.618  10.509 -0.2112 -0.0544 -0.8725
  702MPD2    C410380   3.572   4.507  10.441  0.1190 -0.4882 -0.0650
  702MPD2    C510381   3.523   4.401  10.518  0.6979 -0.4067 -0.2284
  702MPD2     H10382   3.590   4.721  10.691  1.3183 -0.4580 -0.2984
  702MPD2    H110383   3.597   4.488  10.337 -1.5591 -1.1490 -0.3512
  702MPD2    H210384   3.480   4.307  10.703 -1.2396  0.3913 -0.6965
  702MPD2    H310385   3.517   4.299  10.481  0.6300  0.7203 -3.2788
  702MPD2     N10386   3.664   4.724  10.438  0.1824  0.4678 -0.7731
  702MPD2    H510387   3.653   4.718  10.338  1.4853 -0.7309 -0.8400
  702MPD2    N110388   3.474   4.547  10.851  0.0377  0.6240  0.5131
  702MPD2    H710389   3.480   4.644  10.881  2.5330  0.4540  0.4892
  703TMC3    C110390   3.713   0.221  10.398 -0.5063  1.1338 -0.4028
  703TMC3    C210391   3.581   0.265  10.393 -0.3715 -0.9021 -0.0220
  703TMC3    C310392   3.563   0.397  10.349 -0.7914  0.3905 -0.4980
  703TMC3    C410393   3.819   0.299  10.368  0.1655 -0.1207 -0.3016
  703TMC3    C510394   3.791   0.418  10.306 -0.4766 -1.0207  0.3178
  703TMC3    C610395   3.668   0.472  10.299 -0.4693 -0.1982 -0.0874
  703TMC3     C10396   3.726   0.106  10.488  0.2475  0.2586  0.1197
  703TMC3     O10397   3.764   0.131  10.601 -0.1435  0.1157  0.4553
  703TMC3     H10398   3.496   0.198  10.408 -0.8200 -0.3659 -0.1863
  703TMC3    H110399   3.916   0.282  10.414 -0.4133  2.6412  1.9513
  703TMC3    H210400   3.652   0.574  10.265 -1.9632 -0.5030 -0.2594
  703TMC3    C710401   3.902   0.485  10.255 -0.0063 -0.1326 -0.7555
  703TMC3    C810402   3.430   0.460  10.340  0.4517 -0.8953 -0.5275
  703TMC3    O110403   4.008   0.460  10.311  0.0542  0.5240  0.2826
  703TMC3    O210404   3.427   0.557  10.271  0.3154 -0.1505  0.2428
  704TMC3    C110405   1.326   2.748  12.886  0.2025 -0.1786  0.3340
  704TMC3    C210406   1.432   2.780  12.799  0.4616  0.0030 -0.3270
  704TMC3    C310407   1.495   2.669  12.732 -0.3352 -0.0270  0.1639
  704TMC3    C410408   1.284   2.620  12.914  0.1379  0.4070 -0.4025
  704TMC3    C510409   1.363   2.518  12.864  0.7076  0.5076  0.0280
  704TMC3    C610410   1.459   2.548  12.769  0.3026  0.2541  0.8166
  704TMC3     C10411   1.208   2.821  12.852  0.2062  0.5084 -0.1429
  704TMC3     O10412   1.117   2.813  12.930  0.0015  0.2493  0.8296
  704TMC3     H10413   1.462   2.881  12.773  2.0107 -0.0671  1.1982
  704TMC3    H110414   1.207   2.597  12.987  0.8237  0.5745  0.3752
  704TMC3    H210415   1.501   2.468  12.708  0.0213  1.4432 -0.9289
  704TMC3    C710416   1.292   2.409  12.794  0.0235 -0.0768 -0.1275
  704TMC3    C810417   1.552   2.690  12.599  0.6899  0.2821  0.0596
  704TMC3    O110418   1.359   2.313  12.755 -0.3418  0.2120  0.6200
  704TMC3    O210419   1.599   2.593  12.542 -1.1106  0.0439  0.4138
  705MPD2     C10420   0.619   1.133  17.088 -0.3870  0.0530 -0.0314
  705MPD2    C110421   0.556   1.244  17.033 -0.1374  0.2243 -0.6949
  705MPD2    C210422   0.450   1.302  17.104  0.1384 -0.2305  0.0730
  705MPD2    C310423   0.394   1.247  17.219 -0.1785  0.6333 -0.1995
  705MPD2    C410424   0.452   1.131  17.264 -0.2914 -0.4057 -0.2844
  705MPD2    C510425   0.566   1.077  17.205 -0.1281  0.5626  0.1040
  705MPD2     H10426   0.393   1.389  17.073 -0.1885  1.0040  4.1765
  705MPD2    H110427   0.415   1.091  17.357 -0.7516 -2.1890 -1.2328
  705MPD2    H210428   0.704   1.085  17.042  0.5391  2.3682 -0.7698
  705MPD2    H310429   0.612   0.985  17.240 -0.2602  0.1751 -0.7541
  705MPD2     N10430   0.287   1.301  17.290 -0.4201  0.5652 -0.3651
  705MPD2    H510431   0.262   1.251  17.374  1.0545  2.5724  1.2540
  705MPD2    N110432   0.578   1.297  16.904  0.1295  0.3765 -0.6727
  705MPD2    H710433   0.531   1.386  16.890 -0.4921 -0.0576 -1.3326
  706TMC3    C110434   0.728   1.310  16.456 -0.7006 -0.1197  0.1655
  706TMC3    C210435   0.658   1.427  16.426 -0.9613  0.5613 -0.5656
  706TMC3    C310436   0.590   1.485  16.528 -0.0084 -0.7515 -1.5279
  706TMC3    C410437   0.740   1.260  16.584 -1.3630  0.1190  0.5857
  706TMC3    C510438   0.673   1.326  16.688  0.4604  0.0447 -0.3562
  706TMC3    C610439   0.596   1.437  16.658  0.4703 -0.6650 -0.5126
  706TMC3     C10440   0.835   1.282  16.367 -0.2999  0.0139  0.2757
  706TMC3     O10441   0.939   1.280  16.427  0.2888  0.5405  0.1061
  706TMC3     H10442   0.677   1.482  16.334 -0.0238  1.7548  0.3383
  706TMC3    H110443   0.793   1.171  16.617  3.5087  2.9350  0.3308
  706TMC3    H210444   0.539   1.489  16.734  0.5539 -0.0145 -0.8979
  706TMC3    C710445   0.669   1.255  16.819 -0.5439 -1.0027 -0.7740
  706TMC3    C810446   0.539   1.620  16.504  0.3341 -0.0354 -0.5058
  706TMC3    O110447   0.741   1.156  16.821 -0.3082 -0.0566 -0.2298
  706TMC3    O210448   0.513   1.649  16.389 -0.3802  0.4091 -0.3165
  707TMC3    C110449   1.949   1.242   1.772 -0.8859 -0.1142  0.2001
  707TMC3    C210450   1.876   1.132   1.805  0.3287 -0.3382 -0.3129
  707TMC3    C310451   1.744   1.151   1.832  0.0916  0.9702  0.0813
  707TMC3    C410452   1.898   1.367   1.764  0.2269 -0.0914 -1.0187
  707TMC3    C510453   1.766   1.377   1.789 -0.2231  0.0148  0.0002
  707TMC3    C610454   1.686   1.274   1.817 -0.2558 -0.0326 -0.6809
  707TMC3     C10455   2.093   1.226   1.791  0.7069 -0.3878 -0.3682
  707TMC3     O10456   2.124   1.135   1.862  0.1722 -0.3506  0.4702
  707TMC3     H10457   1.922   1.036   1.823  3.8034  1.7155  1.6470
  707TMC3    H110458   1.952   1.450   1.719  2.4176 -0.9061  0.1511
  707TMC3    H210459   1.588   1.291   1.861  1.9427  2.2414  3.3931
  707TMC3    C710460   1.723   1.505   1.845 -0.0315  0.3285 -0.5349
  707TMC3    C810461   1.664   1.046   1.892  0.0111  0.4576  0.2186
  707TMC3    O110462   1.627   1.505   1.919  0.0617 -0.0828  0.3274
  707TMC3    O210463   1.553   1.075   1.931  0.2881  0.1680  0.3375
  708MPD2     C10464   2.828   4.476  14.416 -0.6603 -0.5855  0.9137
  708MPD2    C110465   2.893   4.419  14.309  0.7918 -0.2533 -0.5381
  708MPD2    C210466   3.030   4.457  14.289 -0.1808  0.1352 -0.2226
  708MPD2    C310467   3.099   4.553  14.375  0.3032 -0.4449 -0.1062
  708MPD2    C410468   3.021   4.604  14.478  0.3480 -0.0859 -0.2600
  708MPD2    C510469   2.889   4.563  14.501  0.1586 -0.9585 -0.3586
  708MPD2     H10470   3.085   4.412  14.207 -0.4424  3.0549 -1.9969
  708MPD2    H110471   3.063   4.671  14.552  1.8681 -0.7141 -0.5550
  708MPD2    H210472   2.730   4.435  14.437 -1.4441  2.0306  2.2927
  708MPD2    H310473   2.847   4.603  14.592  2.6630  1.1076 -0.1047
  708MPD2     N10474   3.238   4.585  14.369 -0.2377 -0.3218  0.6650
  708MPD2    H510475   3.270   4.660  14.431  2.3854 -0.8331 -0.0534
  708MPD2    N110476   2.829   4.320  14.228  0.0369 -0.5845 -0.2191
  708MPD2    H710477   2.744   4.294  14.278 -0.5741  0.8994 -0.5033
  709TMC3    C110478   2.793   4.154  14.057 -0.7100  0.2088  0.7150
  709TMC3    C210479   2.810   4.144  13.925  0.3422 -0.8954 -0.0307
  709TMC3    C310480   2.837   4.024  13.865  0.9487  0.1899 -0.1383
  709TMC3    C410481   2.833   4.050  14.138  0.0554 -0.9089  0.1074
  709TMC3    C510482   2.856   3.934  14.075 -0.0300  0.0242 -0.3158
  709TMC3    C610483   2.853   3.918  13.939  0.0061 -0.7395 -0.3309
  709TMC3     C10484   2.868   4.274  14.102 -0.0643 -0.3905  1.2684
  709TMC3     O10485   2.960   4.314  14.036 -0.1712  0.1110 -0.6255
  709TMC3     H10486   2.802   4.234  13.866 -1.8438 -0.3232  1.1038
  709TMC3    H110487   2.834   4.058  14.246  4.7246 -0.0235  0.0165
  709TMC3    H210488   2.898   3.829  13.898  0.1937 -0.1963 -1.3079
  709TMC3    C710489   2.973   3.874  14.129  0.0162  0.1313 -0.0073
  709TMC3    C810490   2.935   4.022  13.754 -0.1338  0.4003 -0.0229
  709TMC3    O110491   2.974   3.751  14.153 -0.1536  0.1609 -1.3888
  709TMC3    O210492   3.000   3.921  13.736 -0.3964 -0.0896  1.0266
  710TMC3    C110493   4.035   0.900   0.931 -0.2433 -0.3481  0.9689
  710TMC3    C210494   4.089   0.952   0.811 -1.2054  0.0547  0.3090
  710TMC3    C310495   4.193   0.879   0.758  0.0270 -0.1926  0.0248
  710TMC3    C410496   4.074   0.779   0.983 -0.7265 -0.0417 -0.2812
  710TMC3    C510497   4.183   0.719   0.933  0.1301  0.1784  0.0931
  710TMC3    C610498   4.250   0.778   0.828 -0.5210  0.0076  0.2362
  710TMC3     C10499   3.921   0.963   0.985 -0.6449  0.2236  0.0726
  710TMC3     O10500   3.845   0.889   1.051 -0.0640  0.0942  0.2315
  710TMC3     H10501   4.036   1.029   0.757 -0.4116  1.3112  1.3231
  710TMC3    H110502   4.036   0.748   1.080  0.3743 -1.7584 -0.3952
  710TMC3    H210503   4.349   0.743   0.803 -0.3510  0.8925 -0.3391
  710TMC3    C710504   4.251   0.623   1.015 -0.8220  0.0585  0.3479
  710TMC3    C810505   4.269   0.939   0.655  0.6028 -0.8977  0.4119
  710TMC3    O110506   4.209   0.609   1.130 -0.6393 -0.9030  0.6737
  710TMC3    O210507   4.335   0.856   0.594 -0.8005 -0.3581 -0.2885
  711TMC3    C110508   4.287   2.293  15.132  0.3331  0.0898 -0.5724
  711TMC3    C210509   4.256   2.303  15.260 -0.5098 -0.1300  0.2188
  711TMC3    C310510   4.352   2.334  15.354 -0.8579  0.4863 -0.0590
  711TMC3    C410511   4.414   2.307  15.088  0.3560 -0.4969 -0.7166
  711TMC3    C510512   4.510   2.334  15.181 -0.3906 -0.4081  0.1285
  711TMC3    C610513   4.482   2.358  15.318 -0.5473 -0.1982  0.3657
  711TMC3     C10514   4.208   2.202  15.053  0.4789  0.0049 -0.0845
  711TMC3     O10515   4.271   2.126  14.986 -0.1887  0.4595 -0.0392
  711TMC3     H10516   4.164   2.262  15.300 -0.0224 -0.3413  1.1086
  711TMC3    H110517   4.431   2.310  14.981 -2.5616  2.2422 -1.0836
  711TMC3    H210518   4.566   2.374  15.384 -0.6246 -0.2127  0.4686
  711TMC3    C710519   4.625   2.250  15.168 -0.1125 -0.1731  0.3103
  711TMC3    C810520   4.339   2.257  15.481  0.0463  0.5260 -0.5687
  711TMC3    O110521   4.718   2.268  15.245 -0.7796 -0.0268  0.1180
  711TMC3    O210522   4.268   2.158  15.469 -0.1326 -0.1246  0.2426
  712MPD2     C10523   1.196   3.287  14.008 -0.3770  0.4035 -0.6901
  712MPD2    C110524   1.102   3.390  14.033  0.1514  0.0724  0.5872
  712MPD2    C210525   1.131   3.516  13.985  0.0776 -0.1496  0.4426
  712MPD2    C310526   1.241   3.533  13.898  0.4029 -0.4907  0.3970
  712MPD2    C410527   1.332   3.431  13.877 -0.2212 -0.1246  0.5389
  712MPD2    C510528   1.303   3.310  13.932  0.2653 -0.6111 -0.0394
  712MPD2     H10529   1.073   3.600  14.019 -0.6018 -0.7024  0.6429
  712MPD2    H110530   1.420   3.451  13.817 -0.7523 -0.7182 -0.4408
  712MPD2    H210531   1.189   3.188  14.053 -0.1954  1.0545  0.7629
  712MPD2    H310532   1.368   3.225  13.915  1.4583  0.6002 -1.5913
  712MPD2     N10533   1.273   3.655  13.840  0.9729 -0.5766 -0.7201
  712MPD2    H510534   1.353   3.650  13.778  0.8540 -0.5934 -0.8715
  712MPD2    N110535   0.984   3.359  14.112  0.2008 -0.1104  0.6694
  712MPD2    H710536   0.913   3.427  14.137  1.5425  1.8501 -0.8612
  713TMC3    C110537   1.248   3.870  13.730  0.5706 -0.2406  0.5350
  713TMC3    C210538   1.386   3.869  13.698  0.2736 -0.5172  0.1650
  713TMC3    C310539   1.429   3.974  13.624 -0.0609 -0.2250  0.1635
  713TMC3    C410540   1.170   3.974  13.701 -0.3756  0.2929 -0.1527
  713TMC3    C510541   1.218   4.074  13.627 -0.6708  0.2621 -0.1823
  713TMC3    C610542   1.345   4.076  13.582 -0.1890  0.2985 -0.6390
  713TMC3     C10543   1.201   3.776  13.832 -0.5237 -0.3334 -0.0496
  713TMC3     O10544   1.093   3.803  13.886 -0.0724  0.1558  0.1996
  713TMC3     H10545   1.446   3.782  13.723  0.4121 -0.2629  0.7212
  713TMC3    H110546   1.068   3.985  13.735 -0.2279 -1.3522  0.7911
  713TMC3    H210547   1.379   4.152  13.512 -0.0750 -0.2977 -1.2302
  713TMC3    C710548   1.136   4.196  13.601  0.2084  0.1454 -0.2216
  713TMC3    C810549   1.565   3.991  13.578 -0.0550 -0.1142  0.2852
  713TMC3    O110550   1.197   4.307  13.608 -0.0053 -0.0572 -0.6114
  713TMC3    O210551   1.612   4.097  13.540 -0.5732  0.5913 -0.3914
  714MPD2     C10552   2.938   2.787   1.508 -0.1998 -0.3094  0.5741
  714MPD2    C110553   2.935   2.654   1.473  0.4455  0.2802 -0.2734
  714MPD2    C210554   2.823   2.605   1.413 -0.0147 -0.4035 -0.0850
  714MPD2    C310555   2.724   2.689   1.382  0.5197 -0.1184 -0.4096
  714MPD2    C410556   2.727   2.821   1.417 -0.4508  0.0233  0.6356
  714MPD2    C510557   2.831   2.877   1.484 -0.0272  0.3547 -0.4786
  714MPD2     H10558   2.826   2.499   1.390  2.9301  0.3387 -3.1142
  714MPD2    H110559   2.641   2.884   1.395 -0.9513 -1.1593 -0.7526
  714MPD2    H210560   3.028   2.818   1.559 -0.9910  1.5479  0.8273
  714MPD2    H310561   2.815   2.979   1.518 -0.6073  0.4002 -0.8948
  714MPD2     N10562   2.612   2.631   1.319 -0.0491  0.0741  0.2992
  714MPD2    H510563   2.619   2.534   1.292  0.0661  0.1834 -0.0589
  714MPD2    N110564   3.053   2.574   1.500 -0.3614 -0.1384  0.6486
  714MPD2    H710565   3.135   2.629   1.524 -0.9069 -0.2899  2.8679
  715TMC3    C110566   3.193   2.385   1.481 -0.7282  0.5253 -0.4379
  715TMC3    C210567   3.217   2.253   1.525  0.0263 -0.6638  0.4439
  715TMC3    C310568   3.354   2.218   1.530 -0.1817 -0.4557  0.2128
  715TMC3    C410569   3.295   2.468   1.449 -0.7972 -0.3998 -0.4540
  715TMC3    C510570   3.422   2.426   1.451 -0.1330  0.1241  0.1821
  715TMC3    C610571   3.456   2.301   1.493 -0.6964  0.0432  0.2150
  715TMC3     C10572   3.057   2.438   1.481  0.2959  0.0799  0.9054
  715TMC3     O10573   2.959   2.357   1.492  0.1928  0.3254  0.8807
  715TMC3     H10574   3.137   2.183   1.546  1.0125 -1.8532  0.2130
  715TMC3    H110575   3.280   2.573   1.426  1.7380 -0.1274 -0.9275
  715TMC3    H210576   3.560   2.275   1.510 -0.4449  1.5059  0.9018
  715TMC3    C710577   3.537   2.517   1.419  0.0276  0.4470  0.0851
  715TMC3    C810578   3.377   2.074   1.514  0.7990 -0.4914  0.0468
  715TMC3    O110579   3.645   2.473   1.383  0.4693 -0.1281 -0.5820
  715TMC3    O210580   3.285   2.003   1.550  0.7675 -0.3190  0.1417
  716MPD2     C10581   4.042   0.032  10.156 -0.2645 -0.1838  0.3824
  716MPD2    C110582   3.907   0.007  10.121 -0.4022  0.1424 -0.3575
  716MPD2    C210583   3.857   4.609  10.149 -0.0980 -0.6222 -0.0479
  716MPD2    C310584   3.933   4.504  10.207 -0.7848 -0.7467  0.5104
  716MPD2    C410585   4.066   4.527  10.236  0.2177  0.3128 -0.1080
  716MPD2    C510586   4.110   4.650  10.215  0.0092 -0.2930  0.4426
  716MPD2     H10587   3.759   4.581  10.113 -0.3641 -1.1684  1.0847
  716MPD2    H110588   4.132   4.446  10.265  0.6693  0.9727  0.7040
  716MPD2    H210589   4.092   0.124  10.126  0.1890 -0.4953  0.1825
  716MPD2    H310590   4.216   4.660  10.235  0.1517 -1.5615  0.3473
  716MPD2     N10591   3.879   4.382  10.193 -0.6056  0.2040  0.0113
  716MPD2    H510592   3.782   4.379  10.161 -0.6184 -1.7761  0.2576
  716MPD2    N110593   3.836   0.114  10.059 -0.2934  0.3106  0.3906
  716MPD2    H710594   3.900   0.186  10.028 -1.5004  0.7240 -1.1308
  717TMC3    C110595   3.895   4.165  10.105  0.4221  0.3870 -0.0364
  717TMC3    C210596   3.884   4.225   9.978  0.3460 -0.3902  0.3805
  717TMC3    C310597   3.854   4.141   9.871 -0.2838  0.6850  1.0338
  717TMC3    C410598   3.896   4.030  10.122 -0.5345 -0.1459 -0.1721
  717TMC3    C510599   3.874   3.955  10.014 -0.8225  0.1311 -0.7510
  717TMC3    C610600   3.844   4.005   9.888  0.1395 -0.0360 -0.3643
  717TMC3     C10601   3.942   4.259  10.208  0.2430 -0.1093  0.0845
  717TMC3     O10602   4.038   4.230  10.278 -0.4832 -0.3667 -0.1269
  717TMC3     H10603   3.896   4.332   9.965 -0.3788 -0.2824  0.5702
  717TMC3    H110604   3.913   3.984  10.219 -2.3051 -1.8657 -0.6885
  717TMC3    H210605   3.809   3.936   9.813  0.0699  0.0453 -0.4064
  717TMC3    C710606   3.890   3.812  10.036  0.2601  1.1934 -0.8864
  717TMC3    C810607   3.800   4.210   9.761  0.2135  0.1783 -0.1689
  717TMC3    O110608   3.949   3.777  10.135  0.5257 -0.1193  0.0069
  717TMC3    O210609   3.780   4.333   9.771 -0.2392  0.3824  0.4424
  718MPD2     C10610   2.738   3.275  12.739 -0.3701  0.1014  0.4437
  718MPD2    C110611   2.615   3.345  12.766 -0.2828 -0.1584 -0.1475
  718MPD2    C210612   2.500   3.271  12.733  0.3902  0.5521 -0.0875
  718MPD2    C310613   2.494   3.136  12.685 -0.8319  0.0648 -0.0724
  718MPD2    C410614   2.616   3.080  12.653 -0.5383 -0.0337 -0.3658
  718MPD2    C510615   2.733   3.149  12.678 -0.2141  0.1127  0.3770
  718MPD2     H10616   2.408   3.322  12.760  1.3797  1.6612  1.1542
  718MPD2    H110617   2.613   2.978  12.617 -0.1153  0.8253 -2.8348
  718MPD2    H210618   2.828   3.333  12.754  0.0720 -0.2244 -0.9794
  718MPD2    H310619   2.832   3.108  12.660 -0.3281  0.0681 -0.1378
  718MPD2     N10620   2.377   3.061  12.671  0.5436 -0.0845 -0.1312
  718MPD2    H510621   2.368   2.974  12.620  0.3769  0.0583 -0.3468
  718MPD2    N110622   2.618   3.473  12.824 -0.1017 -0.2697  0.1814
  718MPD2    H710623   2.707   3.522  12.820  1.0832 -2.2161  2.6798
  719TMC3    C110624   2.522   3.680  12.885 -0.3366  0.0746 -0.6342
  719TMC3    C210625   2.411   3.740  12.928  0.3543 -0.0929  0.1383
  719TMC3    C310626   2.369   3.853  12.863 -0.5456 -0.1711  0.0440
  719TMC3    C410627   2.608   3.740  12.793 -1.1185 -0.7569 -0.3935
  719TMC3    C510628   2.572   3.858  12.744  0.1380  0.8194  0.5000
  719TMC3    C610629   2.449   3.919  12.772  0.2877  0.0049  0.6466
  719TMC3     C10630   2.504   3.540  12.865  0.8151  0.0927 -0.0446
  719TMC3     O10631   2.394   3.494  12.891  0.2424  0.3871 -0.4286
  719TMC3     H10632   2.347   3.694  13.002  0.0671  0.6259  0.3346
  719TMC3    H110633   2.691   3.685  12.752  0.5189  1.2073  0.2818
  719TMC3    H210634   2.412   4.008  12.721  1.6079 -0.8111 -1.7379
  719TMC3    C710635   2.677   3.934  12.672 -0.0662  0.0520 -0.0732
  719TMC3    C810636   2.235   3.841  12.806 -0.2608  0.4137 -0.3493
  719TMC3    O110637   2.784   3.875  12.655  0.1557  0.5815  0.1454
  719TMC3    O210638   2.178   3.940  12.756 -0.4960  0.5024  0.5533
  720MPD2     C10639   1.166   0.275  14.085  0.0087 -0.1711  0.6164
  720MPD2    C110640   1.289   0.322  14.038  0.7358 -0.8923 -0.0075
  720MPD2    C210641   1.407   0.290  14.110 -0.7024 -0.4665 -0.9163
  720MPD2    C310642   1.400   0.208  14.225  0.2894 -0.9937  0.3447
  720MPD2    C410643   1.275   0.158  14.261  0.7491  0.1245  0.7158
  720MPD2    C510644   1.161   0.193  14.194  0.5780 -0.4006 -0.4874
  720MPD2     H10645   1.502   0.328  14.074  0.0087 -0.0740  1.3643
  720MPD2    H110646   1.265   0.090  14.345 -2.1740 -0.2675  0.0456
  720MPD2    H210647   1.068   0.291  14.042  0.0617  0.7689  0.8372
  720MPD2    H310648   1.058   0.168  14.217  0.3000  0.7455 -0.5110
  720MPD2     N10649   1.518   0.176  14.298  0.5161 -0.1701  0.0771
  720MPD2    H510650   1.608   0.203  14.259  0.6395  0.4274  0.7738
  720MPD2    N110651   1.295   0.399  13.925  0.2584  0.2033  0.0670
  720MPD2    H710652   1.385   0.430  13.889  0.7028  1.0336  1.8924
  721TMC3    C110653   1.634   0.156  14.502  0.3195  0.6654  0.0875
  721TMC3    C210654   1.636   0.211  14.630 -0.2524 -0.0901 -0.2845
  721TMC3    C310655   1.751   0.256  14.682  0.2778  0.0585 -0.0688
  721TMC3    C410656   1.747   0.144  14.426  0.0577 -0.1454 -0.0383
  721TMC3    C510657   1.863   0.193  14.483  0.1611  0.0854  0.6456
  721TMC3    C610658   1.868   0.249  14.609  0.5416 -0.7262  0.0892
  721TMC3     C10659   1.509   0.146  14.432 -0.1963  0.1994 -0.3826
  721TMC3     O10660   1.408   0.138  14.503  0.2127  0.6181  0.3643
  721TMC3     H10661   1.545   0.211  14.690 -0.8024 -0.8931 -1.1111
  721TMC3    H110662   1.743   0.085  14.335  1.0501 -0.4514  0.1144
  721TMC3    H210663   1.956   0.302  14.645 -0.9036  0.7699  1.3540
  721TMC3    C710664   1.981   0.205  14.399  0.1685 -0.0311 -0.1788
  721TMC3    C810665   1.753   0.309  14.812 -0.9973 -0.1405 -0.1598
  721TMC3    O110666   1.963   0.223  14.279 -0.3110 -0.4693  0.5059
  721TMC3    O210667   1.844   0.387  14.837  0.0725 -0.3183  0.0670
  722MPD2     C10668   0.046   3.601  13.609 -0.0848  0.0932  0.0974
  722MPD2    C110669   4.702   3.718  13.570 -1.2164  0.3857 -0.2933
  722MPD2    C210670   4.569   3.703  13.536 -0.0239 -0.2480 -0.0074
  722MPD2    C310671   4.509   3.580  13.518 -0.7176  0.0980  0.2895
  722MPD2    C410672   4.579   3.468  13.560  0.5089 -0.2106  0.1127
  722MPD2    C510673   4.708   3.482  13.599 -0.0908 -0.7389 -0.0107
  722MPD2     H10674   4.515   3.793  13.511  0.2959 -0.5127 -1.6403
  722MPD2    H110675   4.529   3.373  13.552  2.0182 -0.8292 -1.7378
  722MPD2    H210676   0.148   3.595  13.645 -1.3079  1.3507  3.7816
  722MPD2    H310677   0.036   3.394  13.633  3.8816  0.2822 -3.5594
  722MPD2     N10678   4.367   3.589  13.496  0.0976 -1.5576 -0.0616
  722MPD2    H510679   4.322   3.678  13.474  0.9483 -0.4898  2.4823
  722MPD2    N110680   0.040   3.847  13.573 -0.3586 -0.0572  0.3158
  722MPD2    H710681   4.714   3.928  13.538  2.3988  0.9327 -1.3876
  723TMC3    C110682   4.148   3.526  13.470 -0.7835 -0.5770 -0.2431
  723TMC3    C210683   4.058   3.443  13.531  0.1674 -0.5721  0.8000
  723TMC3    C310684   3.930   3.486  13.543  0.0488  0.2734  0.3051
  723TMC3    C410685   4.110   3.651  13.419  0.6012 -0.3737 -0.7499
  723TMC3    C510686   3.982   3.692  13.451  0.2723 -0.3337  0.2669
  723TMC3    C610687   3.892   3.615  13.517  0.2066  0.5108  0.1794
  723TMC3     C10688   4.283   3.481  13.481 -0.1277 -0.0535 -0.6061
  723TMC3     O10689   4.303   3.361  13.498  0.7367 -0.1276  0.4410
  723TMC3     H10690   4.094   3.347  13.565  0.1263 -0.8423  0.0842
  723TMC3    H110691   4.180   3.711  13.362 -0.5735  1.7726  0.0449
  723TMC3    H210692   3.786   3.638  13.521 -0.1862 -1.1348 -0.7701
  723TMC3    C710693   3.922   3.793  13.366  0.0529 -0.0718  0.0008
  723TMC3    C810694   3.823   3.390  13.584 -0.4573 -0.0747  0.2303
  723TMC3    O110695   3.979   3.819  13.263 -0.0473 -0.1630  0.6257
  723TMC3    O210696   3.708   3.430  13.589 -0.0276 -0.0568 -0.3242
  724TMC3    C110697   0.322   1.788  10.159 -0.0534 -0.5642  0.2197
  724TMC3    C210698   0.327   1.921  10.177 -0.2175  0.0124 -0.2546
  724TMC3    C310699   0.385   1.992  10.078  0.2948 -0.2270 -0.4676
  724TMC3    C410700   0.360   1.731  10.041  0.1639 -0.4512  0.4256
  724TMC3    C510701   0.416   1.804   9.948  0.1277  0.6887 -0.0459
  724TMC3    C610702   0.442   1.940   9.967  0.6460  0.1821  0.5765
  724TMC3     C10703   0.296   1.707  10.278 -0.3880 -0.7770 -0.4887
  724TMC3     O10704   0.334   1.746  10.387  0.3158  0.3138 -0.3786
  724TMC3     H10705   0.267   1.969  10.254 -1.9975 -0.6103 -1.2459
  724TMC3    H110706   0.375   1.624  10.036 -1.9933 -0.8959  3.6181
  724TMC3    H210707   0.481   2.004   9.889 -0.8760  1.7677  1.1011
  724TMC3    C710708   0.466   1.734   9.830  0.6223  0.2494 -0.6752
  724TMC3    C810709   0.357   2.132  10.074 -0.0734 -0.6912 -0.0542
  724TMC3    O110710   0.578   1.751   9.786  0.5596 -0.5001  1.1330
  724TMC3    O210711   0.312   2.172   9.964  0.3143 -0.0836  0.0457
  725TMC3    C110712   2.073   0.674  13.458 -0.0748 -0.0753 -0.1180
  725TMC3    C210713   1.984   0.718  13.369  0.5969  0.1057 -0.0621
  725TMC3    C310714   1.977   0.663  13.241  0.4799  0.6158  0.1241
  725TMC3    C410715   2.180   0.592  13.414  0.4305 -0.6339  0.4622
  725TMC3    C510716   2.184   0.553  13.284  0.1393 -0.7931  0.6490
  725TMC3    C610717   2.081   0.583  13.201  0.4762  0.7771 -0.3805
  725TMC3     C10718   2.135   0.791  13.520  0.3393  0.7891  0.0693
  725TMC3     O10719   2.238   0.831  13.467 -0.5234  0.1712  0.0671
  725TMC3     H10720   1.906   0.788  13.398  1.5762  1.3745 -0.5028
  725TMC3    H110721   2.260   0.554  13.477  2.0984  1.3027 -0.5166
  725TMC3    H210722   2.067   0.527  13.110 -2.7104 -1.3723  1.4364
  725TMC3    C710723   2.299   0.485  13.236  0.3598 -0.0032 -0.6757
  725TMC3    C810724   1.850   0.664  13.171  0.2816  0.3214 -0.3105
  725TMC3    O110725   2.362   0.418  13.315 -0.0118  0.0786  0.3531
  725TMC3    O210726   1.744   0.657  13.227 -0.1208 -0.0825  0.0122
  726MPD2     C10727   4.499   2.420  10.678  0.6574 -0.1465 -0.0948
  726MPD2    C110728   4.455   2.416  10.550  0.9341 -0.3267 -0.2834
  726MPD2    C210729   4.419   2.300  10.486 -0.2011  0.7870 -0.1758
  726MPD2    C310730   4.434   2.188  10.569  0.0372 -0.2476  0.1125
  726MPD2    C410731   4.495   2.193  10.693 -0.2668  0.0213  0.5377
  726MPD2    C510732   4.522   2.309  10.752  0.2641 -0.1247  0.1606
  726MPD2     H10733   4.379   2.310  10.385  1.1664  0.8219 -0.7210
  726MPD2    H110734   4.510   2.096  10.739  1.4045  1.2686  2.5938
  726MPD2    H210735   4.528   2.511  10.730 -2.3793 -0.5684  2.3307
  726MPD2    H310736   4.549   2.314  10.857  0.6207 -0.8231  0.1024
  726MPD2     N10737   4.410   2.061  10.515  0.6758 -0.3286  0.5751
  726MPD2    H510738   4.442   1.989  10.579  0.5362 -2.3001 -1.5649
  726MPD2    N110739   4.432   2.531  10.469 -0.2682 -0.4675  0.2771
  726MPD2    H710740   4.418   2.517  10.369 -0.8516 -1.3503  0.4907
  727TMC3    C110741   4.400   2.754  10.405  1.0607  0.1404 -0.9328
  727TMC3    C210742   4.436   2.883  10.438  0.4862  0.1159 -0.3869
  727TMC3    C310743   4.422   2.965  10.333  0.2871 -0.2115  0.6255
  727TMC3    C410744   4.351   2.707  10.290 -0.3544  0.1357  0.2056
  727TMC3    C510745   4.341   2.798  10.190 -0.3357 -0.0202  0.0382
  727TMC3    C610746   4.378   2.929  10.212  0.2706  0.0280  0.8380
  727TMC3     C10747   4.417   2.653  10.514  0.1010  0.0959  0.8692
  727TMC3     O10748   4.431   2.693  10.629 -0.1095  0.7903  0.1053
  727TMC3     H10749   4.479   2.907  10.535 -0.7280 -1.4936  0.5487
  727TMC3    H110750   4.308   2.607  10.284 -0.3799  0.0652  1.5999
  727TMC3    H210751   4.391   3.008  10.138  0.6268 -2.0570 -1.3235
  727TMC3    C710752   4.258   2.768  10.075 -0.3225 -0.5159  0.3291
  727TMC3    C810753   4.463   3.101  10.342  0.1000  0.7999 -0.2534
  727TMC3    O110754   4.235   2.649  10.058  0.1705 -0.5323  0.5628
  727TMC3    O210755   4.417   3.182  10.267  0.6767  0.2762 -0.0724
  728TMC3    C110756   3.080   0.787  15.518  0.4605 -1.1714 -0.7075
  728TMC3    C210757   3.166   0.752  15.619  0.0275 -0.0472 -0.1513
  728TMC3    C310758   3.302   0.746  15.581 -0.7196 -0.7622  0.3438
  728TMC3    C410759   3.121   0.811  15.392 -0.6907  0.6413  0.4815
  728TMC3    C510760   3.254   0.803  15.365  1.4380 -0.1387  0.2122
  728TMC3    C610761   3.349   0.778  15.456 -0.1151 -0.6872  0.4575
  728TMC3     C10762   2.939   0.791  15.541 -0.0934  1.1081 -0.0091
  728TMC3     O10763   2.885   0.884  15.490 -0.5810 -0.8685 -0.0200
  728TMC3     H10764   3.136   0.725  15.720  0.0398  0.0834 -0.1125
  728TMC3    H110765   3.045   0.825  15.316  0.3086 -3.7773 -1.3774
  728TMC3    H210766   3.455   0.775  15.433 -0.0081 -0.5316  0.9265
  728TMC3    C710767   3.293   0.817  15.228  0.3942 -0.1391 -0.4797
  728TMC3    C810768   3.397   0.776  15.691 -0.2772 -0.2970  0.3935
  728TMC3    O110769   3.203   0.800  15.149  0.1559 -0.4272  0.0381
  728TMC3    O210770   3.353   0.836  15.790  0.2499 -0.6296 -0.4236
  729MPD2     C10771   1.146   2.115  17.057  1.0496  0.2786 -0.4432
  729MPD2    C110772   1.275   2.098  17.088  0.0772 -0.1226  0.1098
  729MPD2    C210773   1.320   2.121  17.222 -0.0931  0.0035 -0.6789
  729MPD2    C310774   1.230   2.154  17.317  0.1901  0.6854  0.6283
  729MPD2    C410775   1.095   2.177  17.281  1.2556  0.3748  0.6089
  729MPD2    C510776   1.054   2.152  17.151  0.3250  0.5801 -0.1910
  729MPD2     H10777   1.425   2.110  17.247 -0.2928 -2.3236 -0.9274
  729MPD2    H110778   1.029   2.193  17.366  0.2495 -1.8355  0.2233
  729MPD2    H210779   1.107   2.086  16.960  0.8477  0.7411 -0.5024
  729MPD2    H310780   0.950   2.162  17.123  0.2849 -0.2892 -0.3814
  729MPD2     N10781   1.259   2.163  17.459  0.1285  0.5032 -0.1214
  729MPD2    H510782   1.198   2.203  17.529 -1.8702 -1.1809 -0.9158
  729MPD2    N110783   1.362   2.068  16.981 -0.3039  0.2181  0.1442
  729MPD2    H710784   1.328   2.065  16.886 -1.5116 -1.5790  0.6421
  730TMC3    C110785   1.425   2.203  17.626  0.7257  0.6028 -0.8883
  730TMC3    C210786   1.548   2.183  17.681 -0.1395  0.1618 -0.3446
  730TMC3    C310787   1.621   2.294   0.018 -0.1229  0.3441  0.1928
  730TMC3    C410788   1.361   2.326  17.629 -0.7905  0.1401 -0.4799
  730TMC3    C510789   1.434   2.431  17.678  0.2375 -0.1758 -0.0307
  730TMC3    C610790   1.563   2.420   0.015 -0.2206 -0.1241  0.5203
  730TMC3     C10791   1.387   2.126  17.506 -0.0197  0.4645  0.5763
  730TMC3     O10792   1.483   2.067  17.457 -0.8197 -0.0493  0.2207
  730TMC3     H10793   1.609   2.100  17.647  1.5978  1.5892 -0.6709
  730TMC3    H110794   1.264   2.353  17.589 -1.3155 -1.6245 -0.3937
  730TMC3    H210795   1.619   2.498   0.064  0.3637 -0.2934  0.1332
  730TMC3    C710796   1.401   2.549  17.596 -0.0897  0.4860  0.2948
  730TMC3    C810797   1.758   2.271  17.671 -0.1408  0.8097  0.6936
  730TMC3    O110798   1.386   2.519  17.476  0.0248 -0.0350 -0.1328
  730TMC3    O210799   1.810   2.158  17.654  0.1480  0.2694  0.3390
  731MPD2     C10800   1.431   0.006  12.080  0.1594  0.6433  0.1388
  731MPD2    C110801   1.565   0.034  12.090  0.5393 -0.2674 -0.8921
  731MPD2    C210802   1.612   0.050  12.216 -0.9463 -0.1514  0.2900
  731MPD2    C310803   1.545   0.037  12.335 -0.2482 -0.1271  0.1932
  731MPD2    C410804   1.407   0.017  12.323 -0.3552  0.6926 -0.4340
  731MPD2    C510805   1.357   0.004  12.195 -0.6000  0.2975  0.6393
  731MPD2     H10806   1.717   0.077  12.219 -0.6451 -0.9796 -2.2644
  731MPD2    H110807   1.340   0.023  12.408 -0.3065 -0.0806 -0.3367
  731MPD2    H210808   1.373   0.003  11.988 -1.0557  0.6789  0.9037
  731MPD2    H310809   1.249   0.011  12.185 -0.8197 -1.2375  1.8422
  731MPD2     N10810   1.613   0.067  12.457  0.0394 -0.9457 -0.0895
  731MPD2    H510811   1.713   0.078  12.453  0.3627 -4.8057 -2.7884
  731MPD2    N110812   1.634   0.051  11.970  0.0722  0.5555 -0.2015
  731MPD2    H710813   1.582   0.045  11.883  0.8399  0.0807 -0.6173
  732TMC3    C110814   1.764   0.185  11.825  0.3751  0.3491 -0.1154
  732TMC3    C210815   1.673   0.142  11.731  0.0243  0.2118 -0.0371
  732TMC3    C310816   1.597   0.243  11.681  0.2184  0.5352  0.5634
  732TMC3    C410817   1.791   0.314  11.828 -0.1083 -0.4177 -0.0837
  732TMC3    C510818   1.710   0.409  11.783  0.7112 -0.2183  0.0358
  732TMC3    C610819   1.604   0.370  11.716 -0.4347 -0.2034 -0.7165
  732TMC3     C10820   1.748   0.126  11.960 -0.4469  0.1020  0.2482
  732TMC3     O10821   1.825   0.172  12.047  0.1750 -0.1792  0.3386
  732TMC3     H10822   1.648   0.041  11.698  0.6794 -0.1556  0.5983
  732TMC3    H110823   1.861   0.352  11.901  0.2361 -1.3853  0.0797
  732TMC3    H210824   1.548   0.449  11.666 -2.0432  0.6646  2.4276
  732TMC3    C710825   1.694   0.531  11.855 -0.3154  0.3586  0.7878
  732TMC3    C810826   1.480   0.189  11.619 -0.3767  0.3265 -0.1134
  732TMC3    O110827   1.580   0.573  11.877  0.4506 -0.2196 -0.9550
  732TMC3    O210828   1.507   0.104  11.535 -0.2713 -0.2136 -0.1966
  733TMC3    C110829   1.912   3.002  12.728 -0.4679 -0.1042  0.2039
  733TMC3    C210830   2.043   2.987  12.759 -0.9825 -0.5145  0.0324
  733TMC3    C310831   2.140   3.030  12.664 -0.5395 -0.2368  0.4751
  733TMC3    C410832   1.877   3.061  12.611 -0.5741  0.7219 -0.6081
  733TMC3    C510833   1.971   3.116  12.534 -0.8464  0.3499  0.3067
  733TMC3    C610834   2.105   3.091  12.550  0.5022  0.8431  0.6031
  733TMC3     C10835   1.802   2.958  12.815  0.3881  0.3110  0.0675
  733TMC3     O10836   1.687   2.973  12.772  0.2835  0.3867  0.6255
  733TMC3     H10837   2.082   2.950  12.853  0.7586  0.1651 -0.4244
  733TMC3    H110838   1.773   3.090  12.600 -1.0176 -1.8090 -3.0621
  733TMC3    H210839   2.183   3.137  12.491  1.3601 -1.3248  0.0252
  733TMC3    C710840   1.940   3.256  12.500  0.2163  0.4211 -0.1571
  733TMC3    C810841   2.258   3.104  12.721 -0.3570 -0.8606 -0.6153
  733TMC3    O110842   1.832   3.276  12.444 -0.1287 -0.3106  0.0024
  733TMC3    O210843   2.234   3.175  12.818  0.1011  0.6898  0.5521
  734MPD2     C10844   0.047   1.286  12.355 -0.4865  0.2616  0.3430
  734MPD2    C110845   4.661   1.252  12.287 -0.3554 -0.1960 -0.7179
  734MPD2    C210846   4.663   1.256  12.149  0.3154  0.1597  0.0189
  734MPD2    C310847   0.053   1.282  12.081  0.7172 -0.1123  0.4188
  734MPD2    C410848   0.164   1.322  12.152  0.4205  0.2609 -0.3087
  734MPD2    C510849   0.157   1.324  12.285 -0.5648  0.3217 -0.5249
  734MPD2     H10850   4.569   1.227  12.104  0.4787  0.4916 -0.5350
  734MPD2    H110851   0.264   1.326  12.110  0.1925  0.2001 -0.8545
  734MPD2    H210852   0.046   1.280  12.463  0.7404 -0.5017  0.3080
  734MPD2    H310853   0.251   1.337  12.337  0.2966 -2.6646 -1.3232
  734MPD2     N10854   0.041   1.277  11.945  0.0579  0.4104 -0.3859
  734MPD2    H510855   4.674   1.257  11.906  0.3106 -0.1331 -0.7065
  734MPD2    N110856   4.551   1.209  12.365  0.0407  0.0728 -0.7590
  734MPD2    H710857   4.575   1.185  12.461 -0.4316  3.1341  0.1328
  735TMC3    C110858   4.322   1.123  12.399  0.4707 -0.5305  0.2514
  735TMC3    C210859   4.202   1.096  12.346  0.0721  0.5138  0.2966
  735TMC3    C310860   4.146   0.971  12.349  0.0217 -0.4267  0.3304
  735TMC3    C410861   4.369   1.032  12.484  0.5318 -0.8907  0.2208
  735TMC3    C510862   4.319   0.906  12.499  0.2688  0.7983  0.4638
  735TMC3    C610863   4.211   0.877  12.424 -0.8043  1.1462  0.5423
  735TMC3     C10864   4.423   1.192  12.315  0.1851  0.6961 -0.0843
  735TMC3     O10865   4.373   1.205  12.205 -0.7455 -0.1186 -0.3199
  735TMC3     H10866   4.143   1.170  12.292 -0.3212  0.1543  0.2373
  735TMC3    H110867   4.464   1.049  12.532  0.7229  0.8097 -0.7551
  735TMC3    H210868   4.193   0.776  12.387 -0.7628  1.1503  0.5114
  735TMC3    C710869   4.417   0.794  12.521 -0.3867 -0.0466 -0.6547
  735TMC3    C810870   4.101   0.929  12.219 -0.3362  0.2040  0.1890
  735TMC3    O110871   4.539   0.818  12.510 -0.4465  0.1350  0.5660
  735TMC3    O210872   4.032   0.827  12.216 -0.3005  0.0186  0.3787
  736MPD2     C10873   4.371   0.460  12.658  0.8340  0.0458 -0.1108
  736MPD2    C110874   4.419   0.555  12.572  0.3796  0.5181  0.0126
  736MPD2    C210875   4.537   0.525  12.504  0.0595 -0.2699  0.1134
  736MPD2    C310876   4.599   0.403  12.528  0.1198 -0.4981  0.6717
  736MPD2    C410877   4.558   0.312  12.621  0.2468  0.1040  0.2700
  736MPD2    C510878   4.440   0.347  12.683  0.2996 -0.6879 -0.0307
  736MPD2     H10879   4.581   0.603  12.442  2.0682 -0.1392  1.6846
  736MPD2    H110880   4.599   0.212  12.628 -0.8031 -0.4103 -0.8883
  736MPD2    H210881   4.279   0.480  12.712  0.3539 -1.3677 -0.4220
  736MPD2    H310882   4.407   0.276  12.759 -0.1112 -1.7230 -1.1651
  736MPD2     N10883   4.717   0.389  12.451 -0.6339 -0.5218 -0.0811
  736MPD2    H510884   0.001   0.459  12.378  1.3106  0.2501  0.9016
  736MPD2    N110885   4.355   0.681  12.558  0.0440  0.0438 -0.2560
  736MPD2    H710886   4.256   0.687  12.578  0.4890 -1.1084  2.2542
  737TMC3    C110887   0.199   0.341  12.375  0.9833  0.1930  0.4660
  737TMC3    C210888   0.195   0.466  12.320 -0.6317  0.3756  0.4874
  737TMC3    C310889   0.211   0.487  12.182  0.4971 -0.2062  0.1077
  737TMC3    C410890   0.261   0.239  12.307  0.7537 -0.5158 -0.7772
  737TMC3    C510891   0.295   0.266  12.176  0.4355  0.9051  0.2846
  737TMC3    C610892   0.272   0.384  12.109 -0.0092 -0.3660  0.5082
  737TMC3     C10893   0.103   0.306  12.473 -0.0365 -0.3449 -0.5219
  737TMC3     O10894   0.135   0.220  12.558 -0.3253 -0.8738 -0.1088
  737TMC3     H10895   0.155   0.549  12.378 -2.6430  0.9032 -1.6491
  737TMC3    H110896   0.270   0.144  12.357  1.1075 -0.6290 -1.0595
  737TMC3    H210897   0.281   0.390  12.002 -0.4741  2.4196  0.6188
  737TMC3    C710898   0.331   0.153  12.092 -0.6427 -0.4233 -0.4839
  737TMC3    C810899   0.092   0.559  12.119  0.0076 -0.0596  0.2699
  737TMC3    O110900   0.313   0.042  12.137  0.0769 -0.2025 -0.2555
  737TMC3    O210901   0.004   0.577  12.198 -0.5897  0.1758 -0.6205
  738MPD2     C10902   4.496   4.300  15.600 -0.8677  0.3608 -0.8076
  738MPD2    C110903   4.513   4.187  15.532  0.6270  0.2966  0.5493
  738MPD2    C210904   4.610   4.185  15.433 -0.5167 -0.4383 -0.2100
  738MPD2    C310905   4.689   4.289  15.413 -0.1396 -0.2766  0.8396
  738MPD2    C410906   4.665   4.411  15.472  0.2692 -0.4252 -0.3029
  738MPD2    C510907   4.565   4.411  15.569 -0.4547  0.9173 -0.0363
  738MPD2     H10908   4.614   4.098  15.369 -0.3324 -0.8982  0.4350
  738MPD2    H110909   4.722   4.501  15.453  0.4709 -0.4332  0.2506
  738MPD2    H210910   4.408   4.314  15.661 -0.6904 -1.6452 -0.0741
  738MPD2    H310911   4.554   4.500  15.630 -2.2969  1.5117 -1.2136
  738MPD2     N10912   0.089   4.266  15.350  0.5502  0.0390 -0.0828
  738MPD2    H510913   0.150   4.347  15.340 -2.1780  2.2247  0.8423
  738MPD2    N110914   4.454   4.067  15.571  0.6564  0.2245  0.7816
  738MPD2    H710915   4.485   3.987  15.516 -2.0387 -0.3760  0.0780
  739TMC3    C110916   0.270   4.153  15.259 -0.2669  0.3161 -0.1477
  739TMC3    C210917   0.283   4.252  15.170  0.4226 -0.4366  0.2626
  739TMC3    C310918   0.412   4.263  15.129  0.2349 -0.4929 -0.4121
  739TMC3    C410919   0.356   4.053  15.294  0.6009 -0.4079 -0.1787
  739TMC3    C510920   0.485   4.070  15.243 -0.0855 -0.0120 -0.0928
  739TMC3    C610921   0.510   4.166  15.154  0.3029  0.1290 -0.0122
  739TMC3     C10922   0.139   4.145  15.310 -0.3475 -0.1754 -0.5179
  739TMC3     O10923   0.094   4.033  15.332 -0.4045 -0.0918 -0.4274
  739TMC3     H10924   0.219   4.331  15.134 -0.9760 -0.9954  1.5000
  739TMC3    H110925   0.322   3.963  15.345 -1.6019  1.7440  2.1166
  739TMC3    H210926   0.607   4.187  15.112  0.2707  0.3858  0.0397
  739TMC3    C710927   0.593   3.994  15.288  0.4038  0.8146 -0.2790
  739TMC3    C810928   0.441   4.357  15.023 -0.4568 -0.6312  0.2783
  739TMC3    O110929   0.696   3.996  15.224 -0.0427 -0.1279  0.7772
  739TMC3    O210930   0.349   4.375  14.948  0.0709 -0.0883  0.2707
  740TMC3    C110931   1.163   0.687  14.538  0.7693  0.4791 -0.0445
  740TMC3    C210932   1.131   0.590  14.632 -0.1766  0.7293  0.6516
  740TMC3    C310933   1.210   0.479  14.628  0.4066  0.6632  0.4708
  740TMC3    C410934   1.259   0.671  14.440 -0.4281  0.3107  0.7805
  740TMC3    C510935   1.328   0.552  14.441 -0.6020 -0.4724 -0.1037
  740TMC3    C610936   1.313   0.459  14.541 -0.0346 -0.6406  0.2813
  740TMC3     C10937   1.136   0.831  14.577 -0.6371 -0.6462 -0.1963
  740TMC3     O10938   1.223   0.912  14.539  0.0930  0.4539  0.0738
  740TMC3     H10939   1.055   0.613  14.706 -0.5758  1.8296 -0.0987
  740TMC3    H110940   1.286   0.750  14.371 -0.5715 -0.5063 -0.2055
  740TMC3    H210941   1.378   0.372  14.547  0.0762 -0.6926 -1.7348
  740TMC3    C710942   1.452   0.531  14.362  0.2065 -0.2098  0.4689
  740TMC3    C810943   1.196   0.393  14.745 -0.0466  0.4742 -0.5521
  740TMC3    O110944   1.535   0.468  14.422 -0.1797  0.5585  0.3920
  740TMC3    O210945   1.139   0.445  14.839 -0.0927  0.0521  1.1792
  741TMC3    C110946   0.368   0.179  15.007  0.0262  0.2844 -0.0698
  741TMC3    C210947   0.279   0.077  15.003  0.0423  0.0391 -0.0998
  741TMC3    C310948   0.273   4.705  15.102 -0.5495  1.0745  0.0738
  741TMC3    C410949   0.462   0.178  15.110 -0.1388  0.5319 -0.4018
  741TMC3    C510950   0.470   0.069  15.183  0.3650 -0.1142 -0.2013
  741TMC3    C610951   0.373   4.707  15.189 -0.2129 -0.2903  0.6552
  741TMC3     C10952   0.424   0.245  14.890 -0.0721  0.0823  0.2472
  741TMC3     O10953   0.530   0.305  14.911 -0.0963  0.2092  0.1922
  741TMC3     H10954   0.191   0.089  14.941 -0.8891  0.2726  1.2508
  741TMC3    H110955   0.546   0.244  15.125 -0.1976  0.1553  1.6764
  741TMC3    H210956   0.387   4.618  15.250  0.5506 -0.4668  0.2170
  741TMC3    C710957   0.603   0.035  15.224  0.2400 -0.3167  0.2822
  741TMC3    C810958   0.163   4.605  15.115  0.2511 -0.3643 -0.0491
  741TMC3    O110959   0.695   0.096  15.173 -0.4386  0.9373 -0.9664
  741TMC3    O210960   0.164   4.549  15.225 -1.0840  0.0677 -0.2334
  742TMC3    C110961   0.092   3.230  15.685  0.3170 -0.2140  1.1871
  742TMC3    C210962   4.714   3.172  15.621 -0.3929  0.0464 -0.6501
  742TMC3    C310963   0.019   3.072  15.537  0.0114 -0.9180 -0.4076
  742TMC3    C410964   0.221   3.178  15.683  0.2686 -0.1673 -0.4244
  742TMC3    C510965   0.236   3.062  15.617  0.0918  0.2015 -0.5774
  742TMC3    C610966   0.137   3.002  15.544 -0.7532  0.2885 -0.1105
  742TMC3     C10967   0.074   3.366  15.719 -0.1559 -0.2419 -0.2002
  742TMC3     O10968   4.684   3.397  15.746  0.5906  0.0147 -0.1626
  742TMC3     H10969   4.628   3.237  15.606 -1.6376 -0.4265  4.2506
  742TMC3    H110970   0.295   3.229  15.743 -1.7866  2.4954 -0.1112
  742TMC3    H210971   0.159   2.917  15.482 -0.6521 -1.1122  1.8661
  742TMC3    C710972   0.357   2.979  15.628  0.8117 -0.0433  0.3189
  742TMC3    C810973   4.681   3.060  15.410  0.0589 -0.1264  0.3062
  742TMC3    O110974   0.393   2.897  15.546  0.7870  0.8645 -0.1400
  742TMC3    O210975   0.035   3.027  15.319  0.2422  0.1899  0.4404
  743MPD2     C10976   1.728   4.461   1.381  0.3497 -0.6345 -1.1188
  743MPD2    C110977   1.759   4.507   1.507  0.6281 -0.0060  0.4694
  743MPD2    C210978   1.765   4.415   1.613  0.3486  0.0329  0.3816
  743MPD2    C310979   1.755   4.277   1.588  0.4517 -0.1852  0.0288
  743MPD2    C410980   1.724   4.235   1.457  0.1074  0.3401  0.3046
  743MPD2    C510981   1.717   4.328   1.355  0.6329 -0.7781 -0.1208
  743MPD2     H10982   1.800   4.445   1.712  0.3144 -1.5717  0.8836
  743MPD2    H110983   1.710   4.132   1.426 -0.7467  1.4128 -2.8384
  743MPD2    H210984   1.735   4.523   1.291 -2.0938  1.7416  0.3212
  743MPD2    H310985   1.696   4.300   1.252 -0.2969  0.4087 -0.2590
  743MPD2     N10986   1.770   4.189   1.695 -0.0825 -0.1179 -0.8015
  743MPD2    H510987   1.790   4.232   1.784 -1.4126  2.0153 -1.5307
  743MPD2    N110988   1.783   4.644   1.516 -0.1864  0.1757  0.1589
  743MPD2    H710989   1.771   4.694   1.428  0.2466 -1.6043 -0.9155
  744TMC3    C110990   1.866   0.109   1.586  0.0785 -0.0977  0.5895
  744TMC3    C210991   1.796   0.217   1.636 -0.4441  0.4654 -0.3422
  744TMC3    C310992   1.802   0.335   1.569 -0.2618 -0.3903 -0.1396
  744TMC3    C410993   1.928   0.117   1.468  0.4965 -0.7047  0.6158
  744TMC3    C510994   1.932   0.239   1.403 -0.8196  0.9977 -0.7693
  744TMC3    C610995   1.870   0.351   1.456  0.3597 -0.0479 -1.0033
  744TMC3     C10996   1.833   4.704   1.626  0.2267  0.1802  0.8964
  744TMC3     O10997   1.833   4.672   1.744  0.2496  0.5455  0.4418
  744TMC3     H10998   1.726   0.199   1.717  0.1817  2.7958  0.7172
  744TMC3    H110999   1.988   0.031   1.440  2.7049  0.9878  0.1758
  744TMC3    H211000   1.899   0.452   1.432  1.2239 -0.6512 -2.4983
  744TMC3    C711001   2.039   0.259   1.309  0.9307 -0.0029 -0.1911
  744TMC3    C811002   1.743   0.460   1.619  0.4613 -0.5132  0.4637
  744TMC3    O111003   2.132   0.178   1.317  0.5557  0.5126  0.1792
  744TMC3    O211004   1.710   0.544   1.539 -0.3897  0.1476 -0.5455
  745TMC3    C111005   0.798   3.229  14.164  0.6873 -0.4167  0.3125
  745TMC3    C211006   0.734   3.331  14.233  0.0226 -0.5681  0.2497
  745TMC3    C311007   0.599   3.344  14.209 -0.1605 -0.3450  0.3596
  745TMC3    C411008   0.744   3.160  14.067 -1.0243  0.3729 -0.2592
  745TMC3    C511009   0.612   3.186  14.042 -0.4783  0.3435 -0.3744
  745TMC3    C611010   0.537   3.269  14.120 -0.2823 -0.2068  0.9588
  745TMC3     C11011   0.942   3.234  14.147 -0.0251 -0.3290 -0.9600
  745TMC3     O11012   0.992   3.125  14.130  0.4464 -0.4856 -0.6554
  745TMC3     H11013   0.778   3.402  14.302  0.1037  0.4368 -0.8413
  745TMC3    H111014   0.803   3.084  14.018  1.4281  0.7640  2.0988
  745TMC3    H211015   0.429   3.276  14.109 -0.2022 -1.9915 -1.0522
  745TMC3    C711016   0.563   3.160  13.913 -0.4527  0.2979  0.2920
  745TMC3    C811017   0.534   3.458  14.264 -0.4581 -0.4232  0.2427
  745TMC3    O111018   0.446   3.183  13.891 -1.0980 -0.0305  0.0494
  745TMC3    O211019   0.417   3.448  14.280  0.4313  0.0445  0.4057
  746TMC3    C111020   3.293   4.673  11.195  0.1678 -0.3580 -0.1919
  746TMC3    C211021   3.367   4.623  11.095 -0.0609 -0.5000 -0.2093
  746TMC3    C311022   3.356   4.498  11.058 -0.5270  0.5649  0.3719
  746TMC3    C411023   3.210   4.595  11.273  0.1526  0.1934  0.2304
  746TMC3    C511024   3.195   4.459  11.235 -0.3076 -0.1802 -0.0939
  746TMC3    C611025   3.264   4.416  11.119  0.9197  0.3912 -0.1270
  746TMC3     C11026   3.294   0.090  11.212 -0.3201  0.1410  0.0410
  746TMC3     O11027   3.276   0.125  11.328  0.2612  0.1540 -0.0674
  746TMC3     H11028   3.436   4.695  11.052 -0.1119  0.8180  1.9144
  746TMC3    H111029   3.146   4.652  11.339 -0.7922  0.7084 -1.1477
  746TMC3    H211030   3.263   4.311  11.089  0.4908  0.3581  0.0082
  746TMC3    C711031   3.063   4.403  11.235  0.1224 -0.2098  0.1354
  746TMC3    C811032   3.417   4.445  10.935  0.7088  0.7833  0.5082
  746TMC3    O111033   3.023   4.358  11.128 -0.1603 -0.5877 -0.6107
  746TMC3    O211034   3.402   4.326  10.918 -0.8280 -0.3476  0.6790
  747TMC3    C111035   0.848   0.228  11.146 -0.7200  0.3838  0.0869
  747TMC3    C211036   0.757   0.185  11.240  0.3796 -0.1557  0.1378
  747TMC3    C311037   0.767   0.227  11.373 -0.1167  0.4811  0.1319
  747TMC3    C411038   0.947   0.323  11.180  0.5936 -0.5126  0.0997
  747TMC3    C511039   0.959   0.357  11.314 -0.4397  0.2800 -0.5123
  747TMC3    C611040   0.859   0.318  11.406 -0.5624 -0.0427  0.5917
  747TMC3     C11041   0.829   0.205  11.000  1.1176 -0.2559  0.4334
  747TMC3     O11042   0.869   0.287  10.918  0.4795 -0.7513  0.0796
  747TMC3     H11043   0.675   0.117  11.221 -0.9614  1.3317  0.5881
  747TMC3    H111044   1.035   0.339  11.117  0.7031  0.1561  0.4244
  747TMC3    H211045   0.874   0.344  11.510  1.1245  3.0231 -0.4005
  747TMC3    C711046   1.071   0.430  11.365  0.2934  0.6632 -0.1701
  747TMC3    C811047   0.726   0.127  11.474 -0.3308  0.4608  0.2516
  747TMC3    O111048   1.059   0.507  11.462 -0.2668  0.4433 -0.1884
  747TMC3    O211049   0.730   0.012  11.440 -0.3531 -0.5963  0.1944
  748MPD2     C11050   1.973   1.409   2.280 -0.5648 -0.6778  0.2352
  748MPD2    C111051   2.075   1.322   2.262 -0.4792  0.1907  0.1443
  748MPD2    C211052   2.163   1.345   2.155 -0.4085 -0.1003 -0.0630
  748MPD2    C311053   2.153   1.459   2.076  0.5199 -0.5396  0.3251
  748MPD2    C411054   2.044   1.538   2.099 -0.2089 -0.2338 -0.4410
  748MPD2    C511055   1.950   1.517   2.197  0.7295 -0.0748  0.0068
  748MPD2     H11056   2.242   1.278   2.125  1.6823  2.5935 -0.5892
  748MPD2    H111057   2.021   1.627   2.041  1.4509  0.8085  0.4719
  748MPD2    H211058   1.902   1.388   2.359 -0.7769  0.0890  0.2462
  748MPD2    H311059   1.861   1.578   2.208  0.8510  0.3753 -1.4349
  748MPD2     N11060   2.238   1.488   1.966 -0.4408 -0.0103 -1.1179
  748MPD2    H511061   2.327   1.441   1.961  0.0558  0.8030  0.2125
  748MPD2    N111062   2.082   1.216   2.349  0.4055 -0.0810  0.1244
  748MPD2    H711063   2.009   1.198   2.418  0.1122 -0.3749 -0.2653
  749TMC3    C111064   2.326   1.584   1.766 -0.5689 -0.4021  0.5077
  749TMC3    C211065   2.451   1.609   1.821 -0.9657  0.0382  0.2879
  749TMC3    C311066   2.542   1.664   1.739  0.8919 -0.4423 -0.1225
  749TMC3    C411067   2.298   1.616   1.633 -0.1878 -0.1487  0.1189
  749TMC3    C511068   2.391   1.685   1.566 -0.0895 -0.2600  0.2895
  749TMC3    C611069   2.511   1.710   1.617  0.0231 -0.4590 -0.2481
  749TMC3     C11070   2.208   1.566   1.860 -0.1075 -0.0755  0.5456
  749TMC3     O11071   2.098   1.598   1.811 -0.0575  0.7253 -0.3565
  749TMC3     H11072   2.473   1.595   1.926 -0.9248  0.8652  0.3902
  749TMC3    H111073   2.205   1.586   1.585 -0.3273  0.4143  0.0359
  749TMC3    H211074   2.590   1.760   1.563  0.9497  0.1323  1.6399
  749TMC3    C711075   2.359   1.748   1.440  0.4170  0.1758  0.1293
  749TMC3    C811076   2.682   1.682   1.781  0.3350  0.1277 -0.2728
  749TMC3    O111077   2.433   1.832   1.395 -0.2063 -0.4524 -0.0108
  749TMC3    O211078   2.752   1.776   1.743 -0.1383 -0.0217  0.2066
  750MPD2     C11079   3.098   2.090  11.027 -0.3406  0.0287 -0.6997
  750MPD2    C111080   3.066   2.031  11.149 -0.0328  0.0595 -0.3519
  750MPD2    C211081   3.063   1.894  11.165 -0.5674 -0.7787 -0.1835
  750MPD2    C311082   3.116   1.815  11.062 -0.5235 -0.5009  0.0621
  750MPD2    C411083   3.155   1.874  10.946 -0.3572  0.4163  0.0846
  750MPD2    C511084   3.139   2.010  10.927 -0.0126  0.1453 -0.2456
  750MPD2     H11085   3.026   1.844  11.253 -0.3806  0.3719  0.5512
  750MPD2    H111086   3.197   1.820  10.862 -1.9986  1.3770 -1.3692
  750MPD2    H211087   3.088   2.196  11.011  3.6883  0.7429  1.4782
  750MPD2    H311088   3.167   2.051  10.831  0.9738  1.3177  0.5495
  750MPD2     N11089   3.117   1.673  11.063 -0.0583  0.8838  0.4727
  750MPD2    H511090   3.146   1.628  10.976 -2.1418  0.5605 -0.0620
  750MPD2    N111091   3.032   2.121  11.259 -0.0263 -0.0339  0.4242
  750MPD2    H711092   3.042   2.220  11.240  0.5242  0.2949  2.4319
  751TMC3    C111093   3.107   1.452  11.122  0.8905  0.0280 -0.0352
  751TMC3    C211094   3.047   1.354  11.198 -0.1596 -0.5948  0.0745
  751TMC3    C311095   3.084   1.222  11.180 -0.3094 -1.1845  0.2816
  751TMC3    C411096   3.201   1.426  11.024 -0.7149 -0.1693  1.3931
  751TMC3    C511097   3.235   1.290  11.015 -0.3569  0.1394 -0.2051
  751TMC3    C611098   3.186   1.191  11.098 -0.1923 -0.5527 -0.0775
  751TMC3     C11099   3.069   1.591  11.157 -0.8044  0.4323  0.2643
  751TMC3     O11100   2.983   1.610  11.238  0.3541 -0.4973  0.1463
  751TMC3     H11101   2.970   1.382  11.269 -0.3614  1.0991 -0.7963
  751TMC3    H111102   3.258   1.502  10.971 -1.1136  0.6488  2.1458
  751TMC3    H211103   3.223   1.090  11.110  2.5380  0.7060  2.1722
  751TMC3    C711104   3.304   1.247  10.899  0.6366  0.4154  0.0516
  751TMC3    C811105   2.971   1.136  11.160 -0.7653  0.3229 -0.8783
  751TMC3    O111106   3.391   1.314  10.837 -0.2735 -0.6289 -0.1945
  751TMC3    O211107   2.986   1.061  11.067  0.3273  0.2451  0.0534
  752TMC3    C111108   2.326   2.550  17.358  0.2332  0.5703 -0.3480
  752TMC3    C211109   2.202   2.596  17.402  0.1840  0.2758 -0.8582
  752TMC3    C311110   2.196   2.663  17.522 -0.2561 -0.5120  0.2340
  752TMC3    C411111   2.440   2.582  17.427  0.3885  0.2918  0.1392
  752TMC3    C511112   2.418   2.654  17.543 -0.4017  0.0538 -0.6287
  752TMC3    C611113   2.302   2.696  17.595 -0.4213 -0.0111  0.4603
  752TMC3     C11114   2.354   2.537  17.216 -0.1374 -0.2088  0.8303
  752TMC3     O11115   2.467   2.571  17.175  0.5099  0.1085  0.8538
  752TMC3     H11116   2.118   2.583  17.335 -0.1559 -1.8530 -0.0168
  752TMC3    H111117   2.536   2.547  17.390  0.8449  1.0201  0.6423
  752TMC3    H211118   2.287   2.770  17.673 -0.6582  0.6214 -0.1985
  752TMC3    C711119   2.534   2.709  17.606  0.3267 -0.3640 -0.3334
  752TMC3    C811120   2.077   2.731  17.548 -0.2404  0.5858 -0.1150
  752TMC3    O111121   2.618   2.761  17.536 -0.3156  0.0265 -0.2953
  752TMC3    O211122   2.021   2.765  17.442 -0.3114 -0.3671  0.1721
  753TMC3    C111123   3.919   2.998  13.851  0.3606 -0.6777 -0.1039
  753TMC3    C211124   3.869   2.981  13.984  0.0767  0.1513  0.4840
  753TMC3    C311125   3.819   2.857  14.021  0.4609 -0.5434 -0.0646
  753TMC3    C411126   3.930   2.890  13.766 -0.1355  0.0881 -0.1252
  753TMC3    C511127   3.870   2.775  13.806  0.7306  0.0380  0.2640
  753TMC3    C611128   3.815   2.754  13.933 -0.2605 -0.2376 -0.4684
  753TMC3     C11129   3.997   3.115  13.823 -0.7081 -0.6817  0.5240
  753TMC3     O11130   3.956   3.216  13.881  0.9221  0.6654  0.4210
  753TMC3     H11131   3.861   3.069  14.046 -0.2301  0.9610 -0.6997
  753TMC3    H111132   3.999   2.899  13.682  1.4841 -0.5776  1.1307
  753TMC3    H211133   3.783   2.656  13.967 -1.8490  0.0436 -1.1621
  753TMC3    C711134   3.866   2.665  13.721 -1.4646  0.4293  1.2619
  753TMC3    C811135   3.829   2.821  14.159  0.2330  0.6605 -0.2558
  753TMC3    O111136   3.809   2.562  13.758 -0.4027 -0.1222 -0.9363
  753TMC3    O211137   3.787   2.713  14.190  0.6624 -0.2592  0.4558
  754MPD2     C11138   2.812   1.832  12.993  0.5457  0.0314  0.0237
  754MPD2    C111139   2.797   1.696  13.002 -1.2198 -0.8387  0.2359
  754MPD2    C211140   2.675   1.644  13.055 -0.1675  0.1904 -0.4400
  754MPD2    C311141   2.589   1.729  13.122 -0.1142  0.0344  0.2719
  754MPD2    C411142   2.607   1.866  13.112 -0.2249  0.6171  0.2843
  754MPD2    C511143   2.713   1.918  13.047  0.4225 -0.1028 -0.0853
  754MPD2     H11144   2.662   1.536  13.059  2.6727 -0.1916 -2.0220
  754MPD2    H111145   2.545   1.943  13.155  1.1131  0.8620  1.8126
  754MPD2    H211146   2.904   1.868  12.949 -0.1242 -0.3280 -1.6785
  754MPD2    H311147   2.726   2.025  13.059 -0.2108 -0.0024 -0.2780
  754MPD2     N11148   2.493   1.691  13.221  0.0474  0.1831  0.8966
  754MPD2    H511149   2.452   1.760  13.284  1.4966  0.9422  1.0207
  754MPD2    N111150   2.904   1.608  12.962  0.0291  0.0334 -0.4402
  754MPD2    H711151   2.978   1.650  12.907  2.1896 -0.1300  2.3167
  755MPD2     C11152   1.837   1.985  13.678 -0.0386 -0.2818 -0.6476
  755MPD2    C111153   1.929   1.954  13.775  0.2193  0.3370 -0.2674
  755MPD2    C211154   2.024   1.856  13.756 -0.1715  0.3999 -0.4333
  755MPD2    C311155   2.039   1.808  13.627  0.2429 -0.4742  0.7496
  755MPD2    C411156   1.948   1.836  13.527  1.0691 -0.0813 -0.1380
  755MPD2    C511157   1.842   1.918  13.561 -0.1461  0.1748  1.4036
  755MPD2     H11158   2.094   1.838  13.836 -0.8762  0.5696  0.2307
  755MPD2    H111159   1.956   1.785  13.432 -0.6972  2.2217 -1.4848
  755MPD2    H211160   1.764   2.064  13.686  3.2156  2.4836  1.6537
  755MPD2    H311161   1.768   1.936  13.484  2.1300  2.6264 -0.1936
  755MPD2     N11162   2.147   1.727  13.593  0.1065  0.3909 -0.3036
  755MPD2    H511163   2.156   1.700  13.495  2.6380  1.3144 -0.3364
  755MPD2    N111164   1.927   2.009  13.902 -0.1986 -0.4432  0.2203
  755MPD2    H711165   2.003   1.982  13.963 -0.2298  0.8806  0.8603
  756MPD2     C11166   3.890   1.561   9.259  1.0407  0.0541 -0.0172
  756MPD2    C111167   3.755   1.575   9.266 -0.0432 -0.5648  0.1515
  756MPD2    C211168   3.679   1.489   9.184  0.5904  0.1330  0.3821
  756MPD2    C311169   3.738   1.387   9.122  0.1242  0.0033 -0.6605
  756MPD2    C411170   3.872   1.371   9.116 -0.1025 -0.4503 -0.6866
  756MPD2    C511171   3.949   1.467   9.178  0.1328  1.2256  0.3930
  756MPD2     H11172   3.572   1.497   9.175  0.7288 -0.6940 -1.9238
  756MPD2    H111173   3.924   1.296   9.059  1.6560  1.1049 -1.1346
  756MPD2    H211174   3.959   1.625   9.314  1.1036  0.0457 -0.0869
  756MPD2    H311175   4.056   1.446   9.184  0.0719  0.4447 -1.2514
  756MPD2     N11176   3.647   1.299   9.057 -0.4142  0.6468  0.1467
  756MPD2    H511177   3.549   1.322   9.055 -0.8950 -1.2774  3.0202
  756MPD2    N111178   3.692   1.669   9.350  0.6587 -0.3912  0.1328
  756MPD2    H711179   3.590   1.678   9.348  0.7682  0.5439 -1.1519
  757MPD2     C11180   2.703   1.181   9.056 -0.3036 -0.5728 -0.1147
  757MPD2    C111181   2.755   1.076   9.121 -0.3316  0.6639  0.4601
  757MPD2    C211182   2.880   1.044   9.096  0.3157 -0.3290 -0.0058
  757MPD2    C311183   2.963   1.129   9.021  0.0155 -0.8670  0.4899
  757MPD2    C411184   2.908   1.240   8.965  0.4936  0.2356 -0.9357
  757MPD2    C511185   2.777   1.272   8.983  0.5470  0.0426  0.7392
  757MPD2     H11186   2.923   0.957   9.143  0.8276 -0.5039 -0.7907
  757MPD2    H111187   2.958   1.306   8.895  1.4915  1.0004  0.4951
  757MPD2    H211188   2.599   1.211   9.069 -0.3261  0.0227 -1.7521
  757MPD2    H311189   2.734   1.356   8.928  0.4313  0.3582  1.3069
  757MPD2     N11190   3.098   1.100   9.025 -0.0209  0.4118  0.6147
  757MPD2    H511191   3.132   1.020   9.077 -1.9518 -1.6806 -1.3461
  757MPD2    N111192   2.665   0.995   9.195 -0.6581 -0.4951  0.2015
  757MPD2    H711193   2.567   1.020   9.191 -0.3710  0.1271 -2.8958
  758MPD2     C11194   3.297   1.506  16.160  0.2601  0.1551  0.2804
  758MPD2    C111195   3.331   1.462  16.291  0.1862  0.2229 -0.8319
  758MPD2    C211196   3.234   1.458  16.388 -0.2767  0.0888 -0.5919
  758MPD2    C311197   3.102   1.489  16.359 -0.1591  0.4967 -0.5801
  758MPD2    C411198   3.073   1.530  16.227  0.1144  0.7308 -0.3391
  758MPD2    C511199   3.168   1.535  16.128  0.4831  0.1296 -0.3370
  758MPD2     H11200   3.253   1.425  16.490  0.6947 -0.5616 -0.9864
  758MPD2    H111201   2.976   1.560  16.190 -0.2729  1.4150  1.2122
  758MPD2    H211202   3.379   1.517  16.089  0.2622 -0.0865  0.2450
  758MPD2    H311203   3.135   1.576  16.033  0.8065  0.4410 -0.3164
  758MPD2     N11204   2.988   1.488  16.455  0.0112 -0.2715  0.4371
  758MPD2    H511205   2.900   1.522  16.418 -0.2745 -1.4042  0.0820
  758MPD2    N111206   3.467   1.438  16.319 -0.4064 -0.3876  0.5043
  758MPD2    H711207   3.521   1.432  16.234 -0.8659  0.5681  0.1424
  759MPD2     C11208   1.717   0.037  10.364  0.0574  0.2251  0.0697
  759MPD2    C111209   1.772   4.639  10.393 -0.5921 -0.1410 -0.5090
  759MPD2    C211210   1.869   4.589  10.312 -0.2801  0.4265  0.4676
  759MPD2    C311211   1.906   4.657  10.197  0.1180 -0.5770 -0.1392
  759MPD2    C411212   1.848   0.052  10.171 -0.3303  0.3476 -0.2338
  759MPD2    C511213   1.749   0.109  10.249 -0.2128 -0.0526  0.2634
  759MPD2     H11214   1.911   4.491  10.329  0.8804  0.7151 -0.7313
  759MPD2    H111215   1.868   0.114  10.084  2.9327  0.8498  0.8963
  759MPD2    H211216   1.647   0.083  10.433 -1.1076 -0.0010 -0.9665
  759MPD2    H311217   1.687   0.197  10.235 -1.5204 -0.8359  1.1537
  759MPD2     N11218   2.002   4.601  10.109 -0.4909  0.0944 -0.2027
  759MPD2    H511219   2.042   4.512  10.138  0.6794  0.7923  0.3386
  759MPD2    N111220   1.720   4.557  10.495 -0.6211  0.3770  0.0561
  759MPD2    H711221   1.760   4.465  10.505 -2.6491 -0.7283 -1.8988
  760MPD2     C11222   1.286   1.584  12.030  0.7900 -0.0607 -0.5494
  760MPD2    C111223   1.419   1.592  12.003  0.2389 -1.0201 -0.0645
  760MPD2    C211224   1.503   1.492  12.057 -0.1939 -0.3728 -0.5941
  760MPD2    C311225   1.455   1.389  12.132 -0.1661  0.5751  0.1610
  760MPD2    C411226   1.319   1.379  12.143  0.8238  0.9669 -0.1762
  760MPD2    C511227   1.232   1.471  12.095  0.5559 -0.2390  0.0574
  760MPD2     H11228   1.609   1.494  12.034 -0.5592  1.3984 -2.1194
  760MPD2    H111229   1.270   1.289  12.179  0.5489  1.5375  0.8807
  760MPD2    H211230   1.213   1.651  11.986  1.5065  0.8564 -0.3348
  760MPD2    H311231   1.128   1.444  12.086  0.3853  0.3643  0.2144
  760MPD2     N11232   1.533   1.295  12.195 -0.5953  0.4841 -0.8126
  760MPD2    H511233   1.486   1.227  12.254  1.2235 -0.2790 -0.2510
  760MPD2    N111234   1.478   1.691  11.927 -0.4693  0.2310  0.0779
  760MPD2    H711235   1.578   1.698  11.941 -0.1314 -1.3258 -1.7028
  761MPD2     C11236   2.772   0.752  11.445 -0.0661  0.3338 -0.6221
  761MPD2    C111237   2.846   0.748  11.328 -0.3768 -0.1792 -0.0985
  761MPD2    C211238   2.894   0.866  11.279 -0.0448 -0.5849  0.6285
  761MPD2    C311239   2.859   0.990  11.327 -0.0267 -0.7589 -0.7865
  761MPD2    C411240   2.775   0.990  11.440  0.5671 -0.9962  0.2246
  761MPD2    C511241   2.738   0.869  11.497  0.0207  0.7388  0.5543
  761MPD2     H11242   2.963   0.862  11.195  1.3761 -1.5454  1.8537
  761MPD2    H111243   2.750   1.080  11.495  0.2663 -1.9973  1.7311
  761MPD2    H211244   2.730   0.670  11.503  0.8834  0.8388  0.7904
  761MPD2    H311245   2.685   0.872  11.591 -0.0687 -1.4726  0.5723
  761MPD2     N11246   2.902   1.116  11.274 -0.2911  0.0399  0.1849
  761MPD2    H511247   2.900   1.192  11.341 -1.4016  0.1478  0.0318
  761MPD2    N111248   2.872   0.625  11.271  0.4780  0.4095  0.1651
  761MPD2    H711249   2.856   0.546  11.332  2.1709  0.7613  1.0601
  762MPD2     C11250   2.954   0.550  10.478  0.2250  0.6247  0.2652
  762MPD2    C111251   3.007   0.450  10.556  0.7361  0.0673 -0.3318
  762MPD2    C211252   3.121   0.392  10.515  0.2081 -0.1760  0.5443
  762MPD2    C311253   3.191   0.440  10.409  0.6387  0.4205 -0.2174
  762MPD2    C411254   3.144   0.543  10.335  0.5542 -0.7883 -0.3421
  762MPD2    C511255   3.019   0.597  10.365  0.5782  0.2449  0.3407
  762MPD2     H11256   3.170   0.317  10.575  1.3516  0.1437  0.0122
  762MPD2    H111257   3.178   0.588  10.243  3.3302 -3.0319 -0.4204
  762MPD2    H211258   2.865   0.604  10.509  0.0518 -0.5589  1.8557
  762MPD2    H311259   2.987   0.688  10.315  2.5048 -0.7650 -2.7179
  762MPD2     N11260   3.325   0.386  10.399 -0.5058 -0.1253 -0.0822
  762MPD2    H511261   3.349   0.307  10.458 -1.4792  0.9139  1.6914
  762MPD2    N111262   2.944   0.432  10.678  0.0138  0.4093  0.4874
  762MPD2    H711263   2.868   0.495  10.701 -1.8393 -1.9667  0.9203
  763MPD2     C11264   4.107   1.391  16.202 -0.1489  0.4748  0.0494
  763MPD2    C111265   4.246   1.407  16.194 -0.3134  0.5531  0.2954
  763MPD2    C211266   4.309   1.470  16.293 -0.2896 -0.5288 -0.3063
  763MPD2    C311267   4.235   1.517  16.404  0.7599 -0.5846 -0.7997
  763MPD2    C411268   4.100   1.502  16.412 -0.2642 -0.2635  0.1182
  763MPD2    C511269   4.039   1.439  16.312 -0.2110 -0.1411  1.0476
  763MPD2     H11270   4.417   1.473  16.284 -0.2300 -1.0530  0.2241
  763MPD2    H111271   4.041   1.536  16.496 -0.0336 -0.4105  0.3414
  763MPD2    H211272   4.047   1.351  16.121  2.5360  1.1101 -2.2573
  763MPD2    H311273   3.933   1.428  16.289  0.4435 -0.3674 -1.9253
  763MPD2     N11274   4.308   1.570  16.516  0.3694  0.2616 -0.1086
  763MPD2    H511275   4.258   1.589  16.602  0.4840 -0.3734  0.1042
  763MPD2    N111276   4.327   1.364  16.097 -1.1499 -0.1090 -0.1848
  763MPD2    H711277   4.424   1.386  16.116 -1.0855  1.1318 -1.9004
  764MPD2     C11278   3.015   3.429   0.055 -0.1661 -0.0543 -0.0548
  764MPD2    C111279   2.931   3.382  17.661  0.1614 -0.2085  0.7462
  764MPD2    C211280   2.828   3.294   0.002  0.0439 -1.4698  0.7379
  764MPD2    C311281   2.801   3.283   0.142  0.3139  0.3942 -0.1976
  764MPD2    C411282   2.885   3.346   0.232  0.3566 -0.2346 -0.1216
  764MPD2    C511283   2.994   3.410   0.190 -0.0597  0.7860 -0.3949
  764MPD2     H11284   2.763   3.248  17.629  1.5404 -1.3489 -0.6620
  764MPD2    H111285   2.875   3.340   0.340 -0.2211 -3.4196 -0.3480
  764MPD2    H211286   3.098   3.495   0.032 -3.1959  3.1750 -1.6848
  764MPD2    H311287   3.062   3.462   0.257  0.1816 -0.3455  0.2316
  764MPD2     N11288   2.690   3.208   0.180 -0.7177 -0.9045 -0.2806
  764MPD2    H511289   2.631   3.175   0.105  0.3491 -3.1904 -0.1178
  764MPD2    N111290   2.951   3.409  17.526  0.0255  0.4769 -0.2894
  764MPD2    H711291   2.885   3.364  17.463 -0.5414  0.1547  0.5223
  765MPD2     C11292   2.076   0.906  16.577  0.0744 -0.4448 -0.1020
  765MPD2    C111293   2.027   0.842  16.465  0.1698  0.7025 -0.1937
  765MPD2    C211294   2.077   0.716  16.435  0.7359 -0.3371 -0.3029
  765MPD2    C311295   2.192   0.670  16.488  0.1376 -0.5871  0.1431
  765MPD2    C411296   2.246   0.733  16.594  0.4868 -0.3397  0.3402
  765MPD2    C511297   2.178   0.838  16.644  0.2479  0.1410 -0.2796
  765MPD2     H11298   2.040   0.658  16.352  1.2325  1.1938 -1.6032
  765MPD2    H111299   2.339   0.698  16.638  1.0239  0.4473 -0.1720
  765MPD2    H211300   2.034   0.998  16.615 -2.0446 -2.0929  1.5503
  765MPD2    H311301   2.220   0.870  16.739  1.5025 -1.4719 -0.2843
  765MPD2     N11302   2.253   0.563  16.425  0.3097 -0.5894 -0.2241
  765MPD2    H511303   2.198   0.514  16.355 -1.5245  2.1351 -0.6969
  765MPD2    N111304   1.919   0.899  16.405  0.2583 -0.5481 -0.7141
  765MPD2    H711305   1.882   0.988  16.436 -1.1715 -0.5222 -2.5151
  766MPD2     C11306   1.632   0.605  15.684 -0.3989 -0.8475  0.2908
  766MPD2    C111307   1.728   0.706  15.689  0.4487  0.3888 -0.2689
  766MPD2    C211308   1.820   0.727  15.588  0.0565 -0.7379  0.0647
  766MPD2    C311309   1.822   0.635  15.487  0.2425  0.4913  0.1953
  766MPD2    C411310   1.737   0.533  15.485  0.2794  0.3293  1.0267
  766MPD2    C511311   1.636   0.522  15.577 -0.4777 -0.1597 -0.3349
  766MPD2     H11312   1.888   0.812  15.594 -0.8736  0.0399 -0.2784
  766MPD2    H111313   1.749   0.461  15.405  1.6934 -0.5691  2.0506
  766MPD2    H211314   1.553   0.587  15.755  1.3226  0.1536  2.4667
  766MPD2    H311315   1.565   0.440  15.577 -2.1537  1.2818 -0.8149
  766MPD2     N11316   1.927   0.629  15.392  0.0265  0.1846 -0.3954
  766MPD2    H511317   1.929   0.555  15.322 -1.7705 -0.2249 -0.0124
  766MPD2    N111318   1.738   0.792  15.799  0.2159  0.4690 -0.1343
  766MPD2    H711319   1.806   0.867  15.802  0.5215  0.1079  1.8606
  767MPD2     C11320   1.540   0.897  15.305  0.0999  0.1271 -0.1161
  767MPD2    C111321   1.662   0.931  15.251  0.3816  0.0200  0.4932
  767MPD2    C211322   1.688   0.885  15.124  0.2417  0.3157  0.4759
  767MPD2    C311323   1.596   0.821  15.042  0.6078 -0.2781 -0.6647
  767MPD2    C411324   1.478   0.801  15.099  0.3559  0.1759  0.3971
  767MPD2    C511325   1.445   0.835  15.232 -0.1254  0.2509 -0.2570
  767MPD2     H11326   1.784   0.906  15.078 -0.3444  1.4654 -0.2221
  767MPD2    H111327   1.407   0.738  15.048  2.7642 -1.4631 -0.9446
  767MPD2    H211328   1.511   0.923  15.406 -0.5826 -0.1853 -0.2342
  767MPD2    H311329   1.351   0.801  15.273 -0.2490 -0.7419 -1.3657
  767MPD2     N11330   1.628   0.772  14.914  0.3802 -0.5889 -0.5967
  767MPD2    H511331   1.726   0.763  14.891  1.1412  2.0672  1.5642
  767MPD2    N111332   1.754   0.991  15.337  0.4079 -0.3876 -0.4238
  767MPD2    H711333   1.723   1.009  15.432 -0.0220 -0.8488 -0.4700
  768MPD2     C11334   2.837   4.280  10.694 -0.5239 -0.7757  0.3224
  768MPD2    C111335   2.771   4.245  10.807  0.0754  0.2449 -0.4935
  768MPD2    C211336   2.836   4.170  10.903  0.2406  0.0406  0.2945
  768MPD2    C311337   2.965   4.129  10.890  0.1223 -0.5471 -0.3320
  768MPD2    C411338   3.026   4.163  10.772  1.1620 -0.1195  0.2173
  768MPD2    C511339   2.966   4.236  10.674  0.2131  0.3251  0.5587
  768MPD2     H11340   2.784   4.152  10.997  0.4376 -0.7341  0.2477
  768MPD2    H111341   3.120   4.112  10.752  0.3412 -1.8033  0.6609
  768MPD2    H211342   2.787   4.327  10.609  1.5421  1.2644  0.2145
  768MPD2    H311343   3.014   4.248  10.577 -0.0011 -0.1584  0.3955
  768MPD2     N11344   3.035   4.059  10.990  0.1548  0.2056  0.0775
  768MPD2    H511345   3.136   4.056  10.979  0.1659  0.5975  0.0571
  768MPD2    N111346   2.635   4.281  10.831  0.0879  0.1272  0.5880
  768MPD2    H711347   2.600   4.250  10.921 -0.1935  4.4181  1.9827
  769MPD2     C11348   3.817   1.996  15.389 -0.2342  0.4114 -0.0515
  769MPD2    C111349   3.697   2.014  15.457  0.2699 -0.8660 -0.2490
  769MPD2    C211350   3.684   2.119  15.547  0.4850  0.6702 -0.2217
  769MPD2    C311351   3.788   2.209  15.571  0.6607 -0.0775 -0.3988
  769MPD2    C411352   3.903   2.188  15.501 -0.1860 -0.1699 -0.1760
  769MPD2    C511353   3.916   2.087  15.410 -0.4179  0.5402 -0.1633
  769MPD2     H11354   3.587   2.132  15.592  0.7126  2.2734 -0.1928
  769MPD2    H111355   3.991   2.247  15.522 -1.1381  0.1899  2.8216
  769MPD2    H211356   3.827   1.915  15.318  0.8096  0.6816 -0.2018
  769MPD2    H311357   4.011   2.072  15.361  0.6966 -0.8101  2.4008
  769MPD2     N11358   3.772   2.308  15.665 -0.3503  0.3803 -0.7234
  769MPD2    H511359   3.686   2.299  15.719  0.2160 -0.0686  0.1078
  769MPD2    N111360   3.594   1.924  15.432 -0.3045  0.3696 -0.5768
  769MPD2    H711361   3.610   1.852  15.363 -1.6552 -1.0188  0.5448
  770MPD2     C11362   2.835   1.441  15.958  0.1316  0.6421 -0.9650
  770MPD2    C111363   2.926   1.362  15.900  0.0773 -0.3668  0.2515
  770MPD2    C211364   3.004   1.424  15.806  0.1672 -0.3310 -0.4371
  770MPD2    C311365   2.994   1.558  15.769 -0.1810  0.2107 -0.7393
  770MPD2    C411366   2.904   1.637  15.835  0.6449  0.0192 -0.0297
  770MPD2    C511367   2.824   1.575  15.923 -0.6448  0.0321  0.4494
  770MPD2     H11368   3.065   1.364  15.740 -1.0927 -0.8340 -1.1542
  770MPD2    H111369   2.897   1.742  15.812  0.2254 -0.0738 -0.3172
  770MPD2    H211370   2.770   1.403  16.035  0.4627  1.4833 -0.2624
  770MPD2    H311371   2.767   1.640  15.989  0.4781  1.2552  0.2258
  770MPD2     N11372   3.084   1.607  15.664  0.3616 -0.0915 -0.1889
  770MPD2    H511373   3.172   1.564  15.637  0.9419  0.3413  1.0223
  770MPD2    N111374   2.925   1.226  15.936 -0.2437 -0.5246 -0.6916
  770MPD2    H711375   2.849   1.203  15.999 -2.3492 -0.6778 -3.2444
  771MPD2     C11376   4.366   0.037  14.105 -1.3080 -0.1242 -0.0267
  771MPD2    C111377   4.302   0.148  14.048 -0.6563 -0.7221 -0.5011
  771MPD2    C211378   4.178   0.142  13.995 -0.0558 -0.5966  0.5138
  771MPD2    C311379   4.109   0.024  13.981  0.0036  0.1215 -0.0890
  771MPD2    C411380   4.167   4.638  14.043  0.1721  0.3542 -0.2461
  771MPD2    C511381   4.290   4.652  14.104 -0.5773 -0.8443 -0.5172
  771MPD2     H11382   4.147   0.235  13.949 -0.5583 -0.4018  1.2470
  771MPD2    H111383   4.123   4.538  14.044  0.7624  0.0767 -2.0144
  771MPD2    H211384   4.464   0.034  14.151  0.4760 -0.1486 -3.8300
  771MPD2    H311385   4.336   4.563  14.145  1.2982  0.7776  0.9320
  771MPD2     N11386   3.993   0.018  13.901  0.5446  0.0859 -0.1604
  771MPD2    H511387   3.954   0.108  13.876 -2.1656 -0.4735  2.0256
  771MPD2    N111388   4.351   0.277  14.055  0.2766 -0.8902  0.0684
  771MPD2    H711389   4.282   0.350  14.035  1.3052 -0.3586 -1.6158
  772MPD2     C11390   4.148   0.901  13.791  0.0134  0.4992  0.1863
  772MPD2    C111391   4.136   0.791  13.872 -0.3535  0.0083  0.8347
  772MPD2    C211392   4.010   0.750  13.914 -0.6931 -0.1919 -0.2378
  772MPD2    C311393   3.895   0.800  13.861 -0.5893 -0.5943  0.8274
  772MPD2    C411394   3.911   0.906  13.773 -0.3299  0.3657 -0.1843
  772MPD2    C511395   4.030   0.961  13.746 -0.0747 -0.2790 -0.1442
  772MPD2     H11396   3.998   0.657  13.968  1.4012 -0.0589  0.4362
  772MPD2    H111397   3.827   0.948  13.718 -0.4471 -0.8912 -0.9863
  772MPD2    H211398   4.242   0.956  13.780  1.0692 -1.1287  1.1297
  772MPD2    H311399   4.029   1.050  13.684  2.1945  0.4514  0.8694
  772MPD2     N11400   3.767   0.748  13.881  1.3104  0.4646 -0.2545
  772MPD2    H511401   3.692   0.786  13.823 -1.0283 -1.7979  1.3063
  772MPD2    N111402   4.244   0.731  13.942 -0.2956 -0.2755 -0.4999
  772MPD2    H711403   4.223   0.649  13.998  2.2029 -0.5955 -0.0444
  773MPD2     C11404   3.142   1.951   1.163  0.7997 -0.1164  0.0532
  773MPD2    C111405   3.055   1.900   1.066  0.0206  0.0744  0.4764
  773MPD2    C211406   3.041   1.761   1.059 -0.3260 -0.2827  0.5102
  773MPD2    C311407   3.110   1.678   1.141 -0.7208  0.1691  0.1745
  773MPD2    C411408   3.197   1.730   1.235 -0.2717 -0.2200  0.4523
  773MPD2    C511409   3.210   1.863   1.249 -0.1310 -0.3257  0.1471
  773MPD2     H11410   2.982   1.712   0.982  0.6508  0.5306 -0.7518
  773MPD2    H111411   3.253   1.669   1.305  4.6729  0.1928 -3.0850
  773MPD2    H211412   3.147   2.058   1.180 -4.0878  0.1457 -0.0776
  773MPD2    H311413   3.270   1.898   1.332 -1.9076  0.8081  0.9487
  773MPD2     N11414   3.096   1.541   1.125 -0.1458 -0.5795  0.1165
  773MPD2    H511415   3.033   1.501   1.056  0.1450 -0.6116 -0.1313
  773MPD2    N111416   2.995   1.985   0.969 -0.0321 -0.1983  0.6519
  773MPD2    H711417   2.921   1.950   0.909 -0.4791 -1.7704  2.1411
  774MPD2     C11418   2.560   0.670  13.432 -0.0698  0.5977  0.4629
  774MPD2    C111419   2.555   0.767  13.530  0.3861 -0.5400  0.1877
  774MPD2    C211420   2.615   0.888  13.499  0.7524 -0.3700  0.2015
  774MPD2    C311421   2.661   0.921  13.376  0.3324  0.0029 -0.3317
  774MPD2    C411422   2.644   0.831  13.273 -0.8442 -0.2359 -0.1311
  774MPD2    C511423   2.599   0.704  13.305  0.4355  0.4939  0.4903
  774MPD2     H11424   2.614   0.964  13.576 -1.7202 -3.0299  2.8074
  774MPD2    H111425   2.659   0.856  13.169 -1.2493  1.3813  0.2008
  774MPD2    H211426   2.513   0.574  13.446  1.3537  0.0348  1.3043
  774MPD2    H311427   2.595   0.647  13.213  0.3006  0.1858  0.6833
  774MPD2     N11428   2.722   1.051  13.363  0.3464  0.6273 -0.3549
  774MPD2    H511429   2.731   1.107  13.446 -0.5700 -1.5389  1.2016
  774MPD2    N111430   2.505   0.752  13.657 -0.3664 -0.3392 -0.1502
  774MPD2    H711431   2.501   0.835  13.716  0.8446 -1.4884  1.5621
  775MPD2     C11432   3.838   2.254  16.093  0.3913  0.7229 -0.3056
  775MPD2    C111433   3.866   2.370  16.165 -0.6969  0.0054 -0.7921
  775MPD2    C211434   3.984   2.434  16.146 -0.2252 -0.1017  0.3922
  775MPD2    C311435   4.076   2.389  16.058 -1.0113 -0.0684 -0.2654
  775MPD2    C411436   4.045   2.284  15.978  0.4386  0.3025  0.0065
  775MPD2    C511437   3.922   2.216  15.993 -0.6759 -0.1212 -0.3695
  775MPD2     H11438   4.009   2.515  16.213  3.6416  0.1647 -1.3308
  775MPD2    H111439   4.110   2.247  15.900 -1.7637 -0.8957 -1.2624
  775MPD2    H211440   3.746   2.205  16.123  0.2241  0.4511 -1.2757
  775MPD2    H311441   3.891   2.147  15.915 -0.3015 -0.8763  0.1465
  775MPD2     N11442   4.199   2.462  16.033 -0.6347  0.1395  0.6405
  775MPD2    H511443   4.250   2.432  15.950 -1.4348 -1.3242  0.6685
  775MPD2    N111444   3.768   2.413  16.263  0.6866 -0.7298  0.0727
  775MPD2    H711445   3.719   2.338  16.310 -0.0222  1.2920  2.5427
  776MPD2     C11446   3.062   2.730  11.143 -0.8876  0.6534 -0.5327
  776MPD2    C111447   3.102   2.712  11.274  0.5684  0.0866  0.0832
  776MPD2    C211448   3.172   2.815  11.334 -0.6210 -0.7749 -0.0250
  776MPD2    C311449   3.202   2.921  11.260 -0.5213 -0.5212 -0.0899
  776MPD2    C411450   3.163   2.939  11.130 -0.1715 -0.0240  0.1127
  776MPD2    C511451   3.091   2.840  11.068 -0.0063  1.2717  0.0747
  776MPD2     H11452   3.196   2.815  11.439 -0.1305 -3.0004 -0.1341
  776MPD2    H111453   3.194   3.025  11.071  3.3264 -1.5256 -0.2122
  776MPD2    H211454   3.006   2.651  11.093  1.3735 -0.1901 -1.7470
  776MPD2    H311455   3.061   2.852  10.965  0.7205 -0.6490 -0.3515
  776MPD2     N11456   3.291   3.027  11.306 -0.1102 -0.0305  0.1273
  776MPD2    H511457   3.313   3.097  11.236 -0.1623  1.1519  1.2696
  776MPD2    N111458   3.072   2.589  11.346 -0.1567  0.3836  0.4562
  776MPD2    H711459   3.025   2.522  11.286  1.7320  0.3635 -0.9878
  777MPD2     C11460   3.052   0.315   1.711  0.3295  0.6467  0.4719
  777MPD2    C111461   3.010   0.436   1.671 -0.5798 -0.8015 -1.3839
  777MPD2    C211462   2.969   0.447   1.536 -0.0820  0.5701 -0.0964
  777MPD2    C311463   2.976   0.337   1.454  0.9175  0.4830 -0.3743
  777MPD2    C411464   3.039   0.224   1.488 -0.5421  0.8324 -0.2963
  777MPD2    C511465   3.074   0.221   1.621 -0.4149 -0.0554 -0.2012
  777MPD2     H11466   2.939   0.544   1.499 -1.4976 -0.5500 -1.8952
  777MPD2    H111467   3.040   0.131   1.432 -2.1134  1.3126 -1.1153
  777MPD2    H211468   3.090   0.296   1.811 -0.8695 -1.6002  0.5059
  777MPD2    H311469   3.121   0.129   1.655 -1.7307 -0.3905  0.6996
  777MPD2     N11470   2.926   0.360   1.327 -0.6640  0.3616  0.3677
  777MPD2    H511471   2.858   0.435   1.320 -1.1660 -0.2031 -0.9077
  777MPD2    N111472   3.006   0.540   1.763 -0.1722 -0.2453 -0.0456
  777MPD2    H711473   3.020   0.507   1.858  0.9514 -1.3604 -0.5875
  778MPD2     C11474   4.307   0.385  15.443  0.3860  0.2307  0.1010
  778MPD2    C111475   4.246   0.344  15.335 -0.0172 -0.1343 -0.3772
  778MPD2    C211476   4.280   0.410  15.209  0.3888 -0.8160 -0.8204
  778MPD2    C311477   4.378   0.507  15.195  0.3485  0.7389 -0.2885
  778MPD2    C411478   4.451   0.536  15.306  0.4338 -0.3874 -0.3152
  778MPD2    C511479   4.406   0.476  15.419  0.4766  0.0760 -0.5563
  778MPD2     H11480   4.229   0.375  15.120  1.6730  1.7345 -2.5631
  778MPD2    H111481   4.537   0.602  15.307 -0.5199  0.8568 -0.9466
  778MPD2    H211482   4.297   0.358  15.547 -4.4712  0.2892 -0.3242
  778MPD2    H311483   4.462   0.502  15.508  1.4243  0.0864 -1.1568
  778MPD2     N11484   4.414   0.556  15.064  0.1474 -0.3857 -0.0676
  778MPD2    H511485   4.356   0.525  14.987  2.1673  0.3065 -1.8476
  778MPD2    N111486   4.167   0.229  15.329 -0.4756 -0.3636  0.6103
  778MPD2    H711487   4.126   0.210  15.239  1.8565  0.2169 -0.5688
  779MPD2     C11488   3.897   3.811  14.585 -0.2713 -0.5602  0.2009
  779MPD2    C111489   4.028   3.820  14.615  0.9397 -0.1599 -0.1498
  779MPD2    C211490   4.097   3.937  14.582 -0.1045 -0.0814 -0.3389
  779MPD2    C311491   4.032   4.051  14.523  0.3638 -0.4151 -0.2786
  779MPD2    C411492   3.903   4.030  14.491  0.0935 -0.3457 -0.1746
  779MPD2    C511493   3.835   3.911  14.523 -0.1225 -0.5130  0.4906
  779MPD2     H11494   4.204   3.942  14.595 -0.3823 -3.7654  3.2146
  779MPD2    H111495   3.831   4.105  14.459  0.7828  0.2038 -0.4365
  779MPD2    H211496   3.831   3.733  14.623 -2.6229 -0.4138 -3.6610
  779MPD2    H311497   3.727   3.908  14.514 -0.4242  0.7142  3.6245
  779MPD2     N11498   4.109   4.166  14.501 -0.7639 -0.3138  0.7291
  779MPD2    H511499   4.197   4.166  14.552  0.6064 -2.0266 -1.6310
  779MPD2    N111500   4.085   3.699  14.674  0.6228  0.0475  0.5292
  779MPD2    H711501   4.023   3.621  14.655  0.9434 -0.5714  2.0534
  780MPD2     C11502   4.540   4.141   0.861 -0.2784  0.5967 -1.0405
  780MPD2    C111503   4.437   4.160   0.948  0.2936 -0.5584  0.0950
  780MPD2    C211504   4.317   4.105   0.916 -0.0418  0.4153 -0.5754
  780MPD2    C311505   4.298   4.016   0.814  0.7859  1.0194  0.5090
  780MPD2    C411506   4.403   3.986   0.735 -0.0850 -1.1366 -0.6487
  780MPD2    C511507   4.517   4.050   0.759 -0.2273  0.1164  0.4651
  780MPD2     H11508   4.235   4.121   0.986 -0.4665 -1.8107 -0.5787
  780MPD2    H111509   4.395   3.920   0.649 -2.4407 -0.2108 -1.1325
  780MPD2    H211510   4.633   4.197   0.866  0.2407 -0.1172 -2.7128
  780MPD2    H311511   4.597   4.036   0.686 -1.4427 -1.5538 -0.5416
  780MPD2     N11512   4.166   3.964   0.788  0.2621  0.0781 -0.3923
  780MPD2    H511513   4.087   4.003   0.837  1.8077  0.3331  1.9278
  780MPD2    N111514   4.452   4.251   1.056 -0.6459  0.0262 -0.2407
  780MPD2    H711515   4.544   4.277   1.090 -1.0897 -1.0769  1.8003
  781MPD2     C11516   0.993   1.084  12.064  0.3867 -0.3627 -0.6497
  781MPD2    C111517   1.113   1.077  12.134  0.4154 -0.3519  0.1676
  781MPD2    C211518   1.225   1.058  12.061 -0.1266  0.1241  0.2696
  781MPD2    C311519   1.220   1.050  11.930  0.3149  0.5563 -0.0142
  781MPD2    C411520   1.100   1.053  11.861 -0.3123  0.2920  1.0375
  781MPD2    C511521   0.984   1.061  11.932  0.3333 -0.1371 -0.4757
  781MPD2     H11522   1.319   1.051  12.115 -0.5709 -0.4316  0.9615
  781MPD2    H111523   1.093   1.048  11.753  2.1593  1.0892  0.8465
  781MPD2    H211524   0.900   1.101  12.116  0.7386 -3.6742  1.0883
  781MPD2    H311525   0.892   1.071  11.876  0.9421  0.6267 -1.3291
  781MPD2     N11526   1.338   1.018  11.856 -0.0965  0.5141  0.0163
  781MPD2    H511527   1.332   1.010  11.755  0.6487 -0.2295  0.0325
  781MPD2    N111528   1.117   1.077  12.278  0.3562 -0.3148 -0.0692
  781MPD2    H711529   1.025   1.079  12.322  0.7304  1.5304  0.6089
  782MPD2     C11530   3.989   1.293   9.871  0.6365  0.2315  1.1613
  782MPD2    C111531   3.940   1.302  10.003  0.4310 -0.2847 -0.1463
  782MPD2    C211532   3.988   1.410  10.081  0.2819 -0.0436  0.4245
  782MPD2    C311533   4.082   1.496  10.030 -0.1632 -0.4539 -0.5711
  782MPD2    C411534   4.128   1.495   9.896  0.0142 -0.3326  0.4043
  782MPD2    C511535   4.073   1.395   9.820  0.1654 -0.6917  0.2709
  782MPD2     H11536   3.963   1.414  10.187 -0.9301  0.3853  0.1182
  782MPD2    H111537   4.196   1.570   9.856 -1.5951 -0.1027 -1.9035
  782MPD2    H211538   3.947   1.221   9.801 -0.3555  1.6152  0.3379
  782MPD2    H311539   4.101   1.400   9.715  0.5803  1.5181  0.4731
  782MPD2     N11540   4.124   1.593  10.119 -0.3359 -0.4351 -0.0382
  782MPD2    H511541   4.076   1.604  10.207 -0.3253 -2.0896  0.1666
  782MPD2    N111542   3.860   1.194  10.046  0.8112  0.4648  0.3747
  782MPD2    H711543   3.863   1.105   9.997 -1.5418  0.7519 -0.2783
  783MPD2     C11544   3.234   0.901  10.770  0.2216  0.3314  0.0852
  783MPD2    C111545   3.300   1.024  10.772  0.2492  0.2788 -0.5868
  783MPD2    C211546   3.407   1.048  10.688  0.3262  0.1689 -0.6343
  783MPD2    C311547   3.446   0.949  10.607  0.0143  0.5100 -0.3145
  783MPD2    C411548   3.377   0.828  10.612  0.1959 -0.6123 -0.0254
  783MPD2    C511549   3.271   0.800  10.689  0.9770  0.2291 -0.1127
  783MPD2     H11550   3.452   1.147  10.691 -0.2963  0.4938 -1.8487
  783MPD2    H111551   3.415   0.746  10.552 -0.9759 -1.8551  0.9352
  783MPD2    H211552   3.151   0.894  10.840  2.3666 -0.5574  2.5502
  783MPD2    H311553   3.215   0.709  10.675  1.8287 -0.6501  2.2325
  783MPD2     N11554   3.565   0.970  10.537 -1.1062 -0.3178  0.1543
  783MPD2    H511555   3.609   1.058  10.561  0.4231 -1.5322  1.7643
  783MPD2    N111556   3.254   1.122  10.861  0.5568 -0.1816  0.6253
  783MPD2    H711557   3.187   1.082  10.926  2.7628  0.5175  3.3316
  784MPD2     C11558   1.654   2.288   1.534 -0.1510 -0.5173 -0.1532
  784MPD2    C111559   1.607   2.413   1.552 -0.1169  0.4155 -0.2940
  784MPD2    C211560   1.484   2.446   1.493  0.3991 -0.0036 -0.2129
  784MPD2    C311561   1.412   2.364   1.405  0.4326 -0.3992 -0.3825
  784MPD2    C411562   1.468   2.246   1.384 -0.0892 -0.2185  0.4955
  784MPD2    C511563   1.580   2.211   1.449  0.4804  0.7353 -0.3881
  784MPD2     H11564   1.436   2.530   1.542 -1.9818  0.1729 -2.7983
  784MPD2    H111565   1.423   2.161   1.333 -0.1213 -1.0772  1.9277
  784MPD2    H211566   1.742   2.249   1.583 -1.1509  1.0371  2.8865
  784MPD2    H311567   1.621   2.110   1.445  0.5541  0.6534  2.3271
  784MPD2     N11568   1.299   2.409   1.338  0.0894  0.5144  0.2801
  784MPD2    H511569   1.263   2.500   1.364 -0.4491 -0.1924  1.9850
  784MPD2    N111570   1.672   2.513   1.628 -0.0159 -0.8357  0.0008
  784MPD2    H711571   1.649   2.612   1.624  0.8313 -0.6324  0.0120
  785MPD2     C11572   1.623   0.002  11.099 -0.1413 -0.0359  0.2319
  785MPD2    C111573   1.630   0.074  10.980  0.1842  0.0858 -0.2432
  785MPD2    C211574   1.529   0.064  10.888  0.2391  0.7442  0.3364
  785MPD2    C311575   1.413   4.720  10.922  0.7890  0.2717 -0.3519
  785MPD2    C411576   1.401   4.649  11.041 -0.2372 -0.0930  0.2299
  785MPD2    C511577   1.512   4.648  11.118  0.0433 -0.0408 -0.1679
  785MPD2     H11578   1.533   0.129  10.801  2.7326  1.4076  0.9501
  785MPD2    H111579   1.323   4.580  11.069  0.1946 -1.3029 -1.4708
  785MPD2    H211580   1.701   4.720  11.174 -2.1244  2.3865  2.5535
  785MPD2    H311581   1.513   4.586  11.207 -0.2458  0.2845  0.0624
  785MPD2     N11582   1.302   0.016  10.828  0.2536 -0.0199 -0.2100
  785MPD2    H511583   1.325   0.077  10.750  2.7098 -0.7770 -0.0728
  785MPD2    N111584   1.734   0.166  10.964 -0.2969 -0.1904 -0.2197
  785MPD2    H711585   1.792   0.184  11.046 -0.5391  2.0380 -0.5302
  786MPD2     C11586   4.330   3.096  15.043 -0.6355 -0.2277 -0.1897
  786MPD2    C111587   4.444   3.015  15.054  0.0184 -0.2338 -1.1893
  786MPD2    C211588   4.526   3.030  15.167 -0.7024  0.4048 -0.5260
  786MPD2    C311589   4.481   3.090  15.285 -0.7055 -0.6000  0.1345
  786MPD2    C411590   4.353   3.143  15.282  0.4466 -1.0289  0.2845
  786MPD2    C511591   4.284   3.142  15.163  0.6505  0.2851  0.4773
  786MPD2     H11592   4.618   2.972  15.167 -1.4520 -0.7814 -1.1733
  786MPD2    H111593   4.309   3.185  15.372 -1.1469  0.8585 -1.3853
  786MPD2    H211594   4.268   3.109  14.956  2.0115  0.9699 -1.9046
  786MPD2    H311595   4.184   3.185  15.162  0.1803 -0.8064  0.1390
  786MPD2     N11596   4.555   3.102  15.404 -0.1111 -0.7339 -0.3069
  786MPD2    H511597   4.515   3.131  15.492 -1.2560  1.3895 -1.5378
  786MPD2    N111598   4.507   2.951  14.945  0.0570 -0.6585 -0.0076
  786MPD2    H711599   4.601   2.921  14.968  0.0104 -1.0687 -0.3414
  787MPD2     C11600   0.448   2.911  14.471 -0.0896 -0.0654  0.3042
  787MPD2    C111601   0.384   2.835  14.568  0.2470  0.5124 -0.0767
  787MPD2    C211602   0.460   2.768  14.661 -0.1565 -0.3896  0.3290
  787MPD2    C311603   0.593   2.787  14.680 -0.6238  0.6784 -0.7888
  787MPD2    C411604   0.659   2.867  14.597 -0.3041 -0.2780  0.4214
  787MPD2    C511605   0.585   2.930  14.496 -0.0947  0.1739 -0.1592
  787MPD2     H11606   0.415   2.697  14.730  0.5220  0.5824  1.7645
  787MPD2    H111607   0.766   2.885  14.601 -0.3844  0.3269 -0.1925
  787MPD2    H211608   0.397   2.968  14.394  1.3942  1.4223  0.4039
  787MPD2    H311609   0.640   2.995  14.428 -2.3729  0.8991 -1.3188
  787MPD2     N11610   0.654   2.710  14.777  0.3696 -0.2227 -0.5844
  787MPD2    H511611   0.596   2.650  14.834  0.4188 -1.0642 -1.4235
  787MPD2    N111612   0.246   2.846  14.564  0.3277  0.7703  0.0189
  787MPD2    H711613   0.203   2.879  14.478 -2.3098 -2.5919 -0.0015
  788MPD2     C11614   1.847   2.086   1.280  0.4765  0.2895  0.4879
  788MPD2    C111615   1.785   1.983   1.213 -0.3695  0.1382 -0.1147
  788MPD2    C211616   1.736   2.011   1.089 -0.6258  0.8674 -0.5492
  788MPD2    C311617   1.765   2.126   1.023  0.3060  0.5122 -0.0173
  788MPD2    C411618   1.825   2.232   1.093  0.6620  0.1261  1.1858
  788MPD2    C511619   1.853   2.210   1.223 -0.5377 -0.2223  0.0522
  788MPD2     H11620   1.698   1.926   1.033 -0.8740  1.2997 -1.0431
  788MPD2    H111621   1.848   2.330   1.055 -1.4753  0.9575  2.0328
  788MPD2    H211622   1.900   2.070   1.374  0.4412 -0.3989  0.3911
  788MPD2    H311623   1.913   2.277   1.284 -0.1319 -1.3189  0.8676
  788MPD2     N11624   1.719   2.157   0.897  0.4448 -0.3196 -0.2188
  788MPD2    H511625   1.755   2.238   0.848 -0.1246  0.5677  0.8464
  788MPD2    N111626   1.762   1.856   1.266 -0.0296  0.0017  0.6818
  788MPD2    H711627   1.706   1.791   1.211  0.8259  0.3729 -0.6423
  789MPD2     C11628   2.169   1.483  16.273 -0.0993  0.9356  0.1187
  789MPD2    C111629   2.161   1.410  16.390 -0.3641  0.5152 -0.3816
  789MPD2    C211630   2.086   1.460  16.497  0.0254 -0.6535 -0.4158
  789MPD2    C311631   2.021   1.581  16.481 -0.7528 -0.6513 -0.4021
  789MPD2    C411632   2.027   1.651  16.362 -0.1273  0.1420 -0.2253
  789MPD2    C511633   2.109   1.605  16.258 -0.1881 -1.0122 -0.2642
  789MPD2     H11634   2.077   1.408  16.591  0.6408 -0.0828 -0.0394
  789MPD2    H111635   1.962   1.735  16.340  3.2467  2.4441 -1.4285
  789MPD2    H211636   2.217   1.446  16.183  1.2330  1.7565  0.4997
  789MPD2    H311637   2.104   1.657  16.163 -0.8977 -0.8094 -0.1131
  789MPD2     N11638   1.943   1.645  16.582 -0.4672  0.3215 -0.6953
  789MPD2    H511639   1.878   1.717  16.552 -0.2300  2.4135  3.8111
  789MPD2    N111640   2.245   1.297  16.419 -0.5290  0.2495 -0.3687
  789MPD2    H711641   2.248   1.265  16.515 -0.6043 -2.4529 -1.2753
  790MPD2     C11642   3.237   1.773  14.106 -0.6113 -0.0617 -0.4479
  790MPD2    C111643   3.329   1.820  14.012 -0.3583  0.2149 -0.7125
  790MPD2    C211644   3.280   1.882  13.891 -0.1592  0.2260 -0.3896
  790MPD2    C311645   3.144   1.905  13.871 -0.5617  0.3197  0.4685
  790MPD2    C411646   3.058   1.870  13.967 -0.1362  0.0816  0.2564
  790MPD2    C511647   3.103   1.796  14.076  0.4489 -0.4452 -0.2851
  790MPD2     H11648   3.349   1.939  13.829 -0.3347 -0.5868 -1.3227
  790MPD2    H111649   2.951   1.885  13.959 -0.0445 -0.5592 -2.2527
  790MPD2    H211650   3.276   1.739  14.201  0.4475 -1.2521 -1.3177
  790MPD2    H311651   3.026   1.759  14.142  0.1331  0.3998 -0.1817
  790MPD2     N11652   3.110   1.983  13.757  0.0298  0.3535 -0.0605
  790MPD2    H511653   3.187   1.987  13.690  1.2124  2.3548  1.4182
  790MPD2    N111654   3.470   1.828  14.042  0.0355  0.3630  0.0302
  790MPD2    H711655   3.496   1.811  14.138  0.6222  0.2805 -0.1443
  791MPD2     C11656   2.694   2.385  13.024  0.1213 -0.4059 -0.6019
  791MPD2    C111657   2.676   2.301  13.131  0.6563  0.6172 -0.2042
  791MPD2    C211658   2.564   2.216  13.125  0.5275  0.1853  0.6072
  791MPD2    C311659   2.491   2.205  13.013 -0.2304  0.7018 -0.1494
  791MPD2    C411660   2.512   2.294  12.907 -0.3274  0.1184 -0.1004
  791MPD2    C511661   2.603   2.388  12.923 -0.3038 -0.1567  0.3078
  791MPD2     H11662   2.539   2.148  13.205 -0.2898 -1.1613 -0.8024
  791MPD2    H111663   2.448   2.314  12.821  1.3144 -1.1450 -1.6290
  791MPD2    H211664   2.775   2.458  13.023  1.6220 -2.0236  1.5775
  791MPD2    H311665   2.614   2.467  12.850 -1.6000 -1.4476 -1.2790
  791MPD2     N11666   2.384   2.113  13.007  0.2540  0.6069 -0.2824
  791MPD2    H511667   2.376   2.043  13.080 -0.3513  0.2369 -0.7023
  791MPD2    N111668   2.759   2.308  13.248  0.2623  0.2032 -0.3185
  791MPD2    H711669   2.841   2.367  13.239  0.4172 -0.2215 -1.5784
  792MPD2     C11670   3.390   2.188  11.259 -0.0459  0.1695  0.2534
  792MPD2    C111671   3.443   2.273  11.163 -0.4033  0.3261 -0.0212
  792MPD2    C211672   3.461   2.218  11.041  0.2293  0.5522 -0.4874
  792MPD2    C311673   3.454   2.077  11.023  0.6804 -0.6015 -0.1291
  792MPD2    C411674   3.419   1.992  11.123  0.6511 -0.6195  0.2975
  792MPD2    C511675   3.383   2.052  11.234 -0.0083  0.3703 -0.5878
  792MPD2     H11676   3.482   2.285  10.958 -0.1118 -0.3847 -1.3255
  792MPD2    H111677   3.419   1.884  11.114 -0.4196 -0.4710 -1.4646
  792MPD2    H211678   3.380   2.215  11.364 -2.3693 -2.6127  0.7484
  792MPD2    H311679   3.346   1.987  11.313  0.4396 -1.1146 -1.5943
  792MPD2     N11680   3.487   2.008  10.907 -0.3990  0.0554 -0.1497
  792MPD2    H511681   3.478   1.907  10.900 -0.8596  0.1136 -0.4353
  792MPD2    N111682   3.456   2.414  11.173 -0.2254  0.2959  0.4023
  792MPD2    H711683   3.502   2.461  11.096  1.2598  1.6920  2.1177
  793MPD2     C11684   3.272   1.696   9.989  0.0731  0.1364  0.5851
  793MPD2    C111685   3.318   1.827   9.977  0.4115  0.5924  0.4992
  793MPD2    C211686   3.298   1.908  10.091 -0.4330 -0.0740  0.4969
  793MPD2    C311687   3.262   1.860  10.216  0.0159  0.9182  0.1818
  793MPD2    C411688   3.217   1.727  10.227  0.0987 -0.0479 -0.5576
  793MPD2    C511689   3.218   1.655  10.105 -0.2026 -0.3660 -0.5341
  793MPD2     H11690   3.335   2.009  10.075  1.7534 -0.6654  1.7961
  793MPD2    H111691   3.177   1.682  10.318 -1.7474  0.2830 -1.2078
  793MPD2    H211692   3.273   1.624   9.908  0.0954 -0.2076  0.8958
  793MPD2    H311693   3.181   1.553  10.107 -0.2494 -0.2802  3.2589
  793MPD2     N11694   3.268   1.955  10.323  0.1163 -0.3390 -0.2086
  793MPD2    H511695   3.289   2.048  10.286 -0.7940  0.6706  1.7809
  793MPD2    N111696   3.367   1.885   9.858  0.6668 -0.3453  0.3669
  793MPD2    H711697   3.407   1.978   9.862 -1.5649  0.6085  0.5536
  794MPD2     C11698   3.085   2.619   0.349  0.4523 -0.5950 -0.5399
  794MPD2    C111699   2.991   2.514   0.334  0.1472 -0.0536 -0.5595
  794MPD2    C211700   2.931   2.482   0.213 -0.3812 -0.2781 -0.4106
  794MPD2    C311701   2.963   2.557   0.104 -0.2737 -0.0199  0.1896
  794MPD2    C411702   3.051   2.656   0.116 -0.4895  0.0156  0.1570
  794MPD2    C511703   3.121   2.682   0.232 -0.5315 -0.2270  0.2266
  794MPD2     H11704   2.850   2.410   0.215 -0.9627  0.3709 -0.7036
  794MPD2    H111705   3.081   2.706   0.025 -1.1681  0.3423  0.1117
  794MPD2    H211706   3.115   2.649   0.448  0.1487 -0.3662 -0.5175
  794MPD2    H311707   3.200   2.757   0.230  1.3279 -2.2223 -3.0852
  794MPD2     N11708   2.906   2.544  17.677  0.3287  0.0270 -0.3562
  794MPD2    H511709   2.956   2.609  17.617 -0.8283  1.3889  0.1796
  794MPD2    N111710   2.949   2.438   0.448 -0.3650  0.3511  0.1867
  794MPD2    H711711   2.857   2.400   0.426  0.8599 -1.4192 -1.9372
  795MPD2     C11712   0.684   4.436  13.629 -0.2195  0.0296  0.0307
  795MPD2    C111713   0.663   4.300  13.606 -0.8130 -0.2254  0.3229
  795MPD2    C211714   0.774   4.214  13.588 -0.2531 -0.2906  0.5298
  795MPD2    C311715   0.900   4.263  13.600  1.0274  0.4823  0.9021
  795MPD2    C411716   0.919   4.399  13.617 -0.2054  0.9550 -0.5895
  795MPD2    C511717   0.813   4.485  13.625 -0.6503 -0.2041 -0.6199
  795MPD2     H11718   0.748   4.109  13.587 -0.0920 -0.2990 -1.8648
  795MPD2    H111719   1.022   4.433  13.619  0.4715 -1.1381  0.1434
  795MPD2    H211720   0.598   4.502  13.634 -0.7929 -0.8976  2.0033
  795MPD2    H311721   0.838   4.590  13.619  0.3152 -0.4744 -1.2746
  795MPD2     N11722   1.002   4.166  13.599 -0.1521  0.5247 -0.4412
  795MPD2    H511723   0.977   4.069  13.589 -1.7968  0.7751  1.2074
  795MPD2    N111724   0.538   4.243  13.601  0.5327  0.3397 -0.5580
  795MPD2    H711725   0.538   4.141  13.595  0.5258  0.3522 -0.7816
  796MPD2     C11726   4.673   0.909  16.100  0.7535  0.7359 -0.2028
  796MPD2    C111727   0.080   0.950  16.096  0.1554  0.2061 -0.1611
  796MPD2    C211728   0.111   1.081  16.109  0.1811 -0.1306 -0.3093
  796MPD2    C311729   0.019   1.180  16.114  0.3152  0.4861  1.0341
  796MPD2    C411730   4.612   1.147  16.106 -0.4760 -0.3090 -0.0156
  796MPD2    C511731   4.576   1.009  16.099  0.8262  0.6395 -0.4346
  796MPD2     H11732   0.213   1.116  16.118  0.0247 -0.1804  1.8452
  796MPD2    H111733   4.538   1.220  16.133  0.1187  0.7713 -1.3100
  796MPD2    H211734   4.648   0.804  16.098  0.6083  0.7645  0.2267
  796MPD2    H311735   4.473   0.974  16.098 -0.2282  3.7732 -0.3835
  796MPD2     N11736   0.070   1.310  16.142  0.4813 -0.1345 -0.0663
  796MPD2    H511737   0.169   1.326  16.160  0.2862  2.2490 -1.1243
  796MPD2    N111738   0.178   0.848  16.114  0.2843  0.0834 -0.4903
  796MPD2    H711739   0.132   0.764  16.148  0.4830  0.0002 -0.4255
  797MPD2     C11740   0.837   0.344  17.580 -0.3929  0.1978  0.2608
  797MPD2    C111741   0.951   0.415  17.574  0.8273  0.3216  0.2692
  797MPD2    C211742   0.963   0.513  17.472 -0.3910  0.6590  0.0118
  797MPD2    C311743   0.860   0.539  17.382  0.2568 -0.6341  0.1672
  797MPD2    C411744   0.755   0.452  17.379  0.0374  0.1937  0.2196
  797MPD2    C511745   0.750   0.351  17.476  0.1401 -0.3331 -0.5487
  797MPD2     H11746   1.049   0.579  17.470 -0.5984  0.9692  1.4792
  797MPD2    H111747   0.666   0.465  17.318  0.0651 -0.8484 -0.0414
  797MPD2    H211748   0.822   0.266  17.654  0.0680  1.5525  1.7898
  797MPD2    H311749   0.660   0.290  17.479 -1.0938  1.5425  0.9118
  797MPD2     N11750   0.860   0.653  17.296 -0.0794 -0.9234 -0.2946
  797MPD2    H511751   0.779   0.672  17.238  0.8103  0.8249 -0.9620
  797MPD2    N111752   1.052   0.410  17.676  0.2392 -0.7517 -0.6412
  797MPD2    H711753   1.134   0.467  17.663 -0.4560  0.3963  0.1065
  798MPD2     C11754   1.309   1.121  17.610  0.2419 -0.2932 -0.3644
  798MPD2    C111755   1.243   1.011  17.552  0.1606  0.4991  0.2183
  798MPD2    C211756   1.258   0.886  17.611 -0.2503 -0.0923  0.6151
  798MPD2    C311757   1.328   0.872   0.030 -0.5226  0.4138  0.1880
  798MPD2    C411758   1.402   0.981   0.082  0.4911 -0.3083  0.1790
  798MPD2    C511759   1.391   1.105   0.024 -0.6009  0.4088 -0.3958
  798MPD2     H11760   1.201   0.805  17.568  2.4232 -1.3102 -0.5872
  798MPD2    H111761   1.468   0.978   0.168  1.0638  0.8689 -0.2053
  798MPD2    H211762   1.296   1.221  17.570 -0.3664  0.4844  1.7731
  798MPD2    H311763   1.446   1.187   0.068  1.4339 -2.9013  3.1776
  798MPD2     N11764   1.317   0.744   0.082 -0.5936 -0.2502  0.2815
  798MPD2    H511765   1.281   0.670   0.022 -1.0035  0.5815 -0.5119
  798MPD2    N111766   1.168   1.018  17.432  0.3054 -0.5528  0.1933
  798MPD2    H711767   1.125   0.932  17.399 -0.1056 -0.5184  0.6345
  799MPD2     C11768   0.097   2.279  14.904  0.7196 -0.4023  0.0072
  799MPD2    C111769   0.074   2.195  14.791 -0.0260  0.0906 -0.1913
  799MPD2    C211770   0.026   2.247  14.667  0.3528  0.4911 -0.1266
  799MPD2    C311771   4.718   2.382  14.653 -0.1436  0.2979 -1.2587
  799MPD2    C411772   0.016   2.455  14.764 -0.7309  0.3882 -0.3111
  799MPD2    C511773   0.065   2.409  14.886 -0.1748 -0.0981  0.0614
  799MPD2     H11774   0.032   2.188  14.577  0.8802  0.7008 -0.2332
  799MPD2    H111775   4.705   2.558  14.765 -0.6496  0.4111  0.4185
  799MPD2    H211776   0.113   2.232  15.000 -3.8735 -0.8788  0.5728
  799MPD2    H311777   0.077   2.480  14.968  1.0887  0.6954 -0.8268
  799MPD2     N11778   4.696   2.441  14.528  0.2196  0.1125 -0.0146
  799MPD2    H511779   4.686   2.541  14.537 -0.5832  0.0465 -0.2058
  799MPD2    N111780   0.107   2.055  14.797  0.8410  0.0649  0.2375
  799MPD2    H711781   0.075   1.995  14.722  2.0725  2.7329 -2.4095
  800MPD2     C11782   0.501   3.964  14.294  0.1184 -0.4633 -0.0984
  800MPD2    C111783   0.635   3.937  14.260  0.6580  0.1161  0.2572
  800MPD2    C211784   0.679   3.807  14.252  0.4450 -0.0639  0.0161
  800MPD2    C311785   0.580   3.705  14.278 -0.8803  0.0973  0.0688
  800MPD2    C411786   0.458   3.735  14.327  0.1897 -0.0028 -0.3370
  800MPD2    C511787   0.417   3.863  14.323 -0.2306 -0.3187 -0.4665
  800MPD2     H11788   0.776   3.781  14.211  0.1257 -2.7521  0.9521
  800MPD2    H111789   0.381   3.665  14.357 -0.2961  1.8047  2.6543
  800MPD2    H211790   0.458   4.064  14.289  1.9760  0.3769  0.5225
  800MPD2    H311791   0.317   3.896  14.350 -0.6683 -0.8244 -1.4708
  800MPD2     N11792   0.619   3.569  14.254  0.5346 -0.2584 -0.2567
  800MPD2    H511793   0.716   3.558  14.228  1.0527  2.3356  0.5265
  800MPD2    N111794   0.706   4.048  14.222 -0.2760  0.0800 -0.1937
  800MPD2    H711795   0.664   4.138  14.243 -0.5466 -0.3419  1.0422
  801MPD2     C11796   0.981   4.266  14.807  0.6085  0.1289 -0.4138
  801MPD2    C111797   0.907   4.194  14.709  0.2254  1.2058 -0.4087
  801MPD2    C211798   0.822   4.095  14.748 -0.0782 -0.1469 -0.0319
  801MPD2    C311799   0.802   4.063  14.881 -0.0371 -0.5408 -0.4915
  801MPD2    C411800   0.866   4.141  14.977  0.2524 -0.4203  0.4331
  801MPD2    C511801   0.958   4.235  14.938 -0.1505  1.2229 -0.5104
  801MPD2     H11802   0.767   4.043  14.670  0.8183  0.0810 -0.8159
  801MPD2    H111803   0.843   4.122  15.081  0.0730  3.3147  1.0931
  801MPD2    H211804   1.043   4.352  14.782 -1.8296  0.9714 -3.5563
  801MPD2    H311805   1.006   4.286  15.021  1.2219 -0.0977 -0.5043
  801MPD2     N11806   0.724   3.959  14.934 -0.1983 -0.2334 -0.3540
  801MPD2    H511807   0.731   3.950  15.035 -0.3139 -0.3301 -0.3551
  801MPD2    N111808   0.913   4.215  14.567  0.4361 -0.0714 -0.5838
  801MPD2    H711809   0.863   4.144  14.514 -1.9275  0.7961  0.4632
  802MPD2     C11810   4.071   4.450   0.160 -0.6116 -0.1228 -0.5582
  802MPD2    C111811   4.155   4.435   0.267 -0.3812 -0.4353 -0.3531
  802MPD2    C211812   4.224   4.319   0.280 -0.5199 -0.2692 -0.3190
  802MPD2    C311813   4.222   4.217   0.181  0.2523 -0.1320  0.3909
  802MPD2    C411814   4.159   4.249   0.063  0.4767 -0.5244 -0.0987
  802MPD2    C511815   4.087   4.363   0.055  0.1115 -0.0771  0.6107
  802MPD2     H11816   4.300   4.313   0.358 -1.1178 -1.1819  0.2008
  802MPD2    H111817   4.159   4.190  17.673 -3.2176 -0.9564  0.2065
  802MPD2    H211818   4.029   4.547   0.133 -1.1823 -0.5893 -1.3379
  802MPD2    H311819   4.048   4.394  17.659  4.3041  1.4287 -0.6189
  802MPD2     N11820   4.319   4.110   0.194 -0.2235  0.4946 -0.2618
  802MPD2    H511821   4.395   4.116   0.261 -0.1302 -0.5144 -0.2802
  802MPD2    N111822   4.164   4.533   0.374  0.6131  0.5841  0.2174
  802MPD2    H711823   4.188   4.505   0.469  3.3934  0.5048 -0.5224
  803MPD2     C11824   1.409   2.329  11.659  1.1683 -0.3597  0.3427
  803MPD2    C111825   1.468   2.335  11.790  0.2453 -0.4733  0.5317
  803MPD2    C211826   1.408   2.264  11.895 -1.2816 -0.3434 -0.6019
  803MPD2    C311827   1.300   2.177  11.876  0.6089  0.3048 -0.2057
  803MPD2    C411828   1.249   2.167  11.741 -0.3957 -0.0230  0.3021
  803MPD2    C511829   1.301   2.248  11.640  0.2714 -0.1298 -0.0813
  803MPD2     H11830   1.455   2.263  11.992 -1.4707  1.0088 -0.4942
  803MPD2    H111831   1.183   2.087  11.709  0.6797 -0.3009 -1.1663
  803MPD2    H211832   1.449   2.382  11.573 -0.3377 -2.4879 -1.6766
  803MPD2    H311833   1.254   2.234  11.543  0.1036 -0.7249  0.0862
  803MPD2     N11834   1.245   2.094  11.980 -0.2226 -0.5409 -0.0410
  803MPD2    H511835   1.157   2.044  11.967 -0.5286 -0.0523  0.1382
  803MPD2    N111836   1.591   2.400  11.823 -0.1909  0.4447  0.2473
  803MPD2    H711837   1.609   2.410  11.922 -0.9929  1.1579  0.3233
  804MPD2     C11838   0.427   3.872  16.878 -0.3316  0.1481  0.5742
  804MPD2    C111839   0.388   3.871  17.010  0.4993  0.5683  0.5778
  804MPD2    C211840   0.433   3.972  17.096 -1.1296 -0.2235  0.4619
  804MPD2    C311841   0.515   4.073  17.050  0.6664 -0.0198  0.4407
  804MPD2    C411842   0.548   4.077  16.909 -0.6725  0.1372 -0.2501
  804MPD2    C511843   0.504   3.976  16.835  0.0149 -0.5667  0.9088
  804MPD2     H11844   0.397   3.973  17.198 -0.1635 -1.7317  0.8245
  804MPD2    H111845   0.592   4.161  16.857 -0.5809  0.3485  0.1698
  804MPD2    H211846   0.399   3.793  16.809 -0.1631  0.8552 -0.2956
  804MPD2    H311847   0.525   3.971  16.729 -0.2312 -0.2682  0.8450
  804MPD2     N11848   0.567   4.174  17.133 -0.0306  0.0117 -0.1806
  804MPD2    H511849   0.542   4.161  17.231  0.0611  1.4813  0.0339
  804MPD2    N111850   0.304   3.773  17.074 -0.4251  0.0302  0.2163
  804MPD2    H711851   0.286   3.786  17.173 -1.5719 -0.1085  0.0299
  805MPD2     C11852   4.324   2.166  15.752 -0.4242  0.3929 -0.7927
  805MPD2    C111853   4.408   2.266  15.715 -0.2586 -0.5525  0.2489
  805MPD2    C211854   4.507   2.315  15.802 -0.2349  0.9364 -0.1921
  805MPD2    C311855   4.519   2.263  15.934 -0.3360  1.0035  0.5157
  805MPD2    C411856   4.431   2.162  15.974  0.3084  0.2556  0.0895
  805MPD2    C511857   4.334   2.116  15.878 -0.5356  0.6145  0.5166
  805MPD2     H11858   4.559   2.407  15.780 -0.3609  0.4908 -2.3393
  805MPD2    H111859   4.423   2.123  16.075  1.1032  0.9693  0.4217
  805MPD2    H211860   4.242   2.125  15.694  0.0188 -2.4055  0.5695
  805MPD2    H311861   4.271   2.038  15.920  0.8585 -0.8833 -0.1766
  805MPD2     N11862   4.622   2.308  16.018  0.0388  0.2294  0.0828
  805MPD2    H511863   4.676   2.388  15.986  1.1895 -0.6253 -0.0850
  805MPD2    N111864   4.404   2.314  15.586  0.0122  0.2810 -0.1798
  805MPD2    H711865   4.434   2.410  15.570 -1.8026  0.6642 -1.3129
  806MPD2     C11866   0.445   1.488   0.442 -0.8339 -0.0995  0.7403
  806MPD2    C111867   0.332   1.563   0.417 -0.1221  0.2201 -0.0754
  806MPD2    C211868   0.352   1.673   0.330  0.2300 -1.2048 -1.2165
  806MPD2    C311869   0.480   1.703   0.284  0.5934 -0.1787 -1.3339
  806MPD2    C411870   0.592   1.626   0.319  0.5215 -0.7232  1.0474
  806MPD2    C511871   0.567   1.526   0.402 -0.1464 -0.0714 -0.1156
  806MPD2     H11872   0.269   1.737   0.301  0.3987 -0.3119  0.2768
  806MPD2    H111873   0.694   1.650   0.289  0.2421  0.8847  1.3455
  806MPD2    H211874   0.432   1.395   0.496 -0.3185 -1.4259 -1.3789
  806MPD2    H311875   0.653   1.468   0.434 -0.8342 -2.2095 -2.1169
  806MPD2     N11876   0.489   1.823   0.203  0.2992 -0.7872 -0.3778
  806MPD2    H511877   0.406   1.878   0.183  1.1888  1.0212  0.9944
  806MPD2    N111878   0.200   1.525   0.461  0.4360 -0.6429  0.6629
  806MPD2    H711879   0.199   1.448   0.526  0.0256 -0.8188  0.4520
  807MPD2     C11880   4.661   0.960   0.857  0.3548  0.4106 -0.2521
  807MPD2    C111881   4.586   1.062   0.892 -0.1140 -0.1588  0.0674
  807MPD2    C211882   4.496   1.041   0.998  0.8012  0.3592 -0.0690
  807MPD2    C311883   4.477   0.924   1.064 -0.2798  0.0713  0.1777
  807MPD2    C411884   4.567   0.824   1.022  0.1823  0.0213  0.2877
  807MPD2    C511885   4.650   0.840   0.915  0.1435 -0.0273  0.7520
  807MPD2     H11886   4.434   1.126   1.027 -1.9479 -1.8935  0.6251
  807MPD2    H111887   4.559   0.727   1.069 -1.3185 -1.2290 -2.5381
  807MPD2    H211888   0.011   0.973   0.780  1.7792 -1.7151  0.7880
  807MPD2    H311889   4.716   0.767   0.870 -1.6986 -1.2401  0.0162
  807MPD2     N11890   4.395   0.895   1.169  0.3643 -0.4610 -0.3091
  807MPD2    H511891   4.407   0.802   1.209  0.9105 -0.2765 -0.0502
  807MPD2    N111892   4.593   1.196   0.843  0.1583 -0.2804 -0.4160
  807MPD2    H711893   4.527   1.256   0.890 -0.0986  0.1944 -1.3929
  808MPD2     C11894   1.245   2.815  10.450  0.0625 -0.4836  0.8514
  808MPD2    C111895   1.159   2.908  10.501 -0.4123 -0.0769  0.3280
  808MPD2    C211896   1.209   3.032  10.509  0.6227  0.0700 -0.1284
  808MPD2    C311897   1.320   3.076  10.443  0.2828  0.6579 -0.3766
  808MPD2    C411898   1.402   2.977  10.382 -0.6755 -0.5660  0.8958
  808MPD2    C511899   1.368   2.846  10.397 -0.3398 -0.1197  0.0771
  808MPD2     H11900   1.153   3.097  10.576  0.2459 -0.5271  0.1409
  808MPD2    H111901   1.494   3.009  10.334 -1.6313  0.4318 -0.2925
  808MPD2    H211902   1.219   2.711  10.468  2.1695 -1.1380  0.0915
  808MPD2    H311903   1.447   2.778  10.369  0.4706  0.5407  0.7484
  808MPD2     N11904   1.362   3.209  10.429 -0.0614  0.2592 -0.1336
  808MPD2    H511905   1.442   3.238  10.375  0.6771  1.0105  1.3641
  808MPD2    N111906   1.047   2.874  10.577  0.1228 -0.7162 -0.1656
  808MPD2    H711907   0.994   2.944  10.627  0.0728  0.1167 -1.4017
  809MPD2     C11908   2.080   3.765  10.143  0.3919  0.3957  0.1536
  809MPD2    C111909   2.066   3.738  10.276 -0.5231  0.3706 -0.4305
  809MPD2    C211910   1.944   3.686  10.320 -0.1939 -0.2396  0.1661
  809MPD2    C311911   1.837   3.670  10.232  0.4615 -0.6115 -0.2822
  809MPD2    C411912   1.856   3.702  10.098  0.3048 -0.2155  0.3539
  809MPD2    C511913   1.983   3.739  10.052  0.0970 -0.2297 -0.1322
  809MPD2     H11914   1.930   3.649  10.421 -0.8656  1.1288  0.5781
  809MPD2    H111915   1.774   3.690  10.028  0.3736  0.6625  0.1137
  809MPD2    H211916   2.171   3.802  10.097  1.4236 -1.3389  0.7774
  809MPD2    H311917   2.005   3.771   9.951  2.1256 -0.9082  0.0992
  809MPD2     N11918   1.713   3.615  10.282  0.3146  0.6824  0.0467
  809MPD2    H511919   1.710   3.589  10.381  2.3428 -3.7570 -1.0807
  809MPD2    N111920   2.172   3.765  10.369 -0.0314  0.4308  0.1175
  809MPD2    H711921   2.142   3.751  10.465 -0.0399  1.7798  0.3004
  810MPD2     C11922   0.528   2.578  10.878 -1.5355  0.3923 -0.7913
  810MPD2    C111923   0.401   2.634  10.872  0.1047 -0.4122 -0.4355
  810MPD2    C211924   0.387   2.767  10.901 -0.4799 -1.1124 -0.0555
  810MPD2    C311925   0.492   2.841  10.952 -0.0663 -0.3419 -0.8322
  810MPD2    C411926   0.612   2.775  10.967 -0.4749 -0.3712 -1.4104
  810MPD2    C511927   0.631   2.648  10.922 -0.0739  1.1705 -0.2757
  810MPD2     H11928   0.290   2.813  10.886 -0.1793 -0.5314 -0.2350
  810MPD2    H111929   0.700   2.824  11.007 -0.7439 -0.7742 -0.3147
  810MPD2    H211930   0.541   2.472  10.857  3.5345  0.5996  1.3896
  810MPD2    H311931   0.733   2.611  10.922 -0.5293 -0.0754  2.8191
  810MPD2     N11932   0.495   2.983  10.984 -0.1466 -0.0268 -0.2242
  810MPD2    H511933   0.579   3.021  11.024 -1.5161  0.4579  2.1798
  810MPD2    N111934   0.288   2.558  10.831 -0.2332  0.0789 -0.1177
  810MPD2    H711935   0.307   2.471  10.782 -1.8413 -0.1083 -0.3820
  811MPD2     C11936   4.655   2.755  10.044  0.1044  0.5937  0.4372
  811MPD2    C111937   0.006   2.790  10.157  0.4769  0.5942  0.0959
  811MPD2    C211938   0.032   2.926  10.171  0.0736 -0.0898  0.1288
  811MPD2    C311939   4.724   3.011  10.064  0.2261  0.1447  0.2809
  811MPD2    C411940   4.661   2.968   9.945 -0.8392 -0.6331  0.3698
  811MPD2    C511941   4.616   2.836   9.946 -0.0198  0.2254 -0.1813
  811MPD2     H11942   0.087   2.969  10.254  0.1842 -0.8372  0.4412
  811MPD2    H111943   4.623   3.022   9.859  0.3295 -1.0632 -0.4121
  811MPD2    H211944   4.620   2.652  10.034 -0.4146  0.4884  3.5526
  811MPD2    H311945   4.552   2.810   9.863  1.1075 -1.2639 -0.5687
  811MPD2     N11946   0.040   3.146  10.082 -0.3722 -0.1286  0.4251
  811MPD2    H511947   0.104   3.167  10.157  1.6886  0.5330 -1.5200
  811MPD2    N111948   0.016   2.697  10.264 -0.7486 -0.2133 -0.1496
  811MPD2    H711949   0.001   2.599  10.245  2.2026 -0.6903  0.0113
  812MPD2     C11950   3.871   2.372  12.368 -0.4128  0.1146  0.3962
  812MPD2    C111951   3.785   2.394  12.469 -1.2875  0.3675 -0.4359
  812MPD2    C211952   3.765   2.305  12.566 -0.2648  0.3225 -0.0855
  812MPD2    C311953   3.858   2.208  12.585 -0.1752  0.0361  0.3444
  812MPD2    C411954   3.958   2.196  12.500  0.8342  0.0193 -0.0857
  812MPD2    C511955   3.965   2.273  12.391  0.3847 -0.4957  0.2264
  812MPD2     H11956   3.680   2.311  12.634 -1.7578 -0.6302 -1.8821
  812MPD2    H111957   4.031   2.119  12.520  0.3082 -0.2016  0.9517
  812MPD2    H211958   3.884   2.437  12.282  1.1069 -1.6298 -0.6965
  812MPD2    H311959   4.047   2.251  12.324  0.0941 -1.0515  0.0480
  812MPD2     N11960   3.851   2.136  12.705 -0.3854  0.8422 -0.1376
  812MPD2    H511961   3.765   2.128  12.758 -0.3220 -0.7377 -0.2634
  812MPD2    N111962   3.717   2.507  12.446  0.0943 -0.4228  0.1070
  812MPD2    H711963   3.730   2.553  12.357  1.3138  1.2253  1.1464
  813MPD2     C11964   3.414   4.331  13.060  0.9512 -0.3141  0.1963
  813MPD2    C111965   3.349   4.454  13.078  0.1197 -0.1755 -0.2526
  813MPD2    C211966   3.207   4.453  13.111 -0.2357  0.6281  0.5355
  813MPD2    C311967   3.144   4.333  13.138  0.5343 -0.3033  0.6384
  813MPD2    C411968   3.215   4.212  13.142  0.5098 -0.0498  0.1453
  813MPD2    C511969   3.350   4.211  13.102 -0.7445 -0.1742  0.4600
  813MPD2     H11970   3.146   4.542  13.122 -1.0641 -0.1736  2.4686
  813MPD2    H111971   3.173   4.114  13.163  0.3977 -0.7835 -3.4875
  813MPD2    H211972   3.518   4.327  13.029  1.7598 -0.0826  2.8810
  813MPD2    H311973   3.398   4.115  13.088 -1.5777 -0.4512 -0.5402
  813MPD2     N11974   3.008   4.346  13.175  0.2671  0.3502  0.5090
  813MPD2    H511975   2.960   4.435  13.166 -1.7696 -0.9794 -1.6827
  813MPD2    N111976   3.416   4.572  13.045  0.8978  0.5395 -0.4789
  813MPD2    H711977   3.499   4.556  12.988  0.1697  1.0400 -1.6850
  814MPD2     C11978   3.892   0.681  12.649 -0.1360 -0.1322 -0.5648
  814MPD2    C111979   3.855   0.751  12.535 -0.1229 -0.5229 -0.5125
  814MPD2    C211980   3.879   0.887  12.537 -0.1852  0.3439  0.3375
  814MPD2    C311981   3.935   0.953  12.647  0.8772 -0.1619  0.1607
  814MPD2    C411982   3.961   0.880  12.761  0.2008  0.8003 -0.3189
  814MPD2    C511983   3.942   0.743  12.755  0.6902 -0.2069  0.3853
  814MPD2     H11984   3.860   0.945  12.447  2.9841  3.5611  1.6947
  814MPD2    H111985   4.001   0.932  12.847 -0.9948 -0.6054  1.1037
  814MPD2    H211986   3.893   0.572  12.647  2.1040 -0.1204 -0.4703
  814MPD2    H311987   3.964   0.678  12.840 -0.4653  0.3555  1.1037
  814MPD2     N11988   3.942   1.097  12.645  0.4564  0.3025 -0.3811
  814MPD2    H511989   3.940   1.130  12.742 -0.2570  0.5675 -0.4829
  814MPD2    N111990   3.802   0.692  12.422  0.1920  0.1678  0.0168
  814MPD2    H711991   3.809   0.740  12.333  0.3829 -0.2693 -0.2043
  815MPD2     C11992   4.082   4.332  12.007  0.1084  0.1472  0.5568
  815MPD2    C111993   4.046   4.199  12.006 -0.3678 -0.0120  0.4359
  815MPD2    C211994   3.911   4.176  12.054 -0.4010  0.3036 -0.0440
  815MPD2    C311995   3.827   4.277  12.108  0.0195  0.8035 -0.1028
  815MPD2    C411996   3.864   4.409  12.091 -0.0437  0.0853 -0.1412
  815MPD2    C511997   3.992   4.431  12.050  0.8849  0.7459 -0.3624
  815MPD2     H11998   3.869   4.077  12.047  1.2553 -0.4856  1.2583
  815MPD2    H111999   3.800   4.491  12.120 -0.4454 -0.1105 -0.4679
  815MPD2    H212000   4.182   4.366  11.985  0.3130  0.3982  1.8422
  815MPD2    H312001   4.024   4.535  12.045  1.0723  0.7398  0.7198
  815MPD2     N12002   3.702   4.230  12.158 -0.3123 -0.2904 -0.4083
  815MPD2    H512003   3.690   4.130  12.145 -0.8498 -0.3472  0.5104
  815MPD2    N112004   4.130   4.103  11.956 -0.0146 -0.3758  0.2852
  815MPD2    H712005   4.220   4.133  11.921 -0.1203 -1.3165 -0.8370
  816MPD2     C12006   3.801   3.145  17.488  0.8359  0.2246  0.4069
  816MPD2    C112007   3.806   3.239  17.385 -0.4206 -0.2020  0.0251
  816MPD2    C212008   3.898   3.229  17.287  0.0177 -0.3688 -0.0690
  816MPD2    C312009   3.974   3.117  17.281 -0.3667  0.0384 -0.1180
  816MPD2    C412010   3.955   3.012  17.371 -0.6099 -0.5504  0.6114
  816MPD2    C512011   3.870   3.024  17.472 -0.5388  0.3393 -0.7487
  816MPD2     H12012   3.905   3.317  17.224 -2.0756 -0.3936 -0.3290
  816MPD2    H112013   4.015   2.922  17.366  0.2327  0.0693 -0.5578
  816MPD2    H212014   3.740   3.154  17.576 -0.2476  1.2410 -0.4562
  816MPD2    H312015   3.869   2.949  17.550  1.8387  2.6054  1.4101
  816MPD2     N12016   4.067   3.097  17.177  0.3099 -0.0670 -0.2874
  816MPD2    H512017   4.082   3.176  17.116  2.4997  0.2557  0.6577
  816MPD2    N112018   3.713   3.340  17.396  0.4190 -0.3145  0.6103
  816MPD2    H712019   3.653   3.334  17.478  0.3671 -0.8218  0.5397
  817MPD2     C12020   4.451   0.462   9.811  0.2674 -0.4068 -0.5824
  817MPD2    C112021   4.318   0.443   9.771  0.0499 -0.0674  0.8682
  817MPD2    C212022   4.257   0.554   9.711 -0.4835  0.2571  0.4350
  817MPD2    C312023   4.315   0.682   9.698  0.2926 -0.0913  0.4753
  817MPD2    C412024   4.442   0.701   9.746  0.7411 -0.1913 -0.1694
  817MPD2    C512025   4.509   0.594   9.806  0.3595  0.0580  0.6461
  817MPD2     H12026   4.153   0.543   9.681 -0.2148  1.9267 -1.0909
  817MPD2    H112027   4.491   0.796   9.765 -1.6876  0.8127  1.1490
  817MPD2    H212028   4.512   0.386   9.858 -0.5239  0.2226  1.4531
  817MPD2    H312029   4.609   0.611   9.845  1.2103  2.7848 -2.7340
  817MPD2     N12030   4.242   0.788   9.628  0.4973  0.3426  0.1271
  817MPD2    H512031   4.158   0.761   9.578  1.0974 -1.2497 -0.0262
  817MPD2    N112032   4.252   0.323   9.778 -0.4000 -0.3067  0.2403
  817MPD2    H712033   4.160   0.334   9.736 -0.1904  1.3733  0.2317
  818MPD2     C12034   2.567   0.222  10.116  0.1177 -0.5702  0.6870
  818MPD2    C112035   2.468   0.245  10.211  0.6121 -0.2644  0.2186
  818MPD2    C212036   2.414   0.137  10.269  0.0849 -0.0653 -0.1905
  818MPD2    C312037   2.446   0.004  10.243  0.1533 -0.1636 -0.3974
  818MPD2    C412038   2.550   4.703  10.153 -0.2907 -0.0273  0.5935
  818MPD2    C512039   2.604   0.091  10.090  0.1057  0.0430  0.4329
  818MPD2     H12040   2.345   0.162  10.349 -0.2999  0.9549 -0.8314
  818MPD2    H112041   2.601   4.611  10.126  0.4646  0.4659  0.3159
  818MPD2    H212042   2.613   0.303  10.062 -1.1652 -1.9391 -2.4219
  818MPD2    H312043   2.694   0.076  10.032  1.3932 -0.0251  2.4314
  818MPD2     N12044   2.382   4.619  10.302 -0.0402 -0.3005 -0.3456
  818MPD2    H512045   2.434   4.532  10.296 -0.3226 -0.4510 -0.6285
  818MPD2    N112046   2.422   0.370  10.257 -0.1990  0.2705 -0.6707
  818MPD2    H712047   2.365   0.369  10.341  0.9040  0.1754  0.0771
  819MPD2     C12048   0.333   2.246  15.978  0.0507  0.4145 -0.2180
  819MPD2    C112049   0.359   2.116  15.993 -0.1687  0.0821  0.1307
  819MPD2    C212050   0.455   2.074  16.083  0.4830  0.3372  0.3543
  819MPD2    C312051   0.526   2.171  16.156 -0.2854  0.1568  1.0247
  819MPD2    C412052   0.495   2.305  16.144  0.1001  0.2123  0.2220
  819MPD2    C512053   0.399   2.339  16.056  0.1914 -0.3674 -0.6760
  819MPD2     H12054   0.488   1.971  16.091 -2.8040 -0.7868 -0.5295
  819MPD2    H112055   0.536   2.382  16.208 -0.7573  2.4370 -1.8975
  819MPD2    H212056   0.264   2.283  15.903 -0.2512 -1.5318 -0.8987
  819MPD2    H312057   0.374   2.442  16.035 -0.2651 -0.2395  0.5158
  819MPD2     N12058   0.617   2.122  16.254  0.1636 -0.6278 -0.7935
  819MPD2    H512059   0.634   2.023  16.240  0.7652 -0.5452 -0.6338
  819MPD2    N112060   0.290   2.019  15.907  0.3703  0.0373 -0.3038
  819MPD2    H712061   0.218   2.062  15.850  0.4764 -0.7594 -1.0338
  820MPD2     C12062   4.610   1.922  15.021 -0.2686  0.0641  0.8711
  820MPD2    C112063   4.647   2.015  15.102  0.1846 -0.1149 -0.2805
  820MPD2    C212064   0.011   1.974  15.206  0.1105 -0.3042 -0.2379
  820MPD2    C312065   0.049   1.843  15.224 -0.7647 -0.1398 -0.1912
  820MPD2    C412066   0.014   1.754  15.124  0.0322 -0.2060  0.1090
  820MPD2    C512067   4.656   1.791  15.030 -0.6086  0.2804  0.4038
  820MPD2     H12068   0.052   2.052  15.269 -2.7705  1.0731 -0.0936
  820MPD2    H112069   0.050   1.652  15.123 -0.3192 -0.3200 -0.4910
  820MPD2    H212070   4.534   1.947  14.948 -0.5879 -0.3577  1.0587
  820MPD2    H312071   4.624   1.718  14.956  0.1998  0.4412 -0.1051
  820MPD2     N12072   0.122   1.791  15.338 -1.1710  0.2274 -0.3625
  820MPD2    H512073   0.149   1.694  15.351  0.3400  0.4066 -2.0602
  820MPD2    N112074   4.591   2.144  15.091 -0.2733  0.0492 -0.2456
  820MPD2    H712075   4.509   2.144  15.032 -0.1855 -0.1571 -0.3661
  821MPD2     C12076   0.521   3.105  13.628 -0.6421  0.1335 -0.5424
  821MPD2    C112077   0.645   3.138  13.683 -0.4799 -0.4185  0.8022
  821MPD2    C212078   0.753   3.129  13.602  0.7070 -0.5733 -0.2194
  821MPD2    C312079   0.740   3.107  13.468  0.2419  0.3315 -0.0760
  821MPD2    C412080   0.615   3.098  13.407  0.1930  0.1457  0.7451
  821MPD2    C512081   0.503   3.087  13.489  0.2179  0.5691 -0.0248
  821MPD2     H12082   0.850   3.134  13.652 -0.2058  2.0496  1.3287
  821MPD2    H112083   0.593   3.079  13.302 -1.0286  2.8594  0.5021
  821MPD2    H212084   0.435   3.075  13.687 -0.0638 -0.7635 -0.1612
  821MPD2    H312085   0.411   3.048  13.448 -1.1643  2.3378  1.3518
  821MPD2     N12086   0.852   3.091  13.382  0.0717  0.5037  0.4439
  821MPD2    H512087   0.833   3.101  13.283  0.4784 -0.9460  0.2198
  821MPD2    N112088   0.664   3.160  13.823 -1.0154  0.1539  0.1663
  821MPD2    H712089   0.748   3.206  13.855 -0.1166 -1.4937  0.1824
  822MPD2     C12090   1.310   3.392  15.740  0.7376 -0.2133  0.0814
  822MPD2    C112091   1.335   3.356  15.868 -0.2355 -0.3534  0.6609
  822MPD2    C212092   1.270   3.417  15.971  0.2401 -0.9596 -0.3906
  822MPD2    C312093   1.175   3.519  15.953  0.5796  0.0479 -0.0082
  822MPD2    C412094   1.147   3.547  15.823 -0.1639  0.2789  0.3990
  822MPD2    C512095   1.216   3.490  15.717 -0.4098 -0.3218  0.1045
  822MPD2     H12096   1.310   3.401  16.071  0.2887  2.7562  0.1788
  822MPD2    H112097   1.092   3.638  15.800 -0.8146 -0.0086  0.8281
  822MPD2    H212098   1.363   3.358  15.652  1.7415  0.6348  0.3570
  822MPD2    H312099   1.190   3.528  15.619  1.0976  1.4151  0.3767
  822MPD2     N12100   1.131   3.593  16.069  0.0915  0.4586 -0.1989
  822MPD2    H512101   1.140   3.549  16.160 -0.3118  0.4289 -0.1737
  822MPD2    N112102   1.427   3.253  15.903  0.3854  0.8353  0.1010
  822MPD2    H712103   1.441   3.239  16.003  1.3573  1.8091  0.1011
  823MPD2     C12104   0.646   3.597  16.768 -0.0398  0.1119  0.3975
  823MPD2    C112105   0.751   3.553  16.696 -0.0466 -0.6550  0.2023
  823MPD2    C212106   0.843   3.462  16.746  0.5240  0.1829 -0.2915
  823MPD2    C312107   0.829   3.403  16.876 -0.1655  0.3365  0.0251
  823MPD2    C412108   0.711   3.435  16.943  0.1111 -0.0524  0.0362
  823MPD2    C512109   0.624   3.529  16.889 -0.0056 -0.3155 -0.5412
  823MPD2     H12110   0.914   3.418  16.676 -0.0716  0.3037 -0.9659
  823MPD2    H112111   0.687   3.402  17.043  1.8625 -0.1808  0.4170
  823MPD2    H212112   0.573   3.673  16.744 -0.3969 -0.5283 -0.5580
  823MPD2    H312113   0.536   3.556  16.947  1.4549  0.2630  1.3971
  823MPD2     N12114   0.915   3.306  16.931  0.0457 -0.2291 -0.0346
  823MPD2    H512115   0.901   3.271  17.026  0.3226 -0.0551  0.0689
  823MPD2    N112116   0.769   3.624  16.575  0.5426 -0.0275  0.0666
  823MPD2    H712117   0.728   3.717  16.569  4.1056  1.4445 -1.5230
  824MPD2     C12118   1.380   2.407  16.040  0.3104  0.3797 -0.4313
  824MPD2    C112119   1.479   2.470  15.978  0.4953  0.8821 -0.0510
  824MPD2    C212120   1.563   2.390  15.900  0.0861 -0.4841 -0.6428
  824MPD2    C312121   1.563   2.249  15.899 -0.0174  0.5891  0.1685
  824MPD2    C412122   1.465   2.187  15.968 -0.0953 -0.0491 -0.2630
  824MPD2    C512123   1.375   2.269  16.035 -0.0040  0.0512 -0.2108
  824MPD2     H12124   1.644   2.433  15.843  1.3096 -1.1604  0.5735
  824MPD2    H112125   1.456   2.079  15.979 -0.6761 -0.1221 -1.5086
  824MPD2    H212126   1.304   2.451  16.103 -1.4871 -1.2518 -1.4682
  824MPD2    H312127   1.295   2.224  16.093  1.0087 -1.0448  0.3305
  824MPD2     N12128   1.659   2.180  15.825 -0.3649 -0.3790 -0.3646
  824MPD2    H512129   1.735   2.230  15.781 -0.3802 -0.2519 -0.2477
  824MPD2    N112130   1.488   2.613  15.981  0.4999 -0.3621 -0.4785
  824MPD2    H712131   1.429   2.658  16.050 -2.2818 -1.5061 -2.0930
  825MPD2     C12132   2.161   2.180  15.174  0.2973 -0.2118 -0.1144
  825MPD2    C112133   2.124   2.239  15.290 -0.7828 -0.6984  0.0763
  825MPD2    C212134   2.127   2.374  15.302  0.0191  0.2854 -0.0699
  825MPD2    C312135   2.182   2.455  15.200  0.5164 -0.0209  0.0893
  825MPD2    C412136   2.218   2.394  15.085  0.4829 -0.4892 -0.9158
  825MPD2    C512137   2.204   2.258  15.072  0.1872  0.2958 -0.2270
  825MPD2     H12138   2.088   2.434  15.384  1.2183 -1.5034  1.8007
  825MPD2    H112139   2.259   2.447  15.000  0.5420  0.8832 -0.0344
  825MPD2    H212140   2.166   2.072  15.167  0.8171 -0.3728  2.4660
  825MPD2    H312141   2.241   2.210  14.982  1.7162 -0.4178  0.7797
  825MPD2     N12142   2.205   2.594  15.203 -0.5825 -0.3799 -0.0486
  825MPD2    H512143   2.257   2.630  15.124  0.0718 -0.0351  0.5493
  825MPD2    N112144   2.068   2.151  15.388 -0.5114  0.5293  0.2849
  825MPD2    H712145   2.075   2.052  15.367  0.3397  0.5582  0.4104
  826MPD2     C12146   2.203   2.382  14.003 -0.4920 -0.5818 -0.1011
  826MPD2    C112147   2.103   2.373  13.908 -0.1437 -0.5959  0.1497
  826MPD2    C212148   1.980   2.430  13.940 -1.0571  0.2861  0.2476
  826MPD2    C312149   1.961   2.511  14.050  1.2763 -0.0506 -0.4456
  826MPD2    C412150   2.064   2.532  14.138  0.4706 -0.9491 -0.4922
  826MPD2    C512151   2.184   2.471  14.110  0.0416  0.5561  0.7056
  826MPD2     H12152   1.891   2.428  13.877 -0.9116 -0.4802  0.0641
  826MPD2    H112153   2.077   2.617  14.204  1.2535 -2.0757  0.8066
  826MPD2    H212154   2.293   2.322  13.998 -0.1120  0.1202 -1.5931
  826MPD2    H312155   2.263   2.478  14.184 -1.1435 -0.8395  2.1111
  826MPD2     N12156   1.844   2.590  14.069 -0.0748 -0.3835  0.3392
  826MPD2    H512157   1.843   2.654  14.147 -0.2944  0.4728 -0.3729
  826MPD2    N112158   2.131   2.293  13.794 -0.3780  0.6188 -1.1842
  826MPD2    H712159   2.225   2.256  13.792 -0.4261  0.4677 -0.4370
  827MPD2     C12160   3.220   3.578  10.167 -0.2992 -0.0252 -0.4209
  827MPD2    C112161   3.205   3.474  10.247 -0.6040 -1.1095 -0.1929
  827MPD2    C212162   3.182   3.349  10.197  0.2415  0.2771  0.0239
  827MPD2    C312163   3.180   3.327  10.063  0.2707  0.2593 -0.2226
  827MPD2    C412164   3.198   3.437   9.985  0.5781 -0.0726  0.2866
  827MPD2    C512165   3.216   3.560  10.034 -0.1302 -0.2208  0.3813
  827MPD2     H12166   3.161   3.268  10.266  5.3192 -1.8977 -0.9595
  827MPD2    H112167   3.185   3.425   9.878  2.3129  0.2620  0.0499
  827MPD2    H212168   3.243   3.674  10.212  0.6076 -1.9516  3.2629
  827MPD2    H312169   3.245   3.645   9.972  0.5449  0.4567  1.6251
  827MPD2     N12170   3.152   3.195  10.021  0.0878  0.5694  0.0183
  827MPD2    H512171   3.146   3.131  10.100  1.1037  0.4280 -0.0133
  827MPD2    N112172   3.236   3.490  10.384  0.4868 -0.1261  0.0447
  827MPD2    H712173   3.258   3.586  10.408  0.7896 -0.0177 -0.6930
  828MPD2     C12174   1.489   3.781  12.536 -1.0107  0.7570 -0.1556
  828MPD2    C112175   1.449   3.645  12.516  0.3578 -0.0285  0.0205
  828MPD2    C212176   1.504   3.571  12.414  0.4986  0.6811  0.5306
  828MPD2    C312177   1.590   3.629  12.321 -0.4177 -0.2572 -0.2257
  828MPD2    C412178   1.615   3.764  12.328 -0.3404 -0.3160 -0.8514
  828MPD2    C512179   1.570   3.832  12.437 -0.1174 -0.9697  0.2072
  828MPD2     H12180   1.487   3.464  12.407  1.2505  0.5294  0.9912
  828MPD2    H112181   1.681   3.802  12.252 -0.7198 -0.9739 -1.5073
  828MPD2    H212182   1.449   3.851  12.608 -0.2491 -1.6054  2.5776
  828MPD2    H312183   1.592   3.938  12.439 -1.4755 -0.6770 -0.2075
  828MPD2     N12184   1.669   3.557  12.231 -0.2471  0.5277 -0.4646
  828MPD2    H512185   1.745   3.599  12.178 -0.9054 -1.3743 -2.8985
  828MPD2    N112186   1.365   3.575  12.599 -0.2934  0.1427  0.5470
  828MPD2    H712187   1.354   3.479  12.567 -0.5387  0.8649 -1.4875
  829MPD2     C12188   1.113   3.081  12.253 -0.4360  0.3582 -0.1776
  829MPD2    C112189   1.004   3.077  12.336  0.1601 -0.4722 -0.3045
  829MPD2    C212190   1.030   3.104  12.468 -0.4104 -0.1724 -0.1375
  829MPD2    C312191   1.161   3.121  12.505  1.1345  0.4255 -0.1964
  829MPD2    C412192   1.269   3.113  12.415  0.0485 -0.3908 -0.2771
  829MPD2    C512193   1.249   3.091  12.285  0.2020 -0.0091  0.0473
  829MPD2     H12194   0.938   3.110  12.526 -0.3521 -3.4729  0.2630
  829MPD2    H112195   1.369   3.134  12.450  0.1319 -0.8498 -0.2337
  829MPD2    H212196   1.100   3.074  12.145 -1.7565 -1.1778  0.1037
  829MPD2    H312197   1.326   3.080  12.209  1.0600  0.8454  0.7987
  829MPD2     N12198   1.195   3.150  12.636  0.6116 -0.3926  0.2552
  829MPD2    H512199   1.291   3.169  12.664  0.3150  2.5861 -0.7652
  829MPD2    N112200   0.868   3.064  12.298  0.2954  0.1186 -0.0741
  829MPD2    H712201   0.808   3.077  12.379  1.5968 -2.2561  1.2836
  830MPD2     C12202   1.211   1.634  16.512 -0.5689  0.1028  0.0805
  830MPD2    C112203   1.091   1.661  16.450  0.3834  0.4703  0.3360
  830MPD2    C212204   1.071   1.603  16.324  0.1674  0.1032  1.0293
  830MPD2    C312205   1.174   1.540  16.249 -0.9735 -0.4924  0.0021
  830MPD2    C412206   1.293   1.511  16.316  0.5666 -0.3474  0.3319
  830MPD2    C512207   1.310   1.571  16.439 -0.1035  0.3764 -0.0459
  830MPD2     H12208   0.974   1.607  16.275  1.0423 -0.0310 -0.7063
  830MPD2    H112209   1.384   1.469  16.273  0.5414 -1.2813  1.1841
  830MPD2    H212210   1.234   1.658  16.615  1.0519 -2.4179  0.3069
  830MPD2    H312211   1.406   1.551  16.486 -0.1451  0.7024  0.1769
  830MPD2     N12212   1.173   1.499  16.111  0.0238  0.0662 -0.7961
  830MPD2    H512213   1.249   1.445  16.074  0.5449  0.1117  0.1989
  830MPD2    N112214   0.991   1.737  16.516  0.4150  1.1018 -0.3012
  830MPD2    H712215   1.025   1.782  16.600 -2.0400  2.4086 -0.0236
  831MPD2     C12216   1.328   3.691  16.407  0.2767 -0.2468  0.0827
  831MPD2    C112217   1.375   3.586  16.336  0.6927 -0.5436 -0.2015
  831MPD2    C212218   1.321   3.464  16.359  0.2031  0.2180  0.0393
  831MPD2    C312219   1.230   3.438  16.456  0.2456  0.7846 -0.4347
  831MPD2    C412220   1.201   3.540  16.542 -0.3408  0.8194  0.2531
  831MPD2    C512221   1.246   3.668  16.514 -0.2559  0.2024  0.3866
  831MPD2     H12222   1.350   3.378  16.299 -3.2679 -1.0044  0.1184
  831MPD2    H112223   1.119   3.529  16.612  0.9421  0.2056  1.6616
  831MPD2    H212224   1.352   3.792  16.377  0.1979 -0.1054  0.5089
  831MPD2    H312225   1.202   3.752  16.567  1.8321  0.6271  1.4575
  831MPD2     N12226   1.139   3.330  16.445  0.6420 -0.0899  0.0444
  831MPD2    H512227   1.072   3.314  16.520 -0.7269 -2.1764 -1.6081
  831MPD2    N112228   1.466   3.608  16.231 -1.1520 -0.8370 -0.1739
  831MPD2    H712229   1.480   3.707  16.214  0.1912 -1.1301 -0.8265
  832MPD2     C12230   4.384   4.338  17.520  0.4445  0.0027  0.2787
  832MPD2    C112231   4.330   4.467  17.517  0.8833 -0.2639  0.6555
  832MPD2    C212232   4.225   4.496  17.438 -0.6313 -0.1163  0.4201
  832MPD2    C312233   4.175   4.396  17.353 -0.4710 -0.4029 -0.8037
  832MPD2    C412234   4.221   4.264  17.371  0.0062  0.2187 -0.9920
  832MPD2    C512235   4.324   4.233  17.455 -0.3657  0.1808  1.1387
  832MPD2     H12236   4.176   4.592  17.430 -0.9659 -0.4009 -1.0387
  832MPD2    H112237   4.199   4.176  17.310 -2.0849  0.3897 -0.4815
  832MPD2    H212238   4.468   4.322  17.587  1.2767 -0.9371 -0.9751
  832MPD2    H312239   4.364   4.133  17.466  0.5330  0.7523  3.0469
  832MPD2     N12240   4.073   4.410  17.253  0.4078 -0.7444 -0.2680
  832MPD2    H512241   4.049   4.328  17.199 -0.2674  0.5349 -1.8937
  832MPD2    N112242   4.380   4.562  17.610  0.4711 -0.0481 -0.0264
  832MPD2    H712243   4.466   4.539  17.659  0.3823  0.6709  0.4595
  833MPD2     C12244   2.679   1.309  12.816 -0.2084  0.3592  0.2048
  833MPD2    C112245   2.686   1.424  12.741 -0.3537  0.6466  0.6929
  833MPD2    C212246   2.778   1.438  12.636  0.2354  0.0021 -0.3099
  833MPD2    C312247   2.863   1.328  12.613  0.0460 -0.0737  0.0534
  833MPD2    C412248   2.854   1.211  12.690  0.4236 -0.1177  0.0702
  833MPD2    C512249   2.755   1.203  12.783 -0.6048 -0.0008  0.7491
  833MPD2     H12250   2.789   1.530  12.579 -0.7595  0.3445  0.0524
  833MPD2    H112251   2.905   1.119  12.664  0.2194 -0.2956  0.3027
  833MPD2    H212252   2.596   1.292  12.883  0.0500  0.5688  0.5798
  833MPD2    H312253   2.740   1.108  12.835 -0.1634  0.7775  2.3053
  833MPD2     N12254   2.947   1.347  12.502 -0.0187  0.2654 -0.2094
  833MPD2    H512255   2.930   1.431  12.448  1.2090  0.0872 -0.8643
  833MPD2    N112256   2.581   1.514  12.764 -0.6881 -0.3702  0.4238
  833MPD2    H712257   2.509   1.489  12.831 -0.8852 -1.6370 -0.2487
  834MPD2     C12258   2.495   1.273  11.736 -0.7906 -0.2024  0.3784
  834MPD2    C112259   2.605   1.298  11.656  0.1317 -0.6916 -0.2371
  834MPD2    C212260   2.730   1.304  11.721 -0.2539 -0.0576 -0.8433
  834MPD2    C312261   2.742   1.282  11.856 -0.0761  0.0593 -0.4783
  834MPD2    C412262   2.631   1.250  11.927 -0.0587 -0.0891  0.0366
  834MPD2    C512263   2.507   1.249  11.867  0.7836  0.4785 -0.0171
  834MPD2     H12264   2.815   1.324  11.657 -1.0884  2.9144 -1.0203
  834MPD2    H112265   2.630   1.235  12.034 -0.6636  0.7629  0.1496
  834MPD2    H212266   2.395   1.259  11.697 -0.4001 -1.5974 -0.1125
  834MPD2    H312267   2.419   1.230  11.927  0.1131  2.4335 -0.3790
  834MPD2     N12268   2.873   1.291  11.910 -0.0141 -0.1293  0.3031
  834MPD2    H512269   2.953   1.329  11.860 -0.3366  1.9579  1.3860
  834MPD2    N112270   2.579   1.319  11.522  0.5128  0.9528 -0.5499
  834MPD2    H712271   2.481   1.323  11.494  0.6609  0.5829 -1.1226
  835MPD2     C12272   1.972   3.435  11.649  0.6657 -1.0817  0.0948
  835MPD2    C112273   1.860   3.496  11.711 -0.2483  0.2003 -0.1713
  835MPD2    C212274   1.883   3.588  11.813 -0.0422 -0.6793 -0.2996
  835MPD2    C312275   2.009   3.614  11.868 -0.2690 -0.3193 -0.1458
  835MPD2    C412276   2.111   3.547  11.813  1.1551 -0.1309 -0.4125
  835MPD2    C512277   2.094   3.456  11.705 -0.4775 -0.3796  0.0014
  835MPD2     H12278   1.795   3.637  11.853  0.8654  1.4915 -0.9529
  835MPD2    H112279   2.212   3.555  11.850  1.1866 -0.8600 -0.3434
  835MPD2    H212280   1.962   3.375  11.559  0.4437 -2.3080  0.9372
  835MPD2    H312281   2.176   3.406  11.654  0.2643  1.2595 -0.4131
  835MPD2     N12282   2.035   3.698  11.973 -0.2609  0.1442 -0.3381
  835MPD2    H512283   2.133   3.712  11.995 -0.1808 -0.2600 -0.4525
  835MPD2    N112284   1.733   3.469  11.658  0.1829 -0.4706 -0.5233
  835MPD2    H712285   1.651   3.513  11.699 -0.5221 -3.3348  1.1750
  836MPD2     C12286   1.665   4.340  12.225 -0.6545  0.5929  0.1486
  836MPD2    C112287   1.696   4.239  12.311 -0.1080 -0.5390 -0.3809
  836MPD2    C212288   1.601   4.213  12.412  0.9487 -0.0746  0.6036
  836MPD2    C312289   1.490   4.294  12.432  0.0088  0.1482  0.1623
  836MPD2    C412290   1.466   4.389  12.338  0.2955  0.1911  0.1632
  836MPD2    C512291   1.553   4.412  12.235 -0.8047 -0.1190  0.2099
  836MPD2     H12292   1.629   4.139  12.486  2.0988  1.6198  1.8583
  836MPD2    H112293   1.375   4.447  12.347  0.7040  0.7884  0.4587
  836MPD2    H212294   1.730   4.354  12.140 -1.7057 -1.6138 -1.0368
  836MPD2    H312295   1.522   4.479  12.156 -1.7981  0.7997  1.3888
  836MPD2     N12296   1.399   4.271  12.540 -0.2701 -0.0833 -0.8857
  836MPD2    H512297   1.314   4.326  12.539 -0.7067 -0.7395  0.9334
  836MPD2    N112298   1.818   4.174  12.293 -0.1895  0.1895 -0.1829
  836MPD2    H712299   1.869   4.183  12.205 -1.1363  0.7973 -0.6733
  837MPD2     C12300   0.599   3.690  10.225 -0.0205  0.0419 -0.7704
  837MPD2    C112301   0.470   3.728  10.248 -0.6057 -0.4123 -0.0347
  837MPD2    C212302   0.442   3.862  10.281  0.1444  0.1262  0.3760
  837MPD2    C312303   0.539   3.957  10.260 -0.1570 -0.3181 -0.0830
  837MPD2    C412304   0.666   3.917  10.224 -0.6393  0.4196  0.7046
  837MPD2    C512305   0.692   3.788  10.208  0.1256  0.1291 -0.4013
  837MPD2     H12306   0.342   3.878  10.320 -0.8002  0.0487 -1.9826
  837MPD2    H112307   0.748   3.988  10.211 -0.4301 -0.0780 -0.6890
  837MPD2    H212308   0.625   3.586  10.211 -0.9495 -0.3994  0.8801
  837MPD2    H312309   0.794   3.763  10.183 -0.8067  0.3120 -4.3726
  837MPD2     N12310   0.499   4.092  10.284  0.2884  0.3159  0.0884
  837MPD2    H512311   0.402   4.107  10.312  0.3269  0.8491 -0.0606
  837MPD2    N112312   0.353   3.656  10.221  0.5504 -0.4499  0.0717
  837MPD2    H712313   0.265   3.703  10.239  1.2282  0.7566  0.2022
  838MPD2     C12314   4.113   1.708  11.811 -0.1078  0.3195 -1.0343
  838MPD2    C112315   3.993   1.668  11.755  0.2697  0.4132  0.0496
  838MPD2    C212316   3.878   1.654  11.833 -0.3047  0.4301  0.3174
  838MPD2    C312317   3.881   1.688  11.969 -0.9817 -0.2601  0.2318
  838MPD2    C412318   3.997   1.735  12.022  0.4314  0.5003 -0.2861
  838MPD2    C512319   4.111   1.750  11.943  0.2429  0.8612 -0.3244
  838MPD2     H12320   3.788   1.623  11.781  1.2574  1.1082 -2.7531
  838MPD2    H112321   3.998   1.767  12.126 -0.8692  0.3720 -0.2343
  838MPD2    H212322   4.206   1.717  11.755  0.7942  2.9628  0.8843
  838MPD2    H312323   4.203   1.781  11.989 -0.5102  2.0530  0.3805
  838MPD2     N12324   3.766   1.683  12.054 -1.1190  0.4368  0.3367
  838MPD2    H512325   3.785   1.716  12.148  0.7538 -1.3463  0.5884
  838MPD2    N112326   3.980   1.628  11.621 -0.9617 -0.1321  0.3503
  838MPD2    H712327   3.895   1.582  11.590 -0.1410 -0.6711 -1.1225
  839MPD2     C12328   3.240   1.424  11.499  0.4140  0.1808  0.2351
  839MPD2    C112329   3.306   1.331  11.428  0.9920 -0.3316  0.2716
  839MPD2    C212330   3.427   1.372  11.362 -1.0096 -0.0462 -0.0124
  839MPD2    C312331   3.471   1.505  11.371  0.4169 -0.1565 -0.0233
  839MPD2    C412332   3.397   1.600  11.431 -0.1776  0.0317  0.3319
  839MPD2    C512333   3.281   1.559  11.499 -0.1350 -0.7384  0.0713
  839MPD2     H12334   3.474   1.297  11.301 -0.2448  0.9673 -0.6689
  839MPD2    H112335   3.428   1.704  11.435  1.7506 -0.5534  0.4956
  839MPD2    H212336   3.158   1.398  11.565  0.4107  1.4112  0.7179
  839MPD2    H312337   3.234   1.627  11.569  0.6078 -1.9981  1.7948
  839MPD2     N12338   3.608   1.545  11.328 -0.1314 -0.7782  0.0043
  839MPD2    H512339   3.645   1.637  11.344  0.3482 -0.7551 -1.2685
  839MPD2    N112340   3.272   1.189  11.442  0.3035 -0.6861  0.6145
  839MPD2    H712341   3.345   1.126  11.412  0.2176  1.4670 -4.1487
  840MPD2     C12342   3.828   3.691  10.503 -0.2424 -0.0085  0.2191
  840MPD2    C112343   3.771   3.699  10.624  0.8504 -0.4658  0.6769
  840MPD2    C212344   3.829   3.764  10.729 -0.0756  0.0625 -0.0436
  840MPD2    C312345   3.947   3.838  10.706  0.2480  0.1695 -0.1031
  840MPD2    C412346   3.997   3.839  10.579 -0.0116 -0.1245  0.1963
  840MPD2    C512347   3.940   3.762  10.486  0.2293 -0.3023 -0.2806
  840MPD2     H12348   3.773   3.763  10.822 -0.5156 -0.9999 -0.3185
  840MPD2    H112349   4.075   3.910  10.552 -0.3315 -0.1518 -0.7997
  840MPD2    H212350   3.788   3.631  10.422 -0.7623 -0.5401  0.8623
  840MPD2    H312351   3.978   3.754  10.385 -0.5043 -0.5297 -0.5366
  840MPD2     N12352   4.014   3.915  10.801 -0.4914  0.3213 -0.9779
  840MPD2    H512353   4.098   3.960  10.767 -0.1419 -1.3208 -2.2923
  840MPD2    N112354   3.648   3.620  10.631  0.4266  0.5722 -0.4838
  840MPD2    H712355   3.615   3.575  10.547  0.0174  2.0767 -1.1226
  841MPD2     C12356   2.698   4.055  15.028 -0.1340 -0.3589 -0.6888
  841MPD2    C112357   2.751   3.979  14.923 -0.9478  0.3049 -0.0722
  841MPD2    C212358   2.831   4.044  14.836 -0.0152 -0.2571 -0.2134
  841MPD2    C312359   2.862   4.182  14.845  0.1736  0.5944 -0.4386
  841MPD2    C412360   2.826   4.248  14.960 -0.0289 -0.1160 -0.1853
  841MPD2    C512361   2.742   4.186  15.049 -0.6588  0.6395 -0.4361
  841MPD2     H12362   2.855   4.002  14.739  1.8786 -2.2494  1.1201
  841MPD2    H112363   2.866   4.348  14.968  0.4528 -0.3166 -0.0773
  841MPD2    H212364   2.633   4.013  15.104 -0.8673 -0.8862 -1.6145
  841MPD2    H312365   2.711   4.239  15.138 -1.7301 -1.1974  0.2811
  841MPD2     N12366   2.951   4.238  14.751 -0.3390  0.2416 -0.2713
  841MPD2    H512367   2.975   4.181  14.671 -0.2791 -0.1030 -0.0086
  841MPD2    N112368   2.735   3.837  14.897  0.2006  1.4376  0.1269
  841MPD2    H712369   2.776   3.811  14.808 -3.6524  0.0927 -1.2764
  842MPD2     C12370   3.600   0.267  17.069  0.2514 -1.0748 -0.0818
  842MPD2    C112371   3.523   0.159  17.102  0.5535  0.2282 -0.0259
  842MPD2    C212372   3.507   0.121  17.233 -0.9700  0.8239 -0.4108
  842MPD2    C312373   3.573   0.199  17.332 -0.1523  0.5825 -0.6220
  842MPD2    C412374   3.660   0.300  17.288 -0.9898 -0.2232  0.6503
  842MPD2    C512375   3.677   0.329  17.159  0.5799 -0.4134 -0.2491
  842MPD2     H12376   3.447   0.035  17.258 -0.0718  0.4779  0.5387
  842MPD2    H112377   3.725   0.354  17.355  1.1143 -0.5721 -1.1265
  842MPD2    H212378   3.611   0.299  16.966 -1.3059  1.2745  0.4761
  842MPD2    H312379   3.734   0.416  17.129 -1.9379  0.8061 -1.4747
  842MPD2     N12380   3.566   0.186  17.470  0.0972  0.0054  0.1955
  842MPD2    H512381   3.635   0.239  17.524 -0.9847  2.4636 -0.8287
  842MPD2    N112382   3.463   0.096  16.994  0.1832 -0.8378  0.1632
  842MPD2    H712383   3.469   0.134  16.900  1.3699  1.2327  1.0870
  843MPD2     C12384   0.787   0.747   0.030 -0.3106 -0.1396 -0.1835
  843MPD2    C112385   0.816   0.714   0.160 -0.1276 -0.6261 -0.3030
  843MPD2    C212386   0.900   0.797   0.238 -0.5478  0.1683 -0.7106
  843MPD2    C312387   0.947   0.919   0.179 -0.1823  0.2513 -0.2031
  843MPD2    C412388   0.927   0.939   0.046 -0.7623  0.4180 -0.2168
  843MPD2    C512389   0.855   0.853  17.671  0.0247 -0.6140  0.2706
  843MPD2     H12390   0.932   0.756   0.333  0.1309 -1.4901 -1.6505
  843MPD2    H112391   0.964   1.034   0.008  0.1817  0.6167  1.1973
  843MPD2    H212392   0.732   0.679  17.667  2.5608 -3.1570  0.4991
  843MPD2    H312393   0.836   0.869  17.566 -1.4409  0.3828  0.6807
  843MPD2     N12394   1.028   1.010   0.249  0.2243 -0.2121 -0.0088
  843MPD2    H512395   1.034   1.102   0.207  0.5766 -0.6172 -0.8603
  843MPD2    N112396   0.767   0.588   0.197  0.3467  0.2972 -0.0343
  843MPD2    H712397   0.694   0.544   0.142  1.4500 -2.2317  0.5089
  844MPD2     C12398   3.950   4.252  16.694 -0.3097  0.3804 -0.2254
  844MPD2    C112399   4.067   4.186  16.709 -0.2912  0.1899 -0.4142
  844MPD2    C212400   4.161   4.234  16.792  0.0615  0.3287 -0.4536
  844MPD2    C312401   4.153   4.361  16.844  0.3377  0.1000  0.3145
  844MPD2    C412402   4.035   4.438  16.821  0.0643  0.4343  0.0441
  844MPD2    C512403   3.930   4.378  16.744  0.2265  0.6789  0.6097
  844MPD2     H12404   4.257   4.184  16.803  0.9058  2.2806  0.8572
  844MPD2    H112405   4.015   4.541  16.851 -1.4836 -0.4767  2.1500
  844MPD2    H212406   3.866   4.221  16.634 -0.3895  1.6541 -0.7766
  844MPD2    H312407   3.839   4.435  16.727  0.2773  0.3271 -0.8168
  844MPD2     N12408   4.260   4.406  16.920  0.5793 -0.4273 -0.7559
  844MPD2    H512409   4.333   4.340  16.943  0.7579  0.5795  1.5029
  844MPD2    N112410   4.084   4.060  16.646  0.0460  0.0928 -0.2755
  844MPD2    H712411   4.161   4.006  16.684  0.1639  0.2869 -0.2409
  845MPD2     C12412   4.347   0.592  17.386 -0.0746  0.0963  0.0644
  845MPD2    C112413   4.308   0.480  17.461 -0.5058  0.1066 -0.5645
  845MPD2    C212414   4.307   0.352  17.414  0.3349  0.1429 -0.5562
  845MPD2    C312415   4.365   0.329  17.293  0.1910  0.6702  0.3044
  845MPD2    C412416   4.408   0.435  17.215  0.2247 -0.1258 -1.0408
  845MPD2    C512417   4.396   0.569  17.259 -0.5465  0.9732  0.1109
  845MPD2     H12418   4.263   0.270  17.469 -0.4685  1.0677  0.1994
  845MPD2    H112419   4.450   0.414  17.117  0.9795  0.5683 -0.8709
  845MPD2    H212420   4.342   0.695  17.418 -0.1205  0.2416 -0.4094
  845MPD2    H312421   4.431   0.655  17.203 -0.9409  0.0801 -1.4984
  845MPD2     N12422   4.385   0.207  17.235 -0.1681 -0.4999  0.1423
  845MPD2    H512423   4.384   0.199  17.133  2.8104  1.4143 -0.0273
  845MPD2    N112424   4.243   0.519  17.580  0.7823 -0.1372 -0.2756
  845MPD2    H712425   4.239   0.617  17.604  0.6572 -0.1682 -0.1698
  846MPD2     C12426   1.755   0.578  13.955 -0.3054  0.5796 -0.2321
  846MPD2    C112427   1.649   0.660  13.939  0.2805  1.0676 -0.5735
  846MPD2    C212428   1.551   0.665  14.032  0.7692 -0.2425  0.7701
  846MPD2    C312429   1.558   0.588  14.144 -0.6625  0.7115 -0.1547
  846MPD2    C412430   1.672   0.520  14.176  0.6058  0.5243  0.3138
  846MPD2    C512431   1.766   0.519  14.077 -0.5070  0.3600  0.1497
  846MPD2     H12432   1.466   0.729  14.012  0.6153 -0.5726  0.3716
  846MPD2    H112433   1.696   0.455  14.259 -0.5393 -0.0465  0.2018
  846MPD2    H212434   1.838   0.563  13.886 -0.7240 -1.8275 -0.2077
  846MPD2    H312435   1.848   0.453  14.103 -0.5779 -0.1451 -0.8767
  846MPD2     N12436   1.452   0.590  14.242 -0.1327  0.3267 -0.5348
  846MPD2    H512437   1.367   0.626  14.200  0.0005 -0.6439 -1.6430
  846MPD2    N112438   1.631   0.742  13.825  0.2328 -0.5288  0.1342
  846MPD2    H712439   1.548   0.801  13.825  0.1165 -0.6951 -1.2007
  847MPD2     C12440   1.735   1.703  14.517 -0.1343  1.2382  0.0574
  847MPD2    C112441   1.767   1.683  14.650 -0.0903  0.3798  0.3863
  847MPD2    C212442   1.736   1.565  14.715  0.1235  1.0623 -0.2233
  847MPD2    C312443   1.684   1.460  14.643 -0.3873  0.2345 -0.5271
  847MPD2    C412444   1.653   1.474  14.515  0.2043  0.1825 -0.3148
  847MPD2    C512445   1.676   1.596  14.452  0.7195 -0.3232  0.1028
  847MPD2     H12446   1.752   1.554  14.822  1.2970 -1.4503 -0.6481
  847MPD2    H112447   1.592   1.402  14.461  0.2569 -0.3039  0.2767
  847MPD2    H212448   1.732   1.804  14.477 -0.2104  2.2845  2.7328
  847MPD2    H312449   1.635   1.610  14.353  1.7030 -1.4186 -0.4604
  847MPD2     N12450   1.662   1.340  14.712  0.4181  0.4648 -0.5717
  847MPD2    H512451   1.713   1.336  14.799 -1.9286  0.0649  0.8026
  847MPD2    N112452   1.819   1.781  14.736  0.4374 -0.1432 -0.2412
  847MPD2    H712453   1.832   1.752  14.833 -3.2676  0.1477  0.3471
  848MPD2     C12454   3.698   0.131  16.623 -0.1143  0.2718 -0.6136
  848MPD2    C112455   3.772   0.160  16.735  0.3366  0.4644  0.4463
  848MPD2    C212456   3.845   0.278  16.732  0.8104 -0.9903 -0.0983
  848MPD2    C312457   3.827   0.377  16.633  0.3693  0.7236  0.1756
  848MPD2    C412458   3.755   0.340  16.522 -0.3870 -0.6542  0.6996
  848MPD2    C512459   3.699   0.215  16.513 -0.0911  0.5678 -0.6838
  848MPD2     H12460   3.904   0.297  16.821  1.2913  0.8222 -0.8071
  848MPD2    H112461   3.737   0.406  16.437 -2.0327 -0.4130  1.2381
  848MPD2    H212462   3.635   0.044  16.612 -0.9576  0.9422 -1.0377
  848MPD2    H312463   3.633   0.187  16.431  1.0232  0.0788 -1.4148
  848MPD2     N12464   3.871   0.508  16.643  0.0254 -0.8467 -0.3036
  848MPD2    H512465   3.860   0.564  16.558  2.0255 -0.1710 -0.1374
  848MPD2    N112466   3.790   0.071  16.845  0.3964  0.4279  0.1656
  848MPD2    H712467   3.845   0.097  16.926  2.2138 -0.9141 -0.6543
  849MPD2     C12468   3.232   3.852  14.276  0.1856 -0.3705 -0.6177
  849MPD2    C112469   3.190   3.956  14.208  0.2310  0.1482 -0.4427
  849MPD2    C212470   3.264   4.073  14.215 -0.0853  0.0125  0.2538
  849MPD2    C312471   3.367   4.083  14.308 -0.1738  0.1931 -0.0115
  849MPD2    C412472   3.400   3.978  14.388 -0.1471  0.4206 -0.5246
  849MPD2    C512473   3.335   3.857  14.367 -0.2858  0.6745  0.6184
  849MPD2     H12474   3.232   4.165  14.167  1.3484  0.7814  0.7822
  849MPD2    H112475   3.476   3.989  14.465 -1.4503  0.3216  0.7894
  849MPD2    H212476   3.181   3.758  14.263  0.1707 -0.6726  1.6659
  849MPD2    H312477   3.365   3.773  14.428 -0.9439 -0.3771 -0.4963
  849MPD2     N12478   3.429   4.213  14.319 -0.4954  0.8899  0.0459
  849MPD2    H512479   3.403   4.282  14.249 -1.9977  0.3911  0.1052
  849MPD2    N112480   3.074   3.967  14.131 -0.1511  0.6276 -0.7093
  849MPD2    H712481   3.053   4.049  14.074 -0.5554  1.1819  0.2413
  850MPD2     C12482   1.058   2.858  15.121 -0.5653 -0.6810  0.4308
  850MPD2    C112483   1.144   2.811  15.217  0.2262 -0.0386 -0.3875
  850MPD2    C212484   1.278   2.854  15.215  0.2883 -0.3075  0.3207
  850MPD2    C312485   1.320   2.953  15.141 -0.0176  0.1452  0.3882
  850MPD2    C412486   1.231   3.016  15.060  0.2183 -0.1368 -0.1779
  850MPD2    C512487   1.105   2.960  15.049 -0.2623  0.0684  0.4964
  850MPD2     H12488   1.356   2.812  15.278 -0.7305 -3.6292 -0.6351
  850MPD2    H112489   1.242   3.101  14.993  2.3605 -1.3375 -1.3350
  850MPD2    H212490   0.954   2.829  15.122 -0.4520 -1.0861  0.6488
  850MPD2    H312491   1.031   3.002  14.982 -0.1992 -1.8441 -0.7708
  850MPD2     N12492   1.458   2.982  15.140  0.0987 -0.1985 -0.3153
  850MPD2    H512493   1.520   2.953  15.216  1.6805 -0.0164 -1.5373
  850MPD2    N112494   1.093   2.704  15.295 -0.1093 -0.2960 -0.2360
  850MPD2    H712495   0.993   2.685  15.291  0.6833 -4.1755 -2.3182
  851MPD2     C12496   1.485   2.069  15.505 -0.5661  0.2786 -0.6582
  851MPD2    C112497   1.362   2.073  15.570  0.2078  0.8936  1.3817
  851MPD2    C212498   1.310   1.953  15.616 -0.2424  0.2272  0.2312
  851MPD2    C312499   1.381   1.832  15.601  0.4893  0.5362  0.1623
  851MPD2    C412500   1.495   1.830  15.525  0.0119  0.2659  0.2824
  851MPD2    C512501   1.550   1.947  15.489 -0.3733 -0.1236  0.8883
  851MPD2     H12502   1.227   1.948  15.685 -1.2704 -1.5507 -1.1255
  851MPD2    H112503   1.553   1.739  15.516 -1.3372 -0.5477 -0.1921
  851MPD2    H212504   1.537   2.158  15.471  1.0060 -0.4347 -0.1114
  851MPD2    H312505   1.651   1.943  15.449  0.3448 -0.4321  2.7601
  851MPD2     N12506   1.318   1.725  15.659  0.6221  0.3909  0.6175
  851MPD2    H512507   1.241   1.744  15.723  1.3665 -1.9896  2.2065
  851MPD2    N112508   1.306   2.203  15.597  0.1559 -0.4594  0.1759
  851MPD2    H712509   1.359   2.285  15.571  0.5125 -1.4578 -2.2674
  852MPD2     C12510   1.177   4.624  10.115 -0.2509 -0.6629 -0.4483
  852MPD2    C112511   1.229   0.003  10.191  0.1904  0.2550  0.7735
  852MPD2    C212512   1.297   0.104  10.124 -0.2025  0.0494  0.2240
  852MPD2    C312513   1.330   0.094   9.991 -0.2879  0.3773  0.9454
  852MPD2    C412514   1.276   4.714   9.915 -0.0135  0.0889  0.0449
  852MPD2    C512515   1.208   4.617   9.978 -0.4386  0.4132 -0.3412
  852MPD2     H12516   1.325   0.192  10.181 -1.0492  0.0181  0.6832
  852MPD2    H112517   1.277   4.709   9.806  0.4307 -1.0949  0.1121
  852MPD2    H212518   1.117   4.545  10.159  0.2923 -0.8555 -0.0446
  852MPD2    H312519   1.167   4.536   9.920  1.7820 -1.4362  0.6709
  852MPD2     N12520   1.418   0.199   9.945  0.2886 -0.4337  0.5266
  852MPD2    H512521   1.451   0.261  10.019  0.1344 -0.5666  0.7090
  852MPD2    N112522   1.194   0.026  10.326 -0.6639  0.2430 -0.1557
  852MPD2    H712523   1.223   0.113  10.370  2.0442  0.3036 -2.0866
  853MPD2     C12524   3.487   0.178  12.524  0.1267  0.1326  0.1102
  853MPD2    C112525   3.365   0.234  12.495 -0.2664 -0.3087  0.1840
  853MPD2    C212526   3.301   0.191  12.380  0.1061 -0.1006  0.3308
  853MPD2    C312527   3.367   0.107  12.292 -0.0668 -0.3908  0.1044
  853MPD2    C412528   3.496   0.060  12.321 -0.2349 -0.6333 -0.1414
  853MPD2    C512529   3.554   0.089  12.446  0.6744 -0.0521 -0.4984
  853MPD2     H12530   3.207   0.238  12.355  0.2390 -0.8600 -1.6219
  853MPD2    H112531   3.535   4.707  12.257  0.0115 -1.1107  0.5833
  853MPD2    H212532   3.522   0.204  12.623 -2.0185  1.3871  0.5364
  853MPD2    H312533   3.644   0.033  12.471  0.2865  0.0321  1.1028
  853MPD2     N12534   3.296   0.043  12.180 -0.4945 -0.7911  0.2610
  853MPD2    H512535   3.362   4.710  12.129  0.7454  0.3634  0.5420
  853MPD2    N112536   3.304   0.316  12.596  0.0576  0.1673  0.2782
  853MPD2    H712537   3.336   0.317  12.692 -3.5640 -0.6192  1.4814
  854MPD2     C12538   4.492   0.203  13.252  0.1373 -0.2898 -0.0645
  854MPD2    C112539   4.589   0.224  13.154 -0.1427 -0.1673 -0.0603
  854MPD2    C212540   4.700   0.134  13.150 -0.0437  0.0162 -0.5595
  854MPD2    C312541   4.717   0.035  13.249  0.0603  0.7028 -0.3316
  854MPD2    C412542   4.621   0.017  13.345 -0.6622  0.0413  0.0365
  854MPD2    C512543   4.503   0.091  13.335  0.7891 -0.0335 -0.2630
  854MPD2     H12544   0.063   0.151  13.089 -0.1455 -1.9439 -1.2652
  854MPD2    H112545   4.633   4.669  13.425 -0.9142  1.1709  1.1098
  854MPD2    H212546   4.408   0.269  13.267  2.3460  2.3669  0.4912
  854MPD2    H312547   4.421   0.070  13.404 -0.5304  3.3597 -0.8022
  854MPD2     N12548   0.109   4.684  13.261  0.1278 -0.0710  0.1078
  854MPD2    H512549   0.132   4.649  13.354  0.4057  0.0081  0.0699
  854MPD2    N112550   4.591   0.342  13.074 -0.0351 -0.4133 -0.4241
  854MPD2    H712551   4.500   0.386  13.061 -0.5985 -1.3480  0.3395
  855MPD2     C12552   0.807   0.155  13.944  0.1490 -0.5289 -0.2089
  855MPD2    C112553   0.669   0.139  13.934 -0.1462 -0.4514 -0.2239
  855MPD2    C212554   0.612   0.099  13.808  0.1875  0.6327  1.0665
  855MPD2    C312555   0.696   0.099  13.695 -0.0007 -1.0371  0.0454
  855MPD2    C412556   0.828   0.131  13.706  0.2000  1.0363 -0.2739
  855MPD2    C512557   0.887   0.142  13.827  0.0348  0.4148 -0.4766
  855MPD2     H12558   0.506   0.078  13.804 -0.1024  2.4056 -0.3139
  855MPD2    H112559   0.897   0.119  13.623 -0.1178 -1.1828 -0.2044
  855MPD2    H212560   0.856   0.166  14.040 -1.8651 -0.3355  0.7910
  855MPD2    H312561   0.995   0.141  13.830  0.0136 -0.7682  0.2540
  855MPD2     N12562   0.649   0.062  13.563 -0.2198  0.9450 -0.3106
  855MPD2    H512563   0.716   0.071  13.487  0.6628 -1.5841  0.1698
  855MPD2    N112564   0.581   0.117  14.048  0.0138 -0.1162  0.5866
  855MPD2    H712565   0.491   0.073  14.034  0.5378 -1.6972  2.0686
  856MPD2     C12566   2.394   0.961  14.304 -0.1412 -0.2206 -0.1797
  856MPD2    C112567   2.481   1.069  14.309 -0.1089  0.1464 -0.4702
  856MPD2    C212568   2.428   1.195  14.305  0.4901  0.0876  0.4689
  856MPD2    C312569   2.287   1.218  14.288 -0.2859  0.2039 -0.2029
  856MPD2    C412570   2.201   1.109  14.278  0.2495  0.3588  0.0282
  856MPD2    C512571   2.258   0.982  14.287 -0.3542 -0.3269  0.0757
  856MPD2     H12572   2.501   1.274  14.317  0.2476  0.0072  2.5251
  856MPD2    H112573   2.093   1.118  14.273  0.4090  2.3851  0.0615
  856MPD2    H212574   2.432   0.860  14.299  1.7617  0.4738  0.0899
  856MPD2    H312575   2.199   0.891  14.294 -0.6519 -0.2002 -0.7538
  856MPD2     N12576   2.232   1.344  14.269 -0.1308 -0.3926  0.2108
  856MPD2    H512577   2.131   1.342  14.263 -0.2524  1.6889  1.5249
  856MPD2    N112578   2.619   1.049  14.328 -0.4873  0.3589  0.0069
  856MPD2    H712579   2.676   1.129  14.305  1.2859 -1.2773 -1.2826
  857MPD2     C12580   3.642   2.911  13.525  0.7830  0.6359  0.8855
  857MPD2    C112581   3.746   2.928  13.442  0.5227 -0.0427  0.8289
  857MPD2    C212582   3.820   3.047  13.461  0.2711  0.8845  0.0386
  857MPD2    C312583   3.783   3.141  13.549 -0.6179  0.6483 -1.1735
  857MPD2    C412584   3.668   3.131  13.621  0.1641  0.5751  0.4773
  857MPD2    C512585   3.601   3.007  13.617  0.1532  0.4578 -0.1497
  857MPD2     H12586   3.906   3.067  13.398  0.1134  1.4139 -0.0100
  857MPD2    H112587   3.633   3.208  13.689  1.2115  0.9302  0.6282
  857MPD2    H212588   3.574   2.827  13.508 -0.9103  1.8824  1.5185
  857MPD2    H312589   3.509   3.004  13.675 -0.2485 -0.3723 -0.8304
  857MPD2     N12590   3.870   3.257  13.555 -0.6382 -1.0689 -0.4033
  857MPD2    H512591   3.950   3.246  13.494 -1.1176 -0.3944 -1.1444
  857MPD2    N112592   3.769   2.837  13.334 -0.3072 -0.3206 -0.2729
  857MPD2    H712593   3.720   2.748  13.334  0.0703 -0.5273 -0.1417
  858MPD2     C12594   4.281   2.194  16.827 -0.0063  0.3981 -0.0761
  858MPD2    C112595   4.398   2.152  16.891  0.4969 -0.2094 -0.7661
  858MPD2    C212596   4.469   2.247  16.958  0.5679 -0.1280 -0.0280
  858MPD2    C312597   4.418   2.374  16.974 -0.0372 -0.1187 -0.2083
  858MPD2    C412598   4.300   2.413  16.919  0.2257  0.5485  0.0254
  858MPD2    C512599   4.241   2.330  16.840 -0.1338 -0.3078 -0.6375
  858MPD2     H12600   4.558   2.206  17.005 -0.8990 -2.8123  0.4030
  858MPD2    H112601   4.266   2.516  16.920  0.8445  0.7423  2.4192
  858MPD2    H212602   4.236   2.126  16.756 -1.1058  0.6922  0.3483
  858MPD2    H312603   4.149   2.368  16.797 -0.3815 -0.6829 -0.4448
  858MPD2     N12604   4.485   2.477  17.047  0.3477  0.7586 -0.4951
  858MPD2    H512605   4.434   2.564  17.048 -1.2142 -0.1576  1.5393
  858MPD2    N112606   4.454   2.026  16.867  0.1334 -0.0101 -0.1545
  858MPD2    H712607   4.543   2.003  16.911 -0.2026  1.1799  1.1481
  859MPD2     C12608   3.190   4.350  15.904  0.1886 -0.2551  0.1737
  859MPD2    C112609   3.184   4.336  15.767 -0.0309 -0.1625 -0.8336
  859MPD2    C212610   3.147   4.217  15.707 -0.7575 -0.1825  0.2571
  859MPD2    C312611   3.097   4.111  15.785  0.5105  1.3745 -0.2302
  859MPD2    C412612   3.093   4.131  15.924  0.0271 -0.3733 -0.1496
  859MPD2    C512613   3.143   4.249  15.983 -0.6812 -1.0090 -0.6487
  859MPD2     H12614   3.173   4.210  15.602 -1.8095 -1.4100  0.0676
  859MPD2    H112615   3.084   4.047  15.992 -0.7636 -2.2584 -2.5817
  859MPD2    H212616   3.217   4.446  15.946 -1.0616  0.3561 -0.4003
  859MPD2    H312617   3.130   4.270  16.089 -1.5877 -3.0430 -0.3689
  859MPD2     N12618   3.077   3.979  15.727 -0.3583  0.2224  0.0670
  859MPD2    H512619   3.050   3.903  15.789 -1.6937  0.2325 -0.5083
  859MPD2    N112620   3.229   4.451  15.700  0.7660 -0.1472 -0.4041
  859MPD2    H712621   3.257   4.529  15.760  0.3020  0.7185 -1.3114
  860MPD2     C12622   1.213   0.080  11.571  0.9637 -0.0822 -0.4142
  860MPD2    C112623   1.241   0.161  11.683 -0.5317  0.0188  0.3403
  860MPD2    C212624   1.149   0.178  11.781 -0.4607  0.5017  0.0464
  860MPD2    C312625   1.033   0.113  11.780 -0.2303  0.2234 -0.2723
  860MPD2    C412626   0.994   0.036  11.675  0.4916  0.0476 -0.4632
  860MPD2    C512627   1.080   0.024  11.568 -0.3552 -1.1227 -0.1801
  860MPD2     H12628   1.172   0.231  11.872  0.6150 -1.5949  1.0018
  860MPD2    H112629   0.897   4.714  11.683  2.3137 -3.5737  0.2199
  860MPD2    H212630   1.272   0.072  11.481  1.0013 -0.2810 -0.3717
  860MPD2    H312631   1.039   4.717  11.473 -0.5848 -1.1154 -0.0823
  860MPD2     N12632   0.951   0.131  11.892  0.1347  0.5311  0.3392
  860MPD2    H512633   0.982   0.206  11.953  1.3491  1.1458 -1.0256
  860MPD2    N112634   1.371   0.216  11.693 -0.2211 -0.4096 -0.4018
  860MPD2    H712635   1.385   0.268  11.779  2.1945  2.1565 -2.3635
  861MPD2     C12636   4.524   2.818  11.136 -0.1079  0.4238 -0.3956
  861MPD2    C112637   4.427   2.873  11.222 -0.0534  0.1742 -0.1484
  861MPD2    C212638   4.313   2.932  11.162  0.4451 -0.5502  0.6604
  861MPD2    C312639   4.310   2.958  11.021 -0.3642  0.1462  0.0233
  861MPD2    C412640   4.407   2.904  10.939  0.0028 -0.0689 -0.4473
  861MPD2    C512641   4.505   2.826  10.993  0.0017 -0.6417 -0.1415
  861MPD2     H12642   4.227   2.964  11.220 -0.0427 -1.1424  0.2686
  861MPD2    H112643   4.407   2.910  10.830 -0.8714 -1.5441 -0.5373
  861MPD2    H212644   4.589   2.741  11.177  0.3548  0.0291 -1.8608
  861MPD2    H312645   4.582   2.777  10.935  1.2663  0.1288  0.8817
  861MPD2     N12646   4.211   3.032  10.958  0.2852 -0.2574  0.2212
  861MPD2    H512647   4.202   3.023  10.857  0.3491 -1.3199  0.3155
  861MPD2    N112648   4.435   2.855  11.360  0.7550 -0.2060  0.1438
  861MPD2    H712649   4.350   2.889  11.404 -1.3375 -0.1726 -3.8807
  862MPD2     C12650   3.934   3.217  10.320 -0.3360  0.2473  0.3780
  862MPD2    C112651   4.015   3.150  10.414  0.1178  0.2870 -0.9384
  862MPD2    C212652   4.021   3.019  10.405  0.2826 -0.1417  0.5713
  862MPD2    C312653   3.957   2.942  10.316 -0.8660 -0.0439  0.1411
  862MPD2    C412654   3.887   3.007  10.217  0.2256 -0.5354 -0.6675
  862MPD2    C512655   3.873   3.144  10.217  0.4854 -0.6954 -0.6212
  862MPD2     H12656   4.085   2.972  10.479  1.5654  0.6492 -0.0473
  862MPD2    H112657   3.838   2.958  10.133 -1.4508  0.3852 -0.2211
  862MPD2    H212658   3.921   3.324  10.326 -0.9052  0.3196 -2.0533
  862MPD2    H312659   3.826   3.198  10.136 -3.0916 -0.2302  1.7242
  862MPD2     N12660   3.964   2.801  10.311  0.7044  0.6625  1.4262
  862MPD2    H512661   3.904   2.761  10.239  1.4510 -0.0191  1.1795
  862MPD2    N112662   4.069   3.202  10.533  0.6475 -0.1499 -0.2905
  862MPD2    H712663   4.126   3.137  10.586  1.4525 -0.7408 -1.8690
  863MPD2     C12664   2.475   1.293  17.223  0.3270  0.0589 -0.7949
  863MPD2    C112665   2.604   1.270  17.178  0.1243 -0.0382  0.7725
  863MPD2    C212666   2.707   1.237  17.264  0.0674 -0.5978 -0.8451
  863MPD2    C312667   2.673   1.210  17.395 -0.2165  0.5266 -0.9250
  863MPD2    C412668   2.539   1.225  17.439  0.4803 -0.5000 -0.3902
  863MPD2    C512669   2.445   1.270  17.354 -0.4251  0.0929  0.5243
  863MPD2     H12670   2.810   1.222  17.233  0.5535 -0.3215  0.6386
  863MPD2    H112671   2.512   1.194  17.540  0.3195 -2.2430 -0.9649
  863MPD2    H212672   2.394   1.322  17.157  0.0303 -0.7706 -0.7946
  863MPD2    H312673   2.342   1.272  17.389 -0.9333 -2.5116 -0.7963
  863MPD2     N12674   2.763   1.182  17.499 -0.3566 -0.2668  0.3992
  863MPD2    H512675   2.724   1.174  17.592 -1.0146  2.6959  0.3789
  863MPD2    N112676   2.616   1.288  17.033  0.5301  0.2276 -0.1929
  863MPD2    H712677   2.541   1.335  16.984 -1.1496 -1.4146  0.8316
  864MPD2     C12678   3.379   2.690  17.630  0.0581  1.0534 -0.0414
  864MPD2    C112679   3.450   2.623  17.531 -0.1245 -0.6424  0.4933
  864MPD2    C212680   3.522   2.696  17.434  0.0111  0.4170  0.1211
  864MPD2    C312681   3.508   2.835  17.432 -0.0992 -0.2329  0.3236
  864MPD2    C412682   3.438   2.901  17.533 -0.5866  0.1841  0.1792
  864MPD2    C512683   3.379   2.831  17.637 -0.2538  0.1277 -0.5840
  864MPD2     H12684   3.572   2.646  17.353 -0.5034  3.4839 -2.1025
  864MPD2    H112685   3.434   3.009  17.528  1.6839  0.3615  2.0969
  864MPD2    H212686   3.326   2.634   0.007 -1.9588 -0.3710 -2.4488
  864MPD2    H312687   3.330   2.887   0.015  1.4543 -0.5733  0.9933
  864MPD2     N12688   3.553   2.920  17.324 -0.4033  0.1549  0.5769
  864MPD2    H512689   3.528   3.018  17.328  1.7285  0.7466 -0.5607
  864MPD2    N112690   3.445   2.481  17.532  0.9507 -0.5207 -0.0220
  864MPD2    H712691   3.381   2.434  17.595 -0.7952 -0.1632 -1.5480
  865MPD2     C12692   3.541   3.129  16.489 -0.2893  0.1009  0.2604
  865MPD2    C112693   3.554   3.047  16.603 -0.0309  0.2491  0.3311
  865MPD2    C212694   3.517   3.099  16.730 -1.0019  0.2546  0.5558
  865MPD2    C312695   3.476   3.231  16.744  0.3283  0.5342  0.5891
  865MPD2    C412696   3.458   3.306  16.629 -0.3164 -0.0420 -0.3148
  865MPD2    C512697   3.490   3.256  16.504  0.2081  0.2467 -0.1683
  865MPD2     H12698   3.513   3.029  16.812  1.7766  0.3581  0.7801
  865MPD2    H112699   3.411   3.403  16.642 -0.0083 -0.1261  1.4341
  865MPD2    H212700   3.573   3.087  16.394  1.1579  0.9757  0.3468
  865MPD2    H312701   3.477   3.320  16.417  1.4885  0.8393  0.0876
  865MPD2     N12702   3.436   3.299  16.859  0.3536  0.4339  0.6414
  865MPD2    H512703   3.379   3.383  16.858 -0.9953 -0.4950 -0.8437
  865MPD2    N112704   3.596   2.913  16.574  0.3334  0.0662 -0.2767
  865MPD2    H712705   3.616   2.888  16.478  0.4560 -1.5048  0.1548
  866MPD2     C12706   0.544   3.250  11.297 -0.4688 -0.0346  0.1464
  866MPD2    C112707   0.469   3.144  11.327 -0.2006  0.8315  0.0857
  866MPD2    C212708   0.337   3.152  11.302  0.1700 -0.3713 -0.3705
  866MPD2    C312709   0.278   3.273  11.278  0.0229  0.4163  0.0867
  866MPD2    C412710   0.356   3.387  11.257  0.3427  0.1949 -0.0354
  866MPD2    C512711   0.493   3.366  11.254  0.4389  0.0143  0.3886
  866MPD2     H12712   0.270   3.067  11.310 -1.0717  0.5905 -0.4953
  866MPD2    H112713   0.318   3.479  11.215  1.3289  1.2218  1.3142
  866MPD2    H212714   0.652   3.242  11.289 -0.5869 -1.2358 -0.3484
  866MPD2    H312715   0.559   3.451  11.240 -0.5939  0.8749  0.7209
  866MPD2     N12716   0.143   3.296  11.270  0.2145 -0.2552 -0.6442
  866MPD2    H512717   0.109   3.386  11.237 -0.6068 -0.2587  0.1692
  866MPD2    N112718   0.542   3.020  11.337  0.0761  0.0383  1.1496
  866MPD2    H712719   0.643   3.020  11.339  0.1126  0.4173 -0.8014
  867MPD2     C12720   2.621   2.815  16.964 -0.7520  0.5753  0.0755
  867MPD2    C112721   2.732   2.811  17.050 -0.3083 -0.0599  0.2487
  867MPD2    C212722   2.796   2.936  17.075  0.2643 -0.2389 -0.3207
  867MPD2    C312723   2.736   3.058  17.038 -0.5692 -0.4017 -0.9805
  867MPD2    C412724   2.631   3.054  16.956 -0.1933  0.3553  0.5889
  867MPD2    C512725   2.576   2.936  16.913 -0.2832  0.2615 -0.1360
  867MPD2     H12726   2.882   2.938  17.141 -0.8553 -0.5263  1.1509
  867MPD2    H112727   2.590   3.144  16.911  0.1200 -0.2136 -0.8391
  867MPD2    H212728   2.575   2.720  16.941  1.6244 -1.0484  2.1631
  867MPD2    H312729   2.487   2.946  16.852 -1.9098  0.6651  2.3254
  867MPD2     N12730   2.779   3.189  17.077 -0.4160 -0.4824  0.3232
  867MPD2    H512731   2.720   3.267  17.052  0.6376  0.2639  0.1514
  867MPD2    N112732   2.769   2.691  17.121  0.0893 -0.3072  0.6147
  867MPD2    H712733   2.694   2.624  17.107 -0.0233 -0.8246  3.8102
  868MPD2     C12734   4.633   0.625  13.281 -0.1100 -0.2119  0.0719
  868MPD2    C112735   4.670   0.748  13.247  0.4246 -0.2360  0.0945
  868MPD2    C212736   4.567   0.849  13.265  0.0456  1.1782  0.8574
  868MPD2    C312737   4.442   0.816  13.300  0.2348  0.2637  0.1937
  868MPD2    C412738   4.409   0.684  13.311 -0.9253  0.1938 -0.6490
  868MPD2    C512739   4.502   0.590  13.301 -0.4956  0.2677  0.3224
  868MPD2     H12740   4.581   0.953  13.239  1.2646  0.7904 -0.0292
  868MPD2    H112741   4.307   0.652  13.324 -0.8276  0.9902  2.0876
  868MPD2    H212742   4.706   0.545  13.278  2.2105  1.8286  1.4016
  868MPD2    H312743   4.478   0.485  13.318  4.1128 -0.9570 -0.6953
  868MPD2     N12744   4.360   0.920  13.323 -0.5295 -0.1160  0.1057
  868MPD2    H512745   4.404   1.011  13.334  0.4931 -0.4416 -1.2699
  868MPD2    N112746   0.075   0.783  13.202  0.3292  0.0655 -0.0578
  868MPD2    H712747   0.146   0.712  13.218 -0.7964 -0.8249  1.0326
  869MPD2     C12748   1.215   4.452   2.012  0.4828  0.4040 -0.6164
  869MPD2    C112749   1.170   4.384   1.896 -0.0421  0.0541 -0.0121
  869MPD2    C212750   1.145   4.452   1.781  0.0610  0.4915 -0.5063
  869MPD2    C312751   1.140   4.593   1.790 -0.9896  0.0571 -0.3833
  869MPD2    C412752   1.182   4.656   1.908 -0.5422  0.2328  0.3584
  869MPD2    C512753   1.220   4.587   2.018  0.1597  0.1749  0.6190
  869MPD2     H12754   1.112   4.398   1.694 -1.6056 -1.1938  1.1618
  869MPD2    H112755   1.173   0.039   1.915  1.2499  0.3762  0.4899
  869MPD2    H212756   1.245   4.402   2.104 -1.1022  0.7876  0.1202
  869MPD2    H312757   1.239   4.636   2.114  0.8044  2.5683 -0.7331
  869MPD2     N12758   1.094   4.673   1.686 -0.3808  0.8550  0.1778
  869MPD2    H512759   1.077   0.046   1.709  1.5549  1.5332 -1.2348
  869MPD2    N112760   1.150   4.243   1.914 -0.7313  0.0147  0.2354
  869MPD2    H712761   1.183   4.199   1.999 -0.1862  0.3069  0.1765
  870MPD2     C12762   0.027   4.284   1.552  0.4596 -0.2250 -0.3252
  870MPD2    C112763   0.098   4.168   1.521  0.1854  0.3453  0.6135
  870MPD2    C212764   0.190   4.175   1.420  0.3649  0.7153 -0.1645
  870MPD2    C312765   0.206   4.289   1.338  0.6745 -0.2254 -0.6618
  870MPD2    C412766   0.122   4.393   1.364 -0.0812 -0.1295 -0.7527
  870MPD2    C512767   0.039   4.399   1.474  0.7937 -0.2754 -0.5480
  870MPD2     H12768   0.262   4.094   1.410 -0.0267  0.3448  0.0313
  870MPD2    H112769   0.138   4.490   1.319  2.8600 -0.1581  0.2235
  870MPD2    H212770   4.671   4.281   1.625  1.2070  0.6858  0.5454
  870MPD2    H312771   4.703   4.487   1.489 -1.7631 -1.8327 -1.9321
  870MPD2     N12772   0.306   4.291   1.236 -0.1790  0.1437 -0.0011
  870MPD2    H512773   0.364   4.208   1.224 -0.9634 -0.2307 -1.2009
  870MPD2    N112774   0.072   4.048   1.591 -0.2536 -0.3522  0.8046
  870MPD2    H712775   4.716   4.043   1.652 -0.2446 -1.1596  0.7536
  871MPD2     C12776   1.298   2.755  16.513 -0.4156  0.1114  0.3754
  871MPD2    C112777   1.282   2.734  16.648  0.4567  0.4692 -0.0702
  871MPD2    C212778   1.324   2.609  16.699 -0.4206  0.5441 -0.3537
  871MPD2    C312779   1.394   2.526  16.611 -0.4041  0.1872 -0.1892
  871MPD2    C412780   1.415   2.551  16.477 -0.0327 -1.1742 -0.3744
  871MPD2    C512781   1.374   2.671  16.436  1.2237  0.0287  0.4119
  871MPD2     H12782   1.316   2.577  16.802 -0.1818  2.0591  0.1328
  871MPD2    H112783   1.476   2.490  16.411  1.2344 -0.2225 -0.0850
  871MPD2    H212784   1.268   2.853  16.479 -0.2323  0.0590  0.0539
  871MPD2    H312785   1.401   2.704  16.336  1.0850 -0.6823  0.1389
  871MPD2     N12786   1.455   2.414  16.673  0.1598 -0.1841 -0.1444
  871MPD2    H512787   1.440   2.410  16.773 -1.7244 -1.1477 -0.4729
  871MPD2    N112788   1.225   2.839  16.728  0.2198  0.1357  0.0457
  871MPD2    H712789   1.184   2.914  16.675  1.4003 -0.2239 -1.4016
  872MPD2     C12790   2.470   0.321  14.382  0.0359  0.0206  0.3987
  872MPD2    C112791   2.374   0.344  14.287 -0.1941  0.5825  0.4649
  872MPD2    C212792   2.249   0.294  14.316 -0.1026 -0.4985 -0.1271
  872MPD2    C312793   2.223   0.223  14.435 -0.2035  0.3550 -0.1920
  872MPD2    C412794   2.320   0.203  14.529 -0.3572 -0.7552  0.6257
  872MPD2    C512795   2.444   0.251  14.504  0.4590  0.1025  0.6687
  872MPD2     H12796   2.167   0.331  14.255 -0.9478 -2.6962 -0.3270
  872MPD2    H112797   2.299   0.159  14.626 -0.2907  0.7786  1.3436
  872MPD2    H212798   2.572   0.356  14.371 -0.0597 -0.4410 -1.8971
  872MPD2    H312799   2.519   0.235  14.580 -1.0794 -0.7054  2.0150
  872MPD2     N12800   2.090   0.201  14.476 -0.1741 -0.1587  0.2676
  872MPD2    H512801   2.075   0.161  14.569  0.2975 -0.2598  0.2998
  872MPD2    N112802   2.388   0.419  14.170  0.0905  0.1930  0.3904
  872MPD2    H712803   2.310   0.443  14.110  0.8905  0.7845 -0.4204
  873MPD2     C12804   3.225   0.071   2.341  0.6698 -0.1421 -0.5041
  873MPD2    C112805   3.191   0.154   2.236  0.2697 -0.4219  0.1124
  873MPD2    C212806   3.059   0.157   2.192 -0.7003 -0.3044  0.7930
  873MPD2    C312807   2.960   0.083   2.256  0.2366 -0.0937  0.2499
  873MPD2    C412808   2.992   0.016   2.367 -0.0798  0.3621 -0.5954
  873MPD2    C512809   3.125   0.006   2.404  0.3218  0.7207  0.9719
  873MPD2     H12810   3.036   0.223   2.109 -1.8198 -1.3132  0.3015
  873MPD2    H112811   2.921   4.678   2.420 -0.8072  2.2296  0.6061
  873MPD2    H212812   3.328   0.068   2.376  0.0135  1.2493  1.5485
  873MPD2    H312813   3.160   4.660   2.478  0.1220  0.7647  1.1085
  873MPD2     N12814   2.830   0.070   2.202  0.2854 -0.7623  0.1040
  873MPD2    H512815   2.759   0.026   2.259  1.0790 -1.1175  0.8117
  873MPD2    N112816   3.292   0.228   2.167  0.4624  0.2314 -0.0279
  873MPD2    H712817   3.387   0.210   2.197  0.6648 -0.5325 -1.1470
  874MPD2     C12818   3.183   0.551  16.547 -0.3344  0.6930  0.4103
  874MPD2    C112819   3.278   0.476  16.606  0.0476 -0.2871 -1.3735
  874MPD2    C212820   3.403   0.530  16.631 -0.0153 -0.2845 -0.2790
  874MPD2    C312821   3.432   0.660  16.591 -0.2018  0.5379 -0.9073
  874MPD2    C412822   3.339   0.733  16.525  0.5780  0.5610  0.3979
  874MPD2    C512823   3.219   0.676  16.504 -0.7413  0.3012 -0.3930
  874MPD2     H12824   3.487   0.480  16.678  0.7166  0.8381 -0.3847
  874MPD2    H112825   3.360   0.827  16.475  1.0054  0.5454  0.5510
  874MPD2    H212826   3.086   0.518  16.512 -1.1877  3.5116  0.0551
  874MPD2    H312827   3.138   0.728  16.453 -0.9099 -0.6344 -1.0799
  874MPD2     N12828   3.560   0.713  16.615  0.1032  0.6349 -0.2816
  874MPD2    H512829   3.623   0.645  16.656 -2.5947 -1.1994  0.8476
  874MPD2    N112830   3.242   0.341  16.640  0.3653 -0.2839 -0.4442
  874MPD2    H712831   3.155   0.313  16.596  0.2755  0.5863 -0.8237
  875MPD2     C12832   4.679   3.345  15.134 -0.4564  0.1114  0.3105
  875MPD2    C112833   4.550   3.390  15.130  0.3320  0.2769  0.0746
  875MPD2    C212834   4.498   3.448  15.241 -0.1666  0.0559 -0.2304
  875MPD2    C312835   4.567   3.463  15.355 -0.2696  0.7540 -0.2221
  875MPD2    C412836   4.693   3.398  15.357 -0.4373 -1.4660 -0.3555
  875MPD2    C512837   0.024   3.348  15.245 -0.2870 -0.4262  0.0939
  875MPD2     H12838   4.397   3.488  15.252 -0.3996 -0.5194 -0.2818
  875MPD2    H112839   0.032   3.411  15.444 -1.0931 -0.8044  0.0324
  875MPD2    H212840   0.010   3.332  15.042 -1.3042 -1.2515 -0.0116
  875MPD2    H312841   0.131   3.336  15.251 -0.2117  0.1098 -0.1542
  875MPD2     N12842   4.524   3.532  15.473  0.3238 -0.0317 -0.0309
  875MPD2    H512843   4.590   3.532  15.550  2.6906 -0.9626 -2.0783
  875MPD2    N112844   4.474   3.403  15.012 -0.5230 -0.6244  0.0489
  875MPD2    H712845   4.390   3.459  15.021 -0.1530 -0.1878  0.8503
  876MPD2     C12846   3.146   4.711  16.411 -0.0791  0.0242  0.0245
  876MPD2    C112847   3.265   4.690  16.354 -0.5402  0.0483  0.0708
  876MPD2    C212848   3.315   4.561  16.356 -0.0142  0.9383 -0.4853
  876MPD2    C312849   3.255   4.462  16.425  0.2252 -0.6398  0.2595
  876MPD2    C412850   3.134   4.485  16.487  0.5355  0.4061 -0.0136
  876MPD2    C512851   3.081   4.610  16.482 -0.4088 -0.4084  0.2796
  876MPD2     H12852   3.411   4.543  16.310  0.3552  3.4704 -0.7503
  876MPD2    H112853   3.081   4.412  16.547  1.6769  0.0234  0.5478
  876MPD2    H212854   3.095   0.081  16.404 -0.2991 -0.3292 -3.4107
  876MPD2    H312855   2.981   4.628  16.519 -0.5696 -0.8848  0.0781
  876MPD2     N12856   3.335   4.350  16.449  0.0896  0.1388  0.2816
  876MPD2    H512857   3.433   4.353  16.420  0.1768  0.7932  0.6381
  876MPD2    N112858   3.326   0.074  16.284 -0.1574  0.0891 -0.1447
  876MPD2    H712859   3.270   0.155  16.259  0.1988 -0.0644 -1.4439
  877MPD2     C12860   3.247   0.381  15.616  0.3281  0.2469  0.2576
  877MPD2    C112861   3.381   0.407  15.645 -0.0568  0.3924 -0.0034
  877MPD2    C212862   3.472   0.435  15.542  0.3587 -0.1249  0.6606
  877MPD2    C312863   3.417   0.452  15.414 -0.4003 -0.1211  0.2626
  877MPD2    C412864   3.279   0.436  15.384  0.0638  0.5798  0.7931
  877MPD2    C512865   3.197   0.400  15.490 -0.6083  1.0696 -0.4335
  877MPD2     H12866   3.578   0.446  15.562  0.4924  0.0073 -0.1228
  877MPD2    H112867   3.248   0.433  15.280  0.7519 -0.7204  0.6190
  877MPD2    H212868   3.168   0.367  15.689 -1.1410 -0.2753 -1.4312
  877MPD2    H312869   3.094   0.381  15.464 -0.4816  1.6132 -1.3486
  877MPD2     N12870   3.506   0.476  15.306  0.0117  0.0382  0.5378
  877MPD2    H512871   3.457   0.472  15.217  0.2127 -1.3365  0.4912
  877MPD2    N112872   3.432   0.380  15.774 -0.0886 -0.4172  0.1047
  877MPD2    H712873   3.531   0.394  15.787 -0.4322  2.1803 -0.0480
  878MPD2     C12874   3.296   4.254  13.477 -0.4352  0.3751 -0.3042
  878MPD2    C112875   3.216   4.358  13.524 -0.3715  1.0142 -0.0825
  878MPD2    C212876   3.096   4.316  13.595  0.1368  0.6816  0.1983
  878MPD2    C312877   3.066   4.180  13.619 -0.2204 -0.3156 -0.3807
  878MPD2    C412878   3.137   4.089  13.550 -0.3635  0.9630 -0.6314
  878MPD2    C512879   3.254   4.122  13.486  0.9379  0.2887  0.0066
  878MPD2     H12880   3.033   4.395  13.634 -3.0372 -2.2817  1.1259
  878MPD2    H112881   3.115   3.985  13.574 -0.9877  0.8841 -1.5454
  878MPD2    H212882   3.388   4.274  13.424  1.1897 -2.1478  1.5891
  878MPD2    H312883   3.321   4.049  13.442  2.2193  1.1138  0.5881
  878MPD2     N12884   2.962   4.150  13.710 -0.2088  0.4374 -0.0027
  878MPD2    H512885   2.908   4.220  13.760  0.2217 -0.0465  1.1233
  878MPD2    N112886   3.255   4.485  13.475  0.1785 -0.1144 -0.7162
  878MPD2    H712887   3.342   4.475  13.423 -0.0030  0.1212 -1.0670
  879MPD2     C12888   4.104   1.452   0.253 -0.0321  0.1584  0.2847
  879MPD2    C112889   3.995   1.373   0.283  0.3797  0.7636 -0.0416
  879MPD2    C212890   3.943   1.294   0.180 -0.4508  0.2110 -0.4871
  879MPD2    C312891   3.995   1.290   0.052  0.2136  0.4410 -0.1987
  879MPD2    C412892   4.110   1.363   0.026  0.6581  0.0898 -0.3052
  879MPD2    C512893   4.157   1.440   0.126 -0.5534  0.4780 -0.7485
  879MPD2     H12894   3.853   1.238   0.203  0.7858 -0.7212  2.0536
  879MPD2    H112895   4.155   1.370  17.629 -0.6083  3.1009 -0.6991
  879MPD2    H212896   4.150   1.518   0.326 -0.0187  0.5188 -0.0540
  879MPD2    H312897   4.246   1.499   0.104  0.5507 -1.0983 -0.4913
  879MPD2     N12898   3.939   1.211  17.653 -0.0059 -0.2715  0.0361
  879MPD2    H512899   3.968   1.239  17.560  1.9251  0.9226  0.9843
  879MPD2    N112900   3.932   1.376   0.407  1.0190  0.6557  0.4632
  879MPD2    H712901   3.970   1.439   0.477  1.8119  0.7937 -0.0812
  880MPD2     C12902   0.844   2.827   0.450 -0.5391  0.3209  0.0385
  880MPD2    C112903   0.841   2.906   0.563  1.1132 -0.1520 -0.2194
  880MPD2    C212904   0.889   2.843   0.683  0.4989 -0.7608 -0.1233
  880MPD2    C312905   0.929   2.711   0.688 -0.5034  0.4748  0.2245
  880MPD2    C412906   0.916   2.635   0.572  0.5919 -0.1709 -0.2753
  880MPD2    C512907   0.870   2.692   0.458 -0.9268  0.4108  0.4385
  880MPD2     H12908   0.892   2.908   0.771  0.6480  0.4251 -1.0054
  880MPD2    H112909   0.943   2.531   0.565 -0.2170 -0.3023 -1.4808
  880MPD2    H212910   0.818   2.876   0.357 -0.3623 -1.6937 -1.0692
  880MPD2    H312911   0.872   2.633   0.367 -0.1450  1.4623 -0.2323
  880MPD2     N12912   0.958   2.658   0.817 -0.5401 -0.3211 -0.2649
  880MPD2    H512913   0.952   2.720   0.897  0.1724 -1.4950  0.6993
  880MPD2    N112914   0.802   3.039   0.541  0.0790  0.2648  0.1298
  880MPD2    H712915   0.798   3.077   0.447  0.9321  0.2136  0.0728
  881MPD2     C12916   0.159   3.612   0.056 -0.1458  0.2801 -0.3656
  881MPD2    C112917   0.277   3.551   0.016  0.2372  0.2602 -0.0479
  881MPD2    C212918   0.356   3.496   0.121 -0.6637  0.2806 -0.0474
  881MPD2    C312919   0.321   3.509   0.253  0.2342 -0.0381  0.2412
  881MPD2    C412920   0.203   3.577   0.283  0.8374 -0.1631 -0.2958
  881MPD2    C512921   0.117   3.617   0.182 -0.3555 -0.0821 -0.0803
  881MPD2     H12922   0.450   3.453   0.089 -0.4441  1.3349 -0.8218
  881MPD2    H112923   0.174   3.602   0.384 -3.3154  0.2214 -1.5604
  881MPD2    H212924   0.085   3.639  17.682  0.7382 -3.2703 -2.5700
  881MPD2    H312925   0.016   3.643   0.211 -1.1865 -1.2405 -1.8992
  881MPD2     N12926   0.405   3.467   0.360  0.3207  0.1282 -0.0465
  881MPD2    H512927   0.366   3.489   0.451 -0.6889  0.5350 -0.5782
  881MPD2    N112928   0.295   3.518  17.583 -0.3890 -0.1415 -0.0929
  881MPD2    H712929   0.349   3.436  17.558  0.0178  0.0452  0.1665
  882MPD2     C12930   3.613   0.808  14.566 -0.0361 -0.5548 -0.1157
  882MPD2    C112931   3.582   0.687  14.619 -0.1105  0.3211 -0.2259
  882MPD2    C212932   3.468   0.623  14.562 -0.1388  0.2463 -0.3317
  882MPD2    C312933   3.384   0.686  14.467  0.3554 -0.1272  0.2704
  882MPD2    C412934   3.408   0.817  14.430  0.4538  0.4528 -1.1833
  882MPD2    C512935   3.532   0.869  14.475 -0.2441  0.5399 -0.2312
  882MPD2     H12936   3.424   0.532  14.601  1.9079 -0.7664 -0.3738
  882MPD2    H112937   3.341   0.872  14.365 -0.2350  2.9854  1.7020
  882MPD2    H212938   3.703   0.859  14.597  0.2451 -0.1130 -1.6262
  882MPD2    H312939   3.568   0.969  14.457 -0.5947  0.6402 -0.3861
  882MPD2     N12940   3.256   0.623  14.433 -0.7052  0.0149 -0.1652
  882MPD2    H512941   3.189   0.688  14.392 -0.7985 -0.7367 -1.1912
  882MPD2    N112942   3.654   0.639  14.726  0.0561  0.4408 -0.4638
  882MPD2    H712943   3.745   0.684  14.736 -0.0795  0.1933  1.9603
  883MPD2     C12944   1.198   0.600  17.135  0.3041 -0.5156  0.2205
  883MPD2    C112945   1.217   0.680  17.024 -0.4404  0.6041  0.4737
  883MPD2    C212946   1.320   0.775  17.031  0.1879 -0.5153  0.7400
  883MPD2    C312947   1.386   0.783  17.158 -0.1330  0.6663  0.1331
  883MPD2    C412948   1.350   0.714  17.268  0.7182 -0.0749 -0.6699
  883MPD2    C512949   1.252   0.623  17.259  0.7994 -0.3197  0.0395
  883MPD2     H12950   1.338   0.831  16.940 -0.6582 -0.4709  0.6046
  883MPD2    H112951   1.385   0.746  17.366 -1.6185 -0.2030  0.2055
  883MPD2    H212952   1.126   0.519  17.127  2.0897 -1.8970 -1.7175
  883MPD2    H312953   1.215   0.578  17.351 -0.3110  0.5628  0.0333
  883MPD2     N12954   1.468   0.894  17.170 -0.0719 -0.7369  0.2685
  883MPD2    H512955   1.479   0.948  17.085 -0.3565 -0.0603  0.6581
  883MPD2    N112956   1.154   0.655  16.899  0.5003 -0.4148 -0.0516
  883MPD2    H712957   1.204   0.698  16.822  0.0482 -0.3593 -0.3151
  884MPD2     C12958   2.356   0.842  16.083  0.1610  0.0093 -0.7190
  884MPD2    C112959   2.435   0.893  15.982 -0.2830  0.2815 -0.0571
  884MPD2    C212960   2.371   0.965  15.884  0.6682  0.6628  0.2677
  884MPD2    C312961   2.235   0.977  15.870  0.4424  0.2073  1.1144
  884MPD2    C412962   2.159   0.909  15.964  0.0648  0.4551 -0.2102
  884MPD2    C512963   2.225   0.846  16.065  0.4511 -0.5006  0.4896
  884MPD2     H12964   2.434   1.010  15.809 -0.1305  1.2443 -0.0551
  884MPD2    H112965   2.051   0.911  15.975 -0.0311 -0.2313 -0.9784
  884MPD2    H212966   2.398   0.791  16.168 -0.4297  0.5240 -0.1123
  884MPD2    H312967   2.176   0.795  16.147 -2.2523 -0.7745 -1.3151
  884MPD2     N12968   2.176   1.041  15.760  0.1375 -0.4472 -0.2647
  884MPD2    H512969   2.235   1.107  15.709  0.9286 -0.4582  0.6444
  884MPD2    N112970   2.581   0.888  15.979 -0.4697  0.5157  0.9506
  884MPD2    H712971   2.629   0.940  15.906 -2.2636 -1.1874 -1.4303
  885MPD2     C12972   0.919   1.374   0.699 -0.0329 -0.4780 -0.2824
  885MPD2    C112973   0.883   1.507   0.655  0.1790 -0.0958  0.2872
  885MPD2    C212974   0.887   1.542   0.520  0.1556  0.6116  0.3285
  885MPD2    C312975   0.919   1.440   0.426 -0.6766 -0.3543  0.2112
  885MPD2    C412976   0.947   1.312   0.466 -0.5120  0.1831 -0.3785
  885MPD2    C512977   0.954   1.280   0.602  0.9435 -0.2053 -0.1118
  885MPD2     H12978   0.868   1.641   0.479 -2.1229  0.5019  1.0806
  885MPD2    H112979   0.970   1.226   0.404 -0.8190  0.1925 -0.5069
  885MPD2    H212980   0.927   1.355   0.805 -0.5990  0.4522 -0.0664
  885MPD2    H312981   0.986   1.180   0.628 -1.3842 -0.7590  0.6362
  885MPD2     N12982   0.927   1.476   0.286  0.2924  0.1303 -0.3001
  885MPD2    H512983   0.923   1.575   0.264 -0.7553  0.4977  1.4871
  885MPD2    N112984   0.858   1.598   0.760 -0.2625 -0.8323 -0.6024
  885MPD2    H712985   0.847   1.564   0.855  1.3110 -0.2304 -0.2154
  886MPD2     C12986   2.139   4.192  15.358 -0.7295  0.4504  0.6697
  886MPD2    C112987   2.225   4.264  15.434 -0.5507  0.3823 -0.3998
  886MPD2    C212988   2.254   4.392  15.386  0.6729 -0.1925  0.5044
  886MPD2    C312989   2.185   4.446  15.279  0.1390  0.4722 -0.0028
  886MPD2    C412990   2.097   4.369  15.205 -0.1597  0.8116 -0.2623
  886MPD2    C512991   2.082   4.240  15.245 -0.0235  0.9575 -0.4548
  886MPD2     H12992   2.331   4.450  15.434  0.8911  0.2793 -0.4042
  886MPD2    H112993   2.057   4.395  15.108 -2.0826 -1.2057 -0.0042
  886MPD2    H212994   2.112   4.090  15.385 -1.0468  0.2192 -0.5303
  886MPD2    H312995   2.023   4.167  15.191  1.8161  0.0735 -1.2742
  886MPD2     N12996   2.210   4.576  15.234 -0.5848  0.1220 -0.4895
  886MPD2    H512997   2.181   4.601  15.140  0.1346  1.8241 -0.2560
  886MPD2    N112998   2.278   4.228  15.561  0.2804 -0.0782  0.5508
  886MPD2    H712999   2.321   4.310  15.602  1.4882  1.2140 -3.3061
  887MPD2     C13000   2.768   4.371  16.251  0.1711  0.6440 -0.4094
  887MPD2    C113001   2.673   4.414  16.157  0.2080  0.2076 -0.0959
  887MPD2    C213002   2.621   4.539  16.148  0.6079  0.2142  0.4351
  887MPD2    C313003   2.671   4.648  16.223  0.2677 -0.3832 -0.2470
  887MPD2    C413004   2.756   4.600  16.321  0.0473 -0.1900  0.4532
  887MPD2    C513005   2.804   4.469  16.339  0.4347 -0.5863  0.1412
  887MPD2     H13006   2.545   4.561  16.074 -0.4992 -0.5388  1.3428
  887MPD2    H113007   2.795   4.668  16.396  0.9640 -0.2893  0.0586
  887MPD2    H213008   2.789   4.268  16.276  0.7918  1.3638  2.0085
  887MPD2    H313009   2.878   4.444  16.413 -0.5800 -0.6897  1.1141
  887MPD2     N13010   2.629   0.056  16.204 -0.0445  0.3174  0.1264
  887MPD2    H513011   2.582   0.085  16.119  0.7913 -0.5078 -0.6191
  887MPD2    N113012   2.640   4.311  16.066 -0.2025  0.4448 -0.3317
  887MPD2    H713013   2.677   4.218  16.081  0.0313  0.3383 -1.5404
  888MPD2     C13014   4.627   0.192  14.825  0.2838  0.5114 -0.5240
  888MPD2    C113015   4.668   0.227  14.955  0.5955 -0.1340 -0.2672
  888MPD2    C213016   0.028   0.332  14.976  0.6555  0.3749  0.0518
  888MPD2    C313017   0.062   0.411  14.872  0.7331 -0.0495  1.3365
  888MPD2    C413018   0.014   0.387  14.745  0.4524 -0.1362  0.5314
  888MPD2    C513019   4.652   0.280  14.726 -0.6783  0.5473 -0.3310
  888MPD2     H13020   0.065   0.361  15.073 -1.8708  0.2747  1.0403
  888MPD2    H113021   0.029   0.457  14.663  1.7759 -0.2741  0.6535
  888MPD2    H213022   4.573   0.103  14.795  2.9936 -1.5961  0.8145
  888MPD2    H313023   4.619   0.256  14.626  0.7915  1.4682 -1.0294
  888MPD2     N13024   0.148   0.520  14.895  0.1834  0.0047  0.4368
  888MPD2    H513025   0.180   0.535  14.990 -0.3257  0.3712  0.5514
  888MPD2    N113026   4.628   0.164  15.070 -0.0600 -0.2682 -0.4744
  888MPD2    H713027   4.675   0.190  15.157  2.1378 -1.0781 -1.4338
  889MPD2     C13028   3.768   4.017  13.266 -0.5794 -0.0328  0.5149
  889MPD2    C113029   3.815   3.999  13.399 -0.0572  0.3955  0.1146
  889MPD2    C213030   3.778   4.092  13.493  0.5486  0.9134  0.3501
  889MPD2    C313031   3.713   4.214  13.455 -0.0837  0.7719  0.0477
  889MPD2    C413032   3.676   4.230  13.325  0.3543  0.0856  0.2968
  889MPD2    C513033   3.716   4.141  13.233 -0.2381  0.0532  0.3060
  889MPD2     H13034   3.822   4.070  13.589 -0.1070 -0.3537  0.3615
  889MPD2    H113035   3.623   4.318  13.291 -4.6825 -3.3546 -0.6883
  889MPD2    H213036   3.780   3.935  13.196  0.4311 -0.4646  1.1835
  889MPD2    H313037   3.689   4.151  13.129 -0.6728  2.7739  0.6748
  889MPD2     N13038   3.697   4.314  13.554 -0.1620  0.2130 -0.3243
  889MPD2    H513039   3.749   4.288  13.638  1.0386 -3.1358 -2.1252
  889MPD2    N113040   3.850   3.873  13.449 -0.0103 -1.0367 -0.4635
  889MPD2    H713041   3.856   3.856  13.549 -0.6708  0.1975 -0.2228
  890MPD2     C13042   3.557   1.038  14.843  0.4193 -0.2080  0.5171
  890MPD2    C113043   3.631   1.045  14.959 -0.1928 -0.3370 -0.8577
  890MPD2    C213044   3.587   0.968  15.067 -0.8114  0.8706 -0.0125
  890MPD2    C313045   3.464   0.913  15.081  0.2668 -0.4566 -0.3819
  890MPD2    C413046   3.397   0.902  14.961 -0.4163  0.4364  0.1063
  890MPD2    C513047   3.439   0.970  14.847 -0.1090 -0.2357  0.0538
  890MPD2     H13048   3.651   0.973  15.154  0.5615  0.0719 -0.9732
  890MPD2    H113049   3.301   0.852  14.948  0.3206 -1.1782  0.9542
  890MPD2    H213050   3.582   1.091  14.752 -2.0849  1.6297  0.8992
  890MPD2    H313051   3.382   0.961  14.755 -0.7286  1.8356  0.2552
  890MPD2     N13052   3.416   0.866  15.204  0.1868  0.4610  0.0101
  890MPD2    H513053   3.472   0.876  15.288  1.4000 -2.0754 -0.4848
  890MPD2    N113054   3.742   1.135  14.961 -0.2621 -0.0252  0.4779
  890MPD2    H713055   3.749   1.187  14.874  0.0779 -2.7719 -1.1099
  891MPD2     C13056   1.509   0.125  16.503 -0.2199 -0.2053  0.6832
  891MPD2    C113057   1.451   0.033  16.587  0.5975 -0.3230  0.2019
  891MPD2    C213058   1.511   4.718  16.702 -0.8323  0.9116 -0.6242
  891MPD2    C313059   1.628   0.057  16.743 -0.1028 -0.9478 -0.2293
  891MPD2    C413060   1.679   0.153  16.656 -0.5152 -0.4245  0.0858
  891MPD2    C513061   1.621   0.189  16.539  0.0243 -0.0075 -0.4158
  891MPD2     H13062   1.476   4.640  16.768  2.0696  0.4255  0.3682
  891MPD2    H113063   1.777   0.195  16.680  0.0397 -1.0211 -1.1078
  891MPD2    H213064   1.464   0.147  16.407 -0.4313 -0.4280  0.7279
  891MPD2    H313065   1.670   0.255  16.468  1.4000 -1.6455 -0.9925
  891MPD2     N13066   1.691   0.017  16.869 -0.1792 -0.2405  0.4645
  891MPD2    H513067   1.648   4.663  16.917 -0.5567 -0.0703  0.4046
  891MPD2    N113068   1.329   4.697  16.547  0.5142  0.9052 -0.1603
  891MPD2    H713069   1.289   4.720  16.456 -0.7543 -2.9606 -0.5814
  892MPD2     C13070   2.744   0.715  15.125  0.2615  0.0336  0.0397
  892MPD2    C113071   2.654   0.709  15.026  0.1208  0.2874 -0.7308
  892MPD2    C213072   2.704   0.680  14.902 -0.0832  0.0126 -0.9130
  892MPD2    C313073   2.837   0.655  14.877  0.2688 -0.0788  0.3777
  892MPD2    C413074   2.929   0.668  14.984  0.4194  0.5738 -0.1321
  892MPD2    C513075   2.882   0.703  15.104 -0.5873 -0.5940 -0.2202
  892MPD2     H13076   2.628   0.667  14.826  0.4192 -1.6474 -1.1311
  892MPD2    H113077   3.034   0.663  14.958  0.2645 -0.3457 -0.5700
  892MPD2    H213078   2.710   0.737  15.226 -0.1148  0.1312 -0.1099
  892MPD2    H313079   2.945   0.720  15.191 -0.5195 -0.4938 -0.2887
  892MPD2     N13080   2.887   0.607  14.756  0.0657 -0.4543  0.3499
  892MPD2    H513081   2.989   0.598  14.756 -0.0042 -1.3759 -0.5590
  892MPD2    N113082   2.514   0.717  15.046  0.1367 -0.5326 -0.8414
  892MPD2    H713083   2.458   0.738  14.964 -0.5592  0.1239 -0.2049
  893MPD2     C13084   4.517   0.105   1.459  0.2024 -0.0795 -0.1738
  893MPD2    C113085   4.582   0.064   1.575  0.5923  0.5459  0.1723
  893MPD2    C213086   4.509   0.065   1.696  0.4567  0.0182  0.2067
  893MPD2    C313087   4.375   0.101   1.705  0.1758 -0.1619 -0.5848
  893MPD2    C413088   4.320   0.134   1.585 -0.0747  0.0136 -0.2202
  893MPD2    C513089   4.386   0.142   1.469 -0.3298 -0.0960  0.1694
  893MPD2     H13090   4.549   0.030   1.791 -1.1971 -0.0230  0.8827
  893MPD2    H113091   4.220   0.176   1.573  0.2175  0.2072 -1.9887
  893MPD2    H213092   4.567   0.113   1.362  1.1874  2.9916  0.5703
  893MPD2    H313093   4.330   0.178   1.384 -0.7587  0.7258  0.8041
  893MPD2     N13094   4.295   0.109   1.821 -0.2798 -0.4932 -0.3696
  893MPD2    H513095   4.198   0.136   1.806 -0.2587 -1.2513 -1.8260
  893MPD2    N113096   4.721   0.033   1.567 -0.3415  0.7420  0.3175
  893MPD2    H713097   0.037   0.058   1.478  1.8881 -1.4027  0.7537
  894MPD2     C13098   2.265   1.956   1.729 -0.4750 -0.1560 -0.1949
  894MPD2    C113099   2.363   2.056   1.741 -0.5068  0.3650 -0.7063
  894MPD2    C213100   2.377   2.151   1.638  0.5414  0.1994  0.7299
  894MPD2    C313101   2.287   2.151   1.531  0.1008  1.0424  0.1869
  894MPD2    C413102   2.187   2.058   1.525 -0.1526  0.1727  0.1435
  894MPD2    C513103   2.178   1.959   1.619 -0.4473  0.4552  0.0318
  894MPD2     H13104   2.447   2.234   1.645 -0.2987  0.7645  2.4916
  894MPD2    H113105   2.112   2.059   1.446 -0.7855  1.6955  0.7557
  894MPD2    H213106   2.240   1.886   1.807  0.9089 -0.2016  0.2115
  894MPD2    H313107   2.101   1.885   1.602 -0.6632  1.4736 -3.4553
  894MPD2     N13108   2.307   2.256   1.444 -0.3538  0.3807 -0.3597
  894MPD2    H513109   2.382   2.323   1.459 -2.5592  2.4480  1.4624
  894MPD2    N113110   2.456   2.054   1.842  0.4330  0.3359  0.6630
  894MPD2    H713111   2.531   2.122   1.838  0.9285 -0.1936  1.0072
  895MPD2     C13112   2.036   4.513  13.841 -0.2181 -0.5437  0.5435
  895MPD2    C113113   2.063   4.596  13.732 -0.4388 -0.2898  0.0745
  895MPD2    C213114   2.156   4.553  13.637  0.7334  0.4868 -0.4630
  895MPD2    C313115   2.220   4.430  13.644 -0.4893  0.1223  0.1531
  895MPD2    C413116   2.199   4.354  13.757  0.5865  0.0402 -0.0159
  895MPD2    C513117   2.111   4.393  13.852  0.0731  0.3425  0.3441
  895MPD2     H13118   2.163   4.615  13.548  0.0902 -1.4789 -1.8907
  895MPD2    H113119   2.253   4.262  13.774  0.4772 -0.2377 -1.2330
  895MPD2    H213120   1.964   4.550  13.913 -2.8079  2.0415 -3.4064
  895MPD2    H313121   2.098   4.342  13.947 -2.0111 -0.6784 -0.5029
  895MPD2     N13122   2.307   4.373  13.543  0.5847  0.1564 -0.4484
  895MPD2    H513123   2.329   4.274  13.549 -0.7076 -0.0874  0.4464
  895MPD2    N113124   1.992   4.718  13.712  0.9886  0.5767  0.0344
  895MPD2    H713125   2.020   0.039  13.626  0.4988  0.4872 -0.1716
  896MPD2     C13126   3.333   3.244   1.366 -0.1792 -0.0337 -0.0846
  896MPD2    C113127   3.404   3.210   1.257  0.0372 -0.3737  0.1733
  896MPD2    C213128   3.362   3.110   1.178 -0.1563 -0.3075 -0.4825
  896MPD2    C313129   3.237   3.052   1.191  0.0708 -0.2772  0.2608
  896MPD2    C413130   3.166   3.082   1.299  0.2801  0.2631  0.5140
  896MPD2    C513131   3.222   3.164   1.395  0.4303  0.6097  0.5114
  896MPD2     H13132   3.442   3.072   1.116  1.0328  0.4914  0.5574
  896MPD2    H113133   3.065   3.045   1.306 -0.3543  1.5912 -2.0424
  896MPD2    H213134   3.369   3.323   1.431  1.7198 -1.9885  1.2141
  896MPD2    H313135   3.161   3.183   1.482 -0.5832  1.8090 -0.4653
  896MPD2     N13136   3.188   2.944   1.107  0.6585  0.6614  0.2098
  896MPD2    H513137   3.104   2.894   1.133  1.2434 -0.4762 -0.0604
  896MPD2    N113138   3.524   3.274   1.229 -0.2441 -0.8864 -0.6535
  896MPD2    H713139   3.564   3.328   1.305 -3.9502 -0.0510  0.7139
  897MPD2     C13140   0.873   3.653  11.074 -0.6219 -0.3738  0.3714
  897MPD2    C113141   0.780   3.749  11.031 -0.1734  0.0420  0.9557
  897MPD2    C213142   0.665   3.769  11.099  0.6984  0.6662  0.7232
  897MPD2    C313143   0.639   3.707  11.220 -0.4218 -0.6011  0.0047
  897MPD2    C413144   0.725   3.608  11.261  0.1678 -0.2551  0.0478
  897MPD2    C513145   0.840   3.580  11.186 -0.1307  0.5990 -0.2562
  897MPD2     H13146   0.602   3.854  11.075  0.9995  0.3934 -1.0107
  897MPD2    H113147   0.705   3.540  11.343  1.7604 -0.8130 -0.0451
  897MPD2    H213148   0.960   3.636  11.012 -0.6773  1.0931 -0.1014
  897MPD2    H313149   0.905   3.498  11.214 -0.1193  0.7485  0.1461
  897MPD2     N13150   0.517   3.740  11.295  0.7131  0.2055  0.2284
  897MPD2    H513151   0.461   3.807  11.244 -1.2753 -0.0897  1.9828
  897MPD2    N113152   0.819   3.823  10.916 -0.2707 -0.4945  0.5270
  897MPD2    H713153   0.902   3.777  10.880  0.0199  0.6943 -0.3127
  898MPD2     C13154   1.757   0.984   1.094 -0.8218 -0.3211  0.3174
  898MPD2    C113155   1.860   0.927   1.014  0.0973  0.3442 -0.4753
  898MPD2    C213156   1.858   0.935   0.875  0.1986 -0.9279 -0.6961
  898MPD2    C313157   1.755   1.004   0.816 -0.9439  0.4177 -0.2825
  898MPD2    C413158   1.657   1.065   0.898  0.5657  0.1462 -0.0252
  898MPD2    C513159   1.650   1.046   1.033  0.2432  0.5794 -0.3912
  898MPD2     H13160   1.943   0.894   0.821 -0.3761  2.7592 -4.4605
  898MPD2    H113161   1.576   1.121   0.851  0.1291 -0.6653 -0.2306
  898MPD2    H213162   1.756   0.971   1.202  1.3876  0.5121  0.4482
  898MPD2    H313163   1.568   1.082   1.094 -0.5083 -0.4868 -0.7667
  898MPD2     N13164   1.763   1.019   0.675  0.4377 -1.2949  0.0558
  898MPD2    H513165   1.829   0.960   0.626  0.4320  1.1138 -2.8268
  898MPD2    N113166   1.968   0.851   1.066 -0.5263  0.1640 -0.3096
  898MPD2    H713167   2.028   0.813   0.994 -0.6672 -0.7080  0.0357
  899MPD2     C13168   3.031   1.011   0.601  0.7646 -0.9193  0.5472
  899MPD2    C113169   2.962   1.098   0.522 -0.0201 -0.0725 -0.2347
  899MPD2    C213170   2.857   1.171   0.577  0.0936  0.3723  0.3333
  899MPD2    C313171   2.823   1.141   0.707 -0.5079 -0.2456 -0.2496
  899MPD2    C413172   2.891   1.051   0.782 -0.7243  0.2527  0.0172
  899MPD2    C513173   3.002   0.992   0.730 -0.0653 -0.5494 -0.0830
  899MPD2     H13174   2.801   1.249   0.526  0.5225  1.4705  1.5415
  899MPD2    H113175   2.855   1.030   0.882  0.0518 -2.7756 -0.3466
  899MPD2    H213176   3.104   0.948   0.551  1.2122  0.3168 -0.3784
  899MPD2    H313177   3.063   0.913   0.770  0.5664 -1.1060 -2.1252
  899MPD2     N13178   2.714   1.189   0.778 -0.0362 -0.6474 -0.2134
  899MPD2    H513179   2.706   1.146   0.870  0.5600  1.4640  0.8195
  899MPD2    N113180   3.008   1.108   0.384  0.1709 -0.1978  0.8839
  899MPD2    H713181   3.087   1.052   0.355  0.2230  0.2729  0.1134
  900MPD2     C13182   2.869   2.632  12.833  0.2672  0.3806 -0.2200
  900MPD2    C113183   2.877   2.528  12.746 -0.0774 -0.2281 -0.0680
  900MPD2    C213184   2.786   2.517  12.644 -0.0485  0.0578  0.0780
  900MPD2    C313185   2.680   2.605  12.635 -0.0669 -0.3081 -0.5103
  900MPD2    C413186   2.671   2.704  12.726  1.0402  0.0429  1.0212
  900MPD2    C513187   2.767   2.725  12.826  0.6824  0.0459 -0.1574
  900MPD2     H13188   2.797   2.436  12.573  1.7996  0.1865  0.2097
  900MPD2    H113189   2.588   2.773  12.713  0.9016 -0.4492 -0.7045
  900MPD2    H213190   2.950   2.637  12.904  1.4102  1.5890 -1.5972
  900MPD2    H313191   2.760   2.804  12.899 -0.1739 -2.1347  2.1454
  900MPD2     N13192   2.594   2.597  12.524 -0.1051 -0.1611  0.0425
  900MPD2    H513193   2.600   2.517  12.462  1.7382  0.0145  0.0169
  900MPD2    N113194   2.974   2.431  12.776 -0.0149 -0.2415 -0.2241
  900MPD2    H713195   3.026   2.443  12.861  0.2055  0.1214 -0.4115
  901MPD2     C13196   3.125   1.671  13.412  0.1922 -1.3275  0.1183
  901MPD2    C113197   3.174   1.622  13.293 -0.0463 -0.4381  1.2720
  901MPD2    C213198   3.159   1.705  13.188  0.1618 -0.2427 -0.3498
  901MPD2    C313199   3.115   1.840  13.197  0.0493 -0.2722  0.3818
  901MPD2    C413200   3.069   1.880  13.319  0.1132  0.0806  0.6413
  901MPD2    C513201   3.076   1.794  13.426  0.6314 -0.3545 -0.4828
  901MPD2     H13202   3.189   1.674  13.088  0.0317 -1.8098  0.1118
  901MPD2    H113203   3.038   1.982  13.338 -0.2494  0.9169 -4.5147
  901MPD2    H213204   3.110   1.610  13.500 -0.5113 -1.1060  0.1534
  901MPD2    H313205   3.040   1.839  13.518  1.2526 -0.4547 -0.1885
  901MPD2     N13206   3.114   1.920  13.075 -0.5121  0.5451  0.1726
  901MPD2    H513207   3.139   1.872  12.989 -0.1026 -0.8281  1.0515
  901MPD2    N113208   3.227   1.491  13.298  0.2907  0.2663  0.1747
  901MPD2    H713209   3.235   1.440  13.385 -0.2654  0.1443  0.1570
  902MPD2     C13210   2.518   0.379  13.057 -0.3792 -0.2254  0.3327
  902MPD2    C113211   2.417   0.467  13.019  0.3183 -0.2454 -0.3267
  902MPD2    C213212   2.409   0.525  12.895  0.3374  0.5928  0.5152
  902MPD2    C313213   2.509   0.494  12.803 -0.2598  0.9709  0.0727
  902MPD2    C413214   2.591   0.392  12.838 -0.2739 -0.0539 -0.1851
  902MPD2    C513215   2.605   0.349  12.961  0.6714 -0.1476  0.3787
  902MPD2     H13216   2.344   0.611  12.888 -0.9573 -0.5436 -1.2637
  902MPD2    H113217   2.653   0.338  12.767 -0.3449 -0.5180  0.1034
  902MPD2    H213218   2.537   0.350  13.160  0.9110  0.6228  0.3359
  902MPD2    H313219   2.673   0.269  12.988 -0.5675 -1.2800  0.1616
  902MPD2     N13220   2.504   0.535  12.668 -0.4076  0.0956  0.2236
  902MPD2    H513221   2.555   0.477  12.602 -1.7412 -0.0567 -0.6937
  902MPD2    N113222   2.316   0.514  13.107 -0.3674  0.3980  0.0177
  902MPD2    H713223   2.259   0.589  13.070  0.0174 -0.1682 -1.7620
  903MPD2     C13224   1.903   0.863  12.198  0.0202 -0.2785  0.0187
  903MPD2    C113225   2.002   0.788  12.130  0.4723  0.2489  0.8895
  903MPD2    C213226   1.970   0.704  12.020  0.4566 -0.0984 -0.2151
  903MPD2    C313227   1.839   0.689  11.984  0.2913 -0.2175 -0.5547
  903MPD2    C413228   1.744   0.768  12.036  0.3400  0.0465 -0.5987
  903MPD2    C513229   1.776   0.855  12.144 -0.1160  0.0638  0.2780
  903MPD2     H13230   2.042   0.646  11.962 -0.1813 -2.5518  1.4428
  903MPD2    H113231   1.641   0.760  12.003  0.9266 -2.5571 -1.7592
  903MPD2    H213232   1.919   0.929  12.282  0.9928 -0.6853  0.1556
  903MPD2    H313233   1.685   0.900  12.183  0.2822  1.0305  0.0750
  903MPD2     N13234   1.813   0.582  11.896  0.2269 -0.8846  0.4621
  903MPD2    H513235   1.892   0.529  11.860  0.5450 -2.0631  2.8856
  903MPD2    N113236   2.136   0.783  12.169 -0.0071 -0.5785 -0.3225
  903MPD2    H713237   2.194   0.711  12.127 -1.4458 -1.9049 -0.0030
  904MPD2     C13238   1.538   3.919  13.966  0.6215  0.8258 -0.6919
  904MPD2    C113239   1.629   4.017  13.929 -0.1401 -0.3314 -0.9305
  904MPD2    C213240   1.761   3.992  13.930 -0.3365  0.0607  0.1038
  904MPD2    C313241   1.811   3.870  13.966  0.2281  0.6713 -0.3306
  904MPD2    C413242   1.725   3.765  13.979  0.2201  0.4278  0.0335
  904MPD2    C513243   1.592   3.790  13.979  0.7392 -0.4475 -0.6576
  904MPD2     H13244   1.818   4.082  13.906  1.3439 -0.3687  2.4909
  904MPD2    H113245   1.758   3.662  13.984 -1.2309 -0.0134  0.6252
  904MPD2    H213246   1.430   3.924  13.967  0.6893  2.4336 -1.4796
  904MPD2    H313247   1.520   3.712  14.000  0.9932 -0.4525  0.2022
  904MPD2     N13248   1.947   3.858  13.990  0.2954  0.3508  0.3238
  904MPD2    H513249   2.001   3.944  13.985 -1.1952  1.2635 -0.2779
  904MPD2    N113250   1.593   4.149  13.901  0.4831  0.4105 -0.0104
  904MPD2    H713251   1.678   4.204  13.891  0.9513 -0.5175 -1.2125
  905MPD2     C13252   1.711   4.701  13.455  0.2367 -0.4789 -0.1111
  905MPD2    C113253   1.758   4.583  13.506  0.9597  0.1395  0.0119
  905MPD2    C213254   1.835   4.506  13.423  0.0444  0.1797  0.0130
  905MPD2    C313255   1.888   4.552  13.300 -0.2724  0.0399  0.1471
  905MPD2    C413256   1.844   4.677  13.257  0.8763  0.3710  0.1691
  905MPD2    C513257   1.749   0.019  13.330 -0.2693 -0.4137  0.1870
  905MPD2     H13258   1.879   4.415  13.462  2.1588  1.0661 -0.3018
  905MPD2    H113259   1.877   4.714  13.160 -0.5506 -0.9804 -0.8305
  905MPD2    H213260   1.648   0.040  13.516  0.7069  1.2757 -1.4613
  905MPD2    H313261   1.729   0.117  13.288 -2.7884 -1.8002 -1.8070
  905MPD2     N13262   1.972   4.476  13.214 -0.3697 -0.0797 -0.2292
  905MPD2    H513263   1.998   4.524  13.128  0.2719  0.0736  0.0534
  905MPD2    N113264   1.715   4.535  13.630 -0.3681 -0.2795 -0.6361
  905MPD2    H713265   1.748   4.443  13.657  1.5157  0.0432 -1.9050
  906MPD2     C13266   3.896   4.209  11.593 -0.5766  0.0641 -0.6149
  906MPD2    C113267   3.896   4.098  11.516  0.2303  0.6141 -0.1880
  906MPD2    C213268   3.832   3.985  11.558 -0.3698  0.2792  0.1037
  906MPD2    C313269   3.777   3.971  11.677  0.0315  0.3187 -0.0735
  906MPD2    C413270   3.784   4.079  11.761 -0.0682 -0.1307  0.1763
  906MPD2    C513271   3.846   4.197  11.721  0.5535 -0.1106  0.8422
  906MPD2     H13272   3.819   3.903  11.489 -0.0125 -0.3189  0.7468
  906MPD2    H113273   3.728   4.079  11.854 -1.5755  2.9892 -0.7484
  906MPD2    H213274   3.940   4.303  11.564  1.3443 -0.6517  0.0468
  906MPD2    H313275   3.842   4.280  11.790  2.9262  0.0589  0.7613
  906MPD2     N13276   3.694   3.855  11.705  0.0041  0.2163  0.0090
  906MPD2    H513277   3.670   3.796  11.626  0.2467 -0.2389  0.2789
  906MPD2    N113278   3.951   4.087  11.386 -0.0520 -0.1077 -0.1431
  906MPD2    H713279   3.941   4.005  11.327  1.2636  0.2811 -0.9106
  907MPD2     C13280   2.297   3.272  15.728 -0.0374  0.5394  0.4154
  907MPD2    C113281   2.343   3.142  15.706 -0.3869  0.0732  0.2373
  907MPD2    C213282   2.434   3.085  15.796 -0.4822 -0.1483 -0.5782
  907MPD2    C313283   2.483   3.145  15.911 -0.2996  0.5299 -0.2364
  907MPD2    C413284   2.435   3.277  15.934 -0.1548 -0.0996 -0.2114
  907MPD2    C513285   2.354   3.334  15.837  0.2417 -0.4480  0.3672
  907MPD2     H13286   2.473   2.987  15.773 -0.6870 -0.3690  0.0188
  907MPD2    H113287   2.452   3.340  16.021 -0.6427  4.0216 -3.1181
  907MPD2    H213288   2.231   3.319  15.657 -0.7334 -0.1807  0.5850
  907MPD2    H313289   2.319   3.430  15.871  0.8195 -0.8137  1.9685
  907MPD2     N13290   2.564   3.071  16.000 -0.2429  0.0055 -0.2256
  907MPD2    H513291   2.595   2.977  15.979  0.8593  0.0746  1.0669
  907MPD2    N113292   2.325   3.073  15.579 -0.2739  0.4209 -1.0929
  907MPD2    H713293   2.371   2.987  15.552  1.0992  0.8122  0.0001
  908MPD2     C13294   1.130   3.502  10.170 -0.7107  0.0341 -1.0156
  908MPD2    C113295   1.029   3.459  10.255  0.5652  0.0620 -0.0238
  908MPD2    C213296   0.979   3.552  10.340 -0.5548  0.0819  0.0257
  908MPD2    C313297   1.015   3.685  10.339 -0.2083 -0.0323 -0.0735
  908MPD2    C413298   1.115   3.725  10.257 -0.2371  0.4139  0.9164
  908MPD2    C513299   1.166   3.635  10.171  0.0351 -0.0189 -0.4237
  908MPD2     H13300   0.911   3.513  10.415  1.1019 -1.6653  0.6430
  908MPD2    H113301   1.143   3.827  10.232  0.3133 -0.0714 -0.4298
  908MPD2    H213302   1.174   3.423  10.111  2.1232 -0.8872  2.3730
  908MPD2    H313303   1.243   3.666  10.101 -1.2406  0.0497 -1.7980
  908MPD2     N13304   0.959   3.779  10.427 -0.4163 -0.1336 -0.3506
  908MPD2    H513305   0.912   3.740  10.509  0.9024 -1.3500 -0.1613
  908MPD2    N113306   0.989   3.322  10.241  0.2426  0.6595 -0.7128
  908MPD2    H713307   1.020   3.276  10.155  0.8574 -1.3129  0.5645
  909MPD2     C13308   0.947   1.480  11.861  0.1332  0.2561  0.4096
  909MPD2    C113309   0.988   1.606  11.824  0.6208  0.2513  0.3597
  909MPD2    C213310   0.925   1.716  11.883 -0.2053  0.2561 -0.1590
  909MPD2    C313311   0.843   1.710  11.993  0.6989  0.0598  0.3820
  909MPD2    C413312   0.822   1.583  12.040  0.1419 -0.1137  0.0321
  909MPD2    C513313   0.863   1.469  11.974  0.2294  0.1067  0.0053
  909MPD2     H13314   0.953   1.811  11.839 -0.8676 -0.0842 -1.3073
  909MPD2    H113315   0.758   1.559  12.124  1.6499  1.3059  1.5935
  909MPD2    H213316   0.968   1.387  11.810  2.1679  0.9363 -0.0038
  909MPD2    H313317   0.828   1.369  11.995  1.4983 -0.0498  1.3694
  909MPD2     N13318   0.784   1.829  12.044  0.3145 -0.5319 -0.6977
  909MPD2    H513319   0.803   1.917  11.997  0.0460  0.6500  1.4257
  909MPD2    N113320   1.075   1.631  11.717 -0.5924 -0.0264  0.2584
  909MPD2    H713321   1.093   1.729  11.697 -0.4939  0.0270  0.6060
  910MPD2     C13322   2.072   3.728  16.058 -0.2623 -0.0110 -0.3031
  910MPD2    C113323   2.072   3.604  16.006 -0.8724  0.2808 -0.2795
  910MPD2    C213324   2.060   3.591  15.871 -0.0370 -0.0760  0.0049
  910MPD2    C313325   2.054   3.695  15.781 -1.0284 -0.3154 -0.0882
  910MPD2    C413326   2.059   3.817  15.840  0.2766  0.7274  0.8372
  910MPD2    C513327   2.064   3.832  15.977  0.4771 -0.0157 -0.1098
  910MPD2     H13328   2.052   3.488  15.836  1.7455 -1.2486  3.0393
  910MPD2    H113329   2.044   3.913  15.791  0.5949  0.5472  0.3855
  910MPD2    H213330   2.087   3.737  16.165  1.1239 -0.8939 -0.4262
  910MPD2    H313331   2.070   3.931  16.021 -0.9046 -0.9904  2.2603
  910MPD2     N13332   2.035   3.684  15.640  0.1947  0.2679 -0.2696
  910MPD2    H513333   2.026   3.769  15.586 -1.7353  1.0366  1.2504
  910MPD2    N113334   2.096   3.488  16.080  0.2250 -0.1949 -0.0920
  910MPD2    H713335   2.110   3.404  16.025 -0.5717 -0.9619  0.8840
  911MPD2     C13336   4.435   4.206  16.514  0.5868  0.0793  1.0377
  911MPD2    C113337   4.455   4.320  16.583 -0.1674  0.1070 -0.5410
  911MPD2    C213338   4.358   4.419  16.590  0.3564  0.4516  0.6050
  911MPD2    C313339   4.246   4.417  16.514  0.4137  0.1012  0.1237
  911MPD2    C413340   4.236   4.311  16.427 -0.0277 -1.2293 -0.4594
  911MPD2    C513341   4.320   4.205  16.434  0.1091  0.6469  0.1625
  911MPD2     H13342   4.370   4.504  16.657  1.3712  1.4044 -0.7890
  911MPD2    H113343   4.158   4.293  16.353 -0.9603  0.5152  0.0762
  911MPD2    H213344   4.496   4.117  16.515  0.7554  0.1344 -2.1864
  911MPD2    H313345   4.301   4.109  16.387  1.1178  0.7223 -0.4149
  911MPD2     N13346   4.154   4.526  16.500 -0.3673 -0.5026 -0.5764
  911MPD2    H513347   4.079   4.517  16.432 -0.7152  0.4142 -0.3074
  911MPD2    N113348   4.579   4.320  16.658  0.1420 -0.2106  0.4277
  911MPD2    H713349   4.629   4.232  16.660 -0.4436 -0.5224  1.1782
  912MPD2     C13350   3.996   4.437  15.997 -0.8385 -0.1979 -0.1356
  912MPD2    C113351   3.948   4.414  16.119 -0.0827 -0.0626 -0.1610
  912MPD2    C213352   3.957   4.293  16.186 -0.7833  0.1096  0.4860
  912MPD2    C313353   4.036   4.192  16.135 -0.3517 -0.2053 -0.4835
  912MPD2    C413354   4.101   4.213  16.012 -0.1023 -0.1511  0.0744
  912MPD2    C513355   4.075   4.331  15.943 -0.0818 -0.1988  0.3184
  912MPD2     H13356   3.914   4.274  16.284 -1.6358  1.9943  0.4753
  912MPD2    H113357   4.164   4.139  15.964 -1.0635  0.0290 -1.5013
  912MPD2    H213358   3.983   4.531  15.945  0.5710  0.0393 -0.0576
  912MPD2    H313359   4.104   4.350  15.840  1.7286 -0.8456  0.7117
  912MPD2     N13360   4.056   4.077  16.212  0.1168 -0.0030  0.4972
  912MPD2    H513361   3.996   4.081  16.294 -0.3070  1.3090  0.1257
  912MPD2    N113362   3.901   4.537  16.181 -0.0971 -0.0195  0.0170
  912MPD2    H713363   3.894   4.623  16.128 -1.0869  2.2390  3.8305
  913MPD2     C13364   0.066   0.325  10.173 -0.1676 -0.4399  0.0800
  913MPD2    C113365   0.190   0.360  10.238  0.7523  0.3643 -0.7789
  913MPD2    C213366   0.268   0.462  10.183  0.1955 -0.0463  0.3251
  913MPD2    C313367   0.219   0.532  10.072  0.2649 -0.0872  0.5016
  913MPD2    C413368   0.104   0.496  10.009  0.8413 -0.0088  0.1939
  913MPD2    C513369   0.023   0.404  10.067 -0.0758  0.7160 -0.0277
  913MPD2     H13370   0.357   0.501  10.231 -0.5051  0.3959  1.2974
  913MPD2    H113371   0.073   0.549   9.920  1.6520 -0.0069 -0.0803
  913MPD2    H213372   0.006   0.246  10.217 -1.3845 -0.0328 -0.8651
  913MPD2    H313373   4.651   0.371  10.032 -0.6193  0.0535  2.0818
  913MPD2     N13374   0.294   0.641  10.017 -0.2840 -0.7270 -0.0484
  913MPD2    H513375   0.273   0.663   9.920  3.1433 -0.9463 -0.8422
  913MPD2    N113376   0.215   0.299  10.364 -0.3666  0.1826 -0.3104
  913MPD2    H713377   0.152   0.228  10.398  2.7671 -1.6052  1.8030
  914MPD2     C13378   3.575   1.126  12.459  0.5270  0.4646 -0.0257
  914MPD2    C113379   3.553   1.248  12.524 -0.2027  0.1825 -0.0027
  914MPD2    C213380   3.538   1.262  12.661  0.2456  0.3779  0.5529
  914MPD2    C313381   3.530   1.146  12.735 -0.5858  0.5217  0.6191
  914MPD2    C413382   3.550   1.022  12.680  0.5355  0.1090 -0.5808
  914MPD2    C513383   3.577   1.017  12.545  0.7794 -0.9568 -0.0551
  914MPD2     H13384   3.539   1.359  12.709 -0.9524  0.9477 -0.5705
  914MPD2    H113385   3.556   0.933  12.742 -1.4244  0.6958  0.4423
  914MPD2    H213386   3.585   1.105  12.353 -0.2094  0.3877 -0.0832
  914MPD2    H313387   3.608   0.924  12.498 -0.0590 -1.3016  0.0604
  914MPD2     N13388   3.492   1.162  12.875  0.0303  0.2341  0.0570
  914MPD2    H513389   3.486   1.258  12.906  2.9706  0.7928 -1.0703
  914MPD2    N113390   3.550   1.361  12.435 -0.1027 -0.5060 -0.1471
  914MPD2    H713391   3.566   1.344  12.336 -1.2424 -0.7357 -0.2901
  915MPD2     C13392   1.043   1.113  15.917  0.0112 -0.6950  1.2627
  915MPD2    C113393   0.918   1.147  15.896 -0.6212  0.2702  0.2699
  915MPD2    C213394   0.841   1.200  16.003 -0.3150 -0.1047  0.0343
  915MPD2    C313395   0.896   1.230  16.123 -0.1672 -0.8682 -0.8544
  915MPD2    C413396   1.027   1.197  16.144 -0.6572 -0.2803 -0.1504
  915MPD2    C513397   1.099   1.132  16.042 -0.1519  0.3538  0.3353
  915MPD2     H13398   0.733   1.207  15.991 -0.3337  0.8770  0.7556
  915MPD2    H113399   1.087   1.211  16.234 -1.3411 -0.6521  0.3626
  915MPD2    H213400   1.113   1.070  15.847 -1.0301 -0.9849  0.3931
  915MPD2    H313401   1.205   1.111  16.054  0.0087  0.9765 -0.0110
  915MPD2     N13402   0.805   1.263  16.229  0.0923 -0.0368 -0.1790
  915MPD2    H513403   0.707   1.265  16.202 -0.3546 -0.4618  1.4450
  915MPD2    N113404   0.853   1.110  15.774 -0.0841  0.0850  0.4234
  915MPD2    H713405   0.752   1.123  15.771 -0.0831 -0.4440 -2.1531
  916MPD2     C13406   3.715   4.149  16.045  0.2585 -0.0421  0.3560
  916MPD2    C113407   3.710   4.037  16.126  0.5033  0.0036  0.1355
  916MPD2    C213408   3.784   3.922  16.094  0.1386  0.0223  0.1822
  916MPD2    C313409   3.862   3.925  15.981  0.3994  0.2613  1.2869
  916MPD2    C413410   3.870   4.033  15.896 -0.0066 -0.5259  0.0077
  916MPD2    C513411   3.799   4.144  15.933 -0.1557 -0.1269 -0.3457
  916MPD2     H13412   3.790   3.830  16.151 -2.5260 -0.7028 -0.6736
  916MPD2    H113413   3.936   4.052  15.812 -1.7889  3.7926 -0.4353
  916MPD2    H213414   3.661   4.240  16.071  0.0294  0.4663 -1.9079
  916MPD2    H313415   3.802   4.227  15.864 -1.9284  1.4945  1.5184
  916MPD2     N13416   3.940   3.810  15.971 -0.5176  0.4807  0.1440
  916MPD2    H513417   3.921   3.727  16.027  0.3183  0.3479  0.2301
  916MPD2    N113418   3.643   4.055  16.245 -0.3102  0.2397 -0.0886
  916MPD2    H713419   3.583   4.137  16.247  0.2285  0.6300  0.4076
  917MPD2     C13420   4.350   1.217  11.262 -0.9478 -0.5306 -1.4475
  917MPD2    C113421   4.347   1.307  11.371 -0.3461 -0.8354  0.4833
  917MPD2    C213422   4.413   1.426  11.354  0.0167 -0.4156 -0.5148
  917MPD2    C313423   4.474   1.454  11.231 -0.2369  0.3050 -0.6814
  917MPD2    C413424   4.467   1.369  11.121  0.2406 -0.0798 -0.1118
  917MPD2    C513425   4.405   1.249  11.144 -0.1138 -0.3727  0.7320
  917MPD2     H13426   4.400   1.504  11.428  0.9962 -0.7721  0.0282
  917MPD2    H113427   4.519   1.397  11.030 -0.0259  2.9617  0.6962
  917MPD2    H213428   4.308   1.117  11.263 -0.4117 -0.7516 -0.8679
  917MPD2    H313429   4.408   1.170  11.070  0.8231  1.0130 -0.6979
  917MPD2     N13430   4.522   1.587  11.207 -1.5310  0.4568 -0.3873
  917MPD2    H513431   4.522   1.618  11.110  0.2397 -2.2622 -1.2533
  917MPD2    N113432   4.274   1.273  11.491 -0.4206  0.0186  0.2114
  917MPD2    H713433   4.219   1.187  11.493 -2.0850  1.0566 -0.5354
  918MPD2     C13434   4.364   1.634  12.432  0.1240 -0.8284 -0.2527
  918MPD2    C113435   4.460   1.605  12.340 -0.0874 -0.4679 -0.2314
  918MPD2    C213436   4.412   1.548  12.221  0.7090  0.4471 -0.0435
  918MPD2    C313437   4.274   1.528  12.198 -0.3239 -0.3441 -0.3735
  918MPD2    C413438   4.187   1.559  12.295  0.2115 -0.4013  0.3203
  918MPD2    C513439   4.228   1.617  12.413  0.6495  0.3537 -0.9896
  918MPD2     H13440   4.492   1.523  12.152  0.4663 -2.6422  0.7813
  918MPD2    H113441   4.081   1.552  12.276 -0.3871  3.4038  2.3907
  918MPD2    H213442   4.400   1.672  12.527 -0.5405 -0.5117 -0.1313
  918MPD2    H313443   4.156   1.641  12.490  1.2748  0.8228 -0.5434
  918MPD2     N13444   4.232   1.460  12.082 -0.2653 -0.1115  1.1122
  918MPD2    H513445   4.300   1.457  12.008 -0.0393 -1.1911  1.3627
  918MPD2    N113446   4.602   1.610  12.365 -0.1869 -0.7924 -0.1086
  918MPD2    H713447   4.663   1.573  12.293  0.7049 -0.6311  0.5686
  919MPD2     C13448   4.579   0.577  11.946  0.1418  0.1497  0.0351
  919MPD2    C113449   4.701   0.524  11.908 -0.7354  0.0974  0.7767
  919MPD2    C213450   4.703   0.476  11.781 -0.2408 -0.1361 -0.3263
  919MPD2    C313451   4.594   0.482  11.694 -0.6351  0.0847 -0.0751
  919MPD2    C413452   4.474   0.536  11.735  0.1395 -0.1355 -0.0485
  919MPD2    C513453   4.473   0.564  11.866 -0.2724  0.2290 -0.8906
  919MPD2     H13454   0.071   0.431  11.747  0.1650 -0.1528  0.7920
  919MPD2    H113455   4.393   0.539  11.664 -1.0660 -1.3862  1.2803
  919MPD2    H213456   4.565   0.638  12.035  2.2618 -0.8210  1.0420
  919MPD2    H313457   4.389   0.624  11.899 -0.1098  0.9180 -1.7606
  919MPD2     N13458   4.592   0.423  11.565  0.3808 -0.5059  0.4857
  919MPD2    H513459   4.510   0.439  11.508  1.0171 -0.8189 -0.5101
  919MPD2    N113460   0.092   0.533  11.987 -0.5425  0.2172 -0.0091
  919MPD2    H713461   0.178   0.517  11.937 -0.0050 -2.0897  1.6531
  920MPD2     C13462   0.239   0.689  10.666  0.0454 -0.2312  0.1591
  920MPD2    C113463   0.112   0.637  10.643 -0.1382  0.1524 -0.2327
  920MPD2    C213464   0.055   0.564  10.743  0.1818  0.6508  0.2809
  920MPD2    C313465   0.122   0.534  10.857  0.5274  0.0043  0.5332
  920MPD2    C413466   0.254   0.577  10.868 -0.1336 -0.2327  0.4517
  920MPD2    C513467   0.313   0.656  10.779 -0.2344  0.0975  0.6885
  920MPD2     H13468   4.681   0.520  10.732  1.0814 -0.2851 -3.8499
  920MPD2    H113469   0.315   0.542  10.950  0.5980  1.7418  0.7536
  920MPD2    H213470   0.281   0.765  10.601 -2.8592  0.7694 -0.5319
  920MPD2    H313471   0.409   0.699  10.801  1.1354 -2.0467 -1.1150
  920MPD2     N13472   0.061   0.446  10.950 -0.3782  1.0184 -0.4361
  920MPD2    H513473   4.692   0.421  10.920 -0.3948  0.2226  0.2837
  920MPD2    N113474   0.045   0.654  10.522 -0.0729  0.0917  0.0921
  920MPD2    H713475   4.688   0.598  10.502 -0.6187  0.1817  2.0319
  921MPD2     C13476   0.722   0.042  17.067  0.4568  0.9290 -0.4817
  921MPD2    C113477   0.707   4.715  16.945  0.4083 -0.2643  1.0931
  921MPD2    C213478   0.595   4.631  16.921  0.0082  0.4836  0.2956
  921MPD2    C313479   0.492   4.616  17.008  0.0589  0.7813  0.2345
  921MPD2    C413480   0.500   4.679  17.131  0.8997  0.3369 -0.3795
  921MPD2    C513481   0.621   0.026  17.165  0.9840  0.1167  0.3064
  921MPD2     H13482   0.580   4.569  16.833  1.0374  1.6422 -0.6990
  921MPD2    H113483   0.421   4.681  17.205  1.0574  1.4776 -0.2402
  921MPD2    H213484   0.799   0.117  17.085  2.8419 -1.5252 -0.4862
  921MPD2    H313485   0.623   0.072  17.263  0.0175 -0.4711  0.5973
  921MPD2     N13486   0.379   4.547  16.957  1.1193  0.0867  0.1999
  921MPD2    H513487   0.386   4.515  16.861 -0.6633 -2.4264  0.8874
  921MPD2    N113488   0.806   0.013  16.840 -0.0571  0.9444 -0.7488
  921MPD2    H713489   0.883   0.074  16.862  0.1679  0.5228 -0.3767
  922MPD2     C13490   1.882   2.423  17.198 -0.0903 -0.1003  0.0614
  922MPD2    C113491   1.862   2.534  17.276  0.1231 -0.2417 -0.5733
  922MPD2    C213492   1.830   2.521  17.410 -0.0057 -0.0242  0.7651
  922MPD2    C313493   1.805   2.393  17.465  0.0918 -0.0442  0.2326
  922MPD2    C413494   1.821   2.282  17.383 -0.6868 -0.0436 -0.5092
  922MPD2    C513495   1.858   2.299  17.252 -0.0278 -0.1776 -0.3043
  922MPD2     H13496   1.814   2.614  17.463  1.8702 -0.7426  2.5939
  922MPD2    H113497   1.815   2.180  17.418 -2.0508 -0.3735 -1.6907
  922MPD2    H213498   1.898   2.430  17.091  1.3896 -2.3847  0.1182
  922MPD2    H313499   1.880   2.216  17.185 -0.0600 -0.0610 -0.4595
  922MPD2     N13500   1.783   2.387  17.603  0.0524 -0.1543  0.3899
  922MPD2    H513501   1.769   2.480  17.641 -2.3531 -1.3127  2.2967
  922MPD2    N113502   1.875   2.662  17.225 -0.7224 -0.2704  0.5583
  922MPD2    H713503   1.870   2.731  17.300 -1.5263  0.6883 -0.3785
  923MPD2     C13504   3.633   4.201   9.275  0.2551  0.3894  0.3729
  923MPD2    C113505   3.599   4.282   9.383 -0.0029  0.0711 -0.5213
  923MPD2    C213506   3.653   4.256   9.509 -0.6993 -0.0687  0.1605
  923MPD2    C313507   3.732   4.149   9.530  0.3481  0.3732 -0.0751
  923MPD2    C413508   3.767   4.068   9.425 -0.2845  0.3185 -1.1712
  923MPD2    C513509   3.720   4.096   9.302  0.0534  0.4006 -0.0133
  923MPD2     H13510   3.640   4.324   9.592  1.1723  1.8899 -1.1610
  923MPD2    H113511   3.824   3.977   9.438  1.5447  1.7967  1.0517
  923MPD2    H213512   3.595   4.221   9.176 -0.8391  0.2875  0.7696
  923MPD2    H313513   3.749   4.025   9.225 -0.2760  1.6310 -1.2665
  923MPD2     N13514   3.799   4.128   9.650  0.3342 -0.4641  0.4232
  923MPD2    H513515   3.841   4.036   9.657 -0.3606 -0.9222 -1.5449
  923MPD2    N113516   3.507   4.386   9.369 -0.6121  0.1506  0.3969
  923MPD2    H713517   3.489   4.401   9.270 -1.3418  0.6550  0.6097
  924MPD2     C13518   2.836   2.371  15.862  0.3755 -0.5484 -0.0103
  924MPD2    C113519   2.839   2.366  16.001  0.2160  0.1376 -0.1450
  924MPD2    C213520   2.861   2.483  16.071  0.0687  1.0949  0.6253
  924MPD2    C313521   2.886   2.603  16.010  0.1802 -0.1192 -0.2201
  924MPD2    C413522   2.894   2.606  15.874  0.3306 -1.1299 -0.9011
  924MPD2    C513523   2.862   2.494  15.800 -0.4363  0.1653 -0.0573
  924MPD2     H13524   2.847   2.479  16.179 -3.4872  1.3006  0.1609
  924MPD2    H113525   2.901   2.697  15.814  1.9021 -1.6261 -1.4746
  924MPD2    H213526   2.825   2.281  15.802 -0.8244 -0.7764  0.5473
  924MPD2    H313527   2.855   2.501  15.692 -1.0185 -1.3909 -0.1268
  924MPD2     N13528   2.897   2.727  16.086 -0.7168  0.4458  0.3775
  924MPD2    H513529   2.916   2.807  16.027  2.1241 -0.2792  0.3090
  924MPD2    N113530   2.791   2.253  16.063  0.5360  0.0486 -0.4138
  924MPD2    H713531   2.748   2.184  16.002  2.3053 -0.6798 -0.8579
  925MPD2     C13532   1.690   0.453  15.064 -0.0782 -0.1500 -0.1217
  925MPD2    C113533   1.608   0.361  15.010  0.4323  0.4271 -0.1779
  925MPD2    C213534   1.481   0.347  15.073 -0.7442  0.8877  0.2416
  925MPD2    C313535   1.443   0.423  15.178 -1.0771 -0.3362  0.7739
  925MPD2    C413536   1.529   0.510  15.233  1.2409 -0.2539 -1.2189
  925MPD2    C513537   1.650   0.527  15.173  0.1808  1.1040  0.0128
  925MPD2     H13538   1.417   0.279  15.017 -0.9668  0.6268  0.8190
  925MPD2    H113539   1.512   0.583  15.312 -0.6023  0.5352 -2.3391
  925MPD2    H213540   1.788   0.480  15.027 -1.2296  3.0005 -0.8993
  925MPD2    H313541   1.715   0.606  15.207 -0.4455  1.3874  0.5266
  925MPD2     N13542   1.309   0.401  15.239 -0.1374  0.1164  0.2155
  925MPD2    H513543   1.248   0.323  15.217 -1.1635  1.0994 -0.4459
  925MPD2    N113544   1.636   0.290  14.890 -0.1867  0.5596 -0.1224
  925MPD2    H713545   1.574   0.215  14.859  1.3778 -1.3237  1.2372
  926MPD2     C13546   0.651   3.572  13.681 -0.3359  0.0204  0.1949
  926MPD2    C113547   0.574   3.686  13.680 -0.5311 -0.0255 -0.2888
  926MPD2    C213548   0.585   3.771  13.572  0.5947  0.0382  0.1439
  926MPD2    C313549   0.666   3.739  13.461  0.2679 -0.5965  0.5134
  926MPD2    C413550   0.747   3.625  13.470 -0.6672 -0.3636 -0.4113
  926MPD2    C513551   0.739   3.540  13.579 -0.1003  0.3794 -0.0195
  926MPD2     H13552   0.514   3.852  13.583 -0.4629 -1.0534  1.2118
  926MPD2    H113553   0.812   3.599  13.387  0.6921  2.3058 -0.1929
  926MPD2    H213554   0.641   3.495  13.756  0.6272  1.0480  1.4024
  926MPD2    H313555   0.782   3.441  13.567  1.8675  1.1820  0.4139
  926MPD2     N13556   0.687   3.838  13.361  0.2437 -0.2496 -0.0291
  926MPD2    H513557   0.762   3.821  13.294  0.7289 -1.4600  0.8165
  926MPD2    N113558   0.490   3.720  13.792 -0.3345 -0.6132  0.2113
  926MPD2    H713559   0.434   3.804  13.782 -0.7762 -1.0643 -1.1984
  927MPD2     C13560   4.298   1.281   0.535 -0.6241  0.3152  0.2785
  927MPD2    C113561   4.331   1.147   0.545 -0.2242 -0.6269  0.5272
  927MPD2    C213562   4.440   1.094   0.480  1.0585  0.1253 -0.2803
  927MPD2    C313563   4.517   1.176   0.405 -0.0886  0.0504  0.6937
  927MPD2    C413564   4.481   1.309   0.396 -0.2085  0.3090  0.6365
  927MPD2    C513565   4.378   1.361   0.459  0.6040 -0.5004  0.2320
  927MPD2     H13566   4.460   0.987   0.481 -0.3942 -0.1299  2.2408
  927MPD2    H113567   4.536   1.377   0.331 -0.4675  0.6499  0.7733
  927MPD2    H213568   4.212   1.333   0.576  1.3264  3.0810  0.8718
  927MPD2    H313569   4.364   1.467   0.472  1.6567 -0.3760  0.3255
  927MPD2     N13570   4.619   1.121   0.329 -0.3262 -0.9767  0.4866
  927MPD2    H513571   4.634   1.022   0.346  0.2021 -1.1941 -1.2740
  927MPD2    N113572   4.249   1.071   0.633 -0.1690 -0.6083  0.2790
  927MPD2    H713573   4.179   1.118   0.690  0.0767  0.1296 -0.0403
  928MPD2     C13574   2.005   0.455   1.004  0.4542  0.0401  0.0614
  928MPD2    C113575   2.070   0.375   1.096 -0.0927  0.6884  0.2621
  928MPD2    C213576   2.202   0.355   1.085 -0.5116 -0.3001 -0.1767
  928MPD2    C313577   2.278   0.414   0.982  0.5350 -1.0312 -0.0220
  928MPD2    C413578   2.212   0.494   0.899  0.4498  0.3317 -0.1415
  928MPD2    C513579   2.080   0.515   0.905  0.2885 -0.1304 -0.0914
  928MPD2     H13580   2.249   0.287   1.155 -0.9549  1.2050  1.6063
  928MPD2    H113581   2.267   0.546   0.822  0.9975  2.1945  1.5016
  928MPD2    H213582   1.898   0.467   1.015  0.3982  0.4109 -0.8159
  928MPD2    H313583   2.033   0.589   0.841  0.1664  0.8784  1.1426
  928MPD2     N13584   2.413   0.387   0.968 -0.4774 -0.5035  0.4382
  928MPD2    H513585   2.460   0.419   0.883 -1.6968  0.7944  0.2386
  928MPD2    N113586   1.992   0.333   1.203  0.2394  0.0005 -0.5249
  928MPD2    H713587   1.894   0.358   1.195  0.2849  0.5333  0.5630
  929MPD2     C13588   2.828   3.988  10.448 -0.7927 -0.4124  0.2409
  929MPD2    C113589   2.757   3.990  10.572  0.4751 -0.2427 -0.3235
  929MPD2    C213590   2.626   4.039  10.569 -0.1143  0.3405 -0.1579
  929MPD2    C313591   2.588   4.107  10.451 -0.2956 -0.5598  0.5092
  929MPD2    C413592   2.670   4.121  10.344 -1.2342  0.2770 -0.3005
  929MPD2    C513593   2.780   4.044  10.329  0.4814 -0.3999  0.4565
  929MPD2     H13594   2.564   4.032  10.657 -1.6763  1.7488 -1.1550
  929MPD2    H113595   2.646   4.188  10.262  0.1015 -2.0017 -2.5531
  929MPD2    H213596   2.931   3.954  10.439 -1.4671 -2.2225 -0.5355
  929MPD2    H313597   2.853   4.054  10.249  0.7239  0.3591  0.7768
  929MPD2     N13598   2.464   4.177  10.445 -0.3553  0.0149  1.1759
  929MPD2    H513599   2.444   4.217  10.354  3.4295 -0.4949  0.1354
  929MPD2    N113600   2.806   3.913  10.680  0.8712  0.3569 -0.0983
  929MPD2    H713601   2.892   3.864  10.658  0.3177 -1.0256  0.8389
  930MPD2     C13602   4.711   1.487  14.209  0.6270  0.2841  0.0436
  930MPD2    C113603   4.690   1.616  14.174  0.1940  0.0641  0.0192
  930MPD2    C213604   4.658   1.635  14.042 -0.4795  0.1541  0.2236
  930MPD2    C313605   4.643   1.537  13.943  0.3846 -0.0842  0.1387
  930MPD2    C413606   4.656   1.406  13.986  0.1207 -0.1771 -1.0186
  930MPD2    C513607   4.704   1.385  14.116 -0.4832 -0.2712  0.4256
  930MPD2     H13608   4.661   1.740  14.016  2.7634 -0.2062 -0.8810
  930MPD2    H113609   4.660   1.323  13.916  1.3718 -0.7783 -0.2334
  930MPD2    H213610   0.020   1.465  14.309  0.1640 -2.7234 -0.4539
  930MPD2    H313611   0.007   1.284  14.145  0.9923  0.1387  0.4490
  930MPD2     N13612   4.629   1.578  13.804  0.1620 -0.6698  0.4306
  930MPD2    H513613   4.659   1.512  13.734 -1.5366 -2.0098  0.9609
  930MPD2    N113614   4.720   1.720  14.263  0.1048 -0.4109 -0.0564
  930MPD2    H713615   0.036   1.686  14.350 -1.8003 -2.1286  0.1407
  931MPD2     C13616   4.549   0.410   0.939 -0.2871 -0.7595 -0.1084
  931MPD2    C113617   4.454   0.480   1.020 -0.2478  0.1543 -0.7851
  931MPD2    C213618   4.472   0.482   1.158  0.2555 -0.1658  0.0130
  931MPD2    C313619   4.569   0.415   1.215 -0.4010  0.0660  0.1549
  931MPD2    C413620   4.649   0.329   1.143 -0.2188 -1.0259  0.2165
  931MPD2    C513621   4.646   0.332   1.004 -0.5126  0.4832  0.1073
  931MPD2     H13622   4.418   0.558   1.214  1.1310  0.3635  0.1385
  931MPD2    H113623   0.001   0.261   1.178  1.0889 -0.1138 -0.8509
  931MPD2    H213624   4.537   0.422   0.832  0.1021  0.7811  0.0156
  931MPD2    H313625   4.714   0.277   0.940  3.3417  2.4650  2.5039
  931MPD2     N13626   4.597   0.432   1.351  0.0715  0.4675 -0.2379
  931MPD2    H513627   4.678   0.386   1.393 -1.8428 -1.3610  1.4672
  931MPD2    N113628   4.352   0.558   0.956  0.4819 -0.5406 -0.1622
  931MPD2    H713629   4.350   0.566   0.855  2.1427  1.0852 -0.0666
  932MPD2     C13630   1.983   1.182  11.312 -0.5717  0.1297 -0.4713
  932MPD2    C113631   2.104   1.116  11.315  0.2253 -0.1889  1.2183
  932MPD2    C213632   2.118   0.983  11.324  0.2020 -0.0250 -0.5780
  932MPD2    C313633   2.005   0.909  11.339 -0.8500 -0.0623  0.0982
  932MPD2    C413634   1.881   0.962  11.348  0.4979  0.6410  0.3370
  932MPD2    C513635   1.877   1.098  11.334  0.3685 -0.0248 -0.9564
  932MPD2     H13636   2.214   0.933  11.326  0.4288  0.5350  2.7895
  932MPD2    H113637   1.789   0.911  11.371  1.3969 -0.3226  1.8021
  932MPD2    H213638   1.968   1.286  11.285  0.6631  0.2568 -0.6399
  932MPD2    H313639   1.777   1.140  11.335  0.1233 -0.6404  1.0752
  932MPD2     N13640   2.036   0.769  11.355  0.1541 -0.4770  0.2848
  932MPD2    H513641   2.129   0.746  11.390 -0.5925 -3.9850  0.0330
  932MPD2    N113642   2.216   1.187  11.283  0.6900  0.0889 -0.6575
  932MPD2    H713643   2.293   1.129  11.250  1.5354 -0.0867  1.6019
  933MPD2     C13644   1.582   0.532   1.925  1.0725 -0.1030 -0.5630
  933MPD2    C113645   1.664   0.561   1.826  0.3857  0.0304 -0.0400
  933MPD2    C213646   1.695   0.691   1.791  0.3781  0.5267 -0.4861
  933MPD2    C313647   1.659   0.802   1.868 -0.2775 -0.2776 -0.1312
  933MPD2    C413648   1.576   0.772   1.975 -0.2691 -0.5749 -0.1724
  933MPD2    C513649   1.540   0.644   1.993 -0.5103 -0.8219 -0.0182
  933MPD2     H13650   1.765   0.717   1.712  0.4870 -2.0284 -1.2626
  933MPD2    H113651   1.541   0.852   2.039  1.0402 -0.4477  0.3820
  933MPD2    H213652   1.562   0.428   1.952  0.8593 -0.1910 -1.0627
  933MPD2    H313653   1.468   0.625   2.072 -0.3229  1.3617  0.6858
  933MPD2     N13654   1.716   0.925   1.845 -0.5736  0.3374 -0.7820
  933MPD2    H513655   1.797   0.929   1.784  0.1296  1.0337  0.1968
  933MPD2    N113656   1.707   0.453   1.748 -0.4246 -0.2644 -0.2008
  933MPD2    H713657   1.723   0.366   1.798 -0.7080 -0.7505 -0.9596
  934MPD2     C13658   3.741   3.002   1.417  0.7212 -0.2690 -0.2590
  934MPD2    C113659   3.798   2.882   1.372 -0.4631  0.2744 -0.0178
  934MPD2    C213660   3.725   2.763   1.382  0.4009 -0.1001 -0.1046
  934MPD2    C313661   3.591   2.762   1.428  0.0904 -0.0123  0.3641
  934MPD2    C413662   3.537   2.882   1.479 -0.0202  0.2098  0.0091
  934MPD2    C513663   3.615   2.993   1.472 -0.5723  0.3940  0.0565
  934MPD2     H13664   3.770   2.671   1.344  0.0672 -0.6858  0.9030
  934MPD2    H113665   3.438   2.879   1.522  0.6626  0.0061  1.5628
  934MPD2    H213666   3.791   3.098   1.413 -1.2950  0.8314  0.9322
  934MPD2    H313667   3.573   3.088   1.504  1.1003  1.0645  0.2667
  934MPD2     N13668   3.510   2.649   1.442  0.3197 -0.1302 -0.0761
  934MPD2    H513669   3.426   2.679   1.490  0.5700 -0.5787  0.6401
  934MPD2    N113670   3.929   2.876   1.310 -0.2105  0.0344 -0.2724
  934MPD2    H713671   3.964   2.790   1.269  1.3087  0.5484 -0.0471
  935MPD2     C13672   3.668   1.671   1.387  0.8453 -0.5689 -0.2766
  935MPD2    C113673   3.543   1.675   1.436  0.1590 -0.3513  0.1379
  935MPD2    C213674   3.480   1.798   1.450  0.4043  0.0406  0.7633
  935MPD2    C313675   3.544   1.915   1.412  0.0052 -0.3597  0.8859
  935MPD2    C413676   3.675   1.906   1.372  0.1459 -0.1558 -0.0073
  935MPD2    C513677   3.736   1.785   1.352  0.6201 -0.5675 -0.1332
  935MPD2     H13678   3.384   1.801   1.501 -0.1813 -1.1621 -0.2541
  935MPD2    H113679   3.727   1.997   1.344  2.0042 -0.6581  1.8298
  935MPD2    H213680   3.722   1.578   1.372 -0.4217 -1.6084  1.5689
  935MPD2    H313681   3.839   1.788   1.319 -0.1014  0.5254 -2.2952
  935MPD2     N13682   3.497   2.048   1.443 -0.0288 -0.0903  0.7528
  935MPD2    H513683   3.549   2.128   1.408 -0.3136 -0.4960 -0.5982
  935MPD2    N113684   3.464   1.559   1.479 -0.4291 -0.2186 -0.1536
  935MPD2    H713685   3.376   1.577   1.525 -1.0189  0.8285 -1.6888
  936MPD2     C13686   1.915   3.553  12.534  0.6953 -0.0562 -0.3525
  936MPD2    C113687   2.012   3.471  12.592  0.3191  0.1767 -0.3787
  936MPD2    C213688   2.104   3.525  12.680  0.9596  0.0670 -0.3973
  936MPD2    C313689   2.095   3.656  12.719  1.0555  0.6602  0.3300
  936MPD2    C413690   1.986   3.724  12.682  0.0168  0.1010 -0.9525
  936MPD2    C513691   1.906   3.679  12.577  0.9071  0.4139  0.4557
  936MPD2     H13692   2.195   3.476  12.712  0.5946 -0.6580 -0.4668
  936MPD2    H113693   1.970   3.825  12.719  0.7694 -0.4285  0.8161
  936MPD2    H213694   1.844   3.514  12.461  0.2059 -0.9686  0.6186
  936MPD2    H313695   1.819   3.737  12.548  1.8018  1.7228  0.4133
  936MPD2     N13696   2.195   3.708  12.798 -0.1247  0.0096  0.5436
  936MPD2    H513697   2.264   3.641  12.834 -1.1320 -0.5881  1.3642
  936MPD2    N113698   2.028   3.340  12.564  0.5817 -0.0798  0.0344
  936MPD2    H713699   2.102   3.294  12.614 -0.5297 -1.4044  0.4448
  937MPD2     C13700   0.449   4.699  11.876  0.4807 -0.5117 -0.3513
  937MPD2    C113701   0.440   0.112  11.869 -0.1459  0.1628  0.7633
  937MPD2    C213702   0.524   0.173  11.780 -0.4031  0.2834  0.1102
  937MPD2    C313703   0.594   0.103  11.685 -0.1888 -0.4148 -0.1285
  937MPD2    C413704   0.595   4.694  11.690 -0.0598 -0.2291  0.3064
  937MPD2    C513705   0.530   4.627  11.791  0.7253 -0.0670  0.1371
  937MPD2     H13706   0.532   0.281  11.787 -3.5022  0.5120  0.0908
  937MPD2    H113707   0.662   4.632  11.631 -0.4149  0.4611 -0.8337
  937MPD2    H213708   0.382   4.639  11.938 -0.7702  0.9284 -0.3116
  937MPD2    H313709   0.534   4.519  11.806 -1.8753 -0.4835 -2.1262
  937MPD2     N13710   0.663   0.183  11.588 -0.2538 -0.1510  0.2445
  937MPD2    H513711   0.655   0.284  11.593  0.2716 -0.0595 -0.9161
  937MPD2    N113712   0.390   0.195  11.973  0.1276  0.4570 -0.1114
  937MPD2    H713713   0.415   0.293  11.965  0.8844  0.2629 -0.0739
  938MPD2     C13714   2.067   1.788   1.041 -0.5183  0.4085 -0.3040
  938MPD2    C113715   2.134   1.890   1.110  0.1071  0.0560  0.2704
  938MPD2    C213716   2.192   1.858   1.227 -0.2557  0.6446 -0.6688
  938MPD2    C313717   2.201   1.720   1.261  0.0822 -0.0574  0.4889
  938MPD2    C413718   2.123   1.623   1.196  0.1229  0.1619 -0.2360
  938MPD2    C513719   2.062   1.658   1.085  0.0683 -0.4095 -0.5357
  938MPD2     H13720   2.246   1.934   1.284 -0.3976  1.8342 -2.1263
  938MPD2    H113721   2.127   1.519   1.227 -1.4684  0.3442  0.6048
  938MPD2    H213722   2.017   1.808   0.947 -0.7918  0.6075 -0.1176
  938MPD2    H313723   2.010   1.581   1.029 -0.8003  0.2315 -0.6116
  938MPD2     N13724   2.262   1.678   1.380 -0.2917  0.5006  0.0669
  938MPD2    H513725   2.242   1.583   1.410 -0.2647  0.7725  0.9523
  938MPD2    N113726   2.156   2.013   1.057  0.3961 -0.1667 -0.5755
  938MPD2    H713727   2.209   2.084   1.107 -0.3176  0.6427 -0.9718
  939MPD2     C13728   0.138   3.126   0.995 -0.4185  0.4600  0.3955
  939MPD2    C113729   0.271   3.104   1.039 -0.4822 -0.3882  0.3120
  939MPD2    C213730   0.355   3.034   0.959  0.3117  0.1281 -0.1794
  939MPD2    C313731   0.311   2.977   0.840 -0.6395 -1.1365 -0.4195
  939MPD2    C413732   0.171   2.979   0.800  0.6705 -0.0951 -0.3983
  939MPD2    C513733   0.093   3.066   0.877  0.0859  0.3982  0.0206
  939MPD2     H13734   0.455   3.016   0.994  0.6853 -0.7789 -1.6939
  939MPD2    H113735   0.121   2.925   0.721  1.9187  0.2104 -1.3900
  939MPD2    H213736   0.065   3.169   1.061 -1.1355  2.6152 -1.7801
  939MPD2    H313737   4.711   3.079   0.865 -0.1040  0.7441  2.0314
  939MPD2     N13738   0.408   2.896   0.767 -0.4513 -0.1946  0.0474
  939MPD2    H513739   0.495   2.879   0.815 -0.9818  2.0718  1.8277
  939MPD2    N113740   0.311   3.164   1.163 -0.1300  0.0465  0.0359
  939MPD2    H713741   0.231   3.201   1.213 -0.3340 -1.7366  1.0135
  940MPD2     C13742   2.465   3.205  13.262  1.0019  0.9239  0.3568
  940MPD2    C113743   2.572   3.224  13.349 -0.3141 -0.0440  0.6822
  940MPD2    C213744   2.704   3.191  13.311  0.1273 -1.1594 -0.8149
  940MPD2    C313745   2.732   3.152  13.181  0.1641 -0.1783 -0.2011
  940MPD2    C413746   2.626   3.135  13.090  0.1257 -0.2570 -0.3340
  940MPD2    C513747   2.501   3.164  13.134  0.1156 -0.1274 -0.6945
  940MPD2     H13748   2.782   3.210  13.384 -0.8755 -0.4041  0.0506
  940MPD2    H113749   2.638   3.098  12.989 -0.8307 -0.9885 -0.1750
  940MPD2    H213750   2.360   3.217  13.284  0.7616  1.0036 -0.8422
  940MPD2    H313751   2.414   3.156  13.070 -0.7271  0.9909  0.3052
  940MPD2     N13752   2.858   3.128  13.133  0.4255 -0.4903 -0.1839
  940MPD2    H513753   2.872   3.123  13.032  1.0920  1.8887 -0.2078
  940MPD2    N113754   2.550   3.260  13.485  0.2083 -0.2513 -0.0065
  940MPD2    H713755   2.626   3.245  13.551  0.7757 -2.7761 -1.2006
  941MPD2     C13756   3.065   2.057   9.780  0.0332 -0.7102 -0.0649
  941MPD2    C113757   3.086   2.028   9.649 -0.5295 -0.1193  0.1086
  941MPD2    C213758   3.009   1.934   9.586 -0.0872  0.2642  0.0520
  941MPD2    C313759   2.913   1.852   9.656  0.0991  0.1638 -0.1692
  941MPD2    C413760   2.908   1.870   9.786  0.0799 -0.6599 -0.2017
  941MPD2    C513761   2.979   1.974   9.846  0.1649 -0.6098  0.4778
  941MPD2     H13762   3.032   1.923   9.481  2.4929 -0.1538  0.6437
  941MPD2    H113763   2.840   1.815   9.851 -0.7088  0.8356  0.2371
  941MPD2    H213764   3.124   2.127   9.838  0.7058 -1.1925 -0.1588
  941MPD2    H313765   2.979   1.999   9.951 -3.6600  2.0579 -0.1223
  941MPD2     N13766   2.822   1.762   9.595  0.0395 -0.2757  0.1128
  941MPD2    H513767   2.765   1.711   9.662  1.3262 -1.1835  0.5133
  941MPD2    N113768   3.190   2.098   9.576 -0.1729 -0.2800  0.2909
  941MPD2    H713769   3.214   2.064   9.483  0.2926 -0.2269  0.3946
  942MPD2     C13770   2.535   4.048   9.905  0.3941 -0.2196  0.2991
  942MPD2    C113771   2.558   4.088   9.777 -0.2987  0.3707 -0.0969
  942MPD2    C213772   2.686   4.120   9.738 -0.5113  0.4079  0.7026
  942MPD2    C313773   2.787   4.122   9.833 -0.6617  0.0208 -0.5749
  942MPD2    C413774   2.763   4.079   9.964  0.0860 -0.1567  0.8895
  942MPD2    C513775   2.637   4.048   9.997 -0.1639 -0.5084 -0.5157
  942MPD2     H13776   2.697   4.153   9.636 -2.5360 -0.8575  0.0742
  942MPD2    H113777   2.845   4.065  10.033  0.7499 -0.9584 -0.0567
  942MPD2    H213778   2.438   4.014   9.940  0.2887  1.0411  1.2231
  942MPD2    H313779   2.624   4.014  10.100  1.0692 -2.4647 -1.0097
  942MPD2     N13780   2.921   4.143   9.801 -0.2696 -0.5954 -0.6702
  942MPD2    H513781   2.986   4.112   9.874 -0.2860  0.0220 -0.3946
  942MPD2    N113782   2.456   4.092   9.677 -0.3456  0.1067 -0.2753
  942MPD2    H713783   2.483   4.139   9.591 -1.3610 -0.5593 -0.9572
  943MPD2     C13784   1.598   1.363   9.479  0.1182  0.6190  1.2978
  943MPD2    C113785   1.486   1.317   9.552 -0.3434  0.0889 -0.0768
  943MPD2    C213786   1.360   1.327   9.491  0.1473  1.2044  0.2697
  943MPD2    C313787   1.350   1.383   9.372  0.0894  0.4260 -0.5618
  943MPD2    C413788   1.463   1.416   9.297  0.2071 -1.0015  0.3823
  943MPD2    C513789   1.582   1.415   9.352 -0.4121  0.3914  0.1577
  943MPD2     H13790   1.273   1.288   9.543  0.7441 -0.2212  0.1990
  943MPD2    H113791   1.467   1.456   9.196 -1.1247 -3.0601 -0.4981
  943MPD2    H213792   1.698   1.348   9.519  0.1159 -0.1408  1.0180
  943MPD2    H313793   1.673   1.442   9.300  0.4635 -1.1213  0.9138
  943MPD2     N13794   1.227   1.399   9.301  0.5179  0.2544 -0.2477
  943MPD2    H513795   1.222   1.431   9.205 -1.1902 -3.7482 -1.5106
  943MPD2    N113796   1.507   1.266   9.679 -0.1311  0.1192 -0.0734
  943MPD2    H713797   1.602   1.257   9.714  0.4668  0.9272 -1.4980
  944MPD2     C13798   1.120   1.556  11.013 -0.3047  0.7134 -0.6072
  944MPD2    C113799   1.066   1.490  11.122 -0.2447  0.6197 -0.3050
  944MPD2    C213800   0.965   1.547  11.191 -0.4042  0.4555  0.4952
  944MPD2    C313801   0.913   1.666  11.156  0.0212 -0.1581  0.3431
  944MPD2    C413802   0.972   1.740  11.048 -0.6564 -0.1439 -0.4508
  944MPD2    C513803   1.079   1.682  10.984  0.3477  0.1969  0.0567
  944MPD2     H13804   0.901   1.488  11.257  0.2098 -0.9017 -0.1217
  944MPD2    H113805   0.934   1.838  11.019  3.3929  0.7287 -2.8075
  944MPD2    H213806   1.208   1.520  10.963 -1.6294 -0.3237 -2.2007
  944MPD2    H313807   1.136   1.733  10.907  2.3596  0.2138  1.5730
  944MPD2     N13808   0.817   1.736  11.235 -0.5315 -0.1374  0.3899
  944MPD2    H513809   0.792   1.826  11.194  3.0258  0.5394 -0.2840
  944MPD2    N113810   1.113   1.365  11.142 -0.8141  0.1404  0.1813
  944MPD2    H713811   1.185   1.322  11.084  0.2606 -0.2500  1.8181
    1TCq1    O113812   2.778   2.524  15.138 -0.0339  0.9785  0.0187
    1TCq1    C113813   2.769   2.446  15.021 -0.0865 -0.6357 -0.3803
    1TCq1    O213814   2.668   2.441  14.953  0.2894 -0.1324 -0.2731
    1TCq1    C213815   2.848   2.332  15.074 -0.4010 -0.4272  0.4590
    1TCq1    C313816   2.778   2.215  15.088  0.0395 -0.5092  0.4033
    1TCq1    C413817   2.848   2.106  15.135  0.4260  0.3104 -0.5212
    1TCq1    C513818   2.985   2.117  15.163  0.2072  0.0289 -0.1580
    1TCq1    C613819   3.045   2.244  15.147  0.4856  0.6307 -0.1728
    1TCq1    C713820   2.979   2.358  15.113  0.4391 -0.1951  0.2915
    1TCq1    C813821   3.185   2.246  15.181  0.4735 -0.1266  0.3019
    1TCq1    O413822   3.235   2.150  15.245 -0.0161  0.0062  0.1175
    1TCq1    C913823   2.780   1.983  15.126  0.4742 -0.1530  0.0780
    1TCq1    O513824   2.657   1.987  15.104  0.2318  0.2778  0.6019
    1TCq1    O613825   2.825   1.883  15.197  0.3289  0.0892 -0.1465
    1TCq1    H113826   2.832   2.478  15.205  1.1840  1.3484 -0.7017
    1TCq1    H213827   2.674   2.209  15.060  0.0025  0.2347  0.3875
    1TCq1    H313828   3.036   2.026  15.192 -0.4929 -0.0308  0.8881
    1TCq1    H413829   3.021   2.457  15.101 -0.4865 -0.0774 -1.8851
    2MPD2     C13830   3.642   2.467  15.156 -0.6001 -0.6332  0.2421
    2MPD2    C113831   3.557   2.542  15.086  0.0831  0.3969  0.1259
    2MPD2    C213832   3.429   2.501  15.077  0.1321 -0.6429  0.2881
    2MPD2    C313833   3.384   2.385  15.133 -0.6086  0.1755 -0.4501
    2MPD2    C413834   3.475   2.304  15.204 -0.2990  0.2222 -0.4404
    2MPD2    C513835   3.598   2.355  15.228 -0.4347 -0.2795 -0.3361
    2MPD2     H13836   3.359   2.557  15.016 -0.8075 -2.2021 -0.0388
    2MPD2    H113837   3.466   2.206  15.249 -0.0631 -0.0405 -0.9577
    2MPD2    H213838   3.746   2.494  15.169 -0.3923 -2.1774  1.8892
    2MPD2    H313839   3.677   2.300  15.278 -0.5306 -0.3140 -0.2236
    2MPD2     N13840   3.246   2.353  15.118 -0.3657 -0.1203  0.4418
    2MPD2    H513841   3.193   2.410  15.052 -2.1533 -2.6671 -0.3489
    2MPD2    N113842   3.616   2.650  15.019  0.1606 -0.3870  0.3648
    2MPD2    H713843   3.716   2.661  15.031  0.1990 -0.7337  0.3405
    3TMC2    C113844   3.638   2.846  14.882  0.5034 -1.0413  0.0757
    3TMC2    C213845   3.759   2.870  14.937  0.5592 -0.4915 -0.0282
    3TMC2    C313846   3.839   2.955  14.871 -0.4049  1.1197  0.2022
    3TMC2    C413847   3.604   2.907  14.760 -0.2055  0.1540 -0.3713
    3TMC2    C513848   3.688   2.992  14.699  0.9748  0.2265  0.1090
    3TMC2    C613849   3.807   3.021  14.758 -0.5834 -0.6282  0.0415
    3TMC2     C13850   3.546   2.741  14.939  0.3666 -0.0955 -0.3217
    3TMC2     O13851   3.426   2.746  14.909  0.1406 -0.0896 -0.0034
    3TMC2     H13852   3.781   2.830  15.035 -1.7040 -0.9626  0.2761
    3TMC2    H113853   3.509   2.882  14.714  0.3729 -1.1889 -0.8497
    3TMC2    H213854   3.876   3.088  14.708  0.3333 -0.7140  1.1901
    3TMC2    C713855   3.658   3.032  14.560  0.4970  0.7384 -0.2769
    3TMC2    C813856   3.970   2.985  14.920 -0.0197  0.1807  0.7689
    3TMC2    O113857   3.571   2.956  14.513  1.1159 -0.2954  0.2934
    3TMC2    O213858   4.035   3.083  14.891 -0.1518 -0.3852  0.1958
    3TMC2    O513859   4.006   2.884  15.001  0.3040 -0.2206 -0.0417
    3TMC2    H513860   3.963   2.797  14.990  1.5236 -0.7075 -0.9631
    4MPD2     C13861   3.291   4.035  13.863  0.4013  0.3326 -0.0917
    4MPD2    C113862   3.338   3.905  13.857  1.1706 -0.1358 -0.1137
    4MPD2    C213863   3.461   3.879  13.912  0.7234  0.0101 -0.1779
    4MPD2    C313864   3.538   3.974  13.979  0.0141 -0.0717  0.3035
    4MPD2    C413865   3.495   4.104  13.982 -0.4411 -0.3220  0.1683
    4MPD2    C513866   3.373   4.133  13.915 -0.2828  0.2820 -0.0032
    4MPD2     H13867   3.500   3.778  13.906 -1.9256 -1.0096 -0.3804
    4MPD2    H113868   3.549   4.190  14.019 -0.6303  1.3675 -3.4508
    4MPD2    H213869   3.205   4.072  13.809  1.0716 -1.4771 -2.4011
    4MPD2    H313870   3.341   4.234  13.893 -0.0108  0.0814 -1.2850
    4MPD2     N13871   3.664   3.929  14.032  0.1573  0.5155  0.0515
    4MPD2    H513872   3.682   3.830  14.036 -0.5732  0.3853  0.0220
    4MPD2    N113873   3.257   3.815  13.786  0.3727  0.1586 -1.1244
    4MPD2    H713874   3.159   3.835  13.770 -0.1110 -1.8237 -0.7014
    5TCq2    C113875   3.763   4.010  14.089  0.1141 -0.5742  0.0796
    5TCq2    O213876   3.776   4.132  14.092  0.1536  0.0450 -0.4088
    5TCq2    C213877   3.867   3.932  14.156 -0.2991  0.1043  0.1895
    5TCq2    C313878   3.993   3.980  14.179  0.2942  0.5604 -0.2200
    5TCq2    C413879   4.089   3.895  14.227 -0.1761  0.0421 -1.0247
    5TCq2    C513880   4.054   3.768  14.265 -0.1408 -0.1238 -0.1533
    5TCq2    C613881   3.923   3.725  14.248  0.7248  0.2316 -0.5245
    5TCq2    C713882   3.826   3.806  14.206 -0.5953 -0.3195  0.2412
    5TCq2    C813883   3.891   3.586  14.279  0.2364 -0.1520  0.1742
    5TCq2    O413884   3.966   3.531  14.359  0.0351  0.0076 -0.5034
    5TCq2    C913885   4.226   3.937  14.241  0.3202  0.0562  0.6110
    5TCq2    O513886   4.301   3.844  14.249 -0.2529 -0.0602  0.0674
    5TCq2    O613887   4.251   4.052  14.190 -0.2696  0.3059  0.7599
    5TCq2    H213888   4.013   4.082  14.147  2.3959  0.0361 -0.5687
    5TCq2    H313889   4.131   3.702  14.304 -0.4266 -0.4349 -0.1090
    5TCq2    H413890   3.725   3.772  14.226 -0.0685 -1.9876  0.0727
    6MPD1     C13891   3.322   4.602  12.662 -0.2539 -0.8353  0.7555
    6MPD1    C113892   3.212   4.632  12.746  0.2461 -0.1322 -0.3400
    6MPD1    C213893   3.120   4.527  12.763 -0.1293  0.4025 -0.1492
    6MPD1    C313894   3.156   4.399  12.725  0.3372  0.1044 -0.1630
    6MPD1    C413895   3.270   4.376  12.656  0.5548  0.1972  0.3056
    6MPD1    C513896   3.359   4.477  12.619 -0.4296 -0.0455 -0.1279
    6MPD1     H13897   3.024   4.540  12.810 -0.7011  0.8482 -1.4443
    6MPD1    H113898   3.293   4.280  12.610  0.6916 -0.1756  1.1629
    6MPD1    H213899   3.387   4.676  12.618 -2.2206  0.0844 -0.5970
    6MPD1    H313900   3.448   4.460  12.559 -1.5191  0.0961 -1.7869
    6MPD1     N13901   3.072   4.291  12.742  0.2026 -0.3728 -0.1010
    6MPD1    H513902   3.105   4.200  12.711  1.9251 -0.2233  1.3274
    6MPD1    N113903   3.162   0.038  12.760  0.0226  0.3440  0.0916
    6MPD1    H613904   3.241   0.102  12.763 -1.2140  1.7599  2.5525
    6MPD1    H713905   3.112   0.052  12.847 -0.2402  1.9828 -0.3241
    7MPD2     C13906   2.601   3.908  13.366 -0.3910  0.5174  0.4189
    7MPD2    C113907   2.685   3.825  13.295  0.1495  0.8171  0.4309
    7MPD2    C213908   2.736   3.715  13.355 -0.6859 -0.4703 -0.0289
    7MPD2    C313909   2.727   3.702  13.494  0.6207  0.1354  0.0666
    7MPD2    C413910   2.651   3.791  13.564  0.2461 -0.3329 -0.2495
    7MPD2    C513911   2.583   3.881  13.495 -0.3010  0.5381 -0.9803
    7MPD2     H13912   2.795   3.652  13.290 -0.6600 -2.0098  1.4912
    7MPD2    H113913   2.642   3.789  13.672  2.3594 -1.9617 -0.1094
    7MPD2    H213914   2.546   3.990  13.321 -2.1789 -0.6599  0.4204
    7MPD2    H313915   2.508   3.930  13.555 -0.1396  0.9141 -1.0835
    7MPD2     N13916   2.823   3.617  13.551  0.0671  0.4020 -0.0293
    7MPD2    H513917   2.879   3.566  13.483 -0.8015 -0.8002  0.1363
    7MPD2    N113918   2.724   3.849  13.162  0.2561  0.2818  0.0758
    7MPD2    H713919   2.792   3.785  13.124 -0.5033 -0.8411  0.6074
    8TMC3    C113920   2.971   3.523  13.706  0.3555  0.4572 -0.0081
    8TMC3    C213921   3.067   3.610  13.756  0.0723  0.7538 -0.5029
    8TMC3    C313922   3.187   3.603  13.699 -0.2196  0.6043  0.3237
    8TMC3    C413923   2.997   3.437  13.603 -0.1569 -0.0279  0.9442
    8TMC3    C513924   3.121   3.429  13.552 -0.3150 -0.1029  0.4584
    8TMC3    C613925   3.215   3.511  13.602  0.2724 -0.3764 -0.1169
    8TMC3     C13926   2.846   3.597  13.685 -0.0884  0.3269  0.4260
    8TMC3     O13927   2.779   3.644  13.776  0.4786  0.7046  0.0824
    8TMC3     H13928   3.032   3.681  13.830  0.4044  0.9647 -0.5484
    8TMC3    H113929   2.913   3.377  13.571 -1.1488  1.5789  0.4937
    8TMC3    H213930   3.312   3.514  13.554  1.1322  2.8792  1.7920
    8TMC3    C713931   3.113   3.436  13.409 -0.1073  1.2991  0.2872
    8TMC3    C813932   3.297   3.688  13.752  0.1674  0.5555  0.5845
    8TMC3    O113933   3.007   3.480  13.364 -0.1771 -0.6131  0.4786
    8TMC3    O213934   3.408   3.642  13.738  0.5737 -0.1856 -0.2312
    9TMC3    C113935   2.942   4.136  12.863  0.3243 -0.2140  0.2619
    9TMC3    C213936   3.034   4.040  12.839  0.5557  0.7095 -0.1689
    9TMC3    C313937   3.004   3.920  12.902  0.3237 -0.5351 -0.6083
    9TMC3    C413938   2.821   4.116  12.923  1.4186 -0.0431  0.1219
    9TMC3    C513939   2.797   3.990  12.982 -0.3511  0.3508  0.7788
    9TMC3    C613940   2.887   3.885  12.960  0.3326 -0.3932  0.0956
    9TMC3     C13941   2.966   4.272  12.829  0.3362 -0.0220  0.0635
    9TMC3     O13942   2.884   4.361  12.866 -0.0189  0.0736  0.1011
    9TMC3     H13943   3.132   4.063  12.800 -0.7630  2.6139 -2.3914
    9TMC3    H113944   2.741   4.189  12.923  3.0014  1.6898  0.2495
    9TMC3    H213945   2.876   3.783  12.995 -0.3734 -0.5803 -0.6826
    9TMC3    C713946   2.708   3.975  13.100  0.4041  0.2352  0.4199
    9TMC3    C813947   3.105   3.819  12.898  0.1285  0.2607  1.1036
    9TMC3    O113948   2.628   4.065  13.117  0.1747 -0.0252  0.2755
    9TMC3    O213949   3.167   3.819  12.792 -0.0026 -0.0008 -0.1936
   10MPD2     C13950   3.350   3.417  13.122  0.7449 -0.3261  0.3176
   10MPD2    C113951   3.253   3.471  13.211 -1.1894  0.3986  0.3955
   10MPD2    C213952   3.178   3.583  13.164  0.2298 -0.0704 -0.7856
   10MPD2    C313953   3.191   3.626  13.034 -0.7437  0.1100  0.1895
   10MPD2    C413954   3.293   3.582  12.950 -0.2652 -0.3640 -0.2502
   10MPD2    C513955   3.366   3.473  12.999 -0.3123  1.0476 -0.2550
   10MPD2     H13956   3.101   3.640  13.215  2.0426  0.0076  1.8621
   10MPD2    H113957   3.301   3.610  12.845 -2.6642 -0.9422 -0.6018
   10MPD2    H213958   3.430   3.346  13.144 -0.7504 -2.3535 -0.8206
   10MPD2    H313959   3.439   3.442  12.926  0.4012  1.1458  0.4252
   10MPD2     N13960   3.111   3.742  13.010 -0.1108  0.4908 -0.2287
   10MPD2    H513961   3.051   3.777  13.083 -1.0687 -1.3825 -0.0978
   10MPD2    N113962   3.227   3.415  13.340  0.2196  1.5905 -0.0265
   10MPD2    H713963   3.302   3.361  13.381 -0.9334  1.8325  2.4066
   11MPD2     C13964   3.638   3.131  14.287  0.5001  0.3031  0.4584
   11MPD2    C113965   3.709   3.198  14.387  0.3557  0.1845  0.5416
   11MPD2    C213966   3.755   3.328  14.361  0.5694  0.2641  0.2084
   11MPD2    C313967   3.723   3.404  14.241  0.1568  0.3066 -0.8449
   11MPD2    C413968   3.648   3.329  14.151 -0.0573 -0.3660 -0.3425
   11MPD2    C513969   3.616   3.198  14.166  0.4655  0.1463  0.1010
   11MPD2     H13970   3.812   3.370  14.444 -0.5478  2.2667 -0.0476
   11MPD2    H113971   3.623   3.364  14.052 -1.5110 -0.8282 -0.1363
   11MPD2    H213972   3.605   3.028  14.290 -0.5426  0.6403  0.4007
   11MPD2    H313973   3.574   3.140  14.085  1.7837 -0.3052 -0.2557
   11MPD2     N13974   3.776   3.537  14.214  0.3381 -0.1498  0.3352
   11MPD2    H513975   3.752   3.580  14.125  0.4763 -0.2320  0.2572
   11MPD2    N113976   3.718   3.149  14.523  0.2012 -0.0753  0.3872
   11MPD2    H713977   3.774   3.200  14.591 -1.3152  1.3913  0.5214
    1MPD1     C13978   1.155   0.146  17.471 -0.1021 -0.1049 -0.6861
    1MPD1    C113979   1.287   0.159  17.443 -0.1057 -0.2389 -0.1974
    1MPD1    C213980   1.330   0.163  17.311 -0.0831  0.2361 -0.0482
    1MPD1    C313981   1.239   0.166  17.208  0.2442  0.0786 -0.7691
    1MPD1    C413982   1.103   0.143  17.240 -0.1861 -0.0735  0.1375
    1MPD1    C513983   1.067   0.137  17.374 -0.1004  0.0062 -0.9270
    1MPD1     H13984   1.435   0.187  17.298 -0.0642 -0.5852 -1.4541
    1MPD1    H113985   1.023   0.144  17.167  0.4676  1.4780 -0.5521
    1MPD1    H213986   1.123   0.151  17.574 -0.1173  0.9189 -0.7398
    1MPD1    H313987   0.960   0.127  17.394  0.3529  0.2833  1.6979
    1MPD1     N13988   1.267   0.204  17.078 -0.4498  0.0076  0.3527
    1MPD1    H513989   1.192   0.204  17.009  0.1078 -1.7352 -0.2461
    1MPD1    N113990   1.369   0.206  17.547  0.1082  0.3931  0.2734
    1MPD1    H613991   1.467   0.187  17.530  0.8943  4.0819  0.7133
    1MPD1    H713992   1.339   0.163  17.634  1.0908 -0.6198  0.1132
    2MPD1     C13993   1.825   1.003  16.886  0.7205 -0.1737 -0.2220
    2MPD1    C113994   1.870   0.881  16.936  0.4435 -0.2826  0.7626
    2MPD1    C213995   1.794   0.766  16.920  0.6020  0.1063  0.1829
    2MPD1    C313996   1.682   0.766  16.843  0.6550 -0.4886  0.3164
    2MPD1    C413997   1.633   0.893  16.802 -0.1614 -0.0070 -0.2126
    2MPD1    C513998   1.702   1.008  16.825  0.3163  0.2771  0.7234
    2MPD1     H13999   1.836   0.670  16.949  0.6641  0.3313  0.8313
    2MPD1    H114000   1.542   0.908  16.746 -0.1115 -1.1397 -0.6080
    2MPD1    H214001   1.886   1.092  16.886  1.9418 -1.0216  0.0113
    2MPD1    H314002   1.649   1.100  16.800 -0.0463 -0.4250 -1.0619
    2MPD1     N14003   1.617   0.640  16.825 -0.1839  0.1714 -0.2625
    2MPD1    H514004   1.667   0.566  16.873  1.0876  0.7192 -0.7348
    2MPD1    N114005   2.004   0.868  16.973 -0.7405 -0.2970 -0.2004
    2MPD1    H614006   2.056   0.949  17.005 -0.4530 -0.0442 -1.3047
    2MPD1    H714007   2.019   0.787  17.033  0.1334 -0.0585 -0.0966
    3TMC3    C114008   1.449   0.484  16.774 -0.4652 -0.3837 -0.8084
    3TMC3    C214009   1.360   0.442  16.683 -0.5099 -1.1537 -0.1438
    3TMC3    C314010   1.285   0.333  16.708  0.2112 -0.4804 -0.2842
    3TMC3    C414011   1.469   0.411  16.886  1.0961 -0.2456  0.4863
    3TMC3    C514012   1.394   0.293  16.900 -0.0558  0.1625  0.1297
    3TMC3    C614013   1.299   0.249  16.819  0.0486 -0.2130  0.3692
    3TMC3     C14014   1.498   0.619  16.755  0.7053 -0.3500  0.1898
    3TMC3     O14015   1.413   0.700  16.720 -0.3961 -0.5443  0.5289
    3TMC3     H14016   1.355   0.502  16.594 -0.3901 -0.7365  0.1321
    3TMC3    H114017   1.545   0.443  16.955 -1.2568 -1.4210  3.6385
    3TMC3    H214018   1.244   0.156  16.825  0.0701 -0.2752 -0.4273
    3TMC3    C714019   1.388   0.250  17.036 -0.5781 -0.2108 -0.2462
    3TMC3    C814020   1.199   0.281  16.601 -0.2823 -0.5308 -0.5959
    3TMC3    O114021   1.497   0.259  17.093 -0.2661  0.0874  0.3325
    3TMC3    O214022   1.097   0.224  16.636  0.3041  0.6904 -0.1152
    4MPD1     C14023   1.054   0.228  16.101  0.4182 -0.0158 -0.2443
    4MPD1    C114024   1.175   0.285  16.108 -0.4908  0.2339  0.1050
    4MPD1    C214025   1.227   0.293  16.234  0.0883 -0.8089 -0.3686
    4MPD1    C314026   1.171   0.276  16.355 -0.1129  0.7181  0.1038
    4MPD1    C414027   1.040   0.233  16.345 -1.2326  0.3069  0.2945
    4MPD1    C514028   0.984   0.208  16.217 -0.5257  0.6764  0.4613
    4MPD1     H14029   1.332   0.320  16.228  0.3098 -1.4483  0.8755
    4MPD1    H114030   0.983   0.202  16.432  0.0943 -1.8404  0.3889
    4MPD1    H214031   1.001   0.211  16.007  1.9716  1.5069 -1.4056
    4MPD1    H314032   0.887   0.161  16.226 -0.1576  0.1109  1.6230
    4MPD1     N14033   1.246   0.307  16.473  0.6580  0.4935  0.2664
    4MPD1    H514034   1.342   0.340  16.464  0.9736 -0.8038 -1.1399
    4MPD1    N114035   1.258   0.286  15.995  0.1026 -0.6204  0.4614
    4MPD1    H614036   1.199   0.323  15.921  2.3391 -0.7275 -1.3614
    4MPD1    H714037   1.339   0.345  16.017 -1.9124  3.0429 -1.9349
    1TCq1    O114038   2.346   0.664  11.425 -0.0872  0.4646  0.8274
    1TCq1    C114039   2.375   0.657  11.294  0.0463  0.7084 -0.3812
    1TCq1    O214040   2.360   0.751  11.215  0.5453 -0.4838  0.5362
    1TCq1    C214041   2.454   0.536  11.278  0.0136 -0.4909  0.1628
    1TCq1    C314042   2.402   0.418  11.328 -0.4058 -0.5303  0.3107
    1TCq1    C414043   2.428   0.301  11.267  0.4651  0.1070 -0.6813
    1TCq1    C514044   2.488   0.286  11.148  0.4766 -1.0738  1.0789
    1TCq1    C614045   2.533   0.408  11.094 -0.4047  0.1187 -0.1961
    1TCq1    C714046   2.520   0.531  11.156  0.5095  0.1349 -0.0611
    1TCq1    C814047   2.551   0.413  10.949  0.0432  0.0234 -0.4711
    1TCq1    O414048   2.568   0.525  10.903  0.2224  0.7110 -0.8780
    1TCq1    C914049   2.343   0.192  11.304  0.5229  0.4446  0.1099
    1TCq1    O514050   2.312   0.096  11.229  0.4845 -0.2463  0.3227
    1TCq1    O614051   2.283   0.201  11.415 -0.2055 -0.3407 -0.1443
    1TCq1    H114052   2.382   0.593  11.482  2.3345  1.3407  0.3555
    1TCq1    H214053   2.320   0.419  11.398  0.2447  0.5459  1.0456
    1TCq1    H314054   2.495   0.186  11.106 -2.8606 -0.4128 -1.0614
    1TCq1    H414055   2.548   0.625  11.111 -1.8365  2.0462  2.4264
    2MPD1     C14056   2.664   0.199  10.501 -0.2439  0.4700 -0.4804
    2MPD1    C114057   2.650   0.096  10.595  0.4798  0.2158  0.8249
    2MPD1    C214058   2.625   0.127  10.728 -0.2711 -0.0579 -0.4818
    2MPD1    C314059   2.598   0.257  10.765 -0.2438  0.0962  0.3534
    2MPD1    C414060   2.596   0.348  10.664 -0.3853 -0.1369 -0.0193
    2MPD1    C514061   2.630   0.325  10.533  0.3523 -0.6972 -0.9774
    2MPD1     H14062   2.634   0.059  10.811 -0.8830  0.1484 -0.2466
    2MPD1    H114063   2.558   0.447  10.685  2.2107  1.1975 -1.5179
    2MPD1    H214064   2.694   0.177  10.399 -0.0399  0.6722 -0.4625
    2MPD1    H314065   2.624   0.405  10.460 -1.4361  1.1172  1.1903
    2MPD1     N14066   2.569   0.286  10.895  0.5598 -0.0514  0.0604
    2MPD1    H514067   2.587   0.211  10.962 -1.4730  1.0904  1.8954
    2MPD1    N114068   2.694   4.701  10.556  0.0647 -0.4332  0.0128
    2MPD1    H614069   2.657   4.666  10.468  0.9950 -1.0510 -0.1219
    2MPD1    H714070   2.690   4.630  10.629 -0.3812  0.0051  0.4182
    1TCq1    O114071   2.860   2.716   1.896 -0.1438  0.3385  0.1096
    1TCq1    C114072   2.801   2.646   1.793 -0.0586  0.1206  0.3214
    1TCq1    O214073   2.825   2.532   1.762 -0.8450 -0.5963  0.1080
    1TCq1    C214074   2.677   2.711   1.766  0.0440 -0.5476 -0.0060
    1TCq1    C314075   2.672   2.847   1.774 -0.2241 -0.7326 -0.0729
    1TCq1    C414076   2.550   2.900   1.753  0.2705 -0.2343 -0.1640
    1TCq1    C514077   2.441   2.819   1.734 -0.2711 -0.4246  0.0360
    1TCq1    C614078   2.456   2.683   1.716 -0.3252 -0.1262  0.3313
    1TCq1    C714079   2.578   2.626   1.722 -0.1263  0.1329 -0.8977
    1TCq1    C814080   2.355   2.606   1.658 -0.5213 -0.0714  0.0204
    1TCq1    O414081   2.352   2.481   1.664  0.4110 -0.3140 -0.2339
    1TCq1    C914082   2.529   3.042   1.784  0.0745  0.1102 -0.1982
    1TCq1    O514083   2.412   3.084   1.798 -0.0210 -0.4553  0.3892
    1TCq1    O614084   2.632   3.110   1.803 -0.2636  0.9649  0.4078
    1TCq1    H114085   2.798   2.781   1.936  0.0367  0.6727 -0.1455
    1TCq1    H214086   2.751   2.919   1.788 -0.2630 -0.8595  0.7937
    1TCq1    H314087   2.343   2.864   1.738  0.3256  0.8181  0.5365
    1TCq1    H414088   2.591   2.519   1.713  1.0774  0.2906 -1.0916
    2MPD1     C14089   1.913   2.583   1.395 -0.0518 -0.0901  0.3679
    2MPD1    C114090   1.971   2.702   1.361  1.2009  0.4859  0.9116
    2MPD1    C214091   2.078   2.737   1.441 -0.0367  0.2713  0.4361
    2MPD1    C314092   2.146   2.646   1.524  0.6065  0.3486  0.7949
    2MPD1    C414093   2.098   2.518   1.539 -0.0487 -0.7592  0.4034
    2MPD1    C514094   1.982   2.486   1.467  0.2015  0.2371 -0.1771
    2MPD1     H14095   2.100   2.843   1.449  1.8077 -0.0030 -1.0109
    2MPD1    H114096   2.134   2.447   1.613  1.3538  0.0697  0.5090
    2MPD1    H214097   1.812   2.567   1.360 -0.8477  0.5026  2.3691
    2MPD1    H314098   1.951   2.382   1.466 -1.1435  0.6345 -0.7706
    2MPD1     N14099   2.264   2.688   1.591 -0.1646  0.7734 -0.4220
    2MPD1    H514100   2.284   2.785   1.569  0.0684  0.5029 -1.4404
    2MPD1    N114101   1.896   2.792   1.290 -0.4275 -0.1215  0.3620
    2MPD1    H614102   1.845   2.751   1.212 -1.0686  1.1547  0.0889
    2MPD1    H714103   1.953   2.867   1.251 -4.0847  1.9927 -0.9820
    1MPD1     C14104   3.538   4.043  12.608  0.7160 -0.5742  0.3606
    1MPD1    C114105   3.630   4.035  12.511  0.5452 -0.2374  0.3120
    1MPD1    C214106   3.717   4.139  12.497 -0.8436 -0.4531  0.3345
    1MPD1    C314107   3.703   4.260  12.563  0.3289  0.1261  0.1556
    1MPD1    C414108   3.603   4.276  12.657  0.1334 -0.3033  0.1453
    1MPD1    C514109   3.533   4.160  12.685  0.0428  0.4349 -0.2451
    1MPD1     H14110   3.799   4.133  12.426 -2.2430  0.7691 -1.3907
    1MPD1    H114111   3.595   4.364  12.718 -1.6358 -0.6878  0.4687
    1MPD1    H214112   3.472   3.958  12.626  0.1079 -0.1105  0.3243
    1MPD1    H314113   3.456   4.174  12.761  0.1008 -1.6633  0.1855
    1MPD1     N14114   3.795   4.365  12.540  0.5717 -0.6282  0.0668
    1MPD1    H514115   3.881   4.348  12.489  0.2351 -0.1882 -0.6412
    1MPD1    N114116   3.656   3.905  12.456 -0.5165 -0.0269  0.3039
    1MPD1    H614117   3.569   3.852  12.458  0.3624 -1.4912  0.2762
    1MPD1    H714118   3.706   3.902  12.367  0.3917  1.9120  0.7498
    2MPD1     C14119   3.385   0.082  11.772  0.6145 -0.0148 -0.4717
    2MPD1    C114120   3.336   0.054  11.641 -0.2861  0.2379  0.1804
    2MPD1    C214121   3.430   4.724  11.560  0.4440  0.0314 -0.3057
    2MPD1    C314122   3.564   4.717  11.604  0.1673  0.2675 -0.5475
    2MPD1    C414123   3.605   0.028  11.729 -0.4802  0.5291 -0.0792
    2MPD1    C514124   3.511   0.072  11.813 -0.4450 -0.2172 -0.1469
    2MPD1     H14125   3.399   4.675  11.468  0.6474 -0.2574 -0.2194
    2MPD1    H114126   3.704   0.023  11.772 -0.4161  2.3660 -0.0179
    2MPD1    H214127   3.323   0.120  11.852 -1.0754  0.4800 -2.0228
    2MPD1    H314128   3.544   0.122  11.903  1.2776 -2.3662  0.4065
    2MPD1     N14129   3.669   4.662  11.529  0.3928  0.7439 -0.7546
    2MPD1    H514130   3.756   4.645  11.579  0.7032  2.0463 -0.8376
    2MPD1    N114131   3.206   0.063  11.605  0.1302  0.2584 -0.5807
    2MPD1    H614132   3.208   0.096  11.508  0.1082 -0.4329 -0.8176
    2MPD1    H714133   3.154   0.139  11.649  0.9964  0.7519 -0.4105
    3MPD1     C14134   3.786   4.141  10.623  0.2109  0.5126  0.1512
    3MPD1    C114135   3.714   4.111  10.732 -0.4908 -0.3651  0.5329
    3MPD1    C214136   3.712   4.191  10.841  0.3658  0.4054 -1.1806
    3MPD1    C314137   3.795   4.298  10.852 -0.8166  0.0013  0.5780
    3MPD1    C414138   3.863   4.326  10.737 -0.7985 -0.1408 -0.7189
    3MPD1    C514139   3.864   4.248  10.623  0.3845 -0.3471  0.4685
    3MPD1     H14140   3.661   4.160  10.931  1.6634 -0.4206 -0.7365
    3MPD1    H114141   3.925   4.415  10.736  0.3498 -0.9526 -0.8194
    3MPD1    H214142   3.786   4.082  10.532 -0.0695 -0.2131  0.6164
    3MPD1    H314143   3.907   4.294  10.534  0.4384 -0.9972  0.1556
    3MPD1     N14144   3.811   4.365  10.970  0.7033  0.6121  0.4413
    3MPD1    H514145   3.757   4.333  11.049 -0.0009 -0.9255 -0.6598
    3MPD1    N114146   3.634   4.001  10.725 -0.2728 -0.6859  0.3402
    3MPD1    H614147   3.683   3.923  10.680  1.1497 -0.6057  1.7351
    3MPD1    H714148   3.598   3.977  10.817 -0.9790 -2.0370 -0.2756
    4MPD2     C14149   4.102   0.417  12.394  0.0628  0.4308  0.0089
    4MPD2    C114150   4.180   0.300  12.417 -0.0093  0.3684  0.1034
    4MPD2    C214151   4.295   0.273  12.346 -0.5580  0.5458 -0.3588
    4MPD2    C314152   4.341   0.361  12.246  0.3569  0.7720  0.9747
    4MPD2    C414153   4.269   0.481  12.232  0.8409 -0.4438  0.5094
    4MPD2    C514154   4.155   0.511  12.306  0.5070  0.2497  0.6829
    4MPD2     H14155   4.354   0.185  12.370 -1.6087 -0.1591 -0.3794
    4MPD2    H114156   4.313   0.557  12.168 -1.8782  0.8225  0.1028
    4MPD2    H214157   4.013   0.437  12.451 -0.6645 -0.4919 -0.7814
    4MPD2    H314158   4.100   0.603  12.291  1.3188  1.1227  3.0309
    4MPD2     N14159   4.447   0.329  12.157  0.7266 -0.3060 -0.1299
    4MPD2    H514160   4.458   0.395  12.081  0.4264  0.1608  0.2303
    4MPD2    N114161   4.146   0.201  12.511  0.0130  0.1829 -0.2964
    4MPD2    H714162   4.207   0.119  12.515  0.9029  0.6719 -3.3257
    5TMC3    C114163   4.019   0.045  12.620 -0.3171 -0.0085  0.3697
    5TMC3    C214164   3.908   4.698  12.591  0.2631 -0.0663 -0.7431
    5TMC3    C314165   3.910   4.562  12.578  0.6911 -0.5722 -0.3779
    5TMC3    C414166   4.142   4.706  12.625  0.0069 -0.1187 -0.7903
    5TMC3    C514167   4.138   4.574  12.597 -0.8790 -0.3746 -0.1778
    5TMC3    C614168   4.026   4.495  12.570  0.3248 -0.3421 -0.4095
    5TMC3     C14169   4.024   0.183  12.569 -0.5514 -0.3985 -0.1701
    5TMC3     O14170   3.922   0.238  12.541 -0.2323 -0.0073 -0.0465
    5TMC3     H14171   3.818   0.031  12.572  0.0420 -0.0648  0.3048
    5TMC3    H114172   4.230   0.032  12.663  0.0431  2.2013 -4.0243
    5TMC3    H214173   4.045   4.389  12.581 -3.0951 -1.1191 -2.1234
    5TMC3    C714174   4.230   4.557  12.488  0.9953  0.0489 -0.3690
    5TMC3    C814175   3.786   4.492  12.586 -0.0436  0.1208  0.0467
    5TMC3    O114176   4.274   4.668  12.455 -0.1215  0.4834 -0.0011
    5TMC3    O214177   3.689   4.558  12.626 -0.6512  0.4900  0.6530
    6TMC3    C114178   3.791   4.576  11.336  0.0219  0.1624 -0.0253
    6TMC3    C214179   3.792   4.520  11.207 -0.4603  0.2006 -0.1280
    6TMC3    C314180   3.911   4.501  11.138  0.8309 -0.7149  0.0485
    6TMC3    C414181   3.913   4.620  11.387  0.3913  0.3837 -0.3062
    6TMC3    C514182   4.029   4.597  11.311  0.0277  0.1768 -0.6414
    6TMC3    C614183   4.032   4.542  11.187  0.9544  0.0210  0.1204
    6TMC3     C14184   3.666   4.630  11.393 -0.3802  0.1410  0.8437
    6TMC3     O14185   3.575   4.654  11.315  0.2376 -0.0321 -0.2900
    6TMC3     H14186   3.694   4.491  11.173 -0.2767 -1.8700  1.0679
    6TMC3    H114187   3.916   4.691  11.469 -0.8567  2.9284 -2.4548
    6TMC3    H214188   4.125   4.513  11.139  0.6841  0.5295 -0.7135
    6TMC3    C714189   4.151   4.651  11.375  0.1329 -0.5103  0.2405
    6TMC3    C814190   3.908   4.462  10.999  0.4444 -0.0718 -0.0455
    6TMC3    O114191   4.140   4.706  11.484  0.0139  0.2858 -0.4527
    6TMC3    O214192   4.003   4.510  10.938 -0.0587  0.2362 -0.0823
    7MPD2     C14193   4.528   4.348  12.118  0.5067  0.6547 -0.6120
    7MPD2    C114194   4.518   4.477  12.170 -0.3562 -0.4062  0.9323
    7MPD2    C214195   4.424   4.497  12.272  0.4286  0.3717 -0.2757
    7MPD2    C314196   4.338   4.399  12.322  0.2037 -0.2886  0.8217
    7MPD2    C414197   4.341   4.280  12.248 -0.3765 -0.3884 -0.3562
    7MPD2    C514198   4.440   4.249  12.156 -0.5882 -0.2314 -0.3700
    7MPD2     H14199   4.429   4.597  12.312 -0.4564  0.3450 -0.1114
    7MPD2    H114200   4.275   4.197  12.272 -1.3988  0.2135 -1.0699
    7MPD2    H214201   4.596   4.317  12.041  1.0861 -0.0314  0.1792
    7MPD2    H314202   4.446   4.154  12.104 -1.3637 -1.5322  1.9337
    7MPD2     N14203   4.241   4.428  12.424 -0.5826  0.1000  0.2915
    7MPD2    H514204   4.174   4.355  12.447  1.8372 -1.7142  1.6314
    7MPD2    N114205   4.596   4.591  12.133 -0.5760  0.2688 -0.4338
    7MPD2    H714206   4.569   4.684  12.164  0.3218  0.1681  0.6065
    8TMC3    C114207   0.013   0.006  12.004  0.7679 -0.5447  0.0419
    8TMC3    C214208   4.709   0.031  11.873  0.0614  0.7122  0.0473
    8TMC3    C314209   4.629   0.131  11.838  0.2238  0.5010  0.4375
    8TMC3    C414210   4.698   0.097  12.095  0.8070  0.3034  0.7939
    8TMC3    C514211   4.621   0.205  12.065 -0.7289 -0.0364 -0.2451
    8TMC3    C614212   4.576   0.208  11.936 -0.1317  0.3127 -0.5231
    8TMC3     C14213   4.699   4.590  12.039  0.4769 -1.1835  0.1954
    8TMC3     O14214   0.034   4.499  11.983  0.2255 -0.3011  0.2428
    8TMC3     H14215   0.008   4.668  11.814  0.6462  1.2773 -0.5653
    8TMC3    H114216   0.010   0.085  12.197  2.8129 -0.3770 -0.0124
    8TMC3    H214217   4.513   0.292  11.907 -2.6057 -1.4449 -0.2134
    8TMC3    C714218   4.524   0.215  12.173 -0.1165 -0.3291 -1.2442
    8TMC3    C814219   4.551   0.102  11.721  0.3125 -0.4966 -1.6282
    8TMC3    O114220   4.511   0.114  12.240 -0.1223 -0.0936  0.5456
    8TMC3    O214221   4.433   0.137  11.734 -0.3113 -0.1911  0.6410
    9MPD2     C14222   4.667   4.646  11.414 -0.4815  0.4034 -0.1671
    9MPD2    C114223   4.575   4.706  11.499 -0.2350 -0.3947 -0.0385
    9MPD2    C214224   4.437   4.686  11.476 -0.7821 -0.3080  0.6823
    9MPD2    C314225   4.394   4.639  11.351  0.3353 -0.2121 -0.0831
    9MPD2    C414226   4.487   4.613  11.255 -0.4049  0.0676 -0.1405
    9MPD2    C514227   4.618   4.605  11.293 -0.3127  0.1744  0.4961
    9MPD2     H14228   4.370   4.717  11.555  1.5424  1.5572  1.9421
    9MPD2    H114229   4.470   4.561  11.162  1.2441  0.4850 -0.6689
    9MPD2    H214230   0.050   4.634  11.422 -0.2015  1.4707 -2.4097
    9MPD2    H314231   4.690   4.582  11.217 -2.2359  0.2621 -1.3608
    9MPD2     N14232   4.260   4.614  11.309 -0.5170 -0.0943 -0.5073
    9MPD2    H514233   4.247   4.588  11.211  0.5750  0.5972 -0.8332
    9MPD2    N114234   4.622   0.034  11.624 -0.8639 -0.6248  0.0530
    9MPD2    H714235   4.721   0.020  11.643 -0.3723  1.4090 -0.9822
    1MPD1     C14236   3.142   3.132  16.415 -0.2511  0.1685  0.7008
    1MPD1    C114237   3.041   3.208  16.466  0.6611  0.4352  0.1619
    1MPD1    C214238   2.961   3.277  16.378  0.9726  0.4810  0.0473
    1MPD1    C314239   2.973   3.259  16.244  0.4325  0.3072 -0.0322
    1MPD1    C414240   3.061   3.162  16.196  0.0540  0.2687 -0.4747
    1MPD1    C514241   3.146   3.100  16.279  0.6069 -0.3744 -0.2334
    1MPD1     H14242   2.891   3.347  16.423  0.3825  0.8844 -1.5132
    1MPD1    H114243   3.068   3.146  16.089 -0.6242 -2.2800 -0.1625
    1MPD1    H214244   3.226   3.097  16.474 -0.1569 -1.1769 -0.2235
    1MPD1    H314245   3.224   3.036  16.241  1.6050  0.3052  0.6704
    1MPD1     N14246   2.901   3.329  16.148  0.1195 -0.1914 -0.6198
    1MPD1    H514247   2.921   3.294  16.054  2.4100 -0.7953  0.0779
    1MPD1    N114248   3.045   3.239  16.606  0.0606 -0.6402  0.2051
    1MPD1    H614249   2.949   3.240  16.641  0.3492 -0.5967  1.0056
    1MPD1    H714250   3.099   3.175  16.664 -1.6446 -1.5194  0.8115
    2MPD1     C14251   2.707   4.225  15.577  0.1177  0.1107  0.6542
    2MPD1    C114252   2.646   4.119  15.504  0.4279  0.5577 -0.0869
    2MPD1    C214253   2.648   3.996  15.564 -0.2704  0.2502 -0.2984
    2MPD1    C314254   2.693   3.968  15.689 -0.5580  0.1082 -0.1742
    2MPD1    C414255   2.749   4.073  15.761 -0.3155  0.4278  0.2029
    2MPD1    C514256   2.753   4.198  15.703 -0.2266  0.9338  0.2699
    2MPD1     H14257   2.607   3.914  15.507 -0.2143  0.7303 -1.0337
    2MPD1    H114258   2.797   4.061  15.858  1.4307  0.3530 -0.6667
    2MPD1    H214259   2.721   4.323  15.534 -0.6242  0.6344  1.6021
    2MPD1    H314260   2.793   4.283  15.757 -0.1288  2.1600 -1.7335
    2MPD1     N14261   2.695   3.835  15.737  0.4003 -0.1188  0.9293
    2MPD1    H514262   2.655   3.761  15.681  2.1219 -0.4705  0.1451
    2MPD1    N114263   2.619   4.135  15.373 -0.1084 -0.4574 -0.7121
    2MPD1    H614264   2.534   4.086  15.348 -0.1111 -0.7032 -0.2133
    2MPD1    H714265   2.600   4.231  15.344 -0.8544 -0.5317 -0.4584
    3TCq2    C114266   2.734   3.799  15.865 -0.2514  0.0869 -0.8720
    3TCq2    O214267   2.758   3.868  15.962 -0.2923 -0.5740  0.0966
    3TCq2    C214268   2.749   3.652  15.890 -0.6705  0.2193  1.1360
    3TCq2    C314269   2.717   3.563  15.792 -0.1602 -0.0712 -0.2760
    3TCq2    C414270   2.722   3.430  15.813  0.4539  0.1802  0.0469
    3TCq2    C514271   2.719   3.385  15.942 -0.3485  0.0694 -0.2165
    3TCq2    C614272   2.757   3.475  16.036 -0.3872 -0.7901 -0.0666
    3TCq2    C714273   2.767   3.605  16.015  0.3644  0.3522 -0.0654
    3TCq2    C814274   2.813   3.431  16.168  0.2063  0.2563  0.5939
    3TCq2    O414275   2.770   3.483  16.270  0.5559  0.0627  0.1401
    3TCq2    C914276   2.697   3.341  15.707  1.0919 -0.6152 -1.2536
    3TCq2    O514277   2.647   3.376  15.597  0.9162 -0.5033 -0.9197
    3TCq2    O614278   2.755   3.230  15.709  0.1367  0.4110 -0.0411
    3TCq2    H214279   2.710   3.592  15.688 -0.3215  0.0513 -0.2302
    3TCq2    H314280   2.716   3.280  15.967  4.0799  0.6338  2.7769
    3TCq2    H414281   2.774   3.665  16.105  2.2780 -1.2346  0.8457
    1TCq1    O114282   1.474   2.141  12.595  0.3274 -0.1623 -0.0801
    1TCq1    C114283   1.605   2.143  12.607 -0.3189 -0.5868 -0.7653
    1TCq1    O214284   1.684   2.125  12.513 -0.4949 -0.6003  0.1320
    1TCq1    C214285   1.651   2.166  12.745  0.1962  0.7985 -0.3302
    1TCq1    C314286   1.570   2.136  12.850 -0.9014  0.4106 -0.0934
    1TCq1    C414287   1.593   2.194  12.973  0.5180  0.1743 -0.2135
    1TCq1    C514288   1.709   2.269  12.988  0.5475  0.3170  0.6490
    1TCq1    C614289   1.797   2.290  12.884 -0.5821 -0.7438  0.6448
    1TCq1    C714290   1.767   2.237  12.763 -0.1808  0.2863 -0.8851
    1TCq1    C814291   1.931   2.349  12.915 -0.1418 -0.5393  0.5798
    1TCq1    O414292   1.996   2.383  12.813 -0.1369 -0.5937  0.1949
    1TCq1    C914293   1.497   2.184  13.071 -0.3079  0.4484 -0.3222
    1TCq1    O514294   1.523   2.238  13.181  0.2015 -0.4883  0.2129
    1TCq1    O614295   1.388   2.145  13.036  0.2684  0.2081  0.6432
    1TCq1    H114296   1.439   2.184  12.676  1.6737 -0.4523  0.6691
    1TCq1    H214297   1.480   2.076  12.841 -0.4868 -0.5546  2.0196
    1TCq1    H314298   1.735   2.296  13.089  0.3696 -1.1427  1.0771
    1TCq1    H414299   1.840   2.250  12.683  2.8427  0.5085  1.9268
    2MPD2     C14300   2.179   2.474  13.041  0.1837  0.1503  0.5845
    2MPD2    C114301   2.052   2.449  13.108  0.4559 -0.0389 -1.0088
    2MPD2    C214302   2.041   2.481  13.242 -0.0934  0.2159  1.0037
    2MPD2    C314303   2.144   2.558  13.301 -0.5913  0.0773 -0.4778
    2MPD2    C414304   2.262   2.581  13.239 -0.0267 -0.2038  1.2246
    2MPD2    C514305   2.278   2.538  13.113  0.4662  0.2253  0.2189
    2MPD2     H14306   1.947   2.453  13.288 -0.9870  1.2925 -0.1521
    2MPD2    H114307   2.340   2.633  13.293  1.5366  0.1914 -1.3825
    2MPD2    H214308   2.194   2.443  12.938  1.1493  1.3422  0.3657
    2MPD2    H314309   2.374   2.562  13.068 -0.0036  0.1525 -0.8095
    2MPD2     N14310   2.136   2.599  13.436 -0.7911 -0.2158  0.3521
    2MPD2    H514311   2.218   2.649  13.467 -0.1073 -0.9561 -0.2476
    2MPD2    N114312   1.949   2.379  13.045 -0.2496 -0.0062 -0.1221
    2MPD2    H714313   1.874   2.359  13.110  1.0142 -1.2918  0.9427
    3TCq1    O114314   1.817   2.879  13.823  0.3651  0.1937  0.3230
    3TCq1    C114315   1.929   2.871  13.897  0.1062 -0.5889 -0.3111
    3TCq1    O214316   1.969   2.958  13.978  0.3311  0.2941 -0.2460
    3TCq1    C214317   2.019   2.786  13.825 -0.0276 -0.0844  0.1295
    3TCq1    C314318   2.150   2.785  13.869 -0.5767 -0.4665  0.2187
    3TCq1    C414319   2.235   2.696  13.810 -0.4362  0.1557 -0.2199
    3TCq1    C514320   2.195   2.626  13.695  0.2794  0.2142  0.1635
    3TCq1    C614321   2.062   2.622  13.661 -0.0764 -0.2515 -0.0464
    3TCq1    C714322   1.973   2.700  13.725 -0.4210  0.6196  0.1079
    3TCq1    C814323   2.030   2.579  13.523  0.0851  0.5420 -0.1308
    3TCq1    O414324   1.915   2.541  13.500  0.2033 -0.5448  0.2224
    3TCq1    C914325   2.366   2.680  13.859  1.2591  0.3152  0.3955
    3TCq1    O514326   2.435   2.583  13.819  0.6389  0.8916 -0.3516
    3TCq1    O614327   2.410   2.772  13.935 -0.5083  0.5111 -0.0438
    3TCq1    H114328   1.802   2.805  13.761  2.5863 -0.7675  0.9155
    3TCq1    H214329   2.178   2.850  13.951  0.1512 -0.1672 -0.2643
    3TCq1    H314330   2.270   2.567  13.644 -2.2583 -3.4328  0.6525
    3TCq1    H414331   1.874   2.696  13.682 -0.2608  0.3947 -0.2412
    1MPD2     C14332   1.553   3.383  15.223  0.2192 -0.3791  0.1283
    1MPD2    C114333   1.430   3.354  15.175  0.3569 -0.8256 -0.3741
    1MPD2    C214334   1.348   3.271  15.255  0.4081 -0.4375  0.3869
    1MPD2    C314335   1.389   3.224  15.381  0.6642 -0.2956  0.5131
    1MPD2    C414336   1.517   3.252  15.424 -0.1771 -0.2855  0.1434
    1MPD2    C514337   1.597   3.323  15.339 -0.2432  0.0167 -0.3329
    1MPD2     H14338   1.251   3.244  15.215  0.9489 -1.2811 -0.3687
    1MPD2    H114339   1.564   3.227  15.518 -0.7041 -1.4686  0.0881
    1MPD2    H214340   1.619   3.442  15.160 -0.1777 -1.0553 -0.9084
    1MPD2    H314341   1.700   3.340  15.368 -0.7731  0.9697  0.9373
    1MPD2     N14342   1.299   3.164  15.476 -0.3380 -0.3552 -0.5472
    1MPD2    H514343   1.352   3.135  15.557 -0.9046  1.9262  0.6525
    1MPD2    N114344   1.384   3.419  15.057 -0.1097 -0.7907  0.3271
    1MPD2    H714345   1.445   3.486  15.011 -1.4403  0.2600  0.0907
    2TMC3    C114346   1.210   3.513  14.919  0.3409 -0.3463  0.5527
    2TMC3    C214347   1.101   3.465  14.860 -0.4214 -0.4153  0.7074
    2TMC3    C314348   0.990   3.545  14.839 -0.1432  0.0293  0.2651
    2TMC3    C414349   1.218   3.641  14.965  0.6809  1.0138  0.4850
    2TMC3    C514350   1.112   3.726  14.936 -0.1706 -0.0478  0.0704
    2TMC3    C614351   1.002   3.683  14.868 -0.1206 -0.3567  0.4798
    2TMC3     C14352   1.254   3.405  15.008 -0.2703 -0.3229 -0.6585
    2TMC3     O14353   1.167   3.329  15.037  0.2361 -0.4762  0.2116
    2TMC3     H14354   1.099   3.365  14.818 -1.9210 -0.7708  1.6462
    2TMC3    H114355   1.300   3.684  15.021  0.3060  1.2588  0.8517
    2TMC3    H214356   0.913   3.743  14.884 -1.5643 -2.3192 -0.2745
    2TMC3    C714357   1.081   3.823  15.038 -0.2221  0.4743  0.2672
    2TMC3    C814358   0.863   3.482  14.877  0.0620 -0.4343  0.1544
    2TMC3    O114359   0.980   3.806  15.105 -0.6945 -0.3314 -0.1773
    2TMC3    O214360   0.763   3.546  14.872 -0.5456 -0.7102 -0.3366
    3TCq1    O114361   1.566   0.166  15.407 -0.0985 -0.4194 -0.0554
    3TCq1    C114362   1.640   0.151  15.293  0.5622 -0.3916 -0.2147
    3TCq1    O214363   1.744   0.211  15.273  0.3347  0.0284  0.6001
    3TCq1    C214364   1.609   0.022  15.224  0.3805  0.6762 -0.4775
    3TCq1    C314365   1.688   4.723  15.110 -0.0875 -0.3510 -0.8511
    3TCq1    C414366   1.671   4.607  15.044  0.3822  0.4187  0.0673
    3TCq1    C514367   1.578   4.517  15.085 -1.1337  0.6177 -0.1538
    3TCq1    C614368   1.496   4.547  15.191  0.1250  0.3497 -0.1864
    3TCq1    C714369   1.502   4.663  15.266  1.0794 -0.3567 -1.4321
    3TCq1    C814370   1.413   4.446  15.251  0.3316 -0.5081  0.0486
    3TCq1    O414371   1.371   4.470  15.369 -0.0195 -0.4909  0.3003
    3TCq1    C914372   1.762   4.581  14.936 -0.5081 -0.5239  0.2172
    3TCq1    O514373   1.856   4.663  14.918 -0.4939 -0.2602 -0.1031
    3TCq1    O614374   1.749   4.464  14.896  0.2898  0.8010  0.1497
    3TCq1    H114375   1.487   0.107  15.402  0.8280 -1.5731 -0.9435
    3TCq1    H214376   1.771   0.064  15.086 -0.0313  0.6655  2.1040
    3TCq1    H314377   1.576   4.415  15.047 -3.4446  0.6178 -0.0467
    3TCq1    H414378   1.442   4.688  15.353  1.4882 -0.2383 -1.1858
    4MPD2     C14379   1.199   4.245  15.305  0.0621 -0.3082 -0.4465
    4MPD2    C114380   1.273   4.248  15.191  0.0489  0.6126  0.9958
    4MPD2    C214381   1.269   4.139  15.108  0.2122 -0.3387  0.0388
    4MPD2    C314382   1.174   4.039  15.125 -0.7862 -0.5252 -0.2657
    4MPD2    C414383   1.079   4.057  15.224  0.7177 -0.0833 -0.2888
    4MPD2    C514384   1.096   4.159  15.314  0.3611 -0.2391 -0.3454
    4MPD2     H14385   1.336   4.126  15.023 -0.5411 -1.6687 -0.3523
    4MPD2    H114386   0.993   3.995  15.247  0.3698  0.5856  0.1800
    4MPD2    H214387   1.204   4.315  15.388 -1.2368  0.2774 -0.8554
    4MPD2    H314388   1.020   4.172  15.390  0.7333 -0.2103  0.0195
    4MPD2     N14389   1.167   3.929  15.033  0.1863  0.5650  0.1005
    4MPD2    H514390   1.241   3.921  14.964 -1.8530  1.0737 -2.1366
    4MPD2    N114391   1.376   4.344  15.167 -0.3490 -0.0624  0.0503
    4MPD2    H714392   1.421   4.343  15.076 -0.2300  0.3643  0.1081
    5TMC2    C114393   0.872   3.032  15.555 -0.6489  0.1249  0.0774
    5TMC2    C214394   0.863   3.101  15.673  0.0142  0.0705  0.2900
    5TMC2    C314395   0.983   3.125  15.737 -0.1941  0.6919 -0.0305
    5TMC2    C414396   0.989   3.014  15.500 -0.2164 -0.1850  0.4389
    5TMC2    C514397   1.101   3.060  15.553 -0.3816  0.5836  0.7282
    5TMC2    C614398   1.106   3.116  15.680 -0.8032 -0.4523 -0.8645
    5TMC2     C14399   0.770   3.062  15.454 -1.1040 -0.3493  0.1440
    5TMC2     O14400   0.658   3.094  15.491 -1.1360 -0.2724 -0.1310
    5TMC2     H14401   0.773   3.137  15.721 -0.6807 -1.0432 -0.1597
    5TMC2    H114402   1.009   2.954  15.412 -3.7054  0.0736 -0.5413
    5TMC2    H214403   1.190   3.163  15.730 -0.0466 -1.1908 -1.4441
    5TMC2    C714404   1.174   3.126  15.448 -0.0603  0.6305  0.2287
    5TMC2    C814405   0.980   3.156  15.876 -0.4542 -0.8269 -0.9907
    5TMC2    O114406   1.104   3.149  15.355  0.0284  0.3282 -0.3320
    5TMC2    O214407   0.884   3.205  15.934  0.2507 -0.2517 -0.1652
    5TMC2    O514408   1.066   3.073  15.938 -0.6212 -0.9701 -0.9158
    5TMC2    H514409   1.095   2.998  15.881  1.9121 -0.8417  0.1989
    6MPD2     C14410   0.672   3.314  15.019  0.3215  0.7377  0.2144
    6MPD2    C114411   0.807   3.311  15.035 -0.4153  0.5091 -0.6123
    6MPD2    C214412   0.853   3.230  15.143  0.3473 -0.3611 -0.0066
    6MPD2    C314413   0.767   3.169  15.238 -0.1375  0.7740 -0.1944
    6MPD2    C414414   0.631   3.192  15.223  0.0801  0.0913 -0.7186
    6MPD2    C514415   0.591   3.254  15.109 -0.1546  0.6249 -0.2167
    6MPD2     H14416   0.958   3.206  15.156  0.1956 -0.6077  0.7626
    6MPD2    H114417   0.563   3.142  15.291 -0.5922 -1.2573 -2.3926
    6MPD2    H214418   0.619   3.359  14.936  0.3063 -1.3314 -0.9012
    6MPD2    H314419   0.486   3.258  15.085 -0.5506 -3.0427  0.8438
    6MPD2     N14420   0.831   3.097  15.337 -0.7151  0.6280  0.1336
    6MPD2    H514421   0.929   3.078  15.321 -0.5705  1.5902 -0.1255
    6MPD2    N114422   0.897   3.381  14.962 -0.1793 -0.9402  0.0980
    6MPD2    H714423   0.996   3.373  14.984  0.5435  1.5191 -2.3397
  945NH4     N114424   2.581   1.693  17.491 -0.5152  0.6542 -0.1683
  945NH4     H214425   2.655   1.622  17.474 -1.5544 -0.3376 -0.5641
  945NH4     H314426   2.516   1.663  17.566 -2.4139  1.5512 -1.4500
  945NH4     H414427   2.524   1.707  17.405 -2.3684 -3.5936  0.3333
  945NH4     H514428   2.617   1.786  17.518 -0.2532  1.0422 -1.8406
  946SOD     NA14429   2.021   1.592  11.339  0.2769 -0.2339 -0.2735
  947SOD     NA14430   4.437   1.855   3.941  0.1630  0.3943  0.2807
  948SOD     NA14431   2.337   2.824  11.706 -0.2451  0.0866 -0.3949
  949SOD     NA14432   3.345   0.094  13.938  0.3547  0.2457  0.1366
  950SOD     NA14433   0.556   2.321   0.999  0.4269  0.4310 -0.4493
  951SOD     NA14434   3.952   3.919  12.830  0.6373  0.1908 -0.2216
  952SOD     NA14435   2.515   2.730  14.114 -0.5772  0.0505  0.5567
  953SOD     NA14436   3.223   1.511   8.874  0.1809  0.0081  0.1806
  954SOD     NA14437   3.616   4.109  17.399  0.3823 -0.2087 -0.1678
  955SOD     NA14438   0.735   3.323  10.630  0.2506  0.2538  0.0271
  956SOD     NA14439   0.460   2.468  14.444  0.1057  0.3830  0.0199
  957SOD     NA14440   2.194   0.175  10.539 -0.2692  0.2710  0.0966
  958SOD     NA14441   2.166   0.416  15.811  0.0865  0.3886  0.3656
  959SOD     NA14442   1.785   1.385  10.403 -0.3261  0.1780  0.6508
  960SOD     NA14443   0.953   2.052  14.683  0.2849 -0.2236 -0.8114
  961SOD     NA14444   1.941   0.422   4.619  0.1041 -0.0343  0.2198
  962SOD     NA14445   2.840   2.489  12.083 -0.5139  0.5715 -0.4769
  963SOD     NA14446   0.572   2.639   1.071  0.4213  0.6960 -0.3749
  964SOD     NA14447   2.155   0.044  11.357 -0.2356 -0.5805  0.0214
  965SOD     NA14448   2.787   0.314   4.054 -0.0586 -0.2304  0.0522
  966SOD     NA14449   3.779   0.726   1.185  0.0071 -0.7709  0.4675
  967SOD     NA14450   2.479   4.621  12.696  0.3570  0.4953 -0.1150
  968SOD     NA14451   1.407   1.588  10.508 -0.1323  0.1153  0.0161
  969SOD     NA14452   3.465   1.662  12.771  0.2191 -0.7288 -0.1362
  970SOD     NA14453   1.851   1.519  10.144 -0.1552 -0.0597 -0.0468
  971SOD     NA14454   1.153   4.139  10.208  0.2466  0.0246  0.0228
  972SOD     NA14455   3.300   1.296  16.709 -0.2427  0.4477 -0.4259
  973SOD     NA14456   0.103   2.164   1.746 -0.3279 -0.4582 -0.1341
  974SOD     NA14457   2.108   2.098  11.891 -0.5140 -0.3458 -0.1268
  975SOD     NA14458   0.077   1.013  11.190 -0.3462  0.2702 -0.1817
  976SOD     NA14459   4.134   0.917  15.384  0.4009 -0.3713  0.1153
  977SOD     NA14460   3.370   2.084   0.944 -0.1125  0.1379 -0.2088
  978SOD     NA14461   1.559   1.636  10.001 -0.3150 -0.3878  0.3162
  979SOD     NA14462   1.452   1.561   2.726  0.3181  0.0601 -0.1576
  980SOD     NA14463   2.680   3.135  15.237  0.3806  0.1867 -0.2453
  981SOD     NA14464   4.709   1.672   3.676 -0.2830  0.0076 -0.4425
  982SOD     NA14465   0.332   4.570   0.446 -0.4906 -0.3784 -0.9209
  983SOD     NA14466   4.443   4.006   2.159  0.1915 -0.5226  0.2489
  984SOD     NA14467   1.070   2.001  10.484 -0.8385  0.0315 -0.0485
  985SOD     NA14468   4.083   4.338  13.951  0.4061  0.1833 -0.3591
  986SOD     NA14469   1.945   3.282  14.829 -0.2422 -0.4109  0.3876
  987SOD     NA14470   3.637   3.644  16.282  0.0928 -0.4927 -0.1919
  988SOD     NA14471   2.501   0.184  16.795  0.6079  0.1970  0.0398
  989SOD     NA14472   0.301   1.754  13.110  0.1261  0.4735 -0.0253
  990SOD     NA14473   3.411   0.726   1.568 -0.3118 -0.1557 -0.4680
  991SOD     NA14474   3.663   0.915   1.400  0.0597 -0.0079  0.1117
  992SOD     NA14475   4.088   3.358  14.307 -0.1140 -0.6254 -0.1447
  993SOD     NA14476   3.623   2.581  14.255  0.3303 -0.0699 -0.6933
  994SOD     NA14477   4.636   3.967  14.519  0.4359 -0.2427  0.0341
  995SOD     NA14478   2.449   2.573  11.823 -0.2212  0.1910 -0.0494
  996SOD     NA14479   1.283   2.290  13.221  0.3131 -0.0372 -0.4130
  997SOD     NA14480   1.609   1.524   8.003  0.3927  0.5178  0.0806
  998SOD     NA14481   0.132   2.835  11.300  0.1375 -0.1814  0.4984
  999SOD     NA14482   1.484   3.631   3.759  0.1849  0.1446  0.1854
 1000SOD     NA14483   2.661   1.759  15.167 -0.3176  0.1630 -0.2790
 1001SOD     NA14484   1.654   4.074  15.124  0.7191 -0.3522 -0.1479
 1002SOD     NA14485   1.597   0.590   8.867  0.3189  0.4746 -0.2195
 1003SOD     NA14486   4.345   1.853  13.917 -0.2558 -0.1324 -0.1195
 1004SOD     NA14487   2.607   3.420  15.383 -0.3206 -0.0800  0.4284
 1005SOD     NA14488   3.417   1.765   0.902 -0.2773  0.3868 -0.4019
 1006SOD     NA14489   1.633   2.319  13.761 -0.1970  0.5510  0.2155
 1007SOD     NA14490   0.994   2.419   9.080  0.4891  0.1321 -0.1341
 1008SOD     NA14491   3.600   0.867   7.994  0.3293 -0.6208 -0.1587
 1009SOD     NA14492   3.690   3.581  11.080 -0.4556 -0.0691  0.5116
 1010SOD     NA14493   2.381   4.572  11.965  0.3153  0.5496  0.3276
 1011SOL     OW14494   3.594   0.168   8.268 -0.5352  0.0441 -0.2800
 1011SOL    HW114495   3.618   0.097   8.209 -0.9286 -1.3444  1.2187
 1011SOL    HW214496   3.674   0.216   8.288  0.1552 -1.6799  1.1193
 1012SOL     OW14497   3.479   0.809  12.005 -0.4031  0.0870  0.2517
 1012SOL    HW114498   3.415   0.784  12.071  0.8166 -0.9501  1.0369
 1012SOL    HW214499   3.533   0.877  12.044 -1.6717  1.8650 -1.1330
 1013SOL     OW14500   1.417   1.059  10.521  0.1944  0.0017  0.0543
 1013SOL    HW114501   1.459   1.123  10.579 -2.7102  1.5755  0.4001
 1013SOL    HW214502   1.379   0.992  10.578  1.5451  1.5512  2.8042
 1014SOL     OW14503   4.241   2.620   2.345  0.2962 -0.1599 -0.3482
 1014SOL    HW114504   4.244   2.524   2.339  1.6813 -0.2374  1.3104
 1014SOL    HW214505   4.155   2.631   2.305  1.9342  1.4769 -3.4075
 1015SOL     OW14506   3.251   3.081   4.329  0.4108 -0.5294 -0.4562
 1015SOL    HW114507   3.307   3.010   4.296 -0.0866 -1.0271 -0.2408
 1015SOL    HW214508   3.263   3.080   4.424  1.0156  0.1115 -0.5316
 1016SOL     OW14509   2.451   3.733   2.367  0.6789  0.1872 -0.0469
 1016SOL    HW114510   2.519   3.780   2.414  0.0199  0.7444  0.3528
 1016SOL    HW214511   2.388   3.736   2.439  0.1741 -0.1585 -0.4708
 1017SOL     OW14512   0.348   3.293   9.295  0.6240 -0.0111  0.4187
 1017SOL    HW114513   0.407   3.221   9.271  0.9926 -0.0703  1.5083
 1017SOL    HW214514   0.275   3.294   9.232  0.1201  1.0913  1.0246
 1018SOL     OW14515   1.980   1.591   2.614  0.2954 -0.1134 -0.1508
 1018SOL    HW114516   2.023   1.580   2.529 -1.1134 -0.2314 -0.8515
 1018SOL    HW214517   1.940   1.676   2.599 -1.8091 -0.9240  0.8276
 1019SOL     OW14518   0.637   1.852  15.907  0.3760  0.0713  0.4732
 1019SOL    HW114519   0.682   1.815  15.984 -1.7342 -1.9398  0.7280
 1019SOL    HW214520   0.550   1.819  15.931 -0.7553  2.5318 -0.2747
 1020SOL     OW14521   1.892   1.333   6.823 -0.0086 -0.2693  0.4399
 1020SOL    HW114522   1.840   1.383   6.885 -1.2376  2.0792 -2.4762
 1020SOL    HW214523   1.824   1.283   6.777 -0.0324  1.0550 -0.9770
 1021SOL     OW14524   0.536   3.191   8.275 -0.0280 -0.0477  0.1137
 1021SOL    HW114525   0.478   3.177   8.200  0.3676  1.4373 -0.4648
 1021SOL    HW214526   0.471   3.191   8.345 -1.2940  0.3122 -1.0490
 1022SOL     OW14527   2.230   2.164  11.031  0.0349  0.0702  0.0829
 1022SOL    HW114528   2.274   2.246  11.010  1.6202 -0.5089  1.1089
 1022SOL    HW214529   2.175   2.202  11.099  0.9428 -0.0641  0.8791
 1023SOL     OW14530   4.069   4.608   3.482 -1.3255 -0.6073  0.3105
 1023SOL    HW114531   3.991   4.645   3.525 -1.4344 -0.1313 -0.3007
 1023SOL    HW214532   4.096   4.551   3.555 -0.5220 -1.8504 -0.9650
 1024SOL     OW14533   2.938   0.731  17.322 -0.4246  0.0769  0.5177
 1024SOL    HW114534   2.952   0.641  17.351 -0.0537 -0.1759 -0.4288
 1024SOL    HW214535   3.028   0.750  17.296 -1.3643  0.9897 -2.1290
 1025SOL     OW14536   3.136   3.411   7.047 -0.1317  0.1018  0.0412
 1025SOL    HW114537   3.152   3.459   7.128  0.2557  0.5251 -0.2851
 1025SOL    HW214538   3.220   3.364   7.040 -0.1426  0.1948 -0.7640
 1026SOL     OW14539   2.936   4.332   4.184 -0.1377 -0.0475 -0.8366
 1026SOL    HW114540   2.929   4.347   4.090  1.8876 -1.1058 -1.1493
 1026SOL    HW214541   2.929   4.422   4.216  3.0241  0.2261 -0.9078
 1027SOL     OW14542   0.653   4.632   7.991  0.4860 -0.1887 -0.0566
 1027SOL    HW114543   0.739   4.613   8.028  0.9530 -2.2714 -2.2421
 1027SOL    HW214544   0.598   4.664   8.063  0.7500 -0.6509  0.3453
 1028SOL     OW14545   0.332   1.686   4.524  0.0343 -0.5978 -0.0479
 1028SOL    HW114546   0.415   1.641   4.541  0.5032 -0.1499 -1.1427
 1028SOL    HW214547   0.326   1.697   4.429  0.8901  1.9262  0.1842
 1029SOL     OW14548   1.289   4.484   2.610 -0.1925 -0.0204  1.1246
 1029SOL    HW114549   1.383   4.477   2.624 -0.2285  1.2475  2.0022
 1029SOL    HW214550   1.278   4.575   2.635 -1.7342 -0.2158  1.2034
 1030SOL     OW14551   3.129   1.000   6.339  0.2377 -0.3169 -0.5060
 1030SOL    HW114552   3.126   1.043   6.254 -0.3574  1.3326  0.3460
 1030SOL    HW214553   3.224   1.011   6.342  0.0999  0.9259 -0.9210
 1031SOL     OW14554   4.450   3.707  13.065 -0.6402 -0.0851 -0.0709
 1031SOL    HW114555   4.436   3.748  13.151 -0.2768 -0.5189  0.1977
 1031SOL    HW214556   4.394   3.759  13.008  0.8838  0.8177 -0.7264
 1032SOL     OW14557   3.699   3.768   2.796  0.4473 -0.0351  0.4469
 1032SOL    HW114558   3.737   3.827   2.861  1.1185  0.0396 -0.0138
 1032SOL    HW214559   3.775   3.760   2.739  1.6938 -0.7746  2.1828
 1033SOL     OW14560   4.102   3.570   3.277 -0.2343  0.1835  0.3747
 1033SOL    HW114561   4.093   3.660   3.244  0.4610  0.0503 -0.1741
 1033SOL    HW214562   4.114   3.527   3.193 -0.0009 -0.7466  0.8907
 1034SOL     OW14563   1.332   2.542   2.244 -0.8184  0.4626 -0.3857
 1034SOL    HW114564   1.379   2.461   2.265  0.8253  1.1533 -1.4668
 1034SOL    HW214565   1.349   2.544   2.150 -1.6313  0.1685 -0.5460
 1035SOL     OW14566   0.265   3.143  15.216  0.1954  0.3835 -0.0027
 1035SOL    HW114567   0.299   3.210  15.276  0.1921  0.7067 -0.3640
 1035SOL    HW214568   0.189   3.108  15.263 -0.2663  1.4494  0.0400
 1036SOL     OW14569   1.494   0.438  16.371  0.3016 -0.2799 -0.3931
 1036SOL    HW114570   1.450   0.471  16.292 -0.3732 -0.5413 -0.1272
 1036SOL    HW214571   1.583   0.472  16.365  0.1760  0.1054 -0.1505
 1037SOL     OW14572   0.152   1.348   5.263  0.5085  0.0686  0.0644
 1037SOL    HW114573   0.227   1.358   5.204 -0.1157  2.2124 -0.3592
 1037SOL    HW214574   0.081   1.388   5.212 -1.2025 -1.5134  1.1979
 1038SOL     OW14575   1.450   0.139   5.114 -0.1188 -0.6626 -0.0907
 1038SOL    HW114576   1.480   0.167   5.200  1.9725 -1.0382 -0.6959
 1038SOL    HW214577   1.458   0.219   5.063  2.5808 -2.4389 -2.4976
 1039SOL     OW14578   3.778   1.516   6.723  0.1010  0.5842  0.0943
 1039SOL    HW114579   3.700   1.567   6.702 -1.2285 -1.6225 -0.2827
 1039SOL    HW214580   3.789   1.461   6.646 -0.7645 -2.5649  2.2384
 1040SOL     OW14581   3.754   3.457   3.873 -0.0107 -0.0233 -0.3088
 1040SOL    HW114582   3.700   3.390   3.832 -1.4211  0.4811  0.6991
 1040SOL    HW214583   3.825   3.403   3.908  0.6496  1.7641  1.1156
 1041SOL     OW14584   3.062   0.769  14.282 -0.1506 -0.8904 -0.3358
 1041SOL    HW114585   2.986   0.711  14.292  0.8552 -2.4350 -1.8134
 1041SOL    HW214586   3.033   0.831  14.215 -1.0859 -0.6549  0.2764
 1042SOL     OW14587   4.608   4.406   4.380 -0.9217 -0.9036 -0.4334
 1042SOL    HW114588   4.516   4.403   4.408  0.1236 -1.0369  2.9880
 1042SOL    HW214589   4.611   4.311   4.370 -0.4168 -0.6891 -2.2824
 1043SOL     OW14590   3.254   2.303  10.719 -0.6289 -0.5165  0.4391
 1043SOL    HW114591   3.181   2.259  10.675 -0.5845 -1.2064  1.0496
 1043SOL    HW214592   3.273   2.370  10.654  0.3866 -1.3016 -0.0698
 1044SOL     OW14593   3.555   2.432   2.046  0.6292 -0.9988  0.1668
 1044SOL    HW114594   3.461   2.426   2.065  0.2266 -1.4247 -1.9990
 1044SOL    HW214595   3.582   2.346   2.078  2.6137 -0.3276  0.2465
 1045SOL     OW14596   1.552   0.409   8.464 -0.1298 -0.4207  0.3330
 1045SOL    HW114597   1.471   0.363   8.488 -0.1206 -1.2778 -1.3062
 1045SOL    HW214598   1.615   0.340   8.483  0.2771 -0.6211 -1.7802
 1046SOL     OW14599   3.193   0.030   7.885  0.0301 -0.2280  0.6537
 1046SOL    HW114600   3.113   0.076   7.911  1.6809  2.0562  1.6767
 1046SOL    HW214601   3.244   0.098   7.841  1.2399 -2.0234 -0.7153
 1047SOL     OW14602   2.252   3.175   1.342  0.0101  0.2712  0.2148
 1047SOL    HW114603   2.233   3.234   1.269 -0.9522  1.9987  1.8570
 1047SOL    HW214604   2.329   3.218   1.379  0.1575  0.3162 -0.1417
 1048SOL     OW14605   3.135   0.187  13.898  0.0477  0.1480 -0.1609
 1048SOL    HW114606   3.061   0.133  13.927 -1.0996  0.3554 -2.7197
 1048SOL    HW214607   3.149   0.247  13.971  0.3203 -1.0549  0.7826
 1049SOL     OW14608   4.592   2.001   3.369  0.1029 -0.1638 -0.4990
 1049SOL    HW114609   4.553   1.978   3.285 -1.9482  1.4253  0.0133
 1049SOL    HW214610   4.638   2.082   3.350 -0.6224  0.0795 -1.2242
 1050SOL     OW14611   4.209   4.331   6.823 -0.7156  0.4019 -0.3521
 1050SOL    HW114612   4.256   4.372   6.750 -3.1588  1.8311 -1.1379
 1050SOL    HW214613   4.265   4.258   6.849  1.3443  1.1884 -2.5583
 1051SOL     OW14614   2.281   2.030  13.960 -0.2608  0.2937  0.1497
 1051SOL    HW114615   2.335   2.086  14.016 -0.4492 -1.3969  2.0320
 1051SOL    HW214616   2.298   1.949  14.009  0.2728  0.4487  0.2227
 1052SOL     OW14617   0.207   0.810  11.111 -0.9386  0.3246  0.4374
 1052SOL    HW114618   0.276   0.793  11.046 -0.5906  2.7241  0.1712
 1052SOL    HW214619   0.232   0.754  11.184  0.2455 -1.0380 -1.0426
 1053SOL     OW14620   1.242   3.938   7.406  0.7358 -0.1168 -0.1923
 1053SOL    HW114621   1.314   3.911   7.349  1.6327 -1.4463  1.5733
 1053SOL    HW214622   1.229   3.857   7.454  0.8880 -2.2859 -3.8339
 1054SOL     OW14623   2.514   1.089  15.506  0.3025  0.0654 -0.3590
 1054SOL    HW114624   2.567   1.096  15.426  0.6171 -1.0341 -0.2545
 1054SOL    HW214625   2.444   1.033  15.471  0.4160 -1.0409  1.1648
 1055SOL     OW14626   0.778   2.686   4.333  0.1083 -0.8627 -0.3410
 1055SOL    HW114627   0.830   2.750   4.382 -1.0222 -0.8519  0.8395
 1055SOL    HW214628   0.832   2.608   4.346  1.9140  0.5403  0.7235
 1056SOL     OW14629   4.234   3.985   5.497  0.0713 -0.1578  0.2111
 1056SOL    HW114630   4.168   3.923   5.466 -0.8662  0.8926  0.1022
 1056SOL    HW214631   4.193   4.069   5.475 -2.2023 -1.1043  0.8715
 1057SOL     OW14632   0.652   4.012  17.384 -0.0321 -0.7181 -0.5252
 1057SOL    HW114633   0.596   3.935  17.389 -2.5952  1.2029  0.7426
 1057SOL    HW214634   0.740   3.979  17.397  0.2535  0.3495  0.2950
 1058SOL     OW14635   2.447   3.451  11.594  0.2160  0.9231  0.2726
 1058SOL    HW114636   2.423   3.458  11.687 -0.1825 -1.1962  0.3393
 1058SOL    HW214637   2.451   3.539  11.558  2.3196 -0.0272 -1.8454
 1059SOL     OW14638   0.197   4.662  11.652  0.0161 -0.0267 -0.3545
 1059SOL    HW114639   0.261   4.710  11.598  2.0331  0.2138  2.2224
 1059SOL    HW214640   0.251   4.604  11.706 -1.4582 -1.5234 -0.5067
 1060SOL     OW14641   4.674   2.906   8.196  0.5049 -0.2353  0.1993
 1060SOL    HW114642   4.651   2.815   8.180 -1.5230  0.1824  0.6959
 1060SOL    HW214643   4.616   2.923   8.270  0.3584  0.0734  0.0122
 1061SOL     OW14644   1.676   3.816  14.787  0.7867 -0.4543  0.2298
 1061SOL    HW114645   1.653   3.845  14.699 -1.1513  0.8702  1.1735
 1061SOL    HW214646   1.756   3.864  14.804  2.2207 -2.6660 -0.2980
 1062SOL     OW14647   4.606   1.992   6.973  0.1917  0.0723 -0.2246
 1062SOL    HW114648   4.531   1.959   7.023  0.3438  1.4271  0.8832
 1062SOL    HW214649   4.610   2.079   7.011 -0.2521 -0.4930  1.1282
 1063SOL     OW14650   3.274   2.884   8.162 -0.2850  0.0738  0.4263
 1063SOL    HW114651   3.239   2.908   8.076  1.2415  1.4376  0.1776
 1063SOL    HW214652   3.340   2.819   8.139  1.0781  1.4569  0.3645
 1064SOL     OW14653   1.141   2.838  15.807 -0.0131 -0.4798 -0.0362
 1064SOL    HW114654   1.225   2.814  15.769  1.0554  2.6960  0.3720
 1064SOL    HW214655   1.093   2.755  15.805 -0.4789 -0.2128  0.1372
 1065SOL     OW14656   1.460   0.902   9.645 -0.1418  0.1615  0.1411
 1065SOL    HW114657   1.552   0.922   9.664 -0.3412  1.1058  0.0950
 1065SOL    HW214658   1.463   0.810   9.617  0.4758  0.4165 -0.6449
 1066SOL     OW14659   1.389   1.432   5.042 -0.3619 -0.3578  0.4288
 1066SOL    HW114660   1.318   1.421   4.979  1.0925  0.1878 -1.3096
 1066SOL    HW214661   1.459   1.392   4.989  0.5651  0.7315  0.8257
 1067SOL     OW14662   4.315   4.053  17.032  0.1748  0.5893  0.1000
 1067SOL    HW114663   4.389   4.041  17.091  0.8349  2.3454 -0.3581
 1067SOL    HW214664   4.252   4.002  17.082 -0.4560  0.5281 -0.7632
 1068SOL     OW14665   2.142   3.443   4.325 -0.2355 -0.1773 -0.5657
 1068SOL    HW114666   2.196   3.440   4.404  0.0057 -1.7385 -0.7773
 1068SOL    HW214667   2.092   3.523   4.337  0.8582  0.3502  0.3903
 1069SOL     OW14668   0.425   1.035   1.730  0.3830  0.1260 -0.0055
 1069SOL    HW114669   0.418   0.986   1.649 -0.1845  1.5150 -0.7947
 1069SOL    HW214670   0.481   1.103   1.694  0.2719  0.0724 -0.2772
 1070SOL     OW14671   2.971   0.213   4.863  0.1339  0.2863 -0.6636
 1070SOL    HW114672   2.942   0.158   4.935 -0.7299  1.1513 -0.3407
 1070SOL    HW214673   2.981   0.291   4.918  1.8931 -1.0523  0.8989
 1071SOL     OW14674   4.032   4.133   7.003 -0.4003 -0.1371  0.2670
 1071SOL    HW114675   3.994   4.183   6.931 -0.6940 -2.0379 -0.8814
 1071SOL    HW214676   4.122   4.127   6.970 -0.2389  0.5212  0.5859
 1072SOL     OW14677   0.882   4.522   9.375  0.7076 -0.4097 -0.2650
 1072SOL    HW114678   0.855   4.602   9.420 -1.6698 -3.2135  3.2540
 1072SOL    HW214679   0.849   4.451   9.431  1.1199 -0.6209 -0.2872
 1073SOL     OW14680   3.163   3.147  17.602  0.4079 -0.2997  0.1244
 1073SOL    HW114681   3.112   3.222  17.630  2.9265  1.3454  0.3360
 1073SOL    HW214682   3.084   3.102  17.573  0.9521 -1.0854 -0.1602
 1074SOL     OW14683   4.228   0.342  11.879 -0.1176 -0.5255 -0.2205
 1074SOL    HW114684   4.242   0.356  11.785 -0.1072  1.2671  0.0507
 1074SOL    HW214685   4.216   0.248  11.888  1.6868 -0.5860  1.4630
 1075SOL     OW14686   0.492   0.211  12.547  0.7656 -0.0984 -0.4439
 1075SOL    HW114687   0.514   0.259  12.626 -4.3380 -1.2423  1.6467
 1075SOL    HW214688   0.444   0.136  12.583  1.1921  0.3850  1.1108
 1076SOL     OW14689   3.954   3.556   9.258  0.4774 -0.6222  0.2032
 1076SOL    HW114690   3.931   3.580   9.348  0.5257 -1.9522  0.5749
 1076SOL    HW214691   3.922   3.634   9.212 -1.8608 -2.2706 -0.9840
 1077SOL     OW14692   1.568   1.729   2.618 -0.2912 -0.1754 -0.1245
 1077SOL    HW114693   1.531   1.791   2.556 -1.1866  0.1371  0.7157
 1077SOL    HW214694   1.662   1.747   2.624 -0.1620 -0.6185 -0.8633
 1078SOL     OW14695   2.782   4.438   5.035  0.0657  0.3670 -0.1481
 1078SOL    HW114696   2.834   4.480   4.966  1.3306 -2.9322 -1.2123
 1078SOL    HW214697   2.798   4.345   5.022 -0.8929 -0.1132  2.2861
 1079SOL     OW14698   3.085   0.808   1.395 -0.0688 -0.8772 -0.1825
 1079SOL    HW114699   3.019   0.770   1.454  0.1799 -0.6864  0.2226
 1079SOL    HW214700   3.154   0.833   1.457 -0.8980 -0.9237  0.7722
 1080SOL     OW14701   1.298   3.867   3.112  0.2501  0.7284 -0.3076
 1080SOL    HW114702   1.336   3.954   3.127 -0.2198  0.8588  0.1171
 1080SOL    HW214703   1.229   3.899   3.053  1.9662  1.3930 -1.9866
 1081SOL     OW14704   0.620   1.852  10.374  0.6359  0.2869  0.4388
 1081SOL    HW114705   0.647   1.798  10.299 -1.2320  2.8327 -2.0999
 1081SOL    HW214706   0.560   1.786  10.409  0.8228  0.3675  0.9002
 1082SOL     OW14707   4.642   0.782   6.110  0.2848 -0.8468  0.2506
 1082SOL    HW114708   4.642   0.686   6.113 -1.8124 -0.8488  0.1326
 1082SOL    HW214709   4.722   0.800   6.060  0.7635 -2.3780  0.4476
 1083SOL     OW14710   2.499   2.875   5.257 -0.4054 -0.2050 -0.2995
 1083SOL    HW114711   2.538   2.795   5.293 -2.0043 -1.4444 -1.3139
 1083SOL    HW214712   2.430   2.826   5.213 -0.5051  0.1422 -0.5258
 1084SOL     OW14713   2.757   1.604  10.712  0.2331 -0.5368 -0.1088
 1084SOL    HW114714   2.723   1.691  10.689  1.6337 -0.1709 -0.7921
 1084SOL    HW214715   2.841   1.614  10.666  0.3357 -2.8191 -0.4063
 1085SOL     OW14716   4.150   1.397   7.353  0.1588 -0.0943 -0.6542
 1085SOL    HW114717   4.151   1.487   7.387  1.3709  0.9944 -3.5464
 1085SOL    HW214718   4.111   1.355   7.429  0.3873  0.4431 -0.2344
 1086SOL     OW14719   2.588   4.301   5.577  0.0885 -0.1787  0.0272
 1086SOL    HW114720   2.534   4.235   5.621  1.3901 -1.4769 -0.3097
 1086SOL    HW214721   2.640   4.343   5.646 -1.8342  1.2956  0.5675
 1087SOL     OW14722   3.509   1.047   3.569  0.0641 -0.3666 -0.9393
 1087SOL    HW114723   3.585   1.078   3.617 -0.5672 -1.4942  0.8079
 1087SOL    HW214724   3.536   1.016   3.483  1.4179 -0.3379 -0.5183
 1088SOL     OW14725   1.791   4.247  15.032 -0.0439 -0.2558  0.5161
 1088SOL    HW114726   1.758   4.327  14.992 -1.9367 -0.7087  1.2103
 1088SOL    HW214727   1.882   4.251  15.001 -0.8042  0.8818 -1.6157
 1089SOL     OW14728   0.741   2.232   9.978 -0.4974  0.1347 -0.2329
 1089SOL    HW114729   0.825   2.188   9.982 -0.6520 -0.0901  0.5253
 1089SOL    HW214730   0.702   2.189  10.054 -0.6450  1.8943  0.6848
 1090SOL     OW14731   2.594   0.810   7.840  0.6428 -0.0869  0.2185
 1090SOL    HW114732   2.516   0.866   7.836 -0.2192 -1.1245  2.4676
 1090SOL    HW214733   2.556   0.723   7.844  1.3508 -0.3621  1.0889
 1091SOL     OW14734   3.431   1.637  10.764  0.2911  0.5576  0.1145
 1091SOL    HW114735   3.439   1.618  10.857 -0.7222  1.3373  0.3577
 1091SOL    HW214736   3.338   1.655  10.752  0.0862  0.5674  1.8631
 1092SOL     OW14737   0.904   1.334   4.115 -0.1275 -0.1299 -0.0090
 1092SOL    HW114738   0.940   1.257   4.070  0.9226  0.8862 -0.8956
 1092SOL    HW214739   0.810   1.314   4.119 -0.1094 -0.2052  0.0404
 1093SOL     OW14740   3.487   4.003   8.969 -0.7230  0.6013  0.1835
 1093SOL    HW114741   3.423   4.067   9.001 -1.1419 -0.6835  1.8645
 1093SOL    HW214742   3.540   4.066   8.919 -0.9665  0.5379 -0.1552
 1094SOL     OW14743   3.090   1.284   7.956  0.2936 -0.4183  0.1361
 1094SOL    HW114744   3.016   1.327   7.998 -0.0696 -2.8675  1.9834
 1094SOL    HW214745   3.053   1.202   7.923 -0.7637 -0.0296  0.3597
 1095SOL     OW14746   2.218   2.657   0.187  0.4021 -0.7363 -0.9190
 1095SOL    HW114747   2.211   2.561   0.188 -0.5946 -0.6872 -2.7396
 1095SOL    HW214748   2.196   2.670   0.279  1.3114 -1.9444 -0.5313
 1096SOL     OW14749   3.222   1.334  14.553 -0.2705  0.0117  0.2551
 1096SOL    HW114750   3.179   1.410  14.514  1.5143 -0.2603 -2.2767
 1096SOL    HW214751   3.267   1.306  14.473 -3.6531  0.5733 -1.8244
 1097SOL     OW14752   1.231   1.858   0.802 -0.0747 -0.3297  0.3109
 1097SOL    HW114753   1.175   1.907   0.742  0.9697  1.5812  0.9168
 1097SOL    HW214754   1.216   1.769   0.771  1.6460 -1.1368  1.7977
 1098SOL     OW14755   4.357   0.848   3.264 -0.5025  0.0124  0.0956
 1098SOL    HW114756   4.366   0.793   3.341  1.2786  0.9959  0.5882
 1098SOL    HW214757   4.410   0.798   3.202  1.0566  0.1282  1.3267
 1099SOL     OW14758   1.266   4.225  14.683 -0.3122 -0.2268  0.4488
 1099SOL    HW114759   1.192   4.268  14.640  1.4623  3.2982  0.8667
 1099SOL    HW214760   1.256   4.134  14.657  2.2604 -0.0444 -1.2258
 1100SOL     OW14761   0.046   2.504  15.870  0.0638  0.0895  0.0285
 1100SOL    HW114762   0.078   2.465  15.789  0.0771 -1.1459  0.6283
 1100SOL    HW214763   0.024   2.594  15.846 -1.6118 -0.7624 -1.6176
 1101SOL     OW14764   0.833   0.599   5.679 -0.2394 -0.3073  0.4250
 1101SOL    HW114765   0.896   0.599   5.607 -2.2211 -2.1372 -1.3094
 1101SOL    HW214766   0.767   0.547   5.632 -0.0165 -0.9438  0.8167
 1102SOL     OW14767   0.586   3.764   8.199 -0.4128 -0.3437 -0.0503
 1102SOL    HW114768   0.647   3.837   8.198  1.3245 -1.8149 -1.2125
 1102SOL    HW214769   0.625   3.703   8.137  2.2016 -0.2007  1.4616
 1103SOL     OW14770   3.263   4.539   8.028  0.2000  0.0254 -0.4277
 1103SOL    HW114771   3.212   4.610   7.991 -1.7020 -1.4609 -0.6601
 1103SOL    HW214772   3.230   4.457   7.990 -0.9090  1.0811 -1.7090
 1104SOL     OW14773   3.248   2.289  13.848  0.4850  0.1370 -0.1475
 1104SOL    HW114774   3.325   2.322  13.802  0.7967  0.7966  0.8397
 1104SOL    HW214775   3.186   2.361  13.837  1.7098  0.7358 -2.9944
 1105SOL     OW14776   2.103   0.284  17.473 -0.3867  0.1172 -0.1769
 1105SOL    HW114777   2.100   0.220  17.544 -0.3145  0.8010  0.4406
 1105SOL    HW214778   2.163   0.341  17.520  0.1503 -0.1149 -0.5753
 1106SOL     OW14779   1.320   4.719  16.236  1.3135  0.2982  0.1499
 1106SOL    HW114780   1.340   0.028  16.149 -1.9010 -2.2657 -1.5769
 1106SOL    HW214781   1.345   4.627  16.224  2.4487  1.0456 -3.1693
 1107SOL     OW14782   3.807   2.264  12.085 -0.5403  0.0774 -0.2064
 1107SOL    HW114783   3.822   2.171  12.070 -2.8816 -0.3829  0.3502
 1107SOL    HW214784   3.891   2.298  12.055 -0.0174  0.6436  1.8311
 1108SOL     OW14785   2.224   3.127   6.463 -0.0200 -0.1502 -0.0996
 1108SOL    HW114786   2.173   3.120   6.544 -1.2124 -1.5445 -0.9781
 1108SOL    HW214787   2.171   3.079   6.399  1.9210 -3.1921  0.5806
 1109SOL     OW14788   0.308   2.993   2.857 -0.2702 -0.1223 -0.2420
 1109SOL    HW114789   0.337   2.909   2.823  1.3164  0.1443  0.4389
 1109SOL    HW214790   0.350   2.985   2.942 -0.3824 -2.3709 -0.3985
 1110SOL     OW14791   2.455   0.907   4.687 -0.1193 -0.5675  0.0152
 1110SOL    HW114792   2.418   0.823   4.662 -1.9200  0.5839 -1.1978
 1110SOL    HW214793   2.545   0.895   4.659 -0.4173 -0.1633 -1.1015
 1111SOL     OW14794   1.914   0.598  12.595 -0.0980 -0.6088  0.0042
 1111SOL    HW114795   1.936   0.688  12.569  1.0547 -0.9159 -0.0503
 1111SOL    HW214796   1.941   0.597  12.686 -0.0321 -0.7955 -0.0183
 1112SOL     OW14797   3.165   2.243   3.464 -0.7944 -0.0177  0.3937
 1112SOL    HW114798   3.204   2.193   3.535  0.5721 -0.1822 -0.4730
 1112SOL    HW214799   3.077   2.267   3.493 -0.8130  0.5396 -0.1169
 1113SOL     OW14800   1.133   2.386   6.225 -0.7049  0.1463  0.9896
 1113SOL    HW114801   1.196   2.432   6.170 -0.6551 -2.6742 -1.3122
 1113SOL    HW214802   1.132   2.445   6.301 -1.4601  0.2337  0.9180
 1114SOL     OW14803   2.990   3.656   0.457  0.3999 -0.1367  0.1731
 1114SOL    HW114804   2.961   3.662   0.366  2.0296  2.1229 -0.1970
 1114SOL    HW214805   2.963   3.741   0.492  1.9712  0.0286  0.9891
 1115SOL     OW14806   4.451   4.659   2.634 -0.2281  0.1324 -0.5033
 1115SOL    HW114807   4.529   4.712   2.619 -0.6631  1.2229  1.1507
 1115SOL    HW214808   4.389   4.680   2.564 -1.3240 -0.2218  0.3643
 1116SOL     OW14809   0.679   0.247   9.902 -0.4327  0.4499 -0.6276
 1116SOL    HW114810   0.706   0.246   9.994 -0.4107  1.8054 -0.6128
 1116SOL    HW214811   0.674   0.341   9.883 -0.8228  0.1314 -2.1590
 1117SOL     OW14812   1.447   2.558   9.004  0.2509 -0.3885  0.2702
 1117SOL    HW114813   1.421   2.637   9.051  0.0080  0.0203 -0.5502
 1117SOL    HW214814   1.540   2.556   9.027  0.8529 -1.7491 -2.3374
 1118SOL     OW14815   0.375   3.517   3.877  0.0769 -0.3692  0.1971
 1118SOL    HW114816   0.371   3.471   3.961 -0.4869  0.9137  0.8828
 1118SOL    HW214817   0.414   3.602   3.899 -1.3547 -0.0462  1.4224
 1119SOL     OW14818   0.209   1.352   4.130  0.0623 -0.6671 -0.0189
 1119SOL    HW114819   0.286   1.408   4.120 -0.4871 -0.0945 -1.0824
 1119SOL    HW214820   0.211   1.289   4.058 -1.3786 -0.1408 -0.5133
 1120SOL     OW14821   1.568   1.526   0.554  0.0830  0.3539  0.3622
 1120SOL    HW114822   1.553   1.618   0.574 -0.7132  0.1313  0.8025
 1120SOL    HW214823   1.540   1.477   0.631 -0.1957  1.7982  1.1709
 1121SOL     OW14824   0.650   2.649   4.921 -0.1157  0.1299  0.3168
 1121SOL    HW114825   0.590   2.637   4.994  0.7328 -1.2568  0.7823
 1121SOL    HW214826   0.735   2.644   4.965 -0.8090 -0.7506  1.5480
 1122SOL     OW14827   2.360   1.657   6.094 -0.1809  0.0090  0.1296
 1122SOL    HW114828   2.318   1.641   6.009 -1.9938  0.7124  0.9019
 1122SOL    HW214829   2.411   1.734   6.069 -0.8761  1.5441  3.4974
 1123SOL     OW14830   2.183   3.568   6.764 -0.4397  0.3640 -0.8967
 1123SOL    HW114831   2.276   3.591   6.766 -0.4063  0.1598  0.3561
 1123SOL    HW214832   2.183   3.474   6.779  1.6918  0.6572  1.0471
 1124SOL     OW14833   3.609   4.584  16.088 -1.0536 -0.1159  0.2821
 1124SOL    HW114834   3.533   4.612  16.036 -0.5775  2.7719  1.1372
 1124SOL    HW214835   3.582   4.615  16.174 -0.0802  1.2156  0.1004
 1125SOL     OW14836   1.328   4.456  12.877  0.4974 -0.6153  0.0421
 1125SOL    HW114837   1.383   4.433  12.952  0.9528  1.7509  0.4170
 1125SOL    HW214838   1.280   4.535  12.902 -0.3397 -0.4251 -2.2044
 1126SOL     OW14839   3.478   3.609  14.671 -0.2831 -0.1544  0.2833
 1126SOL    HW114840   3.413   3.677  14.652  1.5399  1.4548 -0.2145
 1126SOL    HW214841   3.495   3.577  14.582 -0.3545  0.8429 -0.0869
 1127SOL     OW14842   1.982   1.330  16.881 -0.7381 -0.0702  0.5760
 1127SOL    HW114843   2.004   1.416  16.844 -1.5275 -0.0958  0.0453
 1127SOL    HW214844   1.887   1.326  16.884 -0.7786 -0.7993 -1.2039
 1128SOL     OW14845   3.105   2.257   4.653  0.0151 -0.3131 -0.0656
 1128SOL    HW114846   3.089   2.231   4.563 -1.2471  1.2162 -0.2810
 1128SOL    HW214847   3.028   2.310   4.673  1.9513  3.4598 -2.5763
 1129SOL     OW14848   0.990   3.403   2.786  0.1941 -0.1045 -0.3194
 1129SOL    HW114849   1.017   3.490   2.758  2.7927 -0.3087  1.5755
 1129SOL    HW214850   0.946   3.429   2.867  1.2016  0.3228  0.0849
 1130SOL     OW14851   0.368   3.016   5.144 -0.0070 -0.2774 -0.2827
 1130SOL    HW114852   0.364   2.997   5.050 -0.3503 -0.7492 -0.1721
 1130SOL    HW214853   0.410   2.941   5.186 -1.1614 -1.7609 -1.7876
 1131SOL     OW14854   2.182   4.593   4.787  0.4625  0.6860  0.4640
 1131SOL    HW114855   2.258   4.649   4.804  0.1876  1.0565  0.4660
 1131SOL    HW214856   2.214   4.503   4.792  2.7337  1.5746  2.1340
 1132SOL     OW14857   3.443   3.523  14.414 -0.0840  0.6238  0.6992
 1132SOL    HW114858   3.450   3.429  14.427 -2.1726 -0.1103 -3.4535
 1132SOL    HW214859   3.420   3.533  14.321 -0.6349 -1.2446  0.6509
 1133SOL     OW14860   3.299   1.494  15.527 -0.3900  0.0051 -0.1033
 1133SOL    HW114861   3.372   1.509  15.467  0.3498 -1.8225  0.3427
 1133SOL    HW214862   3.234   1.447  15.474  3.0023 -2.8351 -1.7185
 1134SOL     OW14863   2.169   2.270   9.524 -0.2158  0.4125 -0.4356
 1134SOL    HW114864   2.263   2.280   9.509  0.0480  1.5079  1.9565
 1134SOL    HW214865   2.147   2.362   9.521 -0.8037  0.1785 -3.3085
 1135SOL     OW14866   0.794   0.410  12.765  0.0158 -0.1470  0.1241
 1135SOL    HW114867   0.705   0.388  12.794 -0.8897  2.0238 -0.9818
 1135SOL    HW214868   0.811   0.495  12.807  0.3063  1.3328 -2.9571
 1136SOL     OW14869   3.303   3.179  14.621 -0.2857  0.5187 -0.0197
 1136SOL    HW114870   3.258   3.095  14.623 -1.6402  1.2333 -0.5850
 1136SOL    HW214871   3.345   3.182  14.707 -1.4167  1.2726  0.5003
 1137SOL     OW14872   0.626   1.061   1.187 -0.1933  0.0053 -0.0770
 1137SOL    HW114873   0.720   1.046   1.190 -0.2880 -0.9686 -2.2815
 1137SOL    HW214874   0.588   0.987   1.141 -3.5082  0.4454  1.9207
 1138SOL     OW14875   3.732   1.936  17.132 -0.5641 -0.3553  0.1567
 1138SOL    HW114876   3.800   2.004  17.134 -0.3554 -0.5665  0.1756
 1138SOL    HW214877   3.691   1.949  17.047  0.5159  1.9562 -0.0298
 1139SOL     OW14878   1.371   2.806   9.094  0.4100 -0.0251 -0.0932
 1139SOL    HW114879   1.347   2.821   9.185  0.7914  2.1387 -0.3375
 1139SOL    HW214880   1.431   2.879   9.077  0.8836 -0.5832 -0.8308
 1140SOL     OW14881   2.764   3.178  16.680 -0.2902  0.0575 -0.4549
 1140SOL    HW114882   2.713   3.231  16.741 -0.9314 -0.5156 -0.4938
 1140SOL    HW214883   2.729   3.215  16.599 -1.3689 -1.5273 -0.7131
 1141SOL     OW14884   4.312   4.070   4.864  0.6414 -0.6959 -0.9056
 1141SOL    HW114885   4.300   3.980   4.894  0.8162 -0.4427 -0.0731
 1141SOL    HW214886   4.398   4.092   4.902  0.2455 -4.2117  2.0176
 1142SOL     OW14887   1.860   3.787   8.005 -0.3964 -0.5734  0.1736
 1142SOL    HW114888   1.857   3.749   7.917 -2.3382  3.1354 -1.3661
 1142SOL    HW214889   1.942   3.760   8.045 -0.6498 -1.2522  0.2339
 1143SOL     OW14890   0.044   1.091   7.027 -0.0974 -0.1455 -0.8175
 1143SOL    HW114891   0.015   1.181   7.041  0.8478  0.1529 -0.8045
 1143SOL    HW214892   4.694   1.068   6.971 -0.5231 -2.5448  0.7713
 1144SOL     OW14893   3.200   0.305  17.134  0.1673 -0.1106  0.1069
 1144SOL    HW114894   3.236   0.299  17.222  2.7313  0.8099 -0.8787
 1144SOL    HW214895   3.231   0.388  17.099 -0.6331  0.4275  0.6646
 1145SOL     OW14896   3.304   2.254   7.907 -0.2155 -0.3366  0.4410
 1145SOL    HW114897   3.307   2.160   7.927 -0.1358 -0.2054  1.0568
 1145SOL    HW214898   3.271   2.296   7.987  1.9230  0.2874  0.9871
 1146SOL     OW14899   2.435   0.036  12.074  0.3477 -0.1336 -0.4613
 1146SOL    HW114900   2.392   0.084  12.146 -0.7742  0.0793 -1.2594
 1146SOL    HW214901   2.511   0.094  12.077  1.3294 -1.5926  2.5175
 1147SOL     OW14902   2.597   1.123   0.390  0.1715 -0.1225  0.1694
 1147SOL    HW114903   2.679   1.161   0.360 -0.4903  1.5885  0.5442
 1147SOL    HW214904   2.583   1.167   0.473 -0.5964  1.9406 -1.0516
 1148SOL     OW14905   0.225   2.745   2.195  0.0119 -0.3234 -0.5874
 1148SOL    HW114906   0.314   2.712   2.189  0.4641  0.9819 -0.9178
 1148SOL    HW214907   0.232   2.829   2.149 -2.4631  0.5430  0.5783
 1149SOL     OW14908   2.300   0.675   3.794  0.1051  0.3032 -0.0878
 1149SOL    HW114909   2.248   0.616   3.849 -0.1347  1.4875  0.9538
 1149SOL    HW214910   2.265   0.647   3.710 -1.1048  0.5686  0.3210
 1150SOL     OW14911   4.468   0.028  12.785 -0.3361 -0.6547  0.3718
 1150SOL    HW114912   4.418   0.026  12.866  0.7465  1.4035  1.0963
 1150SOL    HW214913   4.558   0.025  12.819 -0.1885  0.1047  0.0354
 1151SOL     OW14914   3.444   3.692   2.864 -0.0003 -0.3806  0.6483
 1151SOL    HW114915   3.468   3.672   2.955 -2.1959 -1.3630  1.0344
 1151SOL    HW214916   3.532   3.713   2.835 -0.4997  0.3934 -0.3007
 1152SOL     OW14917   4.175   1.500   3.631 -0.0435  0.8360 -0.2529
 1152SOL    HW114918   4.162   1.430   3.695  1.5752  2.4568  1.8721
 1152SOL    HW214919   4.166   1.578   3.685  0.5014  1.1659 -0.6327
 1153SOL     OW14920   0.484   1.203   6.094 -0.4483  0.7070 -0.0884
 1153SOL    HW114921   0.574   1.200   6.063 -0.1605  2.3008  0.6146
 1153SOL    HW214922   0.448   1.274   6.042 -0.7508 -0.4164 -1.4122
 1154SOL     OW14923   3.357   3.264   4.041 -0.0949 -1.4866 -0.0939
 1154SOL    HW114924   3.264   3.273   4.020  0.4315 -1.8012 -2.5093
 1154SOL    HW214925   3.371   3.196   3.975 -0.0948 -0.1957 -1.4408
 1155SOL     OW14926   3.358   3.637   9.250 -0.8533  0.1310 -0.0437
 1155SOL    HW114927   3.429   3.688   9.212 -0.4946  1.5546  2.5336
 1155SOL    HW214928   3.365   3.549   9.213 -1.9207 -0.0287  0.1394
 1156SOL     OW14929   2.754   3.513   6.482  0.3982 -0.0344  0.3238
 1156SOL    HW114930   2.673   3.481   6.442  0.9304  0.4461 -1.1486
 1156SOL    HW214931   2.784   3.423   6.495 -1.3435 -0.5831  0.5414
 1157SOL     OW14932   0.389   3.842   2.914  0.9896  0.2108  0.7888
 1157SOL    HW114933   0.338   3.915   2.878 -1.5456 -1.9935 -0.0761
 1157SOL    HW214934   0.470   3.834   2.863  0.1341  1.0384 -0.7303
 1158SOL     OW14935   1.715   2.376   8.764  0.2219 -0.1967 -0.1723
 1158SOL    HW114936   1.755   2.309   8.708 -1.6246 -1.3974 -0.0451
 1158SOL    HW214937   1.773   2.389   8.839 -0.3444 -1.1619  0.4327
 1159SOL     OW14938   3.645   0.798   3.104 -0.0078 -0.0055 -0.0945
 1159SOL    HW114939   3.711   0.791   3.035  2.1806 -1.1078  2.0881
 1159SOL    HW214940   3.574   0.842   3.059 -1.0577  2.1742  3.7682
 1160SOL     OW14941   0.332   4.158  12.041 -0.2676 -0.0553 -0.1470
 1160SOL    HW114942   0.370   4.090  11.985 -1.1182  0.6033 -1.5398
 1160SOL    HW214943   0.409   4.210  12.065  0.5038 -0.6767 -1.2690
 1161SOL     OW14944   2.001   3.368   2.360  0.7489  0.1891 -0.1724
 1161SOL    HW114945   1.966   3.381   2.271  1.6533 -2.5873 -0.9477
 1161SOL    HW214946   2.088   3.347   2.326 -0.2974  0.7488 -3.2634
 1162SOL     OW14947   2.591   2.402   3.156 -0.0454 -0.7326 -0.2986
 1162SOL    HW114948   2.620   2.418   3.066  0.7708 -1.8195 -0.2217
 1162SOL    HW214949   2.618   2.483   3.199 -0.5946 -1.5809  1.6607
 1163SOL     OW14950   2.934   0.169   3.946 -0.1232 -0.0491 -0.3315
 1163SOL    HW114951   2.989   0.115   4.002 -0.7679 -0.2488  0.1181
 1163SOL    HW214952   2.980   0.194   3.866  0.7997  0.4914  0.3831
 1164SOL     OW14953   0.746   2.006   6.533  0.2298 -0.1415  0.2275
 1164SOL    HW114954   0.791   1.922   6.522  3.7100  1.7679 -0.1359
 1164SOL    HW214955   0.665   1.984   6.488 -0.2076  0.8937  0.5058
 1165SOL     OW14956   2.362   2.014   5.643  0.0474 -0.0545 -0.3278
 1165SOL    HW114957   2.386   1.924   5.667  2.8875  0.5508 -0.8818
 1165SOL    HW214958   2.405   2.026   5.559 -1.5457 -0.1829 -1.1455
 1166SOL     OW14959   3.994   0.239   2.605  0.5269  0.0828 -0.2829
 1166SOL    HW114960   4.035   0.161   2.568  0.2094 -1.0620  1.7960
 1166SOL    HW214961   4.067   0.298   2.587  1.3216 -0.8810 -0.1834
 1167SOL     OW14962   4.198   1.831   7.904  0.0975  0.0527  0.0567
 1167SOL    HW114963   4.151   1.826   7.821  1.0061  1.7931 -0.5591
 1167SOL    HW214964   4.264   1.899   7.887 -0.5104  0.8548  0.8725
 1168SOL     OW14965   0.258   0.433   7.968  0.1736 -0.3779  0.3624
 1168SOL    HW114966   0.316   0.478   8.029 -2.7987  3.4983  0.3343
 1168SOL    HW214967   0.236   0.500   7.903 -1.6121  0.9008  2.2867
 1169SOL     OW14968   3.782   3.221   1.655 -0.3975  0.1572  0.4743
 1169SOL    HW114969   3.785   3.248   1.747  1.6978 -0.2975  0.5417
 1169SOL    HW214970   3.775   3.126   1.659  1.4766  0.0169  0.4012
 1170SOL     OW14971   2.872   3.889   1.124 -0.2015  0.2666 -0.2317
 1170SOL    HW114972   2.941   3.823   1.122 -1.5193 -1.1163  0.0005
 1170SOL    HW214973   2.913   3.971   1.149 -0.6582  0.7648 -1.1121
 1171SOL     OW14974   2.791   2.729  15.508 -0.4040 -0.1256  0.6346
 1171SOL    HW114975   2.790   2.824  15.515 -0.4657  0.0062 -1.0914
 1171SOL    HW214976   2.843   2.716  15.429 -3.5838 -1.0810 -1.3084
 1172SOL     OW14977   0.595   1.369   5.688 -0.6467 -0.3833  0.5209
 1172SOL    HW114978   0.629   1.280   5.695 -1.1999 -0.6740 -0.4509
 1172SOL    HW214979   0.544   1.369   5.769  1.9983  1.4441  2.1507
 1173SOL     OW14980   2.066   3.769  17.390  0.2181 -0.1131 -0.2058
 1173SOL    HW114981   2.148   3.799  17.353 -0.3768 -0.1724 -1.5655
 1173SOL    HW214982   2.058   3.674  17.380  0.3323 -0.2480  0.9237
 1174SOL     OW14983   2.872   4.200   7.442  0.3785  0.1429 -0.2789
 1174SOL    HW114984   2.843   4.287   7.416  0.6894  0.8042  1.5511
 1174SOL    HW214985   2.822   4.143   7.384 -2.0877  1.3210  0.6827
 1175SOL     OW14986   0.466   2.389   5.363 -0.1148 -0.0370  0.7323
 1175SOL    HW114987   0.440   2.298   5.350 -0.8960 -0.1627  3.0584
 1175SOL    HW214988   0.509   2.392   5.449  1.6038 -0.2267 -0.1305
 1176SOL     OW14989   0.522   0.873   1.034 -0.1137  0.7685 -0.3416
 1176SOL    HW114990   0.440   0.833   1.064  1.1418 -1.7852 -0.3305
 1176SOL    HW214991   0.555   0.798   0.986  0.4580  0.9288 -0.1978
 1177SOL     OW14992   2.008   3.949   6.526 -0.2007 -0.2837  0.7570
 1177SOL    HW114993   2.040   3.915   6.610  0.9946 -1.7643 -0.3036
 1177SOL    HW214994   2.023   3.874   6.469  4.8650  1.3817 -0.0719
 1178SOL     OW14995   3.213   4.134   1.498  1.1797 -0.3819 -0.8356
 1178SOL    HW114996   3.289   4.121   1.556 -0.9340  3.6501  2.7958
 1178SOL    HW214997   3.191   4.049   1.460 -2.6585  0.8916 -1.3713
 1179SOL     OW14998   3.139   3.514  16.465 -0.0688 -0.3700  0.4254
 1179SOL    HW114999   3.112   3.570  16.538  0.7463 -0.6547  0.9505
 1179SOL    HW215000   3.105   3.428  16.488 -0.6461 -0.6616 -1.5395
 1180SOL     OW15001   0.330   1.661  14.168  0.0184  0.0828  0.2147
 1180SOL    HW115002   0.342   1.584  14.112 -1.6592 -0.5811  0.7516
 1180SOL    HW215003   0.296   1.732  14.113  0.4909 -0.8497 -1.2786
 1181SOL     OW15004   1.532   3.365   9.747  0.4897 -0.2496  0.0705
 1181SOL    HW115005   1.593   3.341   9.677  0.3212 -0.7578  0.1006
 1181SOL    HW215006   1.568   3.449   9.777 -0.3195  0.2261 -0.3007
 1182SOL     OW15007   2.116   1.506   7.393 -0.1851  0.1833  0.3947
 1182SOL    HW115008   2.189   1.446   7.382 -0.6636 -0.5653  1.3036
 1182SOL    HW215009   2.148   1.589   7.358  0.9511 -0.4642 -0.1037
 1183SOL     OW15010   3.061   4.720   1.919  0.4752  0.0586  0.5361
 1183SOL    HW115011   3.064   4.656   1.990 -3.2593  0.6048  1.2176
 1183SOL    HW215012   3.018   0.071   1.958  0.7857 -1.0715  3.0679
 1184SOL     OW15013   1.230   0.517   6.243 -0.2240 -0.0211 -0.9634
 1184SOL    HW115014   1.278   0.513   6.161  0.2719 -0.1867 -0.6698
 1184SOL    HW215015   1.187   0.601   6.227 -2.3008 -0.8267  0.4390
 1185SOL     OW15016   4.503   4.021   2.396  0.3704  0.5723 -0.1581
 1185SOL    HW115017   4.426   3.981   2.437  0.1136 -0.4616 -1.6314
 1185SOL    HW215018   4.517   4.099   2.449  1.4149 -1.8423  3.1532
 1186SOL     OW15019   1.939   2.645   4.422  0.5497  0.7642 -0.1587
 1186SOL    HW115020   2.002   2.584   4.460  0.2054 -1.4022 -3.0630
 1186SOL    HW215021   1.861   2.592   4.437  1.9369 -0.8539  1.3308
 1187SOL     OW15022   4.519   1.553   2.722 -0.0255 -0.1263 -0.3915
 1187SOL    HW115023   4.464   1.538   2.799  0.8546 -1.0800  0.0579
 1187SOL    HW215024   4.490   1.480   2.668 -1.9689 -1.3491  2.3218
 1188SOL     OW15025   2.006   0.445   5.870  0.0511 -0.6129 -0.4615
 1188SOL    HW115026   1.938   0.456   5.804 -0.6262 -0.5989  0.2326
 1188SOL    HW215027   1.966   0.372   5.918  0.6309 -1.3525 -1.1014
 1189SOL     OW15028   3.680   3.669  11.443 -0.0073 -0.2964 -0.6152
 1189SOL    HW115029   3.592   3.635  11.458 -0.3461  1.3055  1.0204
 1189SOL    HW215030   3.711   3.604  11.380 -1.7790 -1.1797 -0.5824
 1190SOL     OW15031   4.476   4.675   9.599 -0.0315 -0.0935  0.7997
 1190SOL    HW115032   4.487   4.651   9.691 -1.7001 -1.0952  0.7405
 1190SOL    HW215033   4.560   4.661   9.555  0.7273 -1.2197  2.6168
 1191SOL     OW15034   0.055   3.068  14.967 -0.0424 -0.5782  0.2069
 1191SOL    HW115035   0.076   3.094  15.057  2.9503 -0.1354 -0.6180
 1191SOL    HW215036   0.015   3.146  14.929 -0.5107 -1.9136 -1.9979
 1192SOL     OW15037   1.110   4.229   5.599 -0.2667 -0.0956  0.0731
 1192SOL    HW115038   1.091   4.261   5.511 -0.7805 -1.1835 -0.2186
 1192SOL    HW215039   1.057   4.148   5.598 -0.0982 -0.2206  1.1841
 1193SOL     OW15040   1.280   0.872   8.256 -0.1240 -0.4992 -0.0552
 1193SOL    HW115041   1.209   0.868   8.319 -2.4555  1.7597 -2.5487
 1193SOL    HW215042   1.241   0.813   8.191 -1.1438 -1.8694  1.8120
 1194SOL     OW15043   0.655   2.251   8.867 -0.1333  0.0376 -0.6205
 1194SOL    HW115044   0.709   2.271   8.790  1.2986  0.3505  0.4672
 1194SOL    HW215045   0.566   2.250   8.831 -0.2316  0.7462 -0.3868
 1195SOL     OW15046   3.840   2.693  16.949 -0.8488 -0.0435  0.0548
 1195SOL    HW115047   3.820   2.720  17.039 -1.6058  0.4086 -0.2500
 1195SOL    HW215048   3.879   2.606  16.961 -0.6903  0.4038  2.7397
 1196SOL     OW15049   4.343   3.849   5.017  0.4910  0.2801  0.4665
 1196SOL    HW115050   4.389   3.885   5.092 -0.0859  0.7121  0.6129
 1196SOL    HW215051   4.264   3.804   5.049  2.4446 -1.9007  2.2379
 1197SOL     OW15052   1.087   3.923   8.017 -0.7361  0.0276  0.5425
 1197SOL    HW115053   1.118   3.833   8.013  0.8163  0.6759 -1.9159
 1197SOL    HW215054   1.117   3.953   8.103  0.7399  0.2431 -0.0549
 1198SOL     OW15055   3.343   4.048   6.191  0.2114 -0.4568 -0.2086
 1198SOL    HW115056   3.422   4.099   6.173  0.9066 -1.0929  1.0439
 1198SOL    HW215057   3.380   3.967   6.225  1.9074  0.5939  0.4343
 1199SOL     OW15058   1.591   1.584  10.635  0.0674 -0.0261 -0.3638
 1199SOL    HW115059   1.654   1.625  10.694 -0.8531 -0.1444  0.7118
 1199SOL    HW215060   1.647   1.506  10.637 -0.2831 -0.3066 -1.7495
 1200SOL     OW15061   1.292   2.754  12.259 -0.4886 -0.0716 -0.7480
 1200SOL    HW115062   1.275   2.825  12.197 -1.7945  0.7433  0.5335
 1200SOL    HW215063   1.385   2.742  12.242 -0.5558  0.3927 -1.4215
 1201SOL     OW15064   1.790   0.257   2.468 -0.5005 -0.0670 -0.2680
 1201SOL    HW115065   1.841   0.335   2.487  1.3770 -1.1366 -0.9843
 1201SOL    HW215066   1.817   0.201   2.541  3.1889  1.1610 -0.6943
 1202SOL     OW15067   0.165   4.717  14.736 -0.5452 -0.0719  0.3058
 1202SOL    HW115068   0.236   4.657  14.712 -0.4063  0.3925 -0.4176
 1202SOL    HW215069   0.103   4.710  14.663  0.2608  0.9808 -0.4740
 1203SOL     OW15070   0.496   2.723  12.011 -0.1019  0.0291  0.1665
 1203SOL    HW115071   0.473   2.748  11.921  1.3846  0.3732 -0.1199
 1203SOL    HW215072   0.591   2.715  12.005  0.0901  1.8535  0.6813
 1204SOL     OW15073   0.485   2.432   1.732  0.0570  0.2172  0.3082
 1204SOL    HW115074   0.402   2.446   1.777 -1.0730  0.0072 -1.6990
 1204SOL    HW215075   0.545   2.412   1.804  0.2401  0.6188  0.2722
 1205SOL     OW15076   3.359   3.225  15.288  0.7291 -0.1202  0.0018
 1205SOL    HW115077   3.336   3.235  15.380  1.7433  1.4532  0.0743
 1205SOL    HW215078   3.397   3.309  15.263 -0.6130  0.7040  0.6911
 1206SOL     OW15079   2.083   4.090   8.279  0.2296 -0.4413 -0.1519
 1206SOL    HW115080   2.077   4.033   8.356 -0.5939 -0.8844 -0.5520
 1206SOL    HW215081   2.176   4.111   8.276  0.1996 -0.3200 -0.2338
 1207SOL     OW15082   1.694   0.927   3.794 -0.2482  0.1957  0.0655
 1207SOL    HW115083   1.639   1.006   3.799  1.0948  1.2351 -1.5478
 1207SOL    HW215084   1.628   0.861   3.816 -0.8016  1.4742  2.2601
 1208SOL     OW15085   2.961   3.331   1.271 -0.6291 -0.1257 -0.0158
 1208SOL    HW115086   2.931   3.240   1.260  2.1204 -1.1465  0.8643
 1208SOL    HW215087   2.882   3.367   1.311  0.3198  0.3370  1.4481
 1209SOL     OW15088   0.287   2.164   6.356 -0.0328  0.2425 -0.3607
 1209SOL    HW115089   0.377   2.141   6.331 -0.9321 -1.4515 -2.0430
 1209SOL    HW215090   0.299   2.247   6.402 -0.1821  0.3616 -0.5379
 1210SOL     OW15091   0.687   4.397   1.354 -0.1677  0.2163 -0.1163
 1210SOL    HW115092   0.748   4.367   1.422  0.4887 -0.2702 -0.9077
 1210SOL    HW215093   0.717   4.333   1.289  0.3997 -1.3483  1.6824
 1211SOL     OW15094   2.011   1.750   9.917  0.1536 -0.6062 -0.8090
 1211SOL    HW115095   2.048   1.798   9.991  1.8612  1.3866 -2.9601
 1211SOL    HW215096   1.992   1.670   9.966 -2.7030 -0.5004 -1.7784
 1212SOL     OW15097   0.012   0.128   2.855 -0.4681 -0.4691 -0.1693
 1212SOL    HW115098   0.063   0.208   2.866 -2.1463  0.4065  1.2345
 1212SOL    HW215099   4.692   0.125   2.939  1.7852  1.2100  1.0767
 1213SOL     OW15100   0.905   1.862  12.642  0.1004 -0.1499  0.1004
 1213SOL    HW115101   0.946   1.935  12.688 -0.9100  0.6680 -0.2928
 1213SOL    HW215102   0.936   1.794  12.702  1.1603  0.4443  0.2211
 1214SOL     OW15103   1.361   4.651   6.430 -0.2883  0.6129 -0.1888
 1214SOL    HW115104   1.276   4.677   6.466 -0.9188 -0.5414 -0.8421
 1214SOL    HW215105   1.367   4.559   6.456  0.0230  0.8250  0.4870
 1215SOL     OW15106   3.829   2.907   2.541  0.1915  0.1300 -0.1133
 1215SOL    HW115107   3.769   2.836   2.515 -0.7885  1.1776 -0.7016
 1215SOL    HW215108   3.888   2.923   2.468  1.2198  0.5752  0.8227
 1216SOL     OW15109   1.753   1.744   8.498 -0.0384  0.1138  0.4287
 1216SOL    HW115110   1.680   1.763   8.439  0.4159  0.0755 -0.1518
 1216SOL    HW215111   1.822   1.796   8.455  1.6222 -0.9629  1.7851
 1217SOL     OW15112   0.166   2.399  15.638 -0.6322  0.2828  0.0820
 1217SOL    HW115113   0.202   2.487  15.629 -2.7092  1.2025  0.8667
 1217SOL    HW215114   0.177   2.363  15.550 -0.9057  1.7566 -0.5524
 1218SOL     OW15115   2.402   2.110   4.335  0.1228 -0.2012  0.1478
 1218SOL    HW115116   2.408   2.023   4.374 -0.0170 -0.3721 -0.2136
 1218SOL    HW215117   2.348   2.096   4.257 -1.1576 -0.4331  1.0605
 1219SOL     OW15118   1.041   2.276   6.530  0.5012  0.2321 -0.0696
 1219SOL    HW115119   0.986   2.257   6.454  0.1182  0.2670  0.2001
 1219SOL    HW215120   0.983   2.256   6.604 -0.0237  0.4195 -0.4336
 1220SOL     OW15121   3.414   2.888   4.231  0.4238 -0.0650 -0.7028
 1220SOL    HW115122   3.450   2.972   4.204  1.7572 -0.2997  0.3493
 1220SOL    HW215123   3.497   2.840   4.221  0.4328 -0.0130 -0.8749
 1221SOL     OW15124   0.436   3.350   3.363  0.3867 -0.5925 -0.1295
 1221SOL    HW115125   0.352   3.379   3.396  0.9015 -0.2030  0.8266
 1221SOL    HW215126   0.509   3.387   3.414  0.5899 -1.4393  0.1886
 1222SOL     OW15127   4.564   3.638   7.872 -0.0464  0.0438 -0.4197
 1222SOL    HW115128   4.504   3.696   7.826  0.3909  0.0800 -0.9460
 1222SOL    HW215129   4.651   3.675   7.857  1.6661 -3.1598  1.4645
 1223SOL     OW15130   1.839   2.218   6.595  0.3088  0.0787 -0.7376
 1223SOL    HW115131   1.920   2.254   6.559  1.3305 -2.0466 -0.5363
 1223SOL    HW215132   1.852   2.237   6.688 -0.1135 -0.2108 -0.6218
 1224SOL     OW15133   2.853   4.517   5.305 -0.4683  0.0532  0.2159
 1224SOL    HW115134   2.814   4.498   5.220 -0.6372  2.7006 -0.2918
 1224SOL    HW215135   2.786   4.568   5.351  0.9150  4.1946 -2.4050
 1225SOL     OW15136   3.175   0.656   4.110  0.1742  0.4907 -0.4079
 1225SOL    HW115137   3.248   0.597   4.091 -0.0017 -0.3909  1.6386
 1225SOL    HW215138   3.106   0.590   4.119 -2.5791  3.4882  0.3670
 1226SOL     OW15139   3.677   3.123   6.504  0.0522 -0.1278  0.2106
 1226SOL    HW115140   3.601   3.135   6.446  0.4712 -0.1296 -0.3436
 1226SOL    HW215141   3.668   3.206   6.551 -1.4262 -0.3527  0.3187
 1227SOL     OW15142   4.574   1.138  15.371 -0.1273 -0.2069  0.2481
 1227SOL    HW115143   4.483   1.151  15.399  0.1320  0.3925  0.8120
 1227SOL    HW215144   4.562   1.054  15.327 -1.7673  1.9452 -3.4386
 1228SOL     OW15145   4.420   2.137   1.807  0.0960 -0.6114  0.3318
 1228SOL    HW115146   4.512   2.148   1.782 -0.5105 -0.4631 -1.8308
 1228SOL    HW215147   4.440   2.100   1.892  2.4678 -3.5994 -1.5178
 1229SOL     OW15148   3.732   1.689  15.962 -0.1516 -0.2783  0.2966
 1229SOL    HW115149   3.751   1.716  16.052 -1.6144 -1.4430  0.9491
 1229SOL    HW215150   3.804   1.733  15.917 -0.5856 -0.7648 -0.8671
 1230SOL     OW15151   0.227   2.678   8.148  0.0781 -0.4308  0.0250
 1230SOL    HW115152   0.318   2.708   8.140  0.7331 -2.6262 -0.7341
 1230SOL    HW215153   0.208   2.702   8.238 -2.5916  0.6229 -0.8248
 1231SOL     OW15154   2.763   3.566  14.077 -0.1208  0.0038  0.9047
 1231SOL    HW115155   2.818   3.640  14.102 -1.3838  0.7586  1.4803
 1231SOL    HW215156   2.821   3.505  14.032 -2.1173 -1.6307  0.5387
 1232SOL     OW15157   2.827   3.122   8.965  0.1028 -0.2498  0.4985
 1232SOL    HW115158   2.830   3.102   8.871 -0.9460 -0.3740  0.4852
 1232SOL    HW215159   2.810   3.034   8.997 -0.8011 -0.9345 -1.7917
 1233SOL     OW15160   0.319   4.516   2.574  0.1926  0.3971  0.0145
 1233SOL    HW115161   0.375   4.465   2.516  1.0895  1.4109 -0.0130
 1233SOL    HW215162   0.299   4.591   2.518  0.2561  1.1245  0.9601
 1234SOL     OW15163   4.221   1.983   1.538  0.0567 -0.5152  0.5569
 1234SOL    HW115164   4.267   2.053   1.585  0.8431  1.2644 -2.8743
 1234SOL    HW215165   4.255   1.904   1.579  0.6070 -1.3005 -1.4238
 1235SOL     OW15166   1.017   1.750  15.699 -0.5307 -0.0833  0.0392
 1235SOL    HW115167   1.008   1.704  15.616 -0.9194 -0.6309  0.3789
 1235SOL    HW215168   0.967   1.830  15.682 -1.1449 -0.3376  0.6249
 1236SOL     OW15169   4.717   0.398   8.311 -0.5177  0.1535  0.3843
 1236SOL    HW115170   0.064   0.460   8.300 -0.5163  0.0710 -0.0495
 1236SOL    HW215171   4.722   0.357   8.225  0.6115  1.7441 -0.3195
 1237SOL     OW15172   3.697   4.190   2.676 -0.0964  0.9088 -0.6328
 1237SOL    HW115173   3.657   4.274   2.697 -0.6619 -0.2508  2.9659
 1237SOL    HW215174   3.624   4.127   2.681  0.1941  0.6266  0.0823
 1238SOL     OW15175   4.107   1.556   2.786 -0.3803  0.1367 -0.1456
 1238SOL    HW115176   4.059   1.557   2.869 -2.0609  2.5309 -1.1521
 1238SOL    HW215177   4.147   1.469   2.780  1.1991  1.0768 -3.3220
 1239SOL     OW15178   4.090   1.908   3.679  0.1874  0.5759  0.5540
 1239SOL    HW115179   4.131   1.858   3.607 -1.6233  1.1004 -0.8268
 1239SOL    HW215180   4.050   1.839   3.731  0.2891 -1.4921 -2.1133
 1240SOL     OW15181   1.120   3.546   6.899  0.1790  1.0750 -0.3260
 1240SOL    HW115182   1.053   3.568   6.835 -0.5264 -0.1280 -0.0088
 1240SOL    HW215183   1.078   3.591   6.973  1.6836  1.3570  0.3696
 1241SOL     OW15184   4.487   2.295   1.162 -0.2800 -0.0964  0.0952
 1241SOL    HW115185   4.421   2.358   1.132 -0.1555 -1.4503 -2.9422
 1241SOL    HW215186   4.486   2.224   1.098  2.5628 -1.0566  1.1521
 1242SOL     OW15187   2.645   2.897   0.739  0.4738 -0.0445  0.7910
 1242SOL    HW115188   2.622   2.880   0.648 -3.2949 -0.6060  1.8334
 1242SOL    HW215189   2.739   2.882   0.741  0.8295  1.8898 -1.0301
 1243SOL     OW15190   0.422   0.567   2.623 -0.3420 -0.2255  1.0147
 1243SOL    HW115191   0.476   0.633   2.580 -2.5971  0.1695 -1.1836
 1243SOL    HW215192   0.483   0.520   2.681 -0.4557 -2.4517 -0.6848
 1244SOL     OW15193   2.925   0.290   7.235 -0.5593 -0.0664  0.3268
 1244SOL    HW115194   2.991   0.359   7.237 -0.4481 -0.1453 -0.6217
 1244SOL    HW215195   2.847   0.317   7.188 -0.9451 -1.8992 -0.1034
 1245SOL     OW15196   4.153   4.398   7.084  0.3113  0.3656 -0.1727
 1245SOL    HW115197   4.070   4.354   7.105 -0.3712  1.2467 -1.0019
 1245SOL    HW215198   4.148   4.391   6.988  0.6529  0.9983 -0.2308
 1246SOL     OW15199   3.389   4.694   5.514 -0.4625 -0.2967 -0.5719
 1246SOL    HW115200   3.417   4.644   5.437  2.2054  0.7321 -0.2588
 1246SOL    HW215201   3.448   0.044   5.505 -0.9792  0.5636  3.2571
 1247SOL     OW15202   2.844   0.843   5.062  0.5989  0.0930  0.0234
 1247SOL    HW115203   2.758   0.886   5.063  0.3881 -0.2558 -3.1988
 1247SOL    HW215204   2.820   0.786   4.989 -1.9523  0.9565  0.1719
 1248SOL     OW15205   2.949   1.986  14.379  0.1702 -0.1587 -0.5464
 1248SOL    HW115206   3.006   2.061  14.366 -0.4929  0.6313  1.1177
 1248SOL    HW215207   3.017   1.925  14.410 -0.6209 -0.4116  0.6951
 1249SOL     OW15208   3.948   1.138  15.755 -0.6665  0.5315  0.6570
 1249SOL    HW115209   3.865   1.186  15.745 -0.2531  1.1773  0.2922
 1249SOL    HW215210   3.914   1.060  15.797  2.3345  0.7641  3.5599
 1250SOL     OW15211   0.801   0.268  14.849  0.1635 -0.2430 -0.4337
 1250SOL    HW115212   0.710   0.246  14.869 -0.1459  0.5642 -0.9499
 1250SOL    HW215213   0.803   0.264  14.754  1.7316  1.4076 -0.4739
 1251SOL     OW15214   1.542   2.825   1.970  0.7944  0.0141 -0.5236
 1251SOL    HW115215   1.452   2.856   1.983  1.0808  1.1965 -1.2835
 1251SOL    HW215216   1.567   2.885   1.900  2.9338 -1.1345 -0.7499
 1252SOL     OW15217   1.216   2.057  12.878  0.0654 -0.3620  0.0465
 1252SOL    HW115218   1.212   2.131  12.818  1.5171  0.2108  0.6537
 1252SOL    HW215219   1.280   2.085  12.944 -2.2840 -1.5165  2.8241
 1253SOL     OW15220   4.017   4.431   5.763  0.3511 -0.0065  0.7250
 1253SOL    HW115221   4.022   4.520   5.798 -0.4123  0.9346 -1.5569
 1253SOL    HW215222   3.949   4.435   5.696  0.5112  2.2698  0.7018
 1254SOL     OW15223   4.495   0.390   0.435  0.4137  0.1562  0.5193
 1254SOL    HW115224   4.540   0.474   0.447 -1.6303  0.9008  2.9590
 1254SOL    HW215225   4.412   0.428   0.405  2.2780  2.6301 -1.5604
 1255SOL     OW15226   3.898   0.985   7.112  0.6261  0.8439  0.1060
 1255SOL    HW115227   3.860   0.965   7.027  2.2643 -2.3062  0.1163
 1255SOL    HW215228   3.913   0.897   7.146  1.1884  0.6507 -0.6509
 1256SOL     OW15229   4.017   2.698  17.555 -0.1678  0.1641 -0.7665
 1256SOL    HW115230   3.975   2.675  17.472  0.9880 -3.2678 -0.3807
 1256SOL    HW215231   4.057   2.615  17.580 -0.2584  0.1843 -0.5492
 1257SOL     OW15232   1.861   0.551   3.096 -0.5512 -0.1715  1.0541
 1257SOL    HW115233   1.845   0.610   3.170 -1.3815 -3.1555  3.2450
 1257SOL    HW215234   1.859   0.466   3.140  1.6032 -1.5190 -1.4850
 1258SOL     OW15235   1.382   4.249   8.936  0.0131 -0.3178  0.3799
 1258SOL    HW115236   1.306   4.238   8.879  0.7326 -3.4879  0.0169
 1258SOL    HW215237   1.353   4.306   9.007  0.8741 -0.2694  0.6896
 1259SOL     OW15238   1.676   2.530   9.386  0.0194 -0.3069 -0.5058
 1259SOL    HW115239   1.609   2.466   9.412 -0.3933 -0.3898 -1.8003
 1259SOL    HW215240   1.729   2.528   9.466 -2.1790 -0.0835  0.9605
 1260SOL     OW15241   4.458   1.641   3.542 -0.1708  0.1992  0.2509
 1260SOL    HW115242   4.391   1.709   3.552 -0.1047  0.1333  1.1239
 1260SOL    HW215243   4.412   1.584   3.480 -0.8203  1.8979 -0.8381
 1261SOL     OW15244   4.052   3.261   4.285  0.0467  0.6908  0.1572
 1261SOL    HW115245   4.114   3.329   4.256  2.3000 -0.7956  1.4837
 1261SOL    HW215246   4.105   3.181   4.277 -2.7717 -1.1125 -0.4629
 1262SOL     OW15247   4.245   3.344   1.691  0.2134  0.1700 -0.1581
 1262SOL    HW115248   4.180   3.275   1.676 -0.7603  1.2387 -0.8531
 1262SOL    HW215249   4.284   3.361   1.605 -2.6830  2.5321 -1.0067
 1263SOL     OW15250   2.057   1.698   6.120 -0.2858 -0.1603 -0.1917
 1263SOL    HW115251   2.078   1.761   6.190 -1.3146 -0.4667  0.3872
 1263SOL    HW215252   1.963   1.706   6.105 -0.3131  1.9373  1.0487
 1264SOL     OW15253   2.584   2.560  14.730 -0.2640  0.3405  0.2319
 1264SOL    HW115254   2.598   2.506  14.808  1.4509 -0.0340 -0.3404
 1264SOL    HW215255   2.659   2.529  14.679 -1.2278 -1.4563 -0.0956
 1265SOL     OW15256   3.731   3.654  16.741 -0.6165 -0.6252 -0.4747
 1265SOL    HW115257   3.754   3.744  16.766  1.5149 -1.0680 -0.8309
 1265SOL    HW215258   3.636   3.661  16.735 -0.5694  1.1306  0.8152
 1266SOL     OW15259   3.897   2.709   8.418 -0.1515 -0.1650 -0.6490
 1266SOL    HW115260   3.945   2.707   8.501 -1.0365  0.5660 -0.1215
 1266SOL    HW215261   3.930   2.787   8.373  1.2797  0.9270  2.3074
 1267SOL     OW15262   0.391   2.151  15.194  0.2710 -0.2918  0.0320
 1267SOL    HW115263   0.357   2.117  15.112  0.5240 -0.4750  0.0053
 1267SOL    HW215264   0.342   2.104  15.261 -1.0396 -0.2699 -0.9143
 1268SOL     OW15265   3.212   2.768  13.444 -0.0888  0.1035 -0.0281
 1268SOL    HW115266   3.271   2.822  13.391 -0.3893 -1.6149 -2.1048
 1268SOL    HW215267   3.267   2.700  13.483  0.2478 -0.3521 -1.3044
 1269SOL     OW15268   0.466   2.980  16.190 -0.2403 -0.0616  0.3877
 1269SOL    HW115269   0.408   3.014  16.122  0.4732 -1.6721 -1.0481
 1269SOL    HW215270   0.439   3.031  16.266  0.4548  1.3222 -0.2944
 1270SOL     OW15271   4.520   1.956   8.421  0.4054  0.0762  0.0889
 1270SOL    HW115272   4.450   1.909   8.467  0.7592 -1.3490 -0.8017
 1270SOL    HW215273   4.551   1.893   8.356  0.6427  0.9369 -0.6280
 1271SOL     OW15274   1.258   2.489   8.589 -0.0610 -0.0227 -0.6395
 1271SOL    HW115275   1.290   2.525   8.506 -1.2028 -0.3091 -1.2132
 1271SOL    HW215276   1.259   2.568   8.643 -0.9334  0.8784 -1.9370
 1272SOL     OW15277   4.152   2.733   5.847 -0.2307 -0.5941 -0.3135
 1272SOL    HW115278   4.099   2.779   5.781  1.8054  1.8886 -0.2237
 1272SOL    HW215279   4.091   2.665   5.874 -1.3248  0.3732 -0.3135
 1273SOL     OW15280   1.955   3.347   5.920  0.2329  0.0768 -0.2630
 1273SOL    HW115281   1.928   3.396   5.842 -0.3269  1.5695  0.8559
 1273SOL    HW215282   1.867   3.324   5.952 -0.0768  1.8271  0.1521
 1274SOL     OW15283   4.573   0.412   4.778  0.3304 -0.7191 -0.2049
 1274SOL    HW115284   4.511   0.484   4.767 -0.9561 -1.8676 -0.5321
 1274SOL    HW215285   4.547   0.358   4.703 -0.4376  0.2517 -0.6421
 1275SOL     OW15286   3.333   0.122  10.609  0.2237 -0.2363 -0.2841
 1275SOL    HW115287   3.308   0.087  10.694  0.3780 -0.9224 -0.5214
 1275SOL    HW215288   3.392   0.193  10.632 -1.0218  0.1718  1.6928
 1276SOL     OW15289   2.773   1.851  10.385 -0.2492 -0.7301 -0.0944
 1276SOL    HW115290   2.751   1.928  10.333 -0.2365  1.2088  2.7600
 1276SOL    HW215291   2.734   1.875  10.469 -0.1275  1.5545 -0.6876
 1277SOL     OW15292   3.244   4.293   1.243  0.1517  0.6063 -0.6803
 1277SOL    HW115293   3.231   4.224   1.308 -1.9229 -0.7506 -2.5613
 1277SOL    HW215294   3.339   4.308   1.241  0.0525  1.3323  0.1430
 1278SOL     OW15295   1.168   4.078  12.362  0.3546  0.0014 -0.1390
 1278SOL    HW115296   1.229   4.031  12.305 -0.7334 -0.2330 -1.1312
 1278SOL    HW215297   1.195   4.041  12.446 -1.0830  0.0343  0.3447
 1279SOL     OW15298   3.337   4.616   2.093  0.5960 -0.0318 -0.1539
 1279SOL    HW115299   3.257   4.591   2.139  0.0117  1.5010 -0.3387
 1279SOL    HW215300   3.381   4.672   2.157  0.5653  0.3225 -0.4415
 1280SOL     OW15301   3.564   3.553   7.049  0.1074  0.0568  0.5211
 1280SOL    HW115302   3.560   3.648   7.058 -2.0726  0.0846 -0.7886
 1280SOL    HW215303   3.471   3.533   7.046  0.4679 -1.7905  1.7176
 1281SOL     OW15304   3.054   0.329   5.271 -0.1128 -0.6445 -0.2989
 1281SOL    HW115305   3.119   0.289   5.328 -0.6659 -1.8242 -0.4949
 1281SOL    HW215306   2.971   0.286   5.291 -1.3716  1.2347 -1.4856
 1282SOL     OW15307   3.495   0.576   6.276  0.3688 -0.3122 -0.4536
 1282SOL    HW115308   3.590   0.568   6.267  0.7036  3.4655 -0.1456
 1282SOL    HW215309   3.473   0.506   6.338  2.2566  0.3368  0.9374
 1283SOL     OW15310   4.093   4.377   3.309  0.1148  0.5938  0.2110
 1283SOL    HW115311   4.008   4.383   3.264  1.2525 -0.9606 -2.1828
 1283SOL    HW215312   4.106   4.471   3.323 -1.3345  0.8514 -0.1115
 1284SOL     OW15313   0.389   2.262   8.784 -0.1193 -0.2952 -0.2373
 1284SOL    HW115314   0.360   2.304   8.864  0.0074  1.0830 -0.9084
 1284SOL    HW215315   0.348   2.175   8.783 -1.5920  0.4098 -1.3312
 1285SOL     OW15316   2.798   4.589   4.482  0.0415 -0.1337 -0.5224
 1285SOL    HW115317   2.849   4.649   4.537  0.1431 -1.4786  0.8593
 1285SOL    HW215318   2.866   4.523   4.471  1.2285  1.4399 -2.5740
 1286SOL     OW15319   1.545   2.769   0.498  0.0523  0.2281  0.3137
 1286SOL    HW115320   1.530   2.838   0.562  0.9698 -0.4764  1.2846
 1286SOL    HW215321   1.573   2.696   0.553 -0.8629 -1.4846 -1.4897
 1287SOL     OW15322   2.887   2.158  14.054  0.2383 -0.5703  0.2298
 1287SOL    HW115323   2.921   2.119  13.974 -1.7144  1.2638 -1.5065
 1287SOL    HW215324   2.929   2.244  14.062  0.3074 -0.5201 -0.7186
 1288SOL     OW15325   0.034   3.246   1.312  0.3624  0.3028 -0.1171
 1288SOL    HW115326   4.701   3.171   1.297  0.7461 -0.0207 -0.0040
 1288SOL    HW215327   4.720   3.280   1.392  0.5778 -1.7299  0.8660
 1289SOL     OW15328   3.179   1.256  12.781  0.8457 -0.2455 -0.0168
 1289SOL    HW115329   3.117   1.302  12.837  0.0527 -1.2911 -0.0320
 1289SOL    HW215330   3.118   1.198  12.734  1.3119  0.0853 -1.0320
 1290SOL     OW15331   0.117   0.749  11.541  0.1349  0.2229  0.7750
 1290SOL    HW115332   0.178   0.764  11.613  0.4039 -0.1992  0.6288
 1290SOL    HW215333   0.178   0.727  11.472  0.6572  1.0332  0.9813
 1291SOL     OW15334   4.239   4.290  11.597 -0.5711 -0.2559  0.1568
 1291SOL    HW115335   4.204   4.363  11.649 -2.9949 -2.7990  2.0772
 1291SOL    HW215336   4.165   4.276  11.539  0.7572 -1.8015 -1.1589
 1292SOL     OW15337   2.576   3.280   8.262  0.5372 -0.1664  0.0575
 1292SOL    HW115338   2.585   3.239   8.348  1.1240  1.2421  0.6741
 1292SOL    HW215339   2.536   3.364   8.286  0.9022 -0.1368  0.5723
 1293SOL     OW15340   2.828   2.454  14.625  0.5625  0.3494  0.1870
 1293SOL    HW115341   2.835   2.376  14.680  0.4974  0.7076  0.7135
 1293SOL    HW215342   2.901   2.507  14.656  2.8065 -2.7769  0.2429
 1294SOL     OW15343   0.481   3.706   5.943  0.3036  0.0426 -0.5476
 1294SOL    HW115344   0.402   3.747   5.908  0.7514  0.2502 -1.3254
 1294SOL    HW215345   0.453   3.709   6.034  0.0355 -0.0377 -0.6285
 1295SOL     OW15346   3.348   0.277   4.245 -0.3156  0.1922  0.2533
 1295SOL    HW115347   3.393   0.316   4.169  1.9164  1.6527  2.3286
 1295SOL    HW215348   3.339   0.187   4.211  0.1603  0.7270 -1.3041
 1296SOL     OW15349   1.763   3.941   1.202  0.2348  0.3775  0.4164
 1296SOL    HW115350   1.701   3.921   1.272  0.3037  0.4534  0.5001
 1296SOL    HW215351   1.772   3.852   1.167 -0.4623  0.6493 -0.4243
 1297SOL     OW15352   0.403   0.051  12.878 -0.5351 -0.4663 -0.1322
 1297SOL    HW115353   0.370   0.059  12.788  0.6910 -3.2527 -0.8357
 1297SOL    HW215354   0.322   0.039  12.927  0.1807  1.3362  1.4956
 1298SOL     OW15355   1.031   0.772  11.390 -0.2690 -0.2526  0.0274
 1298SOL    HW115356   1.120   0.808  11.391 -0.6209  0.6118  4.3541
 1298SOL    HW215357   1.038   0.689  11.437 -1.6883 -0.2628  0.2421
 1299SOL     OW15358   0.867   3.282   6.699  0.3153  0.5948 -0.2743
 1299SOL    HW115359   0.810   3.263   6.774  0.4335 -3.8405 -1.3033
 1299SOL    HW215360   0.928   3.349   6.730 -0.8085  1.1756  0.7046
 1300SOL     OW15361   3.763   0.645   7.488 -0.7223 -0.3785 -0.6396
 1300SOL    HW115362   3.673   0.615   7.487 -0.2654 -1.7359 -0.9705
 1300SOL    HW215363   3.790   0.605   7.570  0.5161  2.7060  0.4676
 1301SOL     OW15364   2.028   0.996   5.422 -0.2967  0.1736  0.2067
 1301SOL    HW115365   2.040   0.968   5.332 -1.7236  0.9497 -0.2083
 1301SOL    HW215366   2.111   1.024   5.461 -0.7813  0.6845  0.8583
 1302SOL     OW15367   4.650   0.193   4.323  0.5410  0.5517  0.0867
 1302SOL    HW115368   4.599   0.271   4.301  1.9632  1.9829  1.8385
 1302SOL    HW215369   4.617   0.142   4.249  0.5760  2.3377 -1.1683
 1303SOL     OW15370   3.793   3.769   9.188  0.1813  0.3233 -0.0850
 1303SOL    HW115371   3.699   3.778   9.172  0.0673  1.3379  1.1285
 1303SOL    HW215372   3.832   3.804   9.108  0.3176 -0.7200 -0.4710
 1304SOL     OW15373   3.589   0.825   4.770  0.1234  0.0344  0.1815
 1304SOL    HW115374   3.636   0.790   4.694 -0.8407 -0.8207 -0.0261
 1304SOL    HW215375   3.627   0.912   4.777 -1.1145  0.6221 -0.4557
 1305SOL     OW15376   3.556   1.768  13.472 -0.0399 -0.3134  0.0806
 1305SOL    HW115377   3.635   1.819  13.491 -1.2800  2.1408 -1.3406
 1305SOL    HW215378   3.575   1.714  13.395 -2.1793 -1.5710  0.4334
 1306SOL     OW15379   1.973   2.583   4.951 -0.2879 -0.2789  0.8663
 1306SOL    HW115380   2.007   2.553   5.036 -0.8158  0.5181  1.3636
 1306SOL    HW215381   1.919   2.514   4.914  0.6212 -0.2033 -0.5969
 1307SOL     OW15382   2.603   3.137   5.251  0.0901 -0.0353 -0.0261
 1307SOL    HW115383   2.569   3.048   5.239 -0.1789 -0.0665  0.9340
 1307SOL    HW215384   2.662   3.122   5.325  1.5952 -2.1205 -1.6496
 1308SOL     OW15385   2.596   2.254  14.369  0.3080 -0.1621  0.7488
 1308SOL    HW115386   2.626   2.202  14.444  0.8056 -1.3247 -0.2573
 1308SOL    HW215387   2.660   2.324  14.364 -1.7705  1.5166 -2.0931
 1309SOL     OW15388   2.878   3.392   5.846 -0.0249  0.0233 -0.0645
 1309SOL    HW115389   2.866   3.345   5.929 -0.1266  0.0435 -0.0684
 1309SOL    HW215390   2.942   3.337   5.801  1.1279 -0.2666  1.9345
 1310SOL     OW15391   0.061   0.075   8.740  0.3554  0.7650  0.2084
 1310SOL    HW115392   0.102   0.017   8.675  0.4265  1.7707 -0.6496
 1310SOL    HW215393   0.120   0.149   8.726 -0.2250  0.7065 -2.6669
 1311SOL     OW15394   2.899   3.323  10.442 -0.2913  0.1507  0.1383
 1311SOL    HW115395   2.991   3.297  10.444 -0.2544  0.3398  0.7319
 1311SOL    HW215396   2.909   3.413  10.472  1.0089  0.2586 -0.6311
 1312SOL     OW15397   2.486   2.099   6.787  0.4191 -0.0594  0.3271
 1312SOL    HW115398   2.443   2.099   6.872  0.3262 -0.9237  0.2814
 1312SOL    HW215399   2.457   2.185   6.758  1.3550 -0.2537 -1.2247
 1313SOL     OW15400   4.475   0.976  14.098  0.3377 -0.1546 -0.0410
 1313SOL    HW115401   4.549   1.026  14.065 -0.0933  1.6170  1.7022
 1313SOL    HW215402   4.420   0.954  14.022 -0.2101  0.5003  0.1692
 1314SOL     OW15403   2.418   0.191   2.447 -0.1892  0.0686  0.5045
 1314SOL    HW115404   2.371   0.118   2.406  0.9971 -0.0526 -0.6510
 1314SOL    HW215405   2.425   0.251   2.372  3.4896 -2.7542 -1.3999
 1315SOL     OW15406   0.835   4.193   6.217 -0.5015 -0.2147 -0.7575
 1315SOL    HW115407   0.822   4.246   6.138  1.4818 -1.4695 -1.9113
 1315SOL    HW215408   0.821   4.260   6.283  1.9861  2.0051 -2.4821
 1316SOL     OW15409   0.623   3.481  14.648  0.6238 -0.1536 -0.2321
 1316SOL    HW115410   0.695   3.520  14.697  0.2694  0.9781 -0.6025
 1316SOL    HW215411   0.649   3.390  14.635  2.6578  0.0978  2.2302
 1317SOL     OW15412   2.876   2.627  11.916 -0.1128  0.5134 -0.6002
 1317SOL    HW115413   2.805   2.644  11.855 -0.3286 -1.1039 -0.8062
 1317SOL    HW215414   2.949   2.682  11.888  0.4026  0.3128  0.3175
 1318SOL     OW15415   3.882   4.550   5.146  0.2017  0.3388  0.5569
 1318SOL    HW115416   3.840   4.625   5.187 -0.9274  0.5920 -1.0867
 1318SOL    HW215417   3.959   4.584   5.099 -1.5370  2.0375 -1.0709
 1319SOL     OW15418   0.083   4.672   3.226 -0.2198  0.3237  0.2929
 1319SOL    HW115419   0.036   0.001   3.162  0.2396 -0.8052 -1.0032
 1319SOL    HW215420   0.049   4.584   3.209 -0.2849  0.4267 -0.1203
 1320SOL     OW15421   4.377   0.979  17.302 -0.6430 -0.0140 -0.6806
 1320SOL    HW115422   4.440   1.023  17.360 -0.6462  0.9999 -1.4415
 1320SOL    HW215423   4.439   0.938  17.242  0.1541 -0.4046  0.4117
 1321SOL     OW15424   4.600   1.167  17.134  0.4377  0.0912 -0.3565
 1321SOL    HW115425   4.594   1.141  17.226  2.2140 -1.7025 -0.7377
 1321SOL    HW215426   4.627   1.082  17.100 -1.5849 -0.6593 -0.0840
 1322SOL     OW15427   4.599   1.423   8.089  0.3374  0.2791 -0.1637
 1322SOL    HW115428   4.638   1.484   8.151 -0.6505  0.1373  0.6045
 1322SOL    HW215429   4.671   1.360   8.083 -0.4780 -0.9338  3.1745
 1323SOL     OW15430   4.515   1.810   9.906 -0.2083 -0.2501  0.2691
 1323SOL    HW115431   4.469   1.781   9.827 -1.3147 -0.2316  0.9092
 1323SOL    HW215432   4.469   1.760   9.974  0.3927 -1.7010 -0.3960
 1324SOL     OW15433   0.170   0.979   7.627  0.0894 -0.2506 -0.3563
 1324SOL    HW115434   0.127   1.063   7.612 -0.3129 -0.7532 -2.0225
 1324SOL    HW215435   0.100   0.913   7.629 -0.8741  0.7670 -0.2797
 1325SOL     OW15436   4.336   2.043   4.079 -0.1072  0.1476  0.2479
 1325SOL    HW115437   4.423   2.057   4.115  0.4683  0.9436 -1.4465
 1325SOL    HW215438   4.294   1.989   4.146  3.3079 -2.1699  0.5385
 1326SOL     OW15439   1.931   2.699   5.927  0.0138 -0.9766 -0.0445
 1326SOL    HW115440   1.878   2.733   6.000 -0.1170  0.5061 -0.8281
 1326SOL    HW215441   1.918   2.606   5.945  0.2164 -1.1419 -0.7847
 1327SOL     OW15442   1.588   0.006   8.165  0.1644  0.0084 -0.8953
 1327SOL    HW115443   1.528   0.080   8.175  1.9738  1.2670  0.4135
 1327SOL    HW215444   1.587   4.700   8.256  0.4462  2.8245  0.0446
 1328SOL     OW15445   3.012   2.590  13.523 -0.4145 -0.8304  0.2593
 1328SOL    HW115446   2.926   2.614  13.489 -0.2760 -0.8355 -0.0901
 1328SOL    HW215447   3.071   2.664  13.509 -1.8717  0.0859 -1.1437
 1329SOL     OW15448   0.732   4.543  14.442  0.2554  0.2471  0.1646
 1329SOL    HW115449   0.710   4.532  14.350  1.9380 -2.1540  0.0402
 1329SOL    HW215450   0.823   4.574  14.437  0.1527  0.6243  0.6019
 1330SOL     OW15451   3.700   3.631  15.863  0.5505  0.2455  0.4164
 1330SOL    HW115452   3.754   3.556  15.886  2.9210  1.1783 -2.0519
 1330SOL    HW215453   3.765   3.684  15.815  2.5143 -2.8116 -0.2559
 1331SOL     OW15454   4.202   0.439   8.017 -0.1031 -0.0144 -0.3322
 1331SOL    HW115455   4.286   0.477   8.043 -0.6139  1.2561 -0.5211
 1331SOL    HW215456   4.161   0.430   8.103  0.2737 -2.1151 -0.3794
 1332SOL     OW15457   3.263   3.713   3.808 -0.7657 -0.1010 -0.2219
 1332SOL    HW115458   3.219   3.683   3.888  1.4286 -1.3527  0.5173
 1332SOL    HW215459   3.260   3.626   3.769 -0.3889  0.0499 -0.5967
 1333SOL     OW15460   0.696   1.986   8.875  0.1569 -0.4419  0.5431
 1333SOL    HW115461   0.718   1.983   8.968 -0.5964 -1.7946  0.6857
 1333SOL    HW215462   0.685   2.080   8.866 -0.3123 -0.5106  0.4158
 1334SOL     OW15463   1.641   2.878   7.926 -0.1861 -0.0311 -0.5276
 1334SOL    HW115464   1.602   2.824   7.857 -1.8767  0.8862 -0.2845
 1334SOL    HW215465   1.689   2.941   7.872 -0.3635 -1.4271 -2.2907
 1335SOL     OW15466   0.380   4.535   7.166 -0.4451  0.3452 -0.2062
 1335SOL    HW115467   0.435   4.613   7.165  0.3414 -0.2126  0.4769
 1335SOL    HW215468   0.374   4.511   7.258 -0.0284 -0.5193 -0.4115
 1336SOL     OW15469   2.045   1.412  13.682 -0.0118 -0.2807  0.4448
 1336SOL    HW115470   1.950   1.422  13.672 -0.1593 -1.5896  0.4431
 1336SOL    HW215471   2.065   1.432  13.590  0.7212 -1.6890  0.3031
 1337SOL     OW15472   1.963   3.862   0.495  0.5472 -0.0529  0.2565
 1337SOL    HW115473   1.983   3.951   0.523  1.9842  0.0848 -1.1962
 1337SOL    HW215474   1.897   3.882   0.429 -0.3034 -1.5339  0.6686
 1338SOL     OW15475   0.895   1.027   1.179 -0.6380 -0.3713 -0.5175
 1338SOL    HW115476   0.915   0.936   1.157 -1.0060 -0.2110 -1.5309
 1338SOL    HW215477   0.968   1.027   1.241 -1.2869  0.0128  0.2325
 1339SOL     OW15478   3.875   4.592  11.733  0.1172  0.0470  0.3697
 1339SOL    HW115479   3.902   4.665  11.788 -2.1094  0.3656  1.0575
 1339SOL    HW215480   3.952   4.535  11.731  0.9332  1.1700 -0.3301
 1340SOL     OW15481   3.238   1.483   0.514 -0.6542 -0.2310 -0.1766
 1340SOL    HW115482   3.304   1.542   0.476 -0.2790 -2.0356 -2.2823
 1340SOL    HW215483   3.281   1.398   0.513  1.3690  0.7727  1.1570
 1341SOL     OW15484   1.324   2.708   2.791  0.3129  0.1776 -0.1539
 1341SOL    HW115485   1.359   2.778   2.736 -1.7584  2.0599  0.9491
 1341SOL    HW215486   1.244   2.688   2.742  1.0118 -0.1323 -1.1746
 1342SOL     OW15487   1.603   0.042   3.856  0.1335  0.1748  0.3595
 1342SOL    HW115488   1.588   4.697   3.920 -1.2105  0.2946  0.1808
 1342SOL    HW215489   1.513   0.056   3.826  0.3992 -0.5881 -0.8011
 1343SOL     OW15490   1.863   1.535   2.869  0.3149 -0.1029 -0.2974
 1343SOL    HW115491   1.948   1.519   2.910  1.1293 -2.9762 -3.1081
 1343SOL    HW215492   1.899   1.559   2.784  1.4845 -2.8910 -0.5900
 1344SOL     OW15493   2.017   3.936  10.851 -0.2182 -0.5283 -0.3435
 1344SOL    HW115494   2.089   3.997  10.835 -0.6376  0.8452  2.9759
 1344SOL    HW215495   2.055   3.850  10.833 -0.1613 -0.5731 -0.0133
 1345SOL     OW15496   0.296   3.929  14.741 -0.1045 -0.5794 -0.1365
 1345SOL    HW115497   0.286   3.903  14.832  0.6176  0.8017  0.3375
 1345SOL    HW215498   0.281   4.023  14.746 -0.9411 -0.8877  3.0055
 1346SOL     OW15499   3.166   1.336   4.037  0.0716 -0.2036  0.0593
 1346SOL    HW115500   3.128   1.288   3.964 -1.1739  2.9683 -1.3548
 1346SOL    HW215501   3.236   1.283   4.075  0.3848  0.9386  1.0806
 1347SOL     OW15502   2.457   3.369  12.088  0.1084 -0.1313 -0.1202
 1347SOL    HW115503   2.484   3.328  12.171  0.3840  1.3098  0.4991
 1347SOL    HW215504   2.362   3.369  12.098 -0.1007  3.7113 -2.2773
 1348SOL     OW15505   4.056   3.124   3.809  0.1879 -0.2137  0.2191
 1348SOL    HW115506   4.140   3.101   3.849 -1.2990 -1.2740  2.7018
 1348SOL    HW215507   4.072   3.107   3.716 -2.5538 -2.3951  0.1254
 1349SOL     OW15508   4.307   3.334   3.110  0.1298 -0.4670 -0.1161
 1349SOL    HW115509   4.286   3.387   3.033 -0.1809  1.3123  1.2032
 1349SOL    HW215510   4.283   3.251   3.069 -1.3391 -0.1111  0.0358
 1350SOL     OW15511   1.939   3.660   7.759 -0.4564 -0.4364 -0.0779
 1350SOL    HW115512   1.998   3.689   7.690 -0.1742 -1.7532 -0.3903
 1350SOL    HW215513   2.003   3.614   7.813 -0.5218 -1.1703 -0.6224
 1351SOL     OW15514   2.125   2.224  11.694 -0.2130  0.2330 -0.2138
 1351SOL    HW115515   2.128   2.313  11.658  1.3499 -0.6662 -2.3512
 1351SOL    HW215516   2.099   2.174  11.616 -0.3920  1.3460 -0.8743
 1352SOL     OW15517   2.381   0.767   5.053 -0.4038 -0.5535  0.2162
 1352SOL    HW115518   2.419   0.686   5.019  0.0251 -0.8221  1.3349
 1352SOL    HW215519   2.313   0.783   4.988  1.9472  1.5887 -1.7404
 1353SOL     OW15520   2.088   2.218   3.198  0.1754  0.4395 -0.0675
 1353SOL    HW115521   2.047   2.296   3.237  2.3552  1.9337 -0.7787
 1353SOL    HW215522   2.177   2.222   3.231  0.4109  1.1711 -0.7887
 1354SOL     OW15523   4.325   2.972   4.463 -0.0412  0.4669  0.3240
 1354SOL    HW115524   4.278   2.897   4.426  1.0634 -1.0755  2.0345
 1354SOL    HW215525   4.280   2.966   4.546  0.2460 -0.1927  0.4331
 1355SOL     OW15526   4.476   2.884   4.903 -0.2288  0.0090  0.9308
 1355SOL    HW115527   4.525   2.805   4.881  0.7417  1.0944 -0.8324
 1355SOL    HW215528   4.428   2.861   4.983  0.6955 -1.1438  1.1491
 1356SOL     OW15529   1.361   1.891   8.057 -0.0010  0.6618  0.1666
 1356SOL    HW115530   1.321   1.944   8.127 -0.9748  1.0886 -0.7014
 1356SOL    HW215531   1.453   1.896   8.080 -0.6662 -1.1081  3.1449
 1357SOL     OW15532   2.903   3.520   7.540  0.0911  0.2686  0.1745
 1357SOL    HW115533   2.918   3.603   7.495  0.5794 -0.6266 -1.3099
 1357SOL    HW215534   2.809   3.504   7.531 -0.0309 -0.4417  2.8445
 1358SOL     OW15535   1.036   2.830   7.760 -0.5280  0.3765  0.1696
 1358SOL    HW115536   1.096   2.786   7.820  0.6172  1.6698 -0.0245
 1358SOL    HW215537   1.038   2.922   7.789  0.8839  0.4129 -0.0417
 1359SOL     OW15538   0.913   2.577   9.967  0.8945 -0.4883  0.2265
 1359SOL    HW115539   0.994   2.604  10.010 -0.2288  2.1164  0.7490
 1359SOL    HW215540   0.870   2.543  10.046  1.4444 -3.0830 -0.6006
 1360SOL     OW15541   1.164   2.224   3.682  0.2191 -0.0940  0.6788
 1360SOL    HW115542   1.068   2.215   3.679  0.1287  0.4275  2.3145
 1360SOL    HW215543   1.190   2.280   3.755 -0.5775  0.9250  0.1781
 1361SOL     OW15544   3.932   3.619  11.935 -0.1636 -0.7017 -0.4122
 1361SOL    HW115545   3.942   3.714  11.936 -2.2814 -0.4828 -0.6905
 1361SOL    HW215546   3.881   3.605  12.015  2.7344 -0.1366  1.5218
 1362SOL     OW15547   3.647   0.646   5.027 -0.7588  0.2407 -0.1443
 1362SOL    HW115548   3.630   0.559   4.991  1.8925 -0.7622  1.0233
 1362SOL    HW215549   3.639   0.696   4.946 -0.1926 -0.2272 -0.4859
 1363SOL     OW15550   3.240   4.160  15.339  0.0774  0.5691  0.1402
 1363SOL    HW115551   3.237   4.247  15.379 -0.3518  1.3409 -1.5714
 1363SOL    HW215552   3.164   4.124  15.384  0.4673 -0.1811  0.1913
 1364SOL     OW15553   1.999   1.929  16.077  0.3341  0.8482 -0.1189
 1364SOL    HW115554   1.982   2.003  16.019 -0.5070 -1.1755 -2.4700
 1364SOL    HW215555   2.093   1.922  16.062  0.2193 -1.7512  0.3312
 1365SOL     OW15556   2.628   2.031   4.730  0.2229  0.7122  0.4840
 1365SOL    HW115557   2.538   1.999   4.731  0.9824 -1.3649  1.8306
 1365SOL    HW215558   2.656   2.016   4.821 -1.9812  0.2853  1.1004
 1366SOL     OW15559   2.055   2.415  16.062  0.1252  0.1245  0.2624
 1366SOL    HW115560   2.038   2.472  15.988  2.2157  0.9576  0.4146
 1366SOL    HW215561   2.086   2.472  16.133 -0.6207 -0.2573  0.8970
 1367SOL     OW15562   3.810   0.163  12.266 -0.1421 -0.4771 -0.8163
 1367SOL    HW115563   3.834   0.200  12.351 -0.7181 -3.5192  0.6928
 1367SOL    HW215564   3.839   0.221  12.195  1.5042 -0.3838 -0.0760
 1368SOL     OW15565   3.726   3.576  16.474  1.0849 -0.0115  0.1221
 1368SOL    HW115566   3.716   3.587  16.568  2.0304 -2.8531  0.5690
 1368SOL    HW215567   3.771   3.491  16.467  1.6432  0.1668  1.4750
 1369SOL     OW15568   0.820   2.023  16.944  0.2713 -0.5317 -0.2763
 1369SOL    HW115569   0.726   2.008  16.931  0.5280 -1.0415 -1.5239
 1369SOL    HW215570   0.825   2.117  16.925 -4.0920 -0.5222 -1.5431
 1370SOL     OW15571   0.278   4.108   7.179 -0.1139  0.2351  0.9863
 1370SOL    HW115572   0.253   4.200   7.170  1.4467  0.6681  1.0861
 1370SOL    HW215573   0.263   4.095   7.272  0.4829 -2.0466  0.7650
 1371SOL     OW15574   3.425   4.143   5.378 -0.7099  0.2304 -0.3453
 1371SOL    HW115575   3.496   4.088   5.412  0.4759  0.2563 -2.8062
 1371SOL    HW215576   3.454   4.148   5.287  0.4917  1.2671  0.0911
 1372SOL     OW15577   3.332   1.804   4.143 -0.5793  0.2274  0.2786
 1372SOL    HW115578   3.408   1.862   4.133 -0.1935 -0.4438 -0.6346
 1372SOL    HW215579   3.369   1.718   4.159  0.9838  0.9326  0.4671
 1373SOL     OW15580   0.881   4.225  11.970 -0.2120  0.2323  0.1878
 1373SOL    HW115581   0.899   4.244  12.062 -0.1595 -0.9158  0.4193
 1373SOL    HW215582   0.912   4.134  11.966  0.0537  0.3394 -0.1584
 1374SOL     OW15583   0.070   0.157   5.382  0.2167  0.0506  0.4791
 1374SOL    HW115584   0.018   0.228   5.421  1.1909  1.0515 -0.0396
 1374SOL    HW215585   0.072   0.180   5.289 -1.1634  1.9059  0.8965
 1375SOL     OW15586   3.196   4.585  17.400 -0.3771 -0.1846 -0.2129
 1375SOL    HW115587   3.232   4.671  17.423 -2.2891  0.3476  0.7773
 1375SOL    HW215588   3.177   4.549  17.486 -0.4087 -2.8240 -1.3321
 1376SOL     OW15589   3.775   1.097   6.260  0.0482  0.1917 -0.4813
 1376SOL    HW115590   3.818   1.129   6.339 -1.3244  1.3040 -0.1779
 1376SOL    HW215591   3.796   1.003   6.257  2.2323  0.5453  2.7744
 1377SOL     OW15592   2.769   2.651   8.170  0.5145  0.0193 -0.4468
 1377SOL    HW115593   2.699   2.644   8.236  1.2420 -0.0074  0.3182
 1377SOL    HW215594   2.849   2.632   8.220  1.7328 -0.9522 -2.7966
 1378SOL     OW15595   3.023   4.168  17.570  0.1772 -0.3048 -0.0112
 1378SOL    HW115596   2.941   4.211  17.542 -0.8341 -2.1000  0.2320
 1378SOL    HW215597   2.976   4.097  17.614  1.2876  0.6709  2.7050
 1379SOL     OW15598   2.077   1.480   2.998 -0.5315 -0.3482  0.0014
 1379SOL    HW115599   2.077   1.465   3.093  1.0586  1.4740  0.2941
 1379SOL    HW215600   2.166   1.512   2.980 -1.7582  2.5622 -0.7686
 1380SOL     OW15601   4.375   0.914  16.553 -0.0968  0.0506  0.1212
 1380SOL    HW115602   4.445   0.849  16.567  0.2297 -0.0926 -2.2768
 1380SOL    HW215603   4.412   0.996  16.586 -0.3869 -0.6054  2.0846
 1381SOL     OW15604   1.754   1.873  16.187  0.2620 -0.5405 -0.5879
 1381SOL    HW115605   1.843   1.895  16.161  0.1117 -0.3535 -0.9541
 1381SOL    HW215606   1.696   1.906  16.118 -1.4000 -1.7162  0.2354
 1382SOL     OW15607   0.342   1.350  15.972 -0.0572  0.5033  0.4825
 1382SOL    HW115608   0.396   1.392  15.905 -0.4232  2.5754  1.4823
 1382SOL    HW215609   0.253   1.360  15.940  0.6733  0.3777 -1.5725
 1383SOL     OW15610   0.285   2.010   5.955 -0.1788 -0.4872 -0.5258
 1383SOL    HW115611   0.285   2.105   5.946 -1.1453 -0.4740 -0.3934
 1383SOL    HW215612   0.310   1.983   5.867 -2.2475 -0.5768 -1.0879
 1384SOL     OW15613   4.232   0.454  10.466 -0.2073  0.2943  0.3105
 1384SOL    HW115614   4.287   0.502  10.404  1.5920 -2.4101 -0.2052
 1384SOL    HW215615   4.145   0.474  10.433 -0.0771 -0.1143 -0.2724
 1385SOL     OW15616   3.245   0.589   6.946  0.1473 -1.0831  0.7819
 1385SOL    HW115617   3.312   0.522   6.938  1.9298  0.6515  1.2341
 1385SOL    HW215618   3.298   0.648   7.000  0.2733  0.2601 -0.8288
 1386SOL     OW15619   0.775   2.381   7.222 -0.0940  0.3421 -0.2843
 1386SOL    HW115620   0.712   2.313   7.245  0.2133 -0.2148 -1.0963
 1386SOL    HW215621   0.728   2.437   7.161  0.3550  1.5781  0.4808
 1387SOL     OW15622   4.494   2.726   4.339 -0.4131  0.2822 -0.0900
 1387SOL    HW115623   4.567   2.725   4.277  3.9937 -1.4410  5.1543
 1387SOL    HW215624   4.475   2.819   4.353  0.7657  0.0187  3.2743
 1388SOL     OW15625   0.524   0.352   6.354  0.1151 -1.2437 -0.2331
 1388SOL    HW115626   0.590   0.283   6.352  1.0155 -0.3782 -0.3746
 1388SOL    HW215627   0.442   0.317   6.321 -0.1395 -0.4890 -0.4067
 1389SOL     OW15628   1.144   3.411  17.396 -0.3116  0.3523 -0.3171
 1389SOL    HW115629   1.159   3.467  17.320  1.4102  0.7674  0.3361
 1389SOL    HW215630   1.152   3.324  17.358  0.2776  0.2779 -0.0358
 1390SOL     OW15631   4.236   0.785  15.764 -0.1586 -0.0324  0.2459
 1390SOL    HW115632   4.199   0.738  15.839  0.7667 -1.5119 -0.2268
 1390SOL    HW215633   4.330   0.790  15.781 -0.0755  1.8662 -0.8868
 1391SOL     OW15634   1.608   1.331  11.790 -0.0555  0.7006  0.2456
 1391SOL    HW115635   1.527   1.293  11.755  0.4697  1.0380 -1.3076
 1391SOL    HW215636   1.597   1.362  11.880  0.2101  0.2375  0.4395
 1392SOL     OW15637   0.595   2.771  13.318  0.4966 -0.3394  0.0887
 1392SOL    HW115638   0.528   2.814  13.264  1.8819  1.3338 -0.2738
 1392SOL    HW215639   0.582   2.677  13.301  0.1978 -0.3139  0.1733
 1393SOL     OW15640   2.105   1.385  17.483 -0.1977  0.3707  0.2440
 1393SOL    HW115641   2.092   1.380  17.388  0.7408 -0.1539  0.1447
 1393SOL    HW215642   2.047   1.461  17.494  0.6382  0.8803  1.1383
 1394SOL     OW15643   1.400   0.359  12.463 -0.2717  0.2954 -0.1022
 1394SOL    HW115644   1.384   0.280  12.514 -0.1322 -0.1346 -0.7233
 1394SOL    HW215645   1.492   0.382  12.475 -0.0065  0.7290 -2.8245
 1395SOL     OW15646   1.778   2.803   4.213  0.1044  0.0682  0.2472
 1395SOL    HW115647   1.827   2.743   4.270  0.7813  0.1639 -0.2374
 1395SOL    HW215648   1.743   2.861   4.281  2.2321  0.8578  0.6793
 1396SOL     OW15649   2.364   2.677   2.409 -0.0238  0.9411 -0.1856
 1396SOL    HW115650   2.437   2.622   2.436 -0.8279 -1.2215 -2.3982
 1396SOL    HW215651   2.367   2.658   2.315  0.3418 -0.7624  0.1790
 1397SOL     OW15652   0.696   3.113   7.569  0.0340 -0.0446 -0.8710
 1397SOL    HW115653   0.628   3.121   7.636  0.2815  3.8293 -1.1031
 1397SOL    HW215654   0.679   3.021   7.546  0.2149  0.0434 -1.3548
 1398SOL     OW15655   2.094   3.490  17.608 -0.1553 -0.2733 -0.3138
 1398SOL    HW115656   2.039   3.532  17.674  0.6149 -0.2508  0.3144
 1398SOL    HW215657   2.043   3.440  17.545  0.3154  0.9288 -1.6686
 1399SOL     OW15658   2.011   3.423   8.253 -0.5916  0.0324  0.4192
 1399SOL    HW115659   2.021   3.409   8.159  1.5570 -0.4038  0.7092
 1399SOL    HW215660   1.930   3.383   8.287 -1.0808 -1.9600 -3.0824
 1400SOL     OW15661   0.664   2.865  11.774 -0.1412  0.0922  0.5236
 1400SOL    HW115662   0.749   2.832  11.743 -0.7620 -0.9697 -0.0439
 1400SOL    HW215663   0.687   2.953  11.803 -1.9183  0.9859 -0.8291
 1401SOL     OW15664   0.341   4.583  16.663  0.1274 -0.4221  0.2552
 1401SOL    HW115665   0.320   4.673  16.637 -3.7779 -1.0217  1.2429
 1401SOL    HW215666   0.265   4.561  16.608  2.5366 -1.9593 -2.4497
 1402SOL     OW15667   2.861   0.506   0.106 -0.4284  0.4368  0.0747
 1402SOL    HW115668   2.772   0.484   0.133 -0.0625  0.0476  0.9870
 1402SOL    HW215669   2.841   0.594   0.075  1.3741  1.0605  0.6647
 1403SOL     OW15670   0.319   4.250   5.713  0.4386  0.0641 -0.2245
 1403SOL    HW115671   0.302   4.244   5.619  1.5075  2.8390 -0.5732
 1403SOL    HW215672   0.401   4.201   5.723 -0.2789 -0.8303  1.4028
 1404SOL     OW15673   3.063   3.099   7.770  0.1303  0.0799  0.2032
 1404SOL    HW115674   3.027   3.150   7.842  0.3805  1.8380 -0.9294
 1404SOL    HW215675   2.987   3.115   7.714  1.1811 -0.5434 -1.4056
 1405SOL     OW15676   0.781   1.462  14.017  0.5130 -0.1539  0.0455
 1405SOL    HW115677   0.813   1.398  14.082  0.6135  0.6432  0.7863
 1405SOL    HW215678   0.864   1.454  13.970 -0.0984  1.5608 -1.3175
 1406SOL     OW15679   1.211   3.961   6.954 -0.1128  0.0776 -0.5813
 1406SOL    HW115680   1.227   4.047   6.916 -3.7737  1.1254  0.2810
 1406SOL    HW215681   1.297   3.930   6.984  0.1607  1.3188 -0.0953
 1407SOL     OW15682   2.499   4.645   3.830 -0.3488  0.1469 -0.0352
 1407SOL    HW115683   2.506   4.639   3.735  0.6420 -0.1645  0.0615
 1407SOL    HW215684   2.582   4.609   3.862 -0.3662  0.3016  0.1880
 1408SOL     OW15685   1.063   1.361  16.893  0.0155 -0.5958 -0.0067
 1408SOL    HW115686   1.035   1.357  16.984  0.6754 -0.7766  0.1862
 1408SOL    HW215687   1.068   1.268  16.873  0.3714 -0.1132 -2.1592
 1409SOL     OW15688   0.983   2.460   4.632 -0.0145 -0.5725 -0.2765
 1409SOL    HW115689   0.893   2.491   4.634 -0.0438 -0.5912 -1.4029
 1409SOL    HW215690   1.000   2.462   4.538 -1.6640  0.7000 -0.5280
 1410SOL     OW15691   4.314   4.059   7.510  0.4527 -0.1129 -0.5966
 1410SOL    HW115692   4.364   4.057   7.591 -1.7803 -0.0601  0.7718
 1410SOL    HW215693   4.388   4.035   7.454  1.2569  0.5160  0.2040
 1411SOL     OW15694   4.143   1.310   2.220  0.5879  0.3232 -0.0934
 1411SOL    HW115695   4.237   1.322   2.230  0.4619 -0.9076  2.3659
 1411SOL    HW215696   4.112   1.284   2.307  2.3663 -2.2336 -0.2388
 1412SOL     OW15697   0.180   1.486  15.365  0.1759  0.3912  0.6021
 1412SOL    HW115698   0.103   1.452  15.320  1.2131 -0.8339 -0.2480
 1412SOL    HW215699   0.248   1.436  15.321  1.2044  3.4196 -1.2828
 1413SOL     OW15700   4.081   0.932   8.321 -0.1793 -0.4952 -0.2056
 1413SOL    HW115701   4.064   1.007   8.263 -1.5519  0.3877  1.3524
 1413SOL    HW215702   4.159   0.886   8.288 -0.6741 -2.1636  0.9505
 1414SOL     OW15703   3.688   2.673   2.421  0.3360  0.3558  0.0079
 1414SOL    HW115704   3.738   2.598   2.454 -1.3095 -0.3553  0.8759
 1414SOL    HW215705   3.702   2.657   2.328  1.0421 -0.9277  0.3300
 1415SOL     OW15706   1.148   3.628  14.568 -0.1954 -0.4299  0.2678
 1415SOL    HW115707   1.078   3.564  14.555  2.2360 -2.8379 -0.7570
 1415SOL    HW215708   1.148   3.671  14.482 -0.3583  0.0110  0.4869
 1416SOL     OW15709   0.823   2.787   5.541 -0.4547 -0.0188  0.4449
 1416SOL    HW115710   0.880   2.829   5.605 -1.3363  1.9973 -0.1010
 1416SOL    HW215711   0.831   2.698   5.576  1.2631 -0.1967 -0.3996
 1417SOL     OW15712   4.148   3.037  12.917  0.0333 -0.0474 -0.1925
 1417SOL    HW115713   4.219   2.977  12.939 -0.6340  0.2185  2.7562
 1417SOL    HW215714   4.090   2.977  12.870  0.3225  0.4646 -1.1961
 1418SOL     OW15715   4.108   1.891   2.256  0.2952 -0.3299  0.5433
 1418SOL    HW115716   4.151   1.845   2.327 -0.8908 -0.5964  1.0860
 1418SOL    HW215717   4.146   1.979   2.258 -1.1721  0.3155  0.2988
 1419SOL     OW15718   4.704   0.657  16.303  0.0395  0.5408  0.2870
 1419SOL    HW115719   4.643   0.729  16.319 -1.8005 -0.6007 -1.5091
 1419SOL    HW215720   0.028   0.668  16.385 -0.5183  1.0451  0.5486
 1420SOL     OW15721   0.787   0.737  12.101 -0.0959  0.9906 -0.0201
 1420SOL    HW115722   0.772   0.651  12.141 -1.8643  0.9076 -0.8496
 1420SOL    HW215723   0.877   0.734  12.069  0.1793  0.6737  0.7906
 1421SOL     OW15724   0.700   0.427   5.949  0.2792  0.2817 -0.2545
 1421SOL    HW115725   0.792   0.440   5.928 -0.2509  1.6837 -1.6872
 1421SOL    HW215726   0.681   0.516   5.979 -1.2366  1.0238 -3.3945
 1422SOL     OW15727   0.095   2.548   6.338  0.7032 -0.2896 -0.6637
 1422SOL    HW115728   0.029   2.608   6.303  1.2738  1.3674  1.1021
 1422SOL    HW215729   0.056   2.460   6.334  1.3140 -0.5928  0.0616
 1423SOL     OW15730   4.587   3.727  12.536  0.0414  0.2077  0.1968
 1423SOL    HW115731   4.654   3.662  12.556  1.6249  1.1200 -2.2206
 1423SOL    HW215732   4.632   3.793  12.485 -0.2906 -0.3452 -0.8008
 1424SOL     OW15733   4.693   2.992  14.046 -0.4241 -0.2363 -0.2300
 1424SOL    HW115734   4.712   3.073  14.093 -2.4055 -0.1296  0.3778
 1424SOL    HW215735   4.671   2.937  14.120 -0.2271  1.5368  1.1470
 1425SOL     OW15736   3.742   0.758   6.523 -0.3994  0.1540  0.3309
 1425SOL    HW115737   3.672   0.817   6.549 -1.1101 -0.3386 -0.5049
 1425SOL    HW215738   3.704   0.671   6.532 -1.1794  0.7773  3.2639
 1426SOL     OW15739   2.206   3.204  10.330 -0.1057  0.2246 -0.4287
 1426SOL    HW115740   2.111   3.199  10.315 -0.0503 -0.4062 -0.5793
 1426SOL    HW215741   2.219   3.116  10.366  0.8544 -0.0620 -1.4865
 1427SOL     OW15742   4.564   2.536   7.777  0.2446  0.4438  0.5930
 1427SOL    HW115743   4.559   2.475   7.851  1.4476  0.6505  0.8491
 1427SOL    HW215744   4.473   2.564   7.780 -0.7997 -2.7315 -2.4664
 1428SOL     OW15745   0.525   1.449   0.819 -0.0895  0.2800 -1.3041
 1428SOL    HW115746   0.519   1.507   0.895 -1.9610  0.5619 -1.6784
 1428SOL    HW215747   0.434   1.422   0.810 -0.4902  0.9623  0.6998
 1429SOL     OW15748   2.226   1.707   5.847 -0.1450 -0.3216  0.3762
 1429SOL    HW115749   2.147   1.708   5.900 -0.7576 -1.9871 -0.4987
 1429SOL    HW215750   2.202   1.689   5.756  1.1197  2.3412 -0.4826
 1430SOL     OW15751   0.851   0.556  15.224  0.3596  0.4601  0.5758
 1430SOL    HW115752   0.867   0.462  15.216  0.8004  0.5423  0.5103
 1430SOL    HW215753   0.899   0.586  15.147  0.1809  1.0287  0.6843
 1431SOL     OW15754   4.041   3.618   8.734  0.0301  0.2576  0.0542
 1431SOL    HW115755   4.014   3.552   8.670 -1.2698 -1.6807  2.5815
 1431SOL    HW215756   4.067   3.572   8.814 -1.4856 -2.1182 -0.8151
 1432SOL     OW15757   2.427   3.179  11.851  0.1707 -0.2763 -0.2171
 1432SOL    HW115758   2.427   3.211  11.941 -2.5816  2.3075 -1.1446
 1432SOL    HW215759   2.386   3.093  11.865  0.0569 -0.0023  1.1950
 1433SOL     OW15760   3.866   3.257   4.673  0.1177 -0.2167 -0.4571
 1433SOL    HW115761   3.955   3.223   4.684 -0.4995 -0.4992  3.9699
 1433SOL    HW215762   3.881   3.346   4.707  2.0092 -0.3719 -0.8987
 1434SOL     OW15763   0.527   4.183   3.473 -0.2349  0.5148  0.0364
 1434SOL    HW115764   0.464   4.124   3.432 -1.3066  0.3992  1.7977
 1434SOL    HW215765   0.597   4.184   3.408  0.1097  1.1651  0.4183
 1435SOL     OW15766   0.055   3.708  15.169  0.1186 -0.0202 -0.5213
 1435SOL    HW115767   4.695   3.673  15.198  0.3757 -0.5773 -0.4292
 1435SOL    HW215768   0.089   3.627  15.132  0.0111 -0.6593  0.7555
 1436SOL     OW15769   0.423   2.552  12.253  0.3430  0.1075 -0.0097
 1436SOL    HW115770   0.497   2.575  12.196 -1.5031  0.7543 -2.1597
 1436SOL    HW215771   0.405   2.636  12.294  0.6794  0.4774 -0.6047
 1437SOL     OW15772   0.498   2.660  13.661  0.3072  0.2244 -0.6846
 1437SOL    HW115773   0.572   2.716  13.639  1.2534 -0.4854  0.6968
 1437SOL    HW215774   0.535   2.572  13.670  0.9755  0.5898  0.0799
 1438SOL     OW15775   0.453   3.193   6.454 -0.1131  0.4190  0.4593
 1438SOL    HW115776   0.395   3.210   6.379  0.7975  0.7973 -0.1636
 1438SOL    HW215777   0.424   3.106   6.479  0.7666 -0.1311 -0.4152
 1439SOL     OW15778   1.695   2.857   5.482 -0.0434  0.4316  0.3823
 1439SOL    HW115779   1.611   2.819   5.460 -0.0622  0.3641  0.5711
 1439SOL    HW215780   1.695   2.937   5.429  3.9811  0.6571  0.6741
 1440SOL     OW15781   1.406   3.959   4.450 -0.4840  0.2902  0.2254
 1440SOL    HW115782   1.465   3.996   4.516 -2.7426  2.0416  1.2782
 1440SOL    HW215783   1.325   3.952   4.501 -1.0400 -0.0462 -0.7111
 1441SOL     OW15784   0.607   3.454  10.466  0.2122 -0.0622 -0.0039
 1441SOL    HW115785   0.521   3.416  10.451  0.5536 -0.9229  0.2108
 1441SOL    HW215786   0.659   3.416  10.395  2.4556  0.7467  1.1899
 1442SOL     OW15787   3.046   2.528   3.223 -0.3577 -0.5777  0.0690
 1442SOL    HW115788   3.101   2.454   3.198  0.1169 -1.2214  2.9289
 1442SOL    HW215789   3.059   2.581   3.145 -2.1114  1.0701  0.9182
 1443SOL     OW15790   3.852   2.904   6.895  0.0420  0.0294 -0.1420
 1443SOL    HW115791   3.923   2.897   6.831 -0.7350  1.2868 -1.1471
 1443SOL    HW215792   3.809   2.975   6.846  1.7862  0.2445 -1.3490
 1444SOL     OW15793   2.824   1.955   5.670 -0.5194 -0.3551  0.2642
 1444SOL    HW115794   2.774   1.886   5.714  1.5651 -2.3912 -0.5693
 1444SOL    HW215795   2.877   1.901   5.611  1.7941 -1.7280  3.5660
 1445SOL     OW15796   2.034   0.587  17.133  0.7528 -0.5157  0.0965
 1445SOL    HW115797   2.111   0.555  17.180  1.4392 -0.9177 -1.2737
 1445SOL    HW215798   2.061   0.562  17.044 -0.5767 -1.6165  0.0096
 1446SOL     OW15799   1.713   2.712   3.965  0.2006  0.1778 -0.4828
 1446SOL    HW115800   1.754   2.768   4.031 -1.2380  1.2257 -0.4840
 1446SOL    HW215801   1.785   2.664   3.923  1.3182  1.5754 -0.1295
 1447SOL     OW15802   4.244   1.553   6.785  0.0471  0.0834 -0.5149
 1447SOL    HW115803   4.273   1.632   6.830  0.7175 -0.1531 -0.5372
 1447SOL    HW215804   4.307   1.494   6.826 -0.3563 -0.5598 -0.8143
 1448SOL     OW15805   0.389   4.355  13.913 -0.2165 -0.5752  0.2853
 1448SOL    HW115806   0.362   4.279  13.965  2.6828 -1.3707  0.6265
 1448SOL    HW215807   0.480   4.330  13.899  0.0871 -0.3358  1.7945
 1449SOL     OW15808   1.315   1.636   2.294 -0.3297  0.1095 -0.2652
 1449SOL    HW115809   1.354   1.617   2.209  2.1836  0.4582  0.7892
 1449SOL    HW215810   1.353   1.723   2.307 -0.1286 -0.3867  2.6650
 1450SOL     OW15811   1.752   0.515  16.288  0.0949  0.4758 -0.1859
 1450SOL    HW115812   1.806   0.593  16.279  1.0276 -0.1191  0.2566
 1450SOL    HW215813   1.749   0.481  16.199 -0.7008 -1.1249  0.4556
 1451SOL     OW15814   0.536   0.034   8.686  0.3142 -0.1035  0.6994
 1451SOL    HW115815   0.472   0.067   8.749 -0.6379  0.9944 -0.8552
 1451SOL    HW215816   0.593   4.709   8.745 -2.3148 -2.5972  1.1199
 1452SOL     OW15817   2.573   1.296  15.885  0.0635  0.4022  0.4404
 1452SOL    HW115818   2.645   1.304  15.823  0.2142  1.5752  0.7604
 1452SOL    HW215819   2.497   1.287  15.827 -0.6378  1.3787  1.2067
 1453SOL     OW15820   0.944   0.107   4.884  0.0648  0.3502 -0.0450
 1453SOL    HW115821   0.918   0.022   4.921 -0.3716 -1.0322 -3.4610
 1453SOL    HW215822   0.879   0.127   4.816 -0.7865  2.0274  1.2777
 1454SOL     OW15823   2.589   1.598  17.047 -0.3180  0.9075  0.8373
 1454SOL    HW115824   2.671   1.647  17.046  0.3146 -0.1673  0.1778
 1454SOL    HW215825   2.576   1.581  17.140 -1.2221  0.7634  0.6919
 1455SOL     OW15826   0.597   4.099  11.889  0.6527  0.3749  0.5730
 1455SOL    HW115827   0.666   4.164  11.873  1.1791 -0.3572 -0.1621
 1455SOL    HW215828   0.612   4.078  11.981 -0.8618  1.3579  1.0353
 1456SOL     OW15829   4.310   3.578   8.438  0.9662 -0.4696 -0.1212
 1456SOL    HW115830   4.244   3.591   8.370  3.0294 -0.2910 -2.0980
 1456SOL    HW215831   4.388   3.598   8.386  0.6833  1.8195  0.3417
 1457SOL     OW15832   3.358   1.946   5.002 -0.1466 -0.1927  0.0065
 1457SOL    HW115833   3.341   1.961   4.909  1.6347 -3.0051 -0.8031
 1457SOL    HW215834   3.419   2.017   5.020 -1.8325  1.8844 -2.4487
 1458SOL     OW15835   0.584   0.568   6.728 -0.0674 -0.5088 -0.2596
 1458SOL    HW115836   0.642   0.502   6.688  0.5703 -0.6455  0.8767
 1458SOL    HW215837   0.531   0.577   6.649  1.0609  0.0211 -0.9497
 1459SOL     OW15838   4.526   2.756   7.518 -0.9039  0.1568  0.1046
 1459SOL    HW115839   4.518   2.848   7.492  0.8351  0.1369 -0.4583
 1459SOL    HW215840   4.524   2.770   7.613  1.0866  1.8801 -0.1161
 1460SOL     OW15841   2.933   3.645   8.560  0.2097  0.4944 -0.1685
 1460SOL    HW115842   3.019   3.623   8.522  0.8839  0.9225  1.1395
 1460SOL    HW215843   2.933   3.613   8.650  0.6369  1.0180  0.0129
 1461SOL     OW15844   4.512   3.827   2.960  0.1042 -0.1415 -0.1318
 1461SOL    HW115845   4.519   3.754   2.898  0.4707  0.3129 -0.6173
 1461SOL    HW215846   4.571   3.788   3.025 -1.2747  0.2737  1.3784
 1462SOL     OW15847   3.230   2.282   3.206 -0.1961  0.3406  0.2762
 1462SOL    HW115848   3.204   2.291   3.297  2.3711  1.0312  0.9529
 1462SOL    HW215849   3.218   2.187   3.198  1.1803  0.3953 -2.7025
 1463SOL     OW15850   2.187   4.342   8.752  0.9109  0.1924  0.2803
 1463SOL    HW115851   2.207   4.433   8.773  0.1906  0.4201 -0.0345
 1463SOL    HW215852   2.151   4.353   8.664  2.1762 -1.2866 -0.4307
 1464SOL     OW15853   2.462   4.691   7.549 -0.2796  0.4463 -0.2153
 1464SOL    HW115854   2.436   4.601   7.565  1.0998 -0.3764 -2.5729
 1464SOL    HW215855   2.449   4.703   7.455  3.8870 -1.8225 -1.0461
 1465SOL     OW15856   1.076   3.236   3.245 -0.1046 -0.3370  0.2766
 1465SOL    HW115857   1.105   3.318   3.205 -0.0826  0.3622  1.7310
 1465SOL    HW215858   0.980   3.244   3.247 -0.2819 -1.9893 -1.3867
 1466SOL     OW15859   2.710   3.988   4.888  0.5335 -0.4672  0.1620
 1466SOL    HW115860   2.699   4.025   4.976  0.1494  1.7335 -0.8210
 1466SOL    HW215861   2.677   4.062   4.837 -0.7712 -0.4909  0.9651
 1467SOL     OW15862   1.696   2.763   4.743 -0.7517  0.3668 -0.0531
 1467SOL    HW115863   1.617   2.803   4.706 -1.1166  2.0272  2.5312
 1467SOL    HW215864   1.677   2.674   4.771  2.0055 -0.0627  0.4326
 1468SOL     OW15865   3.518   1.164  16.041 -0.6332 -0.2889  0.3685
 1468SOL    HW115866   3.545   1.249  16.005  4.8481 -1.1214  2.5085
 1468SOL    HW215867   3.456   1.140  15.972  0.9968 -0.5853 -0.9982
 1469SOL     OW15868   0.914   0.421   5.017  0.2989 -0.1199 -0.4203
 1469SOL    HW115869   0.987   0.364   4.994 -0.4413 -1.0177 -0.5175
 1469SOL    HW215870   0.843   0.359   5.003 -1.8348  1.7879  1.9620
 1470SOL     OW15871   2.643   4.226   4.139 -0.5226 -0.0378 -0.0862
 1470SOL    HW115872   2.733   4.256   4.153 -1.1762  2.4290 -1.1371
 1470SOL    HW215873   2.608   4.231   4.228 -1.0757 -0.9677 -0.2547
 1471SOL     OW15874   4.582   4.655  10.878 -0.2188  0.1519  0.3071
 1471SOL    HW115875   4.497   4.671  10.918 -0.5191 -1.5196  0.3543
 1471SOL    HW215876   4.573   4.602  10.799  1.9160  1.1427 -0.6089
 1472SOL     OW15877   3.561   2.597   6.259  0.0576 -0.2748  0.6871
 1472SOL    HW115878   3.532   2.648   6.183 -0.9845 -1.9184 -0.0124
 1472SOL    HW215879   3.654   2.608   6.238 -0.1488  0.8458  0.3362
 1473SOL     OW15880   0.780   1.807   2.713  0.3743  0.1617  0.2568
 1473SOL    HW115881   0.755   1.890   2.674  1.2595 -0.2809 -1.2400
 1473SOL    HW215882   0.839   1.829   2.785  1.5350 -1.7578 -0.0829
 1474SOL     OW15883   0.738   3.115   9.531  0.0774 -0.7396  0.0775
 1474SOL    HW115884   0.776   3.080   9.612  1.4840  0.9544  0.1487
 1474SOL    HW215885   0.646   3.111   9.554  0.0535  2.8055  0.6459
 1475SOL     OW15886   1.585   1.423   2.590 -0.5999 -0.0863 -0.3395
 1475SOL    HW115887   1.582   1.458   2.501  1.6342 -3.5855 -1.7970
 1475SOL    HW215888   1.672   1.385   2.596 -0.8477 -0.3726  1.6152
 1476SOL     OW15889   3.650   1.846  11.427 -0.0162  0.2786 -0.6484
 1476SOL    HW115890   3.636   1.824  11.519  1.2632  2.8512  0.1944
 1476SOL    HW215891   3.705   1.925  11.429 -0.4914  0.6535 -3.2486
 1477SOL     OW15892   4.246   3.062   3.217 -0.0152 -0.0462 -0.1944
 1477SOL    HW115893   4.333   3.025   3.202  0.6040  0.5611  1.8580
 1477SOL    HW215894   4.199   3.023   3.143 -1.0443  2.5663 -0.9181
 1478SOL     OW15895   1.683   4.126   5.294 -0.5590  0.0854 -0.0418
 1478SOL    HW115896   1.779   4.135   5.290 -0.6490  1.1081  0.0495
 1478SOL    HW215897   1.652   4.216   5.288  0.6829  0.5124 -0.1099
 1479SOL     OW15898   1.817   1.652   0.773  0.4527 -0.0053  0.1201
 1479SOL    HW115899   1.866   1.649   0.691 -0.8781 -0.3005 -0.6735
 1479SOL    HW215900   1.788   1.561   0.784  1.1291  0.0566  2.4105
 1480SOL     OW15901   3.463   3.275   4.632  0.0743 -0.0594 -0.0981
 1480SOL    HW115902   3.400   3.208   4.661 -3.0409  1.4739 -3.4035
 1480SOL    HW215903   3.447   3.347   4.694  0.1037 -1.5592  1.6540
 1481SOL     OW15904   2.594   2.654   3.276  0.3319 -0.2341 -0.0273
 1481SOL    HW115905   2.577   2.746   3.296 -2.1744 -0.7625  0.2354
 1481SOL    HW215906   2.664   2.630   3.338  0.7296 -1.2664 -0.8734
 1482SOL     OW15907   4.621   3.478   1.901  0.6647 -0.6550 -0.4170
 1482SOL    HW115908   4.645   3.387   1.914  2.1288 -0.1073  0.7496
 1482SOL    HW215909   4.694   3.510   1.955 -0.0786 -2.4763  1.6388
 1483SOL     OW15910   0.157   0.312   3.218 -0.4356  0.1633  0.6485
 1483SOL    HW115911   0.240   0.278   3.182  0.1741  1.0317  1.2212
 1483SOL    HW215912   0.187   0.337   3.305 -0.6190  0.1125  0.7242
 1484SOL     OW15913   2.041   0.083  14.784 -0.1491 -0.7461 -0.3366
 1484SOL    HW115914   2.047   0.119  14.872 -1.1719 -3.6556  0.9403
 1484SOL    HW215915   1.957   0.040  14.800  0.2225  0.1071  4.0057
 1485SOL     OW15916   0.006   0.894   8.722  0.6293 -0.2713 -0.0537
 1485SOL    HW115917   4.678   0.843   8.783 -0.2793  0.2914 -0.3716
 1485SOL    HW215918   4.705   0.985   8.738 -0.2227 -0.7573  1.3228
 1486SOL     OW15919   0.598   2.194   5.228 -0.3986  0.4373 -1.1398
 1486SOL    HW115920   0.692   2.196   5.216 -0.0811 -1.4447  1.0067
 1486SOL    HW215921   0.582   2.289   5.226  0.1812  0.5853  1.5284
 1487SOL     OW15922   3.183   1.263   2.214  0.3961 -0.0283 -0.0477
 1487SOL    HW115923   3.254   1.322   2.187  0.3322 -0.1166 -0.4159
 1487SOL    HW215924   3.225   1.205   2.278 -0.1420 -0.1339  0.2078
 1488SOL     OW15925   0.732   2.169   4.691  0.2180  0.3525  0.4274
 1488SOL    HW115926   0.744   2.080   4.722  2.1100  0.8855  1.2042
 1488SOL    HW215927   0.692   2.220   4.761  2.1359  0.6104  1.3354
 1489SOL     OW15928   3.820   2.445  14.348  0.3635  0.1698 -0.2282
 1489SOL    HW115929   3.784   2.358  14.367  0.8521  0.0282  0.0439
 1489SOL    HW215930   3.817   2.483  14.436 -0.2368 -0.5907  0.0923
 1490SOL     OW15931   1.863   1.762   8.793  0.0515 -0.3721  0.2963
 1490SOL    HW115932   1.853   1.688   8.733 -2.8915  1.6813 -1.7566
 1490SOL    HW215933   1.915   1.818   8.735  3.5688 -0.4688  3.4199
 1491SOL     OW15934   3.619   3.483  14.865  0.1729 -0.0628  0.5259
 1491SOL    HW115935   3.708   3.513  14.846 -0.9630  2.9313 -0.1547
 1491SOL    HW215936   3.558   3.529  14.806  2.1037  2.1640  0.2654
 1492SOL     OW15937   0.370   1.760   1.203 -0.4409 -0.0015  0.0183
 1492SOL    HW115938   0.288   1.747   1.251 -1.3582 -1.4091 -1.9443
 1492SOL    HW215939   0.356   1.853   1.188 -1.4618 -0.4381 -1.6744
 1493SOL     OW15940   2.859   3.161  14.814  0.1614  0.3406  0.5205
 1493SOL    HW115941   2.801   3.162  14.890 -1.5336  2.3817 -0.8288
 1493SOL    HW215942   2.909   3.080  14.832 -0.6951 -0.0175  1.2826
 1494SOL     OW15943   1.497   2.608   3.345 -0.4217  0.1280 -0.3112
 1494SOL    HW115944   1.487   2.617   3.250  0.0833 -2.2784 -0.5830
 1494SOL    HW215945   1.407   2.580   3.364 -0.1395 -0.7359 -0.2320
 1495SOL     OW15946   4.224   2.354  17.406 -0.1744  0.0881  0.0852
 1495SOL    HW115947   4.227   2.439  17.362 -0.3588  0.3822  0.6375
 1495SOL    HW215948   4.176   2.365  17.488 -0.8039 -1.4644 -0.0677
 1496SOL     OW15949   0.756   4.722   6.523 -0.3025 -0.0141  0.0352
 1496SOL    HW115950   0.817   0.019   6.593 -3.0078 -0.2261  2.4522
 1496SOL    HW215951   0.789   0.047   6.449 -0.0096 -2.1266 -1.2610
 1497SOL     OW15952   1.930   0.252   8.700 -0.1714 -0.2782 -0.4955
 1497SOL    HW115953   2.004   0.295   8.743 -1.1796  0.4422  0.4936
 1497SOL    HW215954   1.931   0.159   8.723  0.2029 -0.4501 -1.1932
 1498SOL     OW15955   2.751   3.635   6.152  0.1479  0.3909 -0.4143
 1498SOL    HW115956   2.722   3.544   6.157  2.7088 -0.2771  1.9421
 1498SOL    HW215957   2.702   3.664   6.074  1.2141 -1.5356 -1.7869
 1499SOL     OW15958   2.739   0.937   2.863 -0.5649 -0.4367 -0.2548
 1499SOL    HW115959   2.778   0.937   2.775  0.8715  0.1098  0.3916
 1499SOL    HW215960   2.685   1.015   2.863 -0.9977 -0.7503  1.0435
 1500SOL     OW15961   2.580   2.602  13.579  0.3881 -0.2312  0.1801
 1500SOL    HW115962   2.528   2.545  13.522 -0.7426 -1.5613  2.5808
 1500SOL    HW215963   2.512   2.598  13.646  0.7491 -2.0331  0.4391
 1501SOL     OW15964   1.436   1.834   6.622 -0.0012  0.4976  0.7401
 1501SOL    HW115965   1.422   1.741   6.608  1.7924  0.0146  2.0963
 1501SOL    HW215966   1.347   1.860   6.647 -0.7335 -0.5853 -0.7156
 1502SOL     OW15967   3.522   3.738   8.524  0.0037  0.4425  0.0980
 1502SOL    HW115968   3.611   3.772   8.536  0.1170  0.2873 -0.3165
 1502SOL    HW215969   3.493   3.712   8.612 -0.0133  1.6503  0.4557
 1503SOL     OW15970   2.310   0.052  12.670  0.3302 -0.3763 -0.7187
 1503SOL    HW115971   2.335   0.133  12.625 -1.0433 -0.8412 -2.2981
 1503SOL    HW215972   2.217   0.070  12.684  0.5096  0.8347 -1.0661
 1504SOL     OW15973   0.544   1.174  10.599  0.3155  0.1077  0.0105
 1504SOL    HW115974   0.471   1.176  10.661  0.8039  0.4538  0.5686
 1504SOL    HW215975   0.544   1.078  10.595 -1.2739  0.1093 -0.2257
 1505SOL     OW15976   4.237   1.998   8.942  0.1270  0.9319  0.2525
 1505SOL    HW115977   4.213   2.021   8.852 -2.9225 -2.7292  0.1236
 1505SOL    HW215978   4.316   1.946   8.930  0.9328  1.9744  1.0182
 1506SOL     OW15979   3.623   3.702   1.975 -0.0861  0.1479 -0.2769
 1506SOL    HW115980   3.621   3.611   1.946  0.1991  0.4681 -1.2947
 1506SOL    HW215981   3.710   3.727   1.945 -0.4424  0.8128 -0.7629
 1507SOL     OW15982   1.184   3.187   5.905  0.5673 -0.5638 -0.3626
 1507SOL    HW115983   1.108   3.236   5.936  1.6339 -0.0344  1.3743
 1507SOL    HW215984   1.157   3.194   5.813 -0.9555  0.6111  0.1762
 1508SOL     OW15985   2.245   2.170   6.001 -0.4163 -0.2534  0.3595
 1508SOL    HW115986   2.304   2.216   5.942 -1.1441  0.0333 -0.1374
 1508SOL    HW215987   2.244   2.237   6.070 -1.1505  0.4714 -0.3544
 1509SOL     OW15988   2.241   0.166  13.891  0.1932  0.7124  0.3734
 1509SOL    HW115989   2.193   0.109  13.951  1.2261  0.6799  1.1771
 1509SOL    HW215990   2.230   0.249  13.937  0.0182  1.3324 -0.7990
 1510SOL     OW15991   1.626   3.960   2.983 -0.1262 -0.1581 -0.2415
 1510SOL    HW115992   1.701   3.981   2.928 -0.6351 -2.2243 -1.7158
 1510SOL    HW215993   1.601   4.051   3.003 -1.4255 -0.3045 -1.1857
 1511SOL     OW15994   3.768   0.074   7.140  0.2595  0.0773  0.3220
 1511SOL    HW115995   3.782   4.710   7.108  0.9601  0.8254 -1.4376
 1511SOL    HW215996   3.773   0.123   7.058  1.7456 -0.9437 -0.1934
 1512SOL     OW15997   2.667   4.430   0.262  0.0929  0.0200 -0.4453
 1512SOL    HW115998   2.648   4.513   0.306  1.7415  0.5837 -0.8028
 1512SOL    HW215999   2.686   4.391   0.347  0.0637 -0.8219 -0.8222
 1513SOL     OW16000   3.574   3.233   9.123  0.1209  0.4450 -0.3786
 1513SOL    HW116001   3.596   3.182   9.044 -1.2829 -0.9288  0.1074
 1513SOL    HW216002   3.635   3.197   9.187 -0.8199 -2.0502 -0.8833
 1514SOL     OW16003   0.019   4.186   6.217  0.5314 -0.0524  0.1408
 1514SOL    HW116004   4.717   4.094   6.220  1.8024 -0.3655  2.0526
 1514SOL    HW216005   0.042   4.189   6.310  1.3269  0.7491 -0.0812
 1515SOL     OW16006   3.007   1.378  15.495  0.5527 -0.0214  0.5280
 1515SOL    HW116007   2.940   1.309  15.488  0.6351 -0.1937  1.4360
 1515SOL    HW216008   2.941   1.446  15.508 -0.0771 -0.5004 -0.1918
 1516SOL     OW16009   1.617   2.050   9.461 -0.1524  0.2153 -0.2301
 1516SOL    HW116010   1.562   2.128   9.452 -0.7786  0.1041  2.6085
 1516SOL    HW216011   1.696   2.085   9.503  0.0657 -0.6000  0.0457
 1517SOL     OW16012   4.270   3.204   7.708 -0.0684  0.7753  0.2237
 1517SOL    HW116013   4.205   3.217   7.777  2.6666  1.9875  2.5868
 1517SOL    HW216014   4.353   3.224   7.751 -0.4462  1.1643  0.7756
 1518SOL     OW16015   3.725   2.716   3.683  0.0806  0.0274 -0.6946
 1518SOL    HW116016   3.733   2.810   3.698  2.4927 -0.6930  2.4656
 1518SOL    HW216017   3.794   2.677   3.736  0.9680  1.3886 -0.8491
 1519SOL     OW16018   3.467   1.448  15.757  0.0674  0.7104  0.3284
 1519SOL    HW116019   3.381   1.459  15.715  0.7664  0.4414 -1.1908
 1519SOL    HW216020   3.483   1.538  15.784  0.9344 -0.1903  2.7198
 1520SOL     OW16021   1.842   3.955   6.917 -1.0068  0.4030 -0.7123
 1520SOL    HW116022   1.790   3.925   6.991 -1.5480  0.4085 -1.0874
 1520SOL    HW216023   1.814   4.047   6.914 -2.9081 -0.1456  0.9691
 1521SOL     OW16024   2.571   1.934  11.076 -0.0737 -0.4222  0.1752
 1521SOL    HW116025   2.651   1.919  11.025 -0.0456 -2.3349  0.8143
 1521SOL    HW216026   2.579   1.870  11.146 -3.2162 -1.5592 -0.5408
 1522SOL     OW16027   0.284   3.125  15.972 -0.1584  0.2846  0.5014
 1522SOL    HW116028   0.229   3.048  15.963 -0.7520  0.9910 -2.0151
 1522SOL    HW216029   0.224   3.192  16.005 -1.1663 -0.1787 -0.3874
 1523SOL     OW16030   1.046   1.166  13.745 -0.3485  0.0779 -0.6232
 1523SOL    HW116031   1.094   1.212  13.676  1.7097  1.7521  1.9737
 1523SOL    HW216032   0.955   1.186  13.725 -0.7147 -1.1859 -0.2429
 1524SOL     OW16033   0.934   3.785  13.204  0.1003 -0.3758  0.1717
 1524SOL    HW116034   0.921   3.777  13.110  3.3743  0.9505 -0.4272
 1524SOL    HW216035   1.017   3.832  13.212  1.5912 -2.9182 -0.2750
 1525SOL     OW16036   1.342   2.545   6.107 -0.0972  0.0122 -0.1278
 1525SOL    HW116037   1.361   2.631   6.069 -1.0064  0.3267  0.1322
 1525SOL    HW216038   1.418   2.490   6.089 -0.8985 -0.9799 -0.5024
 1526SOL     OW16039   1.389   3.176   0.382  0.1282 -0.5337 -0.6732
 1526SOL    HW116040   1.347   3.244   0.329  0.1489  1.6975  2.1923
 1526SOL    HW216041   1.318   3.129   0.425  0.8252  0.5478  1.6695
 1527SOL     OW16042   1.792   0.567   7.597  0.8094  0.4468 -0.0666
 1527SOL    HW116043   1.816   0.606   7.681  2.3056  1.0396 -0.7722
 1527SOL    HW216044   1.710   0.527   7.625 -0.4521  3.0893  0.0483
 1528SOL     OW16045   2.800   1.287   4.021 -0.0800  0.2283  0.3952
 1528SOL    HW116046   2.845   1.277   3.937  1.8698  0.1613  1.4421
 1528SOL    HW216047   2.833   1.215   4.074  2.5681  1.6799  0.7707
 1529SOL     OW16048   1.896   4.194  10.285 -0.1306 -0.1673 -0.0551
 1529SOL    HW116049   1.978   4.146  10.297  0.8423  1.3515 -0.6085
 1529SOL    HW216050   1.836   4.123  10.263  1.1313 -1.6927  1.3850
 1530SOL     OW16051   3.082   2.119   0.412 -1.2896 -0.3604  0.1129
 1530SOL    HW116052   2.991   2.147   0.415 -0.6420  1.4125  3.7494
 1530SOL    HW216053   3.072   2.026   0.432 -1.0928 -0.6899 -1.3775
 1531SOL     OW16054   2.602   2.783   7.423  0.1542  0.3834  0.1707
 1531SOL    HW116055   2.621   2.835   7.502 -0.3818  0.7398  0.0687
 1531SOL    HW216056   2.632   2.839   7.351 -0.8942  1.2985  0.4359
 1532SOL     OW16057   0.905   2.656  13.496  0.3709  0.5802 -0.3253
 1532SOL    HW116058   0.852   2.701  13.562  0.4594 -0.1200  0.2212
 1532SOL    HW216059   0.855   2.674  13.417  0.5661 -2.4146 -1.1414
 1533SOL     OW16060   2.478   1.552  15.518  0.1332  0.5067 -0.4674
 1533SOL    HW116061   2.455   1.619  15.583  0.2795 -1.2310  1.3762
 1533SOL    HW216062   2.388   1.522  15.506  1.0714 -1.6200 -2.1854
 1534SOL     OW16063   4.298   1.809   8.473 -0.0387  0.3341  0.1614
 1534SOL    HW116064   4.271   1.718   8.461  0.5700  0.1662  0.0577
 1534SOL    HW216065   4.250   1.845   8.398 -0.9051  0.8553  0.9645
 1535SOL     OW16066   4.198   3.624   7.453 -0.0415 -0.6858  0.4012
 1535SOL    HW116067   4.261   3.655   7.518  0.3160  1.6189 -1.0508
 1535SOL    HW216068   4.208   3.530   7.466  1.1086 -0.4535  1.2662
 1536SOL     OW16069   4.507   1.202   7.409  0.1106 -0.1543  0.1070
 1536SOL    HW116070   4.449   1.218   7.335 -1.2729  0.7016  1.3673
 1536SOL    HW216071   4.556   1.125   7.378  0.9760 -0.0422  1.1973
 1537SOL     OW16072   1.087   1.464  13.292 -0.0967  0.0131 -0.1324
 1537SOL    HW116073   1.153   1.494  13.355 -1.0091  1.0436  0.3379
 1537SOL    HW216074   1.048   1.396  13.347 -1.9612  1.7332  0.6493
 1538SOL     OW16075   2.594   2.165   2.892 -0.1350  0.3324 -0.1315
 1538SOL    HW116076   2.666   2.136   2.948 -0.5528  1.4156  0.9706
 1538SOL    HW216077   2.633   2.245   2.856  1.8781 -0.9211 -0.6979
 1539SOL     OW16078   4.187   3.167  10.113 -0.6589  0.0628 -0.9016
 1539SOL    HW116079   4.246   3.230  10.154  0.1624 -1.0120 -0.4245
 1539SOL    HW216080   4.124   3.145  10.181  1.0111  4.5387  2.1068
 1540SOL     OW16081   1.330   1.254   5.695 -0.3551 -0.0609 -0.2755
 1540SOL    HW116082   1.413   1.245   5.648 -0.6554 -0.8729 -0.6264
 1540SOL    HW216083   1.322   1.348   5.712 -0.7876  0.0703 -1.2180
 1541SOL     OW16084   3.470   4.560   7.651  0.1404 -0.3891  0.0280
 1541SOL    HW116085   3.556   4.566   7.693 -0.8261  2.6193  1.5395
 1541SOL    HW216086   3.444   4.652   7.652  1.3901 -0.0430  2.4756
 1542SOL     OW16087   0.785   0.247  14.576 -0.2792 -0.1855  0.7834
 1542SOL    HW116088   0.865   0.200  14.552 -0.7021 -0.9856  0.9575
 1542SOL    HW216089   0.793   0.314  14.508 -0.7641  0.2063  1.1123
 1543SOL     OW16090   2.763   0.054  12.892  0.0733 -0.3109 -0.3667
 1543SOL    HW116091   2.769   4.694  12.936  0.3606  0.4380  1.0184
 1543SOL    HW216092   2.842   0.099  12.921 -0.1807 -0.0068 -0.1401
 1544SOL     OW16093   2.628   1.004   0.143  0.1768  0.0131  0.4818
 1544SOL    HW116094   2.632   1.046   0.229 -0.8773 -0.9063  0.9888
 1544SOL    HW216095   2.541   1.031   0.112  0.5840  0.7584  0.0000
 1545SOL     OW16096   4.319   3.552   1.893 -0.1817  0.1859 -0.2022
 1545SOL    HW116097   4.309   3.501   1.812  0.6305 -1.9071  1.0250
 1545SOL    HW216098   4.391   3.502   1.932 -0.9434 -0.9155 -0.1923
 1546SOL     OW16099   1.841   4.070   2.882  0.0462  0.2477  0.2113
 1546SOL    HW116100   1.881   4.111   2.805 -1.0044 -0.0358 -0.4956
 1546SOL    HW216101   1.875   4.120   2.956  0.3754  2.8321 -1.6885
 1547SOL     OW16102   0.407   2.448   5.713 -0.1969  0.1705 -0.4957
 1547SOL    HW116103   0.480   2.408   5.667  0.1413  0.9352 -0.6322
 1547SOL    HW216104   0.381   2.375   5.769 -0.3955  1.2826  0.8762
 1548SOL     OW16105   1.015   2.594   4.849 -0.5165  0.0401  0.2958
 1548SOL    HW116106   1.023   2.549   4.765  1.9426  2.2328 -0.6716
 1548SOL    HW216107   1.029   2.685   4.825 -0.9512  0.2643  0.8941
 1549SOL     OW16108   2.320   0.433   8.045 -0.6568  0.1459  1.1447
 1549SOL    HW116109   2.349   0.463   7.958 -0.3760 -2.1565  0.4469
 1549SOL    HW216110   2.315   0.513   8.097 -0.0724  0.9992 -0.1012
 1550SOL     OW16111   2.304   1.309   6.902  0.1289  0.0233 -0.4226
 1550SOL    HW116112   2.224   1.291   6.951  0.9741 -0.6665  0.7170
 1550SOL    HW216113   2.338   1.373   6.964  1.7254 -2.3952  1.2216
 1551SOL     OW16114   3.101   2.307   6.707  0.0490 -0.8397  0.1183
 1551SOL    HW116115   3.153   2.308   6.626  2.3980 -3.0790  1.5971
 1551SOL    HW216116   3.154   2.359   6.768  0.5066 -0.5390 -0.5300
 1552SOL     OW16117   0.244   2.548   5.484 -0.3621  0.5003 -0.0977
 1552SOL    HW116118   0.299   2.521   5.557  1.9978 -2.6666 -3.0057
 1552SOL    HW216119   0.309   2.550   5.414  0.1084 -1.6261  0.2647
 1553SOL     OW16120   3.058   1.122   8.647 -0.4073 -0.0269  0.8119
 1553SOL    HW116121   3.006   1.061   8.700 -1.5855 -1.6564 -2.2655
 1553SOL    HW216122   3.119   1.064   8.602  0.0180  0.4482  0.7809
 1554SOL     OW16123   0.745   2.216   0.291  0.2055 -0.3193 -0.0144
 1554SOL    HW116124   0.741   2.303   0.330  2.4150 -0.1074 -0.2171
 1554SOL    HW216125   0.655   2.191   0.309 -0.1795  1.3958  0.3920
 1555SOL     OW16126   3.790   3.687   0.063 -0.4339 -0.0708 -0.3816
 1555SOL    HW116127   3.786   3.761   0.124  0.9637  2.6087 -3.5398
 1555SOL    HW216128   3.704   3.693   0.022  0.1158  1.8136 -1.2976
 1556SOL     OW16129   0.358   1.973  13.138 -0.2353 -0.2258  0.3362
 1556SOL    HW116130   0.354   2.043  13.203 -2.0088  1.2902 -1.4169
 1556SOL    HW216131   0.429   1.998  13.079  1.0093  0.8335  2.3022
 1557SOL     OW16132   1.823   2.141   7.226  0.2737 -0.2205 -0.3392
 1557SOL    HW116133   1.897   2.195   7.253 -0.0945  0.3630 -0.4891
 1557SOL    HW216134   1.757   2.211   7.225 -0.1894 -0.6492  1.2697
 1558SOL     OW16135   4.631   4.262   9.520  0.4727  0.2054 -0.1578
 1558SOL    HW116136   4.688   4.199   9.476 -0.4261 -1.5464  1.1927
 1558SOL    HW216137   4.563   4.200   9.544  1.0172  0.3933  1.9159
 1559SOL     OW16138   0.619   3.350   7.396 -0.4558 -0.1350 -0.3253
 1559SOL    HW116139   0.605   3.271   7.448 -0.9797  1.3096  1.7318
 1559SOL    HW216140   0.663   3.400   7.465 -4.1155 -0.7286  2.4026
 1560SOL     OW16141   1.389   3.405   5.683 -0.0665  0.6934  0.1997
 1560SOL    HW116142   1.470   3.452   5.704 -0.6071  1.1773  1.2454
 1560SOL    HW216143   1.329   3.466   5.727 -1.3632 -1.8336  1.9852
 1561SOL     OW16144   0.796   1.165  13.210  0.0223 -0.0458  0.0283
 1561SOL    HW116145   0.850   1.095  13.248  1.2662  0.7478 -0.2559
 1561SOL    HW216146   0.853   1.182  13.134 -3.1032 -0.2803 -2.3545
 1562SOL     OW16147   1.429   2.762   3.985  0.0989  0.2000  0.1373
 1562SOL    HW116148   1.520   2.790   3.971 -0.1584  1.2685  0.5329
 1562SOL    HW216149   1.413   2.843   4.034 -2.0606  1.1153 -2.0823
 1563SOL     OW16150   2.792   3.785   4.581  0.4419  0.1244  0.3618
 1563SOL    HW116151   2.874   3.763   4.626  0.3541  0.0111  0.4684
 1563SOL    HW216152   2.787   3.719   4.511  0.0093 -0.6314  1.0976
 1564SOL     OW16153   2.892   0.503   6.072 -0.2382 -0.4367 -0.0950
 1564SOL    HW116154   2.817   0.463   6.118  0.8683 -0.4555  1.6937
 1564SOL    HW216155   2.844   0.576   6.034  0.9549 -0.4594 -1.6166
 1565SOL     OW16156   0.867   1.893   3.858 -0.2002 -0.3242 -0.0147
 1565SOL    HW116157   0.874   1.832   3.931  3.0230 -2.1185 -1.7999
 1565SOL    HW216158   0.884   1.972   3.908  1.1030 -1.4681  1.3567
 1566SOL     OW16159   0.805   0.474  13.668 -0.0977  0.3397 -0.7955
 1566SOL    HW116160   0.710   0.488  13.672 -0.0952  0.0153  0.2862
 1566SOL    HW216161   0.810   0.422  13.748 -0.2499 -0.9643 -1.6302
 1567SOL     OW16162   2.755   1.654   8.662  0.3522 -0.0389 -0.8113
 1567SOL    HW116163   2.741   1.605   8.581  0.3346 -0.3997 -0.5862
 1567SOL    HW216164   2.740   1.593   8.734  1.4717  0.5007 -0.1157
 1568SOL     OW16165   0.598   2.141   3.060  0.1953 -0.3990  0.1612
 1568SOL    HW116166   0.556   2.054   3.064 -1.3476  0.3438  0.1319
 1568SOL    HW216167   0.570   2.165   2.972  2.7197  0.3470 -0.4178
 1569SOL     OW16168   2.164   4.270   5.076  0.0018  0.4193  0.1340
 1569SOL    HW116169   2.208   4.272   5.161 -0.6910 -0.4505  0.5117
 1569SOL    HW216170   2.191   4.188   5.036 -0.4238 -0.1728  1.0772
 1570SOL     OW16171   0.476   0.072  17.485  0.5515  0.6193 -0.1095
 1570SOL    HW116172   0.548   0.018  17.517  0.2389  0.6499  0.6345
 1570SOL    HW216173   0.451   0.115  17.566  1.3530  1.0323 -0.0779
 1571SOL     OW16174   3.608   0.941   3.331  0.1233  0.4145 -0.3259
 1571SOL    HW116175   3.626   1.020   3.280  1.4728  1.4726  1.7732
 1571SOL    HW216176   3.652   0.872   3.280  1.5164 -0.1835  1.6946
 1572SOL     OW16177   4.150   4.516   8.904 -0.2924  0.6079  0.4334
 1572SOL    HW116178   4.208   4.537   8.831 -0.1270 -2.2017 -0.2453
 1572SOL    HW216179   4.070   4.486   8.860  0.6707 -1.5080  0.1231
 1573SOL     OW16180   4.225   3.083   8.289  0.3073  0.2622  0.0231
 1573SOL    HW116181   4.267   3.148   8.232  1.9710 -0.1438  0.7861
 1573SOL    HW216182   4.155   3.137   8.327  1.8534 -0.1314  3.4484
 1574SOL     OW16183   2.718   2.866  11.781  0.0543 -0.1952 -0.1517
 1574SOL    HW116184   2.742   2.808  11.708 -3.2757 -1.4010 -0.3267
 1574SOL    HW216185   2.628   2.839  11.803  1.0308 -3.5880 -0.2669
 1575SOL     OW16186   2.499   1.651   2.322  1.3209  0.1361  0.2160
 1575SOL    HW116187   2.439   1.583   2.292 -1.1006  1.8320  1.1594
 1575SOL    HW216188   2.585   1.628   2.287  1.7129  0.6505  0.8368
 1576SOL     OW16189   3.647   2.222   1.775 -0.0876 -0.5426 -0.2152
 1576SOL    HW116190   3.660   2.128   1.789 -2.4784 -0.5060  2.1426
 1576SOL    HW216191   3.738   2.243   1.753 -0.6816 -0.3971 -2.5238
 1577SOL     OW16192   2.032   4.553  12.945  0.2423 -0.1166 -0.1535
 1577SOL    HW116193   2.013   4.644  12.922 -1.2733  0.4849  3.3615
 1577SOL    HW216194   1.957   4.514  12.900 -0.1688 -0.8860  1.1819
 1578SOL     OW16195   4.607   0.907   4.960 -0.4289 -0.0534  0.7248
 1578SOL    HW116196   4.628   0.999   4.974  0.4500  0.1978 -2.3899
 1578SOL    HW216197   4.512   0.895   4.957 -0.5389  0.4486  2.0094
 1579SOL     OW16198   0.279   1.847   3.551  0.0307 -0.2434  0.5279
 1579SOL    HW116199   0.199   1.812   3.512  0.0710 -0.1453  0.3573
 1579SOL    HW216200   0.258   1.861   3.643 -0.0585  0.7248  0.3626
 1580SOL     OW16201   4.495   4.501   6.302  0.2287 -0.3300 -0.1066
 1580SOL    HW116202   4.552   4.568   6.338 -3.2998  1.6962  1.6549
 1580SOL    HW216203   4.548   4.437   6.350 -0.4417 -0.4699  0.4426
 1581SOL     OW16204   1.626   3.682   2.466 -0.4844  0.5741  0.5726
 1581SOL    HW116205   1.599   3.628   2.392 -0.6299 -1.2309  1.9532
 1581SOL    HW216206   1.715   3.649   2.478 -0.9888 -0.3216  1.8326
 1582SOL     OW16207   4.435   3.367   3.363  0.1634 -0.4030 -0.3174
 1582SOL    HW116208   4.406   3.339   3.276  0.0796 -1.3723  0.0190
 1582SOL    HW216209   4.424   3.281   3.405  1.2405 -0.3446  0.1040
 1583SOL     OW16210   3.073   0.210   0.001 -0.4008 -0.2644  0.1828
 1583SOL    HW116211   2.984   0.195  17.671 -0.3278  1.5070 -0.9308
 1583SOL    HW216212   3.045   0.267   0.072 -0.3291 -1.1662  0.9295
 1584SOL     OW16213   0.500   2.861   8.601  0.1774 -0.1022 -0.1448
 1584SOL    HW116214   0.464   2.784   8.644  0.3223  0.3043  0.6993
 1584SOL    HW216215   0.502   2.937   8.660  0.0725 -0.1656 -0.0611
 1585SOL     OW16216   4.539   1.994  12.318  0.3663 -0.2563  0.2860
 1585SOL    HW116217   4.550   1.936  12.242 -1.5277 -0.9395  0.5467
 1585SOL    HW216218   4.610   1.958  12.372  0.8351  2.6908  1.6330
 1586SOL     OW16219   1.367   1.211   4.402 -0.3927  0.7420  0.7487
 1586SOL    HW116220   1.378   1.303   4.381  0.6531  0.3174 -0.5290
 1586SOL    HW216221   1.316   1.187   4.325  0.9051 -1.7066  0.6256
 1587SOL     OW16222   0.157   0.505   5.607 -0.5099 -0.4560  0.3276
 1587SOL    HW116223   0.079   0.516   5.552  0.5981  0.7931 -0.9883
 1587SOL    HW216224   0.217   0.572   5.574 -0.9694  0.2820  1.0178
 1588SOL     OW16225   0.242   0.988   2.852 -0.2379  0.1046  0.4483
 1588SOL    HW116226   0.228   1.050   2.780 -2.6300 -0.3057  0.5684
 1588SOL    HW216227   0.177   0.918   2.843  2.2276 -1.8558 -2.1943
 1589SOL     OW16228   1.340   2.691   4.847 -0.3813 -0.5307  0.0009
 1589SOL    HW116229   1.380   2.761   4.898  0.8054 -0.5843 -0.8612
 1589SOL    HW216230   1.280   2.744   4.795 -1.2646 -0.3368  1.2154
 1590SOL     OW16231   2.129   4.010   8.527  0.2504 -0.3399 -0.5015
 1590SOL    HW116232   2.105   4.064   8.602  0.6405 -2.2986  1.0272
 1590SOL    HW216233   2.222   4.001   8.548  0.0872  0.5328  0.6048
 1591SOL     OW16234   2.597   4.623   4.284  0.4574  0.5078  0.1308
 1591SOL    HW116235   2.687   4.626   4.317 -0.1635 -0.5748  1.9287
 1591SOL    HW216236   2.565   4.537   4.310 -2.2045  1.3237 -0.4944
 1592SOL     OW16237   3.097   3.209   8.170  0.2573  0.5497 -0.3461
 1592SOL    HW116238   3.159   3.142   8.140  0.0786  0.1390  0.1879
 1592SOL    HW216239   3.096   3.174   8.259 -0.8215  1.6088  0.0482
 1593SOL     OW16240   3.909   0.639   4.707  0.6236  0.0186  0.3036
 1593SOL    HW116241   3.899   0.654   4.801  0.8470  1.1450  0.1390
 1593SOL    HW216242   3.824   0.653   4.666 -0.0550  3.6653  3.0149
 1594SOL     OW16243   3.916   3.193  13.060  0.3455  0.0564  0.2537
 1594SOL    HW116244   3.891   3.109  13.099 -3.0889  1.3481  0.8162
 1594SOL    HW216245   3.998   3.169  13.018  0.1117  0.2967 -0.3474
 1595SOL     OW16246   3.904   0.227   3.785  0.3079 -0.3243  0.1750
 1595SOL    HW116247   3.857   0.194   3.709  1.9237  0.6750 -1.2567
 1595SOL    HW216248   3.831   0.231   3.847  1.3137 -0.8262  1.3865
 1596SOL     OW16249   1.795   0.311   4.735  0.4096  0.6900 -0.5282
 1596SOL    HW116250   1.780   0.261   4.815 -0.8487  0.9112 -0.6383
 1596SOL    HW216251   1.745   0.258   4.675  2.1813 -0.3374 -1.1017
 1597SOL     OW16252   2.707   1.033   7.962  0.2992  0.3014 -0.3481
 1597SOL    HW116253   2.664   0.962   7.915  1.3439 -0.4160 -0.2327
 1597SOL    HW216254   2.716   1.005   8.053  0.9520 -1.2753 -0.8923
 1598SOL     OW16255   0.480   0.526  15.939 -0.0518  0.4649  0.2536
 1598SOL    HW116256   0.523   0.611  15.932 -0.6431  0.7973  0.7074
 1598SOL    HW216257   0.561   0.480  15.916  0.2289 -0.3426  2.8623
 1599SOL     OW16258   1.211   0.694   8.990  0.2039 -0.6578 -0.5378
 1599SOL    HW116259   1.209   0.760   8.921 -1.1880 -0.6600 -0.4988
 1599SOL    HW216260   1.162   0.619   8.956 -0.7848 -1.2091  2.0989
 1600SOL     OW16261   0.314   0.523  11.753 -0.4673  0.0376  0.0044
 1600SOL    HW116262   0.316   0.481  11.667  1.0310 -0.2571  0.1926
 1600SOL    HW216263   0.307   0.617  11.735 -0.8987 -0.3774 -2.0469
 1601SOL     OW16264   1.326   4.538  13.570  0.1773  0.4985  0.0553
 1601SOL    HW116265   1.368   4.522  13.485  2.3742  1.4348  0.9429
 1601SOL    HW216266   1.288   4.451  13.573  0.7598  0.2147 -0.9079
 1602SOL     OW16267   3.877   2.932   6.421  0.3834  0.5038 -0.2580
 1602SOL    HW116268   3.862   2.927   6.327  3.1263  1.7399 -0.7796
 1602SOL    HW216269   3.814   3.000   6.444  0.8524  1.2646 -1.2132
 1603SOL     OW16270   0.385   4.572   3.601 -0.5610  0.2933 -0.0333
 1603SOL    HW116271   0.377   4.612   3.514 -0.3281  0.3882 -0.0094
 1603SOL    HW216272   0.305   4.520   3.612 -1.2772  1.7990  1.9151
 1604SOL     OW16273   3.008   0.731   3.028 -0.2898 -0.1205  0.1585
 1604SOL    HW116274   2.930   0.785   3.010 -0.7796 -1.2091 -0.9639
 1604SOL    HW216275   2.974   0.651   3.066  0.7576 -0.0084  1.3293
 1605SOL     OW16276   1.564   4.280  14.240  0.1519  0.4110 -0.0371
 1605SOL    HW116277   1.485   4.228  14.261  0.4484  0.1254  0.3746
 1605SOL    HW216278   1.544   4.361  14.286  1.4765 -0.2828  1.7903
 1606SOL     OW16279   3.154   0.771   4.420  0.5626  0.3104  0.0346
 1606SOL    HW116280   3.201   0.688   4.425  3.4995  1.7030 -4.3530
 1606SOL    HW216281   3.077   0.745   4.370  1.0894  1.5109 -1.4092
 1607SOL     OW16282   4.059   0.761   3.561  0.0202  0.0202  0.4928
 1607SOL    HW116283   4.071   0.666   3.552 -0.3125  0.0817 -0.6983
 1607SOL    HW216284   4.067   0.784   3.468 -0.7869 -1.7645 -0.0431
 1608SOL     OW16285   3.070   4.456   8.477  0.3379 -0.0240 -0.7857
 1608SOL    HW116286   3.126   4.419   8.409 -0.2667  0.5926 -1.6326
 1608SOL    HW216287   2.999   4.392   8.480  1.2562 -1.0388 -0.8230
 1609SOL     OW16288   2.377   2.873   5.907  0.0157  0.0732  0.2739
 1609SOL    HW116289   2.441   2.839   5.844  1.9279  2.6729  0.8295
 1609SOL    HW216290   2.301   2.818   5.887 -1.1106  0.8223  2.4417
 1610SOL     OW16291   4.701   0.044   2.597 -0.0410 -0.1647  0.0177
 1610SOL    HW116292   0.024   0.111   2.547 -2.4618  1.6823  0.1825
 1610SOL    HW216293   4.719   0.083   2.682 -0.5868  0.2347 -0.0529
 1611SOL     OW16294   0.604   0.473   5.504 -0.3970  0.6352  0.0461
 1611SOL    HW116295   0.527   0.423   5.530  0.1030 -0.8486 -1.3015
 1611SOL    HW216296   0.627   0.436   5.419  1.4533  0.9892  0.3955
 1612SOL     OW16297   0.058   1.902   4.470 -0.4672 -0.0817  0.3853
 1612SOL    HW116298   0.097   1.965   4.411 -0.3191  0.3839  0.9825
 1612SOL    HW216299   0.041   1.826   4.414  0.8565  1.2943 -1.8936
 1613SOL     OW16300   1.198   1.111   7.252 -0.3606 -0.3956 -0.0069
 1613SOL    HW116301   1.210   1.171   7.178  0.2174  1.5045  1.6279
 1613SOL    HW216302   1.180   1.029   7.206  1.6040 -1.3253  0.9022
 1614SOL     OW16303   4.089   2.120  13.830  0.2797 -0.9511  0.9071
 1614SOL    HW116304   4.113   2.179  13.759  0.5857 -0.2416  1.5977
 1614SOL    HW216305   4.127   2.036  13.805 -1.4844 -0.5538 -2.9420
 1615SOL     OW16306   1.108   1.621   6.584 -0.7908  0.8692  0.2546
 1615SOL    HW116307   1.201   1.613   6.604 -0.6198 -1.3356 -1.4904
 1615SOL    HW216308   1.096   1.526   6.595  0.1753  0.6691 -0.4424
 1616SOL     OW16309   0.582   3.551   8.778  0.4711  0.2660  0.0980
 1616SOL    HW116310   0.491   3.527   8.762  0.2062  0.6092  1.1096
 1616SOL    HW216311   0.585   3.563   8.873  1.4647 -0.0821  0.1165
 1617SOL     OW16312   2.606   3.748   5.674  0.2104 -0.3006 -0.9279
 1617SOL    HW116313   2.549   3.817   5.708  0.0244 -0.6637 -0.4965
 1617SOL    HW216314   2.597   3.670   5.728  1.9382 -1.5488 -2.4564
 1618SOL     OW16315   1.007   1.804   9.729  0.0617 -0.1092  0.5962
 1618SOL    HW116316   0.936   1.866   9.713  1.9652  1.4113 -2.0091
 1618SOL    HW216317   1.017   1.790   9.824  0.3951  1.1202  0.7528
 1619SOL     OW16318   4.715   1.873  16.025 -0.3811  0.3957 -0.1869
 1619SOL    HW116319   4.697   1.841  16.113  1.9982 -1.3230 -0.3501
 1619SOL    HW216320   4.673   1.959  16.021 -0.3419  0.3149 -2.4084
 1620SOL     OW16321   3.961   0.143   9.087  1.0082 -0.3142 -0.2704
 1620SOL    HW116322   4.032   0.107   9.141  1.7237  0.5967 -0.6131
 1620SOL    HW216323   3.887   0.128   9.146  0.4235 -1.7441 -1.3540
 1621SOL     OW16324   2.829   1.965  15.452 -0.1484 -0.5843  0.0636
 1621SOL    HW116325   2.872   1.892  15.497  0.6544 -1.5526 -2.2878
 1621SOL    HW216326   2.840   1.944  15.359 -2.1126 -2.0877  0.1768
 1622SOL     OW16327   3.722   1.362  15.740  0.3157  0.3343 -0.0500
 1622SOL    HW116328   3.637   1.393  15.771  0.5216  1.4559 -0.6339
 1622SOL    HW216329   3.742   1.437  15.684 -0.0950 -1.0593 -2.0427
 1623SOL     OW16330   1.273   2.162   4.387  0.7106 -0.3588 -0.1487
 1623SOL    HW116331   1.338   2.101   4.422  1.2685  1.6839  2.4361
 1623SOL    HW216332   1.257   2.216   4.464 -1.1030  1.9624 -2.1463
 1624SOL     OW16333   4.247   2.237  13.057 -0.2086  0.4851  0.1153
 1624SOL    HW116334   4.312   2.249  13.126  0.2362 -0.1465 -0.1860
 1624SOL    HW216335   4.280   2.298  12.991  1.9974 -1.5176 -0.6565
 1625SOL     OW16336   0.791   1.381   5.116  0.0729  0.3782  0.2296
 1625SOL    HW116337   0.820   1.410   5.203 -2.1477  0.8328  0.8171
 1625SOL    HW216338   0.768   1.288   5.123 -1.9661  0.9819  1.7572
 1626SOL     OW16339   1.922   3.505   6.682  0.0072 -0.2172 -0.2670
 1626SOL    HW116340   1.878   3.589   6.697  0.4278  0.2742 -1.8379
 1626SOL    HW216341   2.008   3.531   6.716  0.4438 -1.5803 -0.3614
 1627SOL     OW16342   3.612   0.205  15.039  0.4064 -0.2274  0.3037
 1627SOL    HW116343   3.600   0.142  14.968 -0.1938  1.9346 -1.4855
 1627SOL    HW216344   3.535   0.184  15.092 -0.8892  2.7779 -0.4117
 1628SOL     OW16345   4.610   0.096   4.898 -0.2076 -0.0495 -0.7136
 1628SOL    HW116346   4.691   0.094   4.847 -2.6129 -1.0351 -4.4809
 1628SOL    HW216347   4.569   0.014   4.873  0.1138  0.3359 -2.4776
 1629SOL     OW16348   3.751   0.171   2.452  0.3218  0.7020 -0.4906
 1629SOL    HW116349   3.827   0.192   2.506  0.1299 -0.9723  0.4315
 1629SOL    HW216350   3.764   0.208   2.365 -0.1322 -1.1592 -1.3653
 1630SOL     OW16351   3.115   4.621   5.398  0.7128 -0.5888 -0.1086
 1630SOL    HW116352   3.133   4.612   5.491 -2.0278 -2.6809  0.1947
 1630SOL    HW216353   3.022   4.599   5.400  1.0234 -1.7146  1.0594
 1631SOL     OW16354   2.954   3.673   8.147 -0.1308  0.2835 -0.5268
 1631SOL    HW116355   3.045   3.643   8.156 -0.6120 -1.4487 -1.4384
 1631SOL    HW216356   2.905   3.604   8.192  1.5217 -1.5611 -1.5808
 1632SOL     OW16357   1.078   3.319  11.208 -0.3077  0.5688 -0.4379
 1632SOL    HW116358   1.056   3.327  11.301 -2.1674 -1.0725 -0.7525
 1632SOL    HW216359   1.108   3.230  11.191 -3.3268 -0.2980 -1.2159
 1633SOL     OW16360   4.700   0.609   5.429 -0.0938  0.3172 -0.0556
 1633SOL    HW116361   0.015   0.689   5.393  2.4889 -0.6695  0.6252
 1633SOL    HW216362   4.614   0.619   5.389 -0.0825  0.9429  0.0758
 1634SOL     OW16363   3.507   4.084   6.632 -0.2815 -0.1758  0.1421
 1634SOL    HW116364   3.450   4.008   6.641 -0.5441  0.1223  1.0431
 1634SOL    HW216365   3.525   4.097   6.726 -0.2730 -1.3207  0.2979
 1635SOL     OW16366   1.895   3.527   9.778 -0.2438  0.0103 -0.2529
 1635SOL    HW116367   1.872   3.438   9.753 -1.3559  0.2128  0.0502
 1635SOL    HW216368   1.806   3.561   9.789 -0.0369  1.0006 -1.5076
 1636SOL     OW16369   3.039   4.480   1.293 -0.5071 -0.2656  0.1924
 1636SOL    HW116370   2.954   4.437   1.278 -0.6168  0.5272 -1.4636
 1636SOL    HW216371   3.095   4.427   1.236  0.3075 -0.6510  1.3597
 1637SOL     OW16372   0.718   4.149   3.277  0.1843 -0.2224 -0.0426
 1637SOL    HW116373   0.777   4.215   3.313 -0.6733 -0.6574  2.1560
 1637SOL    HW216374   0.775   4.073   3.268 -1.3196 -1.1796 -1.6960
 1638SOL     OW16375   0.753   2.435   5.293  0.1751  0.0933 -0.5161
 1638SOL    HW116376   0.706   2.488   5.229  0.9706  1.1459 -0.2295
 1638SOL    HW216377   0.804   2.500   5.342  0.5199 -0.3083 -0.3463
 1639SOL     OW16378   1.870   0.733   7.805 -0.3833 -0.4995 -0.3946
 1639SOL    HW116379   1.877   0.827   7.788 -0.0401 -0.5148 -0.3326
 1639SOL    HW216380   1.939   0.724   7.871  0.4133  2.8119 -0.8036
 1640SOL     OW16381   2.850   0.313  15.462  0.1035  0.6055  0.1085
 1640SOL    HW116382   2.822   0.243  15.403 -0.6680  0.2078  0.9552
 1640SOL    HW216383   2.789   0.385  15.446 -0.0159  0.2526 -1.0429
 1641SOL     OW16384   4.720   4.292   2.328  0.2158 -0.3912 -0.3372
 1641SOL    HW116385   0.042   4.273   2.409  0.4145  0.9003 -0.1468
 1641SOL    HW216386   4.701   4.386   2.340 -0.9793 -0.8482  1.3191
 1642SOL     OW16387   4.055   3.690  15.401  0.4072  0.1269  0.5259
 1642SOL    HW116388   4.148   3.681  15.381  0.5356 -0.7291  1.5280
 1642SOL    HW216389   4.052   3.612  15.456  1.1561 -1.6272 -1.9148
 1643SOL     OW16390   4.652   1.400  13.609  0.3231 -0.1358  0.2632
 1643SOL    HW116391   4.616   1.445  13.533 -0.1964 -1.8546 -0.5050
 1643SOL    HW216392   4.585   1.333  13.625  0.8378 -0.5328  0.7872
 1644SOL     OW16393   2.818   2.174   5.959  0.8163 -0.1303  0.3879
 1644SOL    HW116394   2.789   2.085   5.977  0.9602 -0.6659 -1.9493
 1644SOL    HW216395   2.790   2.191   5.869 -2.1510 -0.5794  1.2283
 1645SOL     OW16396   0.178   4.212   4.789 -0.5395 -0.4228  0.2834
 1645SOL    HW116397   0.176   4.129   4.742  0.1489 -0.6829  0.7071
 1645SOL    HW216398   0.215   4.191   4.875  0.7210 -1.7040 -0.5834
 1646SOL     OW16399   1.378   3.126   1.343 -0.4669  0.4969 -0.0149
 1646SOL    HW116400   1.336   3.130   1.429  0.1442 -0.0888  0.3138
 1646SOL    HW216401   1.316   3.178   1.293 -0.8393 -0.5618 -0.6501
 1647SOL     OW16402   4.429   4.085   6.440  0.4838  0.2070 -0.3915
 1647SOL    HW116403   4.483   4.155   6.404  0.6398 -0.1041 -0.7693
 1647SOL    HW216404   4.495   4.032   6.486  0.8118  2.4485  1.7117
 1648SOL     OW16405   3.233   1.766   5.769 -0.0493  0.7436 -0.1623
 1648SOL    HW116406   3.308   1.724   5.811 -0.1216 -0.1770 -0.9638
 1648SOL    HW216407   3.196   1.703   5.708 -1.2317  0.8732  0.4309
 1649SOL     OW16408   2.237   1.449   0.024 -0.4222  0.6124 -0.4279
 1649SOL    HW116409   2.187   1.424  17.646 -1.0447  0.5802 -0.0172
 1649SOL    HW216410   2.229   1.367   0.074 -0.0076  2.1554  2.1475
 1650SOL     OW16411   4.675   3.104   3.286  0.1503  0.2915  0.0657
 1650SOL    HW116412   4.637   3.133   3.203 -1.6704 -1.7293  0.1923
 1650SOL    HW216413   4.678   3.185   3.337  0.0330  0.6050 -0.4238
 1651SOL     OW16414   1.347   0.144   0.193 -0.5522 -0.0680 -0.0135
 1651SOL    HW116415   1.380   0.228   0.161  0.8440 -1.8315 -3.2232
 1651SOL    HW216416   1.421   0.085   0.175 -1.2351  0.0597 -3.3016
 1652SOL     OW16417   1.523   0.996   4.503  0.2679  0.0785 -0.0815
 1652SOL    HW116418   1.476   0.925   4.458 -0.5619  0.2649  0.4922
 1652SOL    HW216419   1.503   1.071   4.447  4.7165  0.6313 -0.8929
 1653SOL     OW16420   1.219   0.776   6.120  0.3121  0.2040  0.0014
 1653SOL    HW116421   1.128   0.755   6.101 -0.2004  1.3175  1.2405
 1653SOL    HW216422   1.251   0.780   6.030  1.2814 -0.6771  0.2983
 1654SOL     OW16423   4.651   0.602   9.088  0.5984 -0.0818  0.0152
 1654SOL    HW116424   4.625   0.515   9.121  1.1826 -1.5885 -3.5308
 1654SOL    HW216425   0.020   0.589   9.098  0.6929 -0.4529 -1.3487
 1655SOL     OW16426   4.088   3.952   9.377  0.1238  0.0342 -0.2004
 1655SOL    HW116427   4.179   3.947   9.406  0.2378  1.5401 -0.3367
 1655SOL    HW216428   4.098   3.940   9.283  1.6926 -0.2396 -0.0039
 1656SOL     OW16429   4.192   4.715   7.021  0.8868 -0.0348 -0.1252
 1656SOL    HW116430   4.264   4.655   7.001  0.0887 -1.4951  1.4122
 1656SOL    HW216431   4.149   4.672   7.095  0.6560 -1.5173 -1.1171
 1657SOL     OW16432   1.951   3.302   8.008  0.5858  0.4147 -0.3855
 1657SOL    HW116433   1.953   3.245   7.931  3.4663 -0.3778  0.2426
 1657SOL    HW216434   1.862   3.336   8.001 -0.1234 -1.0702  1.4446
 1658SOL     OW16435   2.822   0.736   6.812 -0.1890 -0.0532 -0.0080
 1658SOL    HW116436   2.882   0.729   6.886 -1.3405  0.0388  0.9488
 1658SOL    HW216437   2.885   0.774   6.751  0.4593 -0.5504  0.3514
 1659SOL     OW16438   1.105   2.862   3.616 -0.3988 -0.6003  0.1200
 1659SOL    HW116439   1.188   2.816   3.601  1.0252  1.1329  2.6305
 1659SOL    HW216440   1.102   2.883   3.709  3.0618 -1.1239  0.3461
 1660SOL     OW16441   0.257   0.199   3.712  0.6001  0.6631 -0.0942
 1660SOL    HW116442   0.174   0.206   3.666  0.4305  1.8175  0.3698
 1660SOL    HW216443   0.232   0.118   3.756 -1.1236 -0.2987 -2.8799
 1661SOL     OW16444   0.643   2.409   3.861  0.0017 -0.3138  0.3076
 1661SOL    HW116445   0.579   2.436   3.796  0.0916  1.3883  0.9165
 1661SOL    HW216446   0.704   2.483   3.868  1.3153 -1.3748  0.0606
 1662SOL     OW16447   2.569   3.906   2.815  0.4739  0.1386  0.2680
 1662SOL    HW116448   2.505   3.927   2.747  1.3197  0.9120 -0.2733
 1662SOL    HW216449   2.619   3.987   2.805 -0.0344  0.8661  3.5993
 1663SOL     OW16450   4.702   0.531   6.155 -0.4694 -0.2361 -0.1454
 1663SOL    HW116451   4.690   0.476   6.078  0.2747  0.0876 -0.4936
 1663SOL    HW216452   0.073   0.535   6.157 -0.4878 -1.1864  2.9433
 1664SOL     OW16453   4.668   3.939   8.090 -1.0077  0.6299  0.1517
 1664SOL    HW116454   4.710   4.014   8.048  2.1034 -1.1717  0.0552
 1664SOL    HW216455   4.618   3.984   8.158 -1.9237 -0.6448  0.3039
 1665SOL     OW16456   0.871   3.437  12.216 -0.5142 -0.2813 -0.5359
 1665SOL    HW116457   0.922   3.470  12.142 -1.1850  1.4076 -0.2613
 1665SOL    HW216458   0.794   3.493  12.228  0.7881  2.1059 -3.3587
 1666SOL     OW16459   3.855   3.611  14.872  0.2159 -0.1784  0.0602
 1666SOL    HW116460   3.883   3.702  14.877 -1.1327  0.2770 -0.7648
 1666SOL    HW216461   3.926   3.554  14.902  0.7745 -0.0914 -1.0626
 1667SOL     OW16462   2.679   0.523   5.207 -0.2439  0.0289 -0.2310
 1667SOL    HW116463   2.626   0.492   5.281 -0.5534  1.1181  0.0062
 1667SOL    HW216464   2.705   0.607   5.245 -1.5413 -0.2670  1.2687
 1668SOL     OW16465   1.554   3.572  14.904  0.4355 -0.1856 -0.3568
 1668SOL    HW116466   1.492   3.571  14.832  1.4455 -0.9133 -1.2025
 1668SOL    HW216467   1.612   3.646  14.885  2.7108 -2.1433 -1.0086
 1669SOL     OW16468   3.910   1.394  17.204  0.3674 -0.5011  0.2395
 1669SOL    HW116469   3.924   1.487  17.188  0.3592 -0.4745  0.3872
 1669SOL    HW216470   3.848   1.370  17.135 -0.7807 -0.9579  1.4362
 1670SOL     OW16471   1.249   4.723  12.805 -0.7104  0.1772 -0.0162
 1670SOL    HW116472   1.329   0.028  12.761  0.3672 -1.6984  0.6953
 1670SOL    HW216473   1.192   0.075  12.808  0.4040  0.9611  0.8905
 1671SOL     OW16474   3.091   1.382   6.659 -0.3670  0.5324 -0.1084
 1671SOL    HW116475   3.020   1.353   6.600 -0.2294 -2.0001  0.9800
 1671SOL    HW216476   3.043   1.387   6.741 -0.8587 -0.1016 -0.3599
 1672SOL     OW16477   1.408   3.926   3.433  0.5959 -0.1091  0.7269
 1672SOL    HW116478   1.497   3.927   3.396  1.1359 -0.5751  2.0195
 1672SOL    HW216479   1.368   3.870   3.366  0.9524 -0.4022  0.7571
 1673SOL     OW16480   3.072   2.584  14.614  0.0117  0.0383  0.5962
 1673SOL    HW116481   3.069   2.561  14.521  0.3665  0.7137  0.4160
 1673SOL    HW216482   3.146   2.644  14.613  0.3470 -0.4051 -3.5243
 1674SOL     OW16483   3.765   3.828  13.719 -0.2537 -0.0587 -0.1140
 1674SOL    HW116484   3.815   3.901  13.756  1.8459 -1.8448  0.5778
 1674SOL    HW216485   3.755   3.790  13.806 -2.3632  1.9598  0.5304
 1675SOL     OW16486   1.277   0.786  15.586  0.1915  0.2080 -0.1004
 1675SOL    HW116487   1.205   0.812  15.529  0.4387  1.7382  0.2935
 1675SOL    HW216488   1.324   0.725  15.530 -0.7366 -2.4812  2.0251
 1676SOL     OW16489   2.406   3.660   3.583  0.0026 -0.3312 -0.1714
 1676SOL    HW116490   2.314   3.684   3.597 -0.2255 -0.9820 -0.5532
 1676SOL    HW216491   2.415   3.670   3.489 -0.0949  1.9825  0.0474
 1677SOL     OW16492   1.191   2.984   0.445  0.7901 -0.0757 -0.4549
 1677SOL    HW116493   1.158   3.001   0.533  1.6915  2.5496 -0.6280
 1677SOL    HW216494   1.197   2.888   0.447 -2.3202 -0.2497  0.1102
 1678SOL     OW16495   3.854   1.888   6.512  0.1362 -0.2272 -0.0094
 1678SOL    HW116496   3.773   1.837   6.516  0.7515 -1.1155  0.9933
 1678SOL    HW216497   3.837   1.952   6.582  1.6469  0.6060 -0.4198
 1679SOL     OW16498   0.861   1.473   6.425 -0.0616  1.0578 -0.4524
 1679SOL    HW116499   0.922   1.532   6.470 -1.3236  0.8304  1.5692
 1679SOL    HW216500   0.820   1.433   6.502 -0.7662  0.2814 -1.2338
 1680SOL     OW16501   4.164   3.893  17.180  0.4693  0.0267  0.0437
 1680SOL    HW116502   4.196   3.805  17.161  0.8035 -0.3393  2.2100
 1680SOL    HW216503   4.144   3.883  17.273  0.0616  3.6452  0.3728
 1681SOL     OW16504   0.564   1.528   6.775  0.1443 -0.1367 -0.3399
 1681SOL    HW116505   0.593   1.461   6.712  0.9742  0.9347 -1.0993
 1681SOL    HW216506   0.547   1.476   6.854  0.9447  0.2480  0.0850
 1682SOL     OW16507   1.049   2.999  11.685 -0.3796 -0.0619  0.0303
 1682SOL    HW116508   1.129   2.947  11.675 -0.2166  0.0611  0.7097
 1682SOL    HW216509   0.979   2.936  11.672 -1.2234  1.3267 -2.1433
 1683SOL     OW16510   2.979   3.256   3.100 -0.3190 -0.8176 -0.3585
 1683SOL    HW116511   3.050   3.255   3.164  0.2843  1.9896 -0.9715
 1683SOL    HW216512   2.906   3.227   3.154  1.9946 -1.8211  2.2100
 1684SOL     OW16513   0.511   0.678  10.444 -0.1500 -0.2784  0.1021
 1684SOL    HW116514   0.490   0.690  10.352 -1.0974  0.1016  0.3696
 1684SOL    HW216515   0.452   0.605  10.463  0.8353 -0.8563  1.0070
 1685SOL     OW16516   1.942   0.740   2.116 -0.2253  0.1407 -0.1816
 1685SOL    HW116517   1.873   0.785   2.163  0.5594  0.5825  0.5536
 1685SOL    HW216518   2.008   0.809   2.107 -1.0249  0.8506 -0.5426
 1686SOL     OW16519   3.978   1.023   7.760  0.1817 -0.8207  0.4170
 1686SOL    HW116520   3.902   1.014   7.816 -1.1454 -0.6618 -1.3570
 1686SOL    HW216521   3.941   1.053   7.677 -1.3161 -0.6369  1.1603
 1687SOL     OW16522   3.363   1.123  15.369  0.4692  0.0704  0.5623
 1687SOL    HW116523   3.429   1.168  15.421 -1.0436  2.1323  0.7279
 1687SOL    HW216524   3.291   1.096  15.427 -1.7111 -0.3975 -2.3435
 1688SOL     OW16525   2.604   4.536  11.923 -0.1975  0.3652 -0.0192
 1688SOL    HW116526   2.650   4.559  12.004 -1.7497 -4.4750  2.2982
 1688SOL    HW216527   2.614   4.441  11.918 -1.3520  0.2218  0.4199
 1689SOL     OW16528   4.189   3.279   6.443 -0.3225 -0.5417 -0.2988
 1689SOL    HW116529   4.103   3.306   6.474  0.4698  1.1952  0.3586
 1689SOL    HW216530   4.228   3.364   6.423 -2.2530  0.0119 -1.7271
 1690SOL     OW16531   2.279   0.972  15.414 -0.1987  0.7710 -0.0620
 1690SOL    HW116532   2.248   0.982  15.324  0.5461 -1.0593 -0.5221
 1690SOL    HW216533   2.216   0.910  15.452  1.4552  0.0209  1.4507
 1691SOL     OW16534   1.342   3.518   4.935  0.4917  0.6648  0.1982
 1691SOL    HW116535   1.287   3.494   4.861  0.2511 -0.5898  0.7957
 1691SOL    HW216536   1.355   3.433   4.977  0.6640  1.0260  0.8757
 1692SOL     OW16537   1.074   3.149   2.833  0.5907 -0.2473 -0.2642
 1692SOL    HW116538   1.111   3.126   2.918 -0.0719  2.1343  0.6733
 1692SOL    HW216539   1.042   3.239   2.845  0.6923 -0.0351 -1.5071
 1693SOL     OW16540   3.330   0.847   4.755  0.7894 -0.5398  0.0313
 1693SOL    HW116541   3.299   0.873   4.842 -0.5269  0.5019 -0.7634
 1693SOL    HW216542   3.420   0.815   4.766  1.3406  1.3985  1.1494
 1694SOL     OW16543   1.339   3.068   7.600 -0.1050  0.2118  0.1342
 1694SOL    HW116544   1.251   3.091   7.572  0.0970 -0.7377 -1.3272
 1694SOL    HW216545   1.360   2.990   7.547  0.4727 -0.0505  0.7522
 1695SOL     OW16546   2.957   2.939   4.958  0.1497  0.8452  1.2005
 1695SOL    HW116547   2.883   2.934   5.019  0.2919 -0.8003  1.2373
 1695SOL    HW216548   2.925   2.881   4.889 -0.8803  0.5862  1.8904
 1696SOL     OW16549   3.558   2.207  15.843  0.4729  0.0647  0.1254
 1696SOL    HW116550   3.507   2.153  15.782 -1.9452 -1.2654  3.3265
 1696SOL    HW216551   3.596   2.141  15.900 -0.9270 -0.5417  0.3634
 1697SOL     OW16552   4.485   2.442   7.505  0.0609  0.5762  0.3176
 1697SOL    HW116553   4.489   2.537   7.501  1.3097  0.4821 -0.4289
 1697SOL    HW216554   4.503   2.424   7.598 -1.3935  0.2233  0.5404
 1698SOL     OW16555   4.644   0.547   7.298 -0.5079  0.0999 -0.0898
 1698SOL    HW116556   4.554   0.527   7.324  0.3684 -1.5182  1.6496
 1698SOL    HW216557   4.642   0.643   7.299  2.1379  0.1295  1.0970
 1699SOL     OW16558   0.157   2.466   5.186  0.0366 -0.2534  0.3151
 1699SOL    HW116559   0.217   2.458   5.112  0.5004  1.4085  0.5117
 1699SOL    HW216560   0.150   2.379   5.226 -2.4474  0.5532  1.6178
 1700SOL     OW16561   0.022   0.524   2.294 -0.4637  0.9262 -0.0433
 1700SOL    HW116562   4.702   0.516   2.210 -1.5929  1.1095  0.5428
 1700SOL    HW216563   4.684   0.482   2.352 -0.2139  0.2167 -0.2903
 1701SOL     OW16564   1.482   4.466   3.108 -0.0459  0.0845  0.2634
 1701SOL    HW116565   1.438   4.512   3.037 -0.1983 -1.4258 -0.6158
 1701SOL    HW216566   1.492   4.381   3.064  0.9728 -0.2996  1.2415
 1702SOL     OW16567   3.915   4.062   3.499  0.2691 -0.8901  0.0859
 1702SOL    HW116568   3.934   4.151   3.528 -1.9943 -0.1735 -0.6351
 1702SOL    HW216569   3.924   4.006   3.576  0.6607  1.2576  1.5960
 1703SOL     OW16570   0.215   3.403   3.036 -0.0877 -0.1846  0.1028
 1703SOL    HW116571   0.218   3.494   3.005 -1.9237 -0.3077 -0.4048
 1703SOL    HW216572   0.165   3.357   2.968  0.2769 -1.6978  0.8576
 1704SOL     OW16573   2.543   2.796   5.685  0.0745 -0.0207  0.3476
 1704SOL    HW116574   2.556   2.872   5.628 -2.0236  1.2850  1.6094
 1704SOL    HW216575   2.617   2.740   5.662  0.6735  1.2693 -0.8770
 1705SOL     OW16576   2.609   1.786  16.291  0.3306  0.1940 -0.0422
 1705SOL    HW116577   2.625   1.715  16.353  2.5168  0.2137 -0.5836
 1705SOL    HW216578   2.699   1.816  16.274 -0.6921  1.9982 -2.2387
 1706SOL     OW16579   4.486   0.672   5.892  0.2994  0.1505  0.2235
 1706SOL    HW116580   4.486   0.754   5.941  1.9315  0.8349 -0.9330
 1706SOL    HW216581   4.398   0.672   5.855  0.4723 -0.4457 -0.1829
 1707SOL     OW16582   1.474   3.113   4.280  0.1217 -0.8278  0.2327
 1707SOL    HW116583   1.435   3.038   4.235 -0.2641  0.7061 -1.9467
 1707SOL    HW216584   1.443   3.186   4.227  1.9739 -0.4644 -0.3343
 1708SOL     OW16585   2.003   0.583   1.898  0.2052  0.2236 -0.1398
 1708SOL    HW116586   1.950   0.624   1.966  0.4161 -1.6321  1.1539
 1708SOL    HW216587   2.073   0.647   1.886  0.7785 -0.3432  0.1461
 1709SOL     OW16588   4.065   1.217   5.819 -0.3493  0.7105  0.2091
 1709SOL    HW116589   4.051   1.221   5.914  1.2064  0.6129  0.4319
 1709SOL    HW216590   4.110   1.301   5.809 -0.0743  0.5904  0.4519
 1710SOL     OW16591   2.549   0.257   5.179 -0.2832 -0.0495 -0.3315
 1710SOL    HW116592   2.495   0.185   5.210  1.2677 -1.6426 -1.3258
 1710SOL    HW216593   2.541   0.307   5.261  0.1789  0.7319 -0.7541
 1711SOL     OW16594   2.059   2.899   8.092 -0.1229 -0.3179 -0.2539
 1711SOL    HW116595   2.114   2.943   8.157  2.2166 -2.9156 -0.4583
 1711SOL    HW216596   2.113   2.831   8.050  1.4655  0.1070  1.0807
 1712SOL     OW16597   0.477   1.635   8.047 -0.0977  0.2927 -0.5224
 1712SOL    HW116598   0.530   1.661   8.123  2.2278  0.4138 -2.1863
 1712SOL    HW216599   0.392   1.646   8.089  0.5982  0.8577  0.7416
 1713SOL     OW16600   2.797   4.116   8.012 -0.3843 -0.4436 -0.3524
 1713SOL    HW116601   2.876   4.167   8.032 -1.4346  1.0442 -0.0042
 1713SOL    HW216602   2.774   4.074   8.095 -0.0208  0.3284  0.1408
 1714SOL     OW16603   0.530   1.722   3.565  0.1534 -0.3315  0.8003
 1714SOL    HW116604   0.526   1.631   3.537 -1.0024 -0.0882  0.1572
 1714SOL    HW216605   0.440   1.752   3.549  0.0269 -1.0632  0.1570
 1715SOL     OW16606   0.193   4.704   4.830  0.8745  0.1435  0.0382
 1715SOL    HW116607   0.250   4.711   4.754  0.6264 -2.3661 -0.3894
 1715SOL    HW216608   0.154   4.621   4.803  3.3218 -0.8974 -0.2799
 1716SOL     OW16609   1.171   1.877   1.058  0.3224 -0.3410  0.0883
 1716SOL    HW116610   1.255   1.921   1.074  0.1698  0.3147 -0.8770
 1716SOL    HW216611   1.184   1.873   0.963 -0.0355 -2.0873  0.1227
 1717SOL     OW16612   2.820   2.056   3.034  0.1359 -0.0246  0.2388
 1717SOL    HW116613   2.907   2.094   3.030 -0.2758  1.1565  2.4613
 1717SOL    HW216614   2.792   2.073   3.124 -1.2354 -1.4627  0.0935
 1718SOL     OW16615   1.737   1.291   8.966 -0.2296 -0.1465  0.0115
 1718SOL    HW116616   1.685   1.241   9.029 -1.3656 -0.5138 -1.2336
 1718SOL    HW216617   1.670   1.341   8.920 -0.7226  0.3897  1.3313
 1719SOL     OW16618   4.447   3.895   4.512 -0.1253 -0.0758 -0.3698
 1719SOL    HW116619   4.375   3.945   4.475 -1.3942 -0.9523  0.8824
 1719SOL    HW216620   4.502   3.969   4.536  0.8247 -1.3635  1.4637
 1720SOL     OW16621   3.722   0.133  12.912 -0.1709  0.1132 -0.1530
 1720SOL    HW116622   3.788   0.166  12.973  0.0955 -2.0884  0.7372
 1720SOL    HW216623   3.707   0.206  12.852  1.6494  0.0430 -0.7105
 1721SOL     OW16624   4.153   0.450  13.837  0.2627 -0.0869  0.0870
 1721SOL    HW116625   4.137   0.527  13.781 -0.9694  0.0039  0.5606
 1721SOL    HW216626   4.069   0.405  13.823  0.3379  0.4986 -2.3597
 1722SOL     OW16627   3.010   0.381   0.702 -0.0813  0.0171  0.6030
 1722SOL    HW116628   3.059   0.429   0.635  1.0899 -1.3698  0.4732
 1722SOL    HW216629   2.925   0.425   0.713  0.1048  0.6100 -0.3081
 1723SOL     OW16630   0.625   2.381   5.586  0.2521 -0.3807  0.7009
 1723SOL    HW116631   0.690   2.319   5.617  0.6375 -0.8131 -0.9780
 1723SOL    HW216632   0.693   2.441   5.556  0.3649 -1.3145 -0.8804
 1724SOL     OW16633   1.784   1.659  11.931 -0.0742 -0.4792 -0.4431
 1724SOL    HW116634   1.844   1.587  11.951 -1.4329 -1.2441  0.8470
 1724SOL    HW216635   1.764   1.635  11.840  0.3690  0.6546 -0.8408
 1725SOL     OW16636   1.181   2.159   7.177 -0.5333 -0.1329  0.3766
 1725SOL    HW116637   1.214   2.219   7.244 -2.3736 -1.3143  2.3663
 1725SOL    HW216638   1.263   2.113   7.163 -1.4800 -1.0106 -2.1844
 1726SOL     OW16639   3.200   2.066   6.328 -0.8750 -0.4505  0.8402
 1726SOL    HW116640   3.257   2.025   6.394 -0.6379  0.8601  1.4449
 1726SOL    HW216641   3.113   2.035   6.353 -1.4652 -0.5310 -1.3449
 1727SOL     OW16642   1.046   0.901   7.055  0.2177 -0.0671  0.5987
 1727SOL    HW116643   1.093   0.836   7.003  0.0581 -1.3822  2.1004
 1727SOL    HW216644   1.051   0.864   7.143 -0.2364  1.3673  1.2354
 1728SOL     OW16645   0.334   2.269  17.320  0.3066  0.6181 -0.4484
 1728SOL    HW116646   0.347   2.364  17.315 -2.7751  1.0134 -0.9140
 1728SOL    HW216647   0.360   2.247  17.230  1.7143 -0.2894  0.1763
 1729SOL     OW16648   2.542   2.820   9.397  0.1065 -0.0415  0.2596
 1729SOL    HW116649   2.563   2.895   9.454 -2.0671  0.9139 -0.1942
 1729SOL    HW216650   2.490   2.766   9.457  0.9745 -1.8365 -0.6013
 1730SOL     OW16651   0.752   3.094   3.056  0.0397  1.2160 -0.8744
 1730SOL    HW116652   0.794   3.039   3.123 -1.3084  1.3668  0.0955
 1730SOL    HW216653   0.751   3.176   3.104 -2.9359  2.2243 -2.6478
 1731SOL     OW16654   1.138   3.925  16.809  0.3178  0.0512 -0.0083
 1731SOL    HW116655   1.135   4.008  16.856  1.4153  0.2598 -0.3082
 1731SOL    HW216656   1.113   3.951  16.720 -0.0988 -0.2420  0.0212
 1732SOL     OW16657   2.622   4.185  14.370 -0.0683  0.1195 -0.1038
 1732SOL    HW116658   2.543   4.140  14.341 -0.8559 -0.4826  2.9829
 1732SOL    HW216659   2.602   4.210  14.460 -0.3367  3.5446 -1.1168
 1733SOL     OW16660   4.510   2.476   5.374 -0.0512 -0.3018  0.0081
 1733SOL    HW116661   4.559   2.521   5.444  1.0758  0.2781 -1.1543
 1733SOL    HW216662   4.481   2.401   5.426  0.5713  0.5839  1.6618
 1734SOL     OW16663   4.231   0.664  16.733 -0.0796  0.1165 -0.2246
 1734SOL    HW116664   4.184   0.721  16.672  1.0922  0.3652 -0.8966
 1734SOL    HW216665   4.297   0.618  16.682 -0.0286 -1.6365  1.4105
 1735SOL     OW16666   4.031   0.978   4.548 -0.3448  0.2519 -0.2406
 1735SOL    HW116667   3.981   1.021   4.618  0.4316 -0.0983  0.5207
 1735SOL    HW216668   4.108   1.034   4.545 -2.1983  2.9335  2.8733
 1736SOL     OW16669   0.674   1.740   2.117 -0.3456 -0.0571 -0.2729
 1736SOL    HW116670   0.639   1.655   2.090 -1.2517  0.1998  0.1086
 1736SOL    HW216671   0.690   1.777   2.029  1.2500 -0.4923 -0.1614
 1737SOL     OW16672   1.993   1.551   5.515 -0.3932 -0.1401 -0.4228
 1737SOL    HW116673   2.054   1.620   5.489 -1.9905  1.7460  0.7807
 1737SOL    HW216674   2.053   1.479   5.533  0.9672  0.3647 -3.0541
 1738SOL     OW16675   1.896   1.921   8.357 -0.1317  0.2027 -0.0529
 1738SOL    HW116676   1.898   2.017   8.351 -0.4428  0.2002 -0.1983
 1738SOL    HW216677   1.958   1.901   8.286 -0.3133 -3.3670  0.8117
 1739SOL     OW16678   0.862   1.088  12.387 -0.3548  0.0900  0.3474
 1739SOL    HW116679   0.781   1.062  12.344  1.4564 -1.9213 -1.7982
 1739SOL    HW216680   0.818   1.155  12.440  1.1440  0.2146  1.4516
 1740SOL     OW16681   3.628   3.181   2.954  0.2443 -0.3654  0.1349
 1740SOL    HW116682   3.627   3.138   2.869  0.3492  0.1401 -0.1209
 1740SOL    HW216683   3.653   3.271   2.933 -1.1049 -0.2478 -0.9680
 1741SOL     OW16684   2.036   3.618   0.349  0.0324  0.3520  0.0344
 1741SOL    HW116685   2.093   3.659   0.285 -1.1553  2.1622  0.1504
 1741SOL    HW216686   1.945   3.640   0.329 -0.0577  0.8774  1.0428
 1742SOL     OW16687   3.168   1.558  14.400  0.2925  0.1694 -0.3808
 1742SOL    HW116688   3.255   1.586  14.372  0.5816  0.1513  0.5059
 1742SOL    HW216689   3.132   1.644  14.423 -0.8184 -0.0195 -1.3886
 1743SOL     OW16690   0.252   2.539   3.287 -0.6272  0.1043 -0.0033
 1743SOL    HW116691   0.326   2.481   3.267 -1.0956  0.2515 -2.1570
 1743SOL    HW216692   0.252   2.610   3.223  0.8444  0.1177  0.0027
 1744SOL     OW16693   2.759   2.886   9.091 -0.2605  0.1015 -0.2939
 1744SOL    HW116694   2.842   2.838   9.092 -0.8856 -0.9139  3.1032
 1744SOL    HW216695   2.762   2.908   9.184 -3.1918  0.1479 -0.1925
 1745SOL     OW16696   1.023   2.107   2.652  0.0642  0.2860 -0.0448
 1745SOL    HW116697   1.075   2.154   2.717 -1.7683  1.2013  0.7944
 1745SOL    HW216698   0.937   2.128   2.689 -0.1866 -0.1851 -0.3606
 1746SOL     OW16699   0.104   2.678   9.371 -0.0130  0.3853  0.4602
 1746SOL    HW116700   0.123   2.722   9.454  0.3894 -0.9295  1.0751
 1746SOL    HW216701   0.040   2.609   9.390 -0.7823  1.3907  1.5223
 1747SOL     OW16702   0.960   3.080   4.738  0.3074 -0.7695 -0.3655
 1747SOL    HW116703   0.871   3.055   4.711 -1.0107  0.6514  2.7731
 1747SOL    HW216704   0.966   3.155   4.679  0.6770  0.1957  0.9023
 1748SOL     OW16705   4.422   3.962   3.421 -0.3878 -0.5644  0.2974
 1748SOL    HW116706   4.390   3.889   3.474 -1.2915  1.3839  2.4114
 1748SOL    HW216707   4.366   3.948   3.344  1.3509 -0.4907 -0.9887
 1749SOL     OW16708   1.727   0.223   8.514  0.4767 -0.4899 -0.1945
 1749SOL    HW116709   1.802   0.244   8.570 -1.3924 -0.1681  2.2060
 1749SOL    HW216710   1.773   0.156   8.463  0.3007 -0.2134 -0.7115
 1750SOL     OW16711   3.368   1.246   3.389  0.1369 -0.0991 -0.0166
 1750SOL    HW116712   3.304   1.291   3.334  1.4723  0.2796 -1.2572
 1750SOL    HW216713   3.343   1.275   3.477 -4.4892 -2.6623 -0.5389
 1751SOL     OW16714   2.077   2.005   9.056  0.2515 -0.3954  0.5086
 1751SOL    HW116715   2.065   1.910   9.063  1.2706 -0.4667  1.4264
 1751SOL    HW216716   2.170   2.022   9.075  0.9861 -2.4492 -1.2721
 1752SOL     OW16717   2.104   2.941  10.811 -0.4300 -0.1933  0.1365
 1752SOL    HW116718   2.037   2.980  10.869 -1.0327 -0.6981 -0.2160
 1752SOL    HW216719   2.053   2.913  10.735 -1.8329  0.1935  0.9377
 1753SOL     OW16720   4.508   4.353   6.997 -0.4333 -0.4260 -0.4003
 1753SOL    HW116721   4.473   4.440   6.978 -1.7361 -0.8193  0.1884
 1753SOL    HW216722   4.491   4.346   7.091  2.2501 -0.8370  0.0612
 1754SOL     OW16723   4.351   4.079   6.831  0.0999  0.6760  0.3445
 1754SOL    HW116724   4.442   4.104   6.815  0.6157 -1.0076  0.6251
 1754SOL    HW216725   4.357   4.020   6.906  1.2322  1.6800  1.0333
 1755SOL     OW16726   0.078   2.150  15.729  0.6624 -0.1835  0.1856
 1755SOL    HW116727   0.100   2.235  15.690 -1.2340  1.0272  1.7936
 1755SOL    HW216728   0.039   2.103  15.655  1.6257  0.6054 -0.8312
 1756SOL     OW16729   1.367   1.128   8.226  0.4795 -0.4526  0.1326
 1756SOL    HW116730   1.350   1.035   8.239  0.7521 -1.0716 -3.8859
 1756SOL    HW216731   1.279   1.165   8.221  1.5604  2.1402  0.1088
 1757SOL     OW16732   1.648   3.174   0.888  0.1322  0.2999  0.5990
 1757SOL    HW116733   1.715   3.119   0.929 -0.7210 -1.1340  0.0595
 1757SOL    HW216734   1.677   3.263   0.912 -1.8151  1.3254 -0.8625
 1758SOL     OW16735   0.666   2.065  14.355  0.4379  0.1435  0.2975
 1758SOL    HW116736   0.683   2.000  14.423 -1.8042 -1.1002 -0.3547
 1758SOL    HW216737   0.623   2.016  14.286 -0.0672 -1.2774  1.6334
 1759SOL     OW16738   3.466   4.509   4.210  0.0131  0.2681  0.3090
 1759SOL    HW116739   3.485   4.516   4.117 -0.0796 -0.1967  0.2544
 1759SOL    HW216740   3.557   4.494   4.233 -0.4545 -1.9170  0.7547
 1760SOL     OW16741   3.572   0.050   3.724  0.1997  0.0045 -0.2973
 1760SOL    HW116742   3.504   0.110   3.694  0.2884  0.4557  0.3851
 1760SOL    HW216743   3.568   0.050   3.820 -1.3581 -0.0809 -0.3651
 1761SOL     OW16744   1.149   1.770   2.070 -0.2164  0.4151 -0.0270
 1761SOL    HW116745   1.244   1.772   2.086 -0.4035 -0.4662  1.2112
 1761SOL    HW216746   1.136   1.692   2.015  1.4038  1.5434 -2.0139
 1762SOL     OW16747   0.429   0.667  17.676  0.2958 -0.1886  0.0473
 1762SOL    HW116748   0.437   0.582  17.632 -2.5077 -1.3233  1.7329
 1762SOL    HW216749   0.390   0.646   0.060 -0.4825 -0.8382 -0.4815
 1763SOL     OW16750   0.034   0.693   5.022  0.7507 -0.0135 -0.1924
 1763SOL    HW116751   4.703   0.768   5.002  1.3698  0.9940  1.8046
 1763SOL    HW216752   0.115   0.727   4.984  1.5168  0.1122  1.5527
 1764SOL     OW16753   4.626   2.392   9.888  0.2489  0.2358 -0.7340
 1764SOL    HW116754   4.597   2.303   9.868 -3.0972  0.9228  1.0741
 1764SOL    HW216755   4.667   2.425   9.808  1.0341  0.8549 -0.0727
 1765SOL     OW16756   1.631   1.225   3.016 -0.2617  0.6517  0.0892
 1765SOL    HW116757   1.620   1.141   2.971  0.3539 -1.1189  3.2900
 1765SOL    HW216758   1.727   1.229   3.011 -0.2704 -1.3325 -2.1615
 1766SOL     OW16759   3.526   0.656   3.627 -0.6167  0.9883 -0.1761
 1766SOL    HW116760   3.456   0.709   3.590  0.1700  1.7605 -0.5550
 1766SOL    HW216761   3.518   0.575   3.577 -1.6080  1.2595 -0.4481
 1767SOL     OW16762   0.078   0.805  16.957 -0.1809 -0.7970  0.1575
 1767SOL    HW116763   0.160   0.853  16.952  1.1936 -3.1610 -0.2633
 1767SOL    HW216764   0.116   0.727  16.997  0.8554  0.0880  0.8813
 1768SOL     OW16765   1.841   0.991   5.133  0.5632  0.1685 -0.6126
 1768SOL    HW116766   1.841   0.915   5.075  0.2627  0.3713 -0.8814
 1768SOL    HW216767   1.749   0.996   5.157  0.0437 -2.2718 -2.0528
 1769SOL     OW16768   1.957   0.798   9.795  0.5546 -0.0362 -0.1792
 1769SOL    HW116769   2.031   0.796   9.734 -1.4531  0.6702 -2.6769
 1769SOL    HW216770   1.945   0.890   9.818  2.4724  0.1144  0.1880
 1770SOL     OW16771   3.853   2.407  17.567  0.4408 -0.6400  0.7217
 1770SOL    HW116772   3.927   2.442  17.616 -0.1689  1.9081 -0.1688
 1770SOL    HW216773   3.794   2.430  17.639 -1.0929  1.2625 -1.1396
 1771SOL     OW16774   2.603   4.007   1.074  0.4377  0.1932  0.5111
 1771SOL    HW116775   2.693   4.013   1.108  0.2521  1.8977  0.7025
 1771SOL    HW216776   2.611   3.919   1.037  0.6480 -0.2772  1.6834
 1772SOL     OW16777   1.648   3.816   0.081 -0.7628 -0.3085  0.4162
 1772SOL    HW116778   1.670   3.883   0.017  1.1012 -2.4201 -1.1495
 1772SOL    HW216779   1.554   3.827   0.096 -1.1878 -1.7922 -1.2125
 1773SOL     OW16780   3.211   2.984   6.883 -0.3346  0.6080  0.0089
 1773SOL    HW116781   3.243   2.986   6.974  0.9128  0.1534 -0.4188
 1773SOL    HW216782   3.121   2.955   6.899 -0.0339 -0.1838  0.2727
 1774SOL     OW16783   0.959   3.087   6.248  0.0685 -0.1134  0.1010
 1774SOL    HW116784   1.026   3.153   6.263  0.8680 -0.7000 -0.8649
 1774SOL    HW216785   0.905   3.109   6.323 -1.2795  0.8336 -1.1593
 1775SOL     OW16786   2.098   3.861   6.806 -0.2053  0.6695  0.2171
 1775SOL    HW116787   2.101   3.766   6.802  0.0877  0.6182  1.6273
 1775SOL    HW216788   2.011   3.883   6.840  0.0027  1.5015  0.2204
 1776SOL     OW16789   3.858   1.399   1.572 -0.6139 -0.2679  0.6218
 1776SOL    HW116790   3.862   1.395   1.667 -1.0396 -2.8643  0.5312
 1776SOL    HW216791   3.763   1.400   1.559 -1.1381 -1.7302  4.3293
 1777SOL     OW16792   0.602   4.184   2.849  0.5750 -0.4832 -0.4202
 1777SOL    HW116793   0.625   4.110   2.792  0.0283 -0.7958 -0.2330
 1777SOL    HW216794   0.682   4.237   2.844  0.0660  0.2407 -0.9203
 1778SOL     OW16795   4.253   1.674   0.682  0.0136  0.1355 -0.4063
 1778SOL    HW116796   4.237   1.740   0.615  2.6596  0.2826 -0.9126
 1778SOL    HW216797   4.315   1.723   0.737 -1.6869  0.1083  1.5560
 1779SOL     OW16798   3.275   2.802  10.380  0.2793 -0.3972  0.3432
 1779SOL    HW116799   3.305   2.790  10.290 -1.7992  1.5194 -0.5881
 1779SOL    HW216800   3.318   2.883  10.408  0.7874 -0.7898  0.6963
 1780SOL     OW16801   3.591   4.613   3.401 -0.1297 -0.4365  0.4246
 1780SOL    HW116802   3.503   4.598   3.437 -0.0942 -1.0150  0.2584
 1780SOL    HW216803   3.597   4.708   3.390 -0.4522 -0.2302  2.0632
 1781SOL     OW16804   1.030   3.410  10.937 -0.1396  0.2224 -0.2455
 1781SOL    HW116805   0.942   3.371  10.932 -0.2337  0.3524  0.3702
 1781SOL    HW216806   1.050   3.408  11.031  0.1441  2.9049 -0.2375
 1782SOL     OW16807   3.470   3.822   4.215  0.1976  0.0272  0.0956
 1782SOL    HW116808   3.407   3.750   4.213 -0.3958  0.5457 -0.0041
 1782SOL    HW216809   3.553   3.776   4.227  0.9349  1.1626 -0.6446
 1783SOL     OW16810   2.085   1.828   6.988 -0.3216  0.2355  0.0953
 1783SOL    HW116811   2.075   1.912   6.943  3.2451 -1.1640 -3.3762
 1783SOL    HW216812   2.107   1.776   6.910 -0.3348 -0.8795  0.8283
 1784SOL     OW16813   1.611   0.866   7.060 -0.2833  0.3690 -0.5623
 1784SOL    HW116814   1.554   0.789   7.070 -1.0670  0.7632 -2.0018
 1784SOL    HW216815   1.696   0.833   7.088 -1.3296 -1.2512  0.7493
 1785SOL     OW16816   0.036   3.786   3.172 -0.1266  0.1083  0.5274
 1785SOL    HW116817   0.010   3.716   3.232 -0.8900 -0.1999 -0.1541
 1785SOL    HW216818   0.128   3.794   3.199 -0.6370  1.1633  1.9819
 1786SOL     OW16819   4.669   1.674   8.447 -0.1403 -0.6349 -0.2860
 1786SOL    HW116820   4.700   1.761   8.473 -0.3980 -0.3669 -0.8649
 1786SOL    HW216821   4.651   1.685   8.354 -0.0824  1.4101 -0.0682
 1787SOL     OW16822   0.107   3.742   5.573  0.4534  0.1726  0.2254
 1787SOL    HW116823   0.088   3.757   5.480  0.6427 -2.3817 -0.2242
 1787SOL    HW216824   0.036   3.781   5.624 -1.0157 -0.0265 -1.6617
 1788SOL     OW16825   1.533   4.044  11.966  0.5392 -0.0765  0.6424
 1788SOL    HW116826   1.483   4.124  11.983  0.5673  0.0020  0.3482
 1788SOL    HW216827   1.598   4.057  11.897  1.4730 -0.0605  1.5222
 1789SOL     OW16828   4.215   1.337  16.988 -0.0280  0.4114  0.4050
 1789SOL    HW116829   4.283   1.313  16.925  0.8537  0.0833  1.4717
 1789SOL    HW216830   4.150   1.270  16.968  2.5255 -1.2821 -2.3231
 1790SOL     OW16831   3.217   3.821   4.573 -0.2067  0.5318 -0.3177
 1790SOL    HW116832   3.135   3.812   4.621 -0.3491 -0.3025 -0.7239
 1790SOL    HW216833   3.215   3.912   4.543 -0.3000  0.2420 -1.1737
 1791SOL     OW16834   0.328   0.993  10.779 -0.3018 -0.4422 -0.2254
 1791SOL    HW116835   0.355   0.957  10.864 -0.8104 -0.8910 -0.2543
 1791SOL    HW216836   0.392   0.941  10.731  2.2309  0.3735  2.2693
 1792SOL     OW16837   4.264   0.307  10.130  0.1250 -0.3818 -0.4226
 1792SOL    HW116838   4.324   0.370  10.088 -0.4871  0.5376  0.0964
 1792SOL    HW216839   4.308   0.299  10.214  1.7266 -0.8632 -1.2930
 1793SOL     OW16840   0.234   4.233   7.434 -0.5917  0.2517  0.9466
 1793SOL    HW116841   0.182   4.294   7.381  1.7106  0.8445 -0.6685
 1793SOL    HW216842   0.255   4.297   7.502 -1.5667 -0.2134  1.6781
 1794SOL     OW16843   2.009   3.658   7.053  0.1855  0.1183  0.0182
 1794SOL    HW116844   2.071   3.587   7.072 -0.6155 -1.1801 -2.1464
 1794SOL    HW216845   1.937   3.618   7.003 -0.7187  2.1106 -0.2992
 1795SOL     OW16846   0.570   1.810  10.960  0.6122 -0.5305 -0.1505
 1795SOL    HW116847   0.541   1.877  11.021 -0.3574 -0.3715 -0.7899
 1795SOL    HW216848   0.494   1.752  10.955  0.6360 -0.5133 -0.7306
 1796SOL     OW16849   3.268   2.236   8.874  0.3011 -0.1394  0.3946
 1796SOL    HW116850   3.280   2.236   8.969  0.1878  0.6761  0.4060
 1796SOL    HW216851   3.328   2.169   8.842  0.5991  0.7477 -0.8854
 1797SOL     OW16852   4.507   3.633   7.154  0.5068 -0.1351  0.4219
 1797SOL    HW116853   4.433   3.684   7.185 -0.9666 -2.1633  0.2840
 1797SOL    HW216854   4.561   3.688   7.098 -2.9440  0.4200 -2.3524
 1798SOL     OW16855   3.830   2.789  11.913  0.2061  0.2578  0.3351
 1798SOL    HW116856   3.749   2.744  11.890  0.0395  1.2019 -0.8761
 1798SOL    HW216857   3.797   2.879  11.916  3.1077  1.3705 -0.1708
 1799SOL     OW16858   3.730   0.599   5.788  0.3901 -0.1551 -0.0045
 1799SOL    HW116859   3.732   0.574   5.695 -1.2765  0.2486 -0.1610
 1799SOL    HW216860   3.737   0.694   5.785 -1.1286  0.0570  3.0877
 1800SOL     OW16861   1.130   1.722   5.650  0.2776  0.4788 -0.0834
 1800SOL    HW116862   1.124   1.766   5.735  0.2953  1.7148 -0.7102
 1800SOL    HW216863   1.182   1.644   5.666  1.5068  0.7719 -2.6480
 1801SOL     OW16864   3.441   2.111   3.491  0.3324  0.3987  0.0147
 1801SOL    HW116865   3.445   2.031   3.438 -1.5092  1.4509 -1.7042
 1801SOL    HW216866   3.426   2.076   3.579  0.0298  3.0881  1.0307
 1802SOL     OW16867   4.206   0.219   6.486  0.1731  0.4720  0.1648
 1802SOL    HW116868   4.185   0.312   6.497 -1.7885  0.2094 -1.3858
 1802SOL    HW216869   4.193   0.186   6.575 -3.0713  0.9805 -0.1290
 1803SOL     OW16870   3.189   0.660   2.869 -0.0866  0.0169  0.1914
 1803SOL    HW116871   3.111   0.686   2.918 -0.7766 -2.5502  0.4877
 1803SOL    HW216872   3.173   0.712   2.790  0.4155  1.2686  0.9332
 1804SOL     OW16873   0.228   2.588   6.715  0.2194  0.1787 -0.8715
 1804SOL    HW116874   0.229   2.635   6.798 -0.7861 -1.4641  0.0458
 1804SOL    HW216875   0.208   2.498   6.739  1.2585  0.1961  0.0495
 1805SOL     OW16876   3.247   4.302   7.120  0.1999  0.2306 -0.0788
 1805SOL    HW116877   3.259   4.317   7.214  1.0247 -1.9190  0.1441
 1805SOL    HW216878   3.154   4.278   7.120  0.1290  0.4995  1.7342
 1806SOL     OW16879   4.467   1.901  11.851  0.4498 -0.1602 -0.4301
 1806SOL    HW116880   4.472   1.823  11.796  0.5393 -0.8142  0.4969
 1806SOL    HW216881   4.517   1.958  11.793  0.3777  0.5469  0.1966
 1807SOL     OW16882   0.500   2.277   8.403  0.6085  0.3055 -0.0459
 1807SOL    HW116883   0.538   2.203   8.449 -1.7108  0.0242  1.4083
 1807SOL    HW216884   0.514   2.255   8.311  0.0240 -3.1427  0.7222
 1808SOL     OW16885   2.094   4.212   6.110 -0.8134  0.1127 -0.1134
 1808SOL    HW116886   2.096   4.199   6.205  0.3588 -1.0665 -0.3090
 1808SOL    HW216887   2.010   4.260   6.108 -1.4896 -1.1812 -1.9124
 1809SOL     OW16888   1.132   4.332  16.153 -0.5657  0.2801 -0.4023
 1809SOL    HW116889   1.091   4.418  16.143  0.3526  0.6318 -1.1100
 1809SOL    HW216890   1.067   4.287  16.208  0.5469  0.5392  1.1267
 1810SOL     OW16891   2.096   3.007   1.187 -0.6257  0.4439  0.0269
 1810SOL    HW116892   2.165   3.028   1.124 -0.5311  0.4423  0.1300
 1810SOL    HW216893   2.139   3.028   1.270  1.0552 -1.5053 -0.3552
 1811SOL     OW16894   1.348   1.533   5.716  0.1240  0.2976  0.7360
 1811SOL    HW116895   1.415   1.574   5.660  0.6271 -1.8342 -0.2007
 1811SOL    HW216896   1.349   1.591   5.792  1.7023 -0.0991  1.0104
 1812SOL     OW16897   0.549   0.875   0.225  0.3685 -0.1100  0.2586
 1812SOL    HW116898   0.541   0.827   0.143 -0.1829  0.3186  0.0593
 1812SOL    HW216899   0.503   0.957   0.204  0.1446 -0.3862 -0.3165
 1813SOL     OW16900   0.081   0.274   6.523 -0.9553 -0.2088  0.4861
 1813SOL    HW116901   4.716   0.307   6.521 -1.3190 -1.3078 -1.0235
 1813SOL    HW216902   0.118   0.322   6.598  0.0731  1.0766 -0.8287
 1814SOL     OW16903   0.549   2.386   3.484  0.3116 -0.4054  0.4651
 1814SOL    HW116904   0.510   2.473   3.494  1.0951 -0.0592  0.4773
 1814SOL    HW216905   0.521   2.363   3.395  2.4590 -2.5017  0.3386
 1815SOL     OW16906   0.390   0.585   5.826  0.0935 -0.5300 -0.1683
 1815SOL    HW116907   0.461   0.648   5.837 -0.6599  0.5737 -1.6636
 1815SOL    HW216908   0.315   0.643   5.816  0.4503 -0.3455 -1.8341
 1816SOL     OW16909   3.856   2.469  10.783 -0.4434  0.3763  0.0479
 1816SOL    HW116910   3.896   2.554  10.800 -1.7106  1.3301 -1.7070
 1816SOL    HW216911   3.928   2.405  10.783  1.2022  2.2117  0.9516
 1817SOL     OW16912   3.046   4.295   0.243  0.4675 -0.3967  0.5169
 1817SOL    HW116913   3.099   4.356   0.294 -0.4165  0.3482  0.5519
 1817SOL    HW216914   3.090   4.305   0.159  0.9023  1.6438  0.9884
 1818SOL     OW16915   3.320   3.726   1.795  0.1339  0.1261 -0.4439
 1818SOL    HW116916   3.379   3.774   1.738  0.3474  0.2020 -0.1607
 1818SOL    HW216917   3.286   3.791   1.857 -1.1470 -1.6838  0.7728
 1819SOL     OW16918   4.498   1.386   5.273  0.4720  0.4271  0.0204
 1819SOL    HW116919   4.442   1.461   5.253 -2.4918 -1.3425  1.8345
 1819SOL    HW216920   4.490   1.402   5.367 -1.1024  0.6817 -0.1680
 1820SOL     OW16921   3.769   3.699   8.883 -1.0069 -0.3559  0.6382
 1820SOL    HW116922   3.717   3.770   8.848  0.3708  0.3930  0.1297
 1820SOL    HW216923   3.859   3.707   8.852 -1.4487  1.1079 -0.2375
 1821SOL     OW16924   3.840   2.517  11.434  0.3767 -0.5531 -0.1984
 1821SOL    HW116925   3.774   2.448  11.436 -1.9865  1.7547  1.0105
 1821SOL    HW216926   3.868   2.529  11.525  2.0418 -0.1859 -0.7537
 1822SOL     OW16927   2.524   1.493   8.123  0.0159  0.5564  0.3326
 1822SOL    HW116928   2.442   1.538   8.103 -1.1700 -2.7289 -2.1403
 1822SOL    HW216929   2.496   1.445   8.201  0.8387 -0.4526  0.0107
 1823SOL     OW16930   4.236   2.669  11.497  0.2085 -0.5759 -0.4557
 1823SOL    HW116931   4.309   2.609  11.482  0.1814 -0.6308 -0.3707
 1823SOL    HW216932   4.173   2.605  11.528 -0.9369  1.3931  1.3556
 1824SOL     OW16933   1.787   0.484  17.120  0.2579 -0.1952  0.4729
 1824SOL    HW116934   1.873   0.521  17.136  0.8217 -1.2997 -0.0534
 1824SOL    HW216935   1.743   0.516  17.199  0.6824  1.3395  0.0917
 1825SOL     OW16936   1.140   4.044   2.674  0.2431 -0.1992  0.1764
 1825SOL    HW116937   1.191   4.080   2.602  1.4712  0.3332  1.3111
 1825SOL    HW216938   1.085   3.985   2.623  1.1248 -0.0613 -0.9305
 1826SOL     OW16939   3.400   2.191   2.549  0.0686 -0.4540 -0.4484
 1826SOL    HW116940   3.424   2.265   2.603  2.6253 -0.2005 -1.9196
 1826SOL    HW216941   3.384   2.128   2.620  1.2761 -1.5220 -1.1185
 1827SOL     OW16942   1.234   1.579   0.698 -0.5405  0.0631  0.0294
 1827SOL    HW116943   1.149   1.574   0.655 -1.7839  0.9192  2.3731
 1827SOL    HW216944   1.248   1.501   0.751 -0.2448 -0.0002 -0.1431
 1828SOL     OW16945   4.003   3.455   2.042  0.6016 -0.6859  0.1720
 1828SOL    HW116946   4.047   3.530   2.082 -0.8649  0.0720  0.3583
 1828SOL    HW216947   3.976   3.502   1.962 -0.7396  0.8019  1.4895
 1829SOL     OW16948   3.317   1.485   7.446  0.3166 -0.4217 -0.2984
 1829SOL    HW116949   3.240   1.429   7.452 -1.4090  1.9310 -0.6839
 1829SOL    HW216950   3.362   1.484   7.531 -1.1686 -2.6100  0.4593
 1830SOL     OW16951   3.679   4.246   8.423  0.0754  0.3766 -0.1195
 1830SOL    HW116952   3.754   4.201   8.460 -0.1751  0.1673  0.1306
 1830SOL    HW216953   3.719   4.280   8.343  1.9177 -1.0267  0.2121
 1831SOL     OW16954   4.234   1.284   8.550 -0.1664  0.3976  0.3603
 1831SOL    HW116955   4.184   1.288   8.632 -2.0834  0.9471 -0.8433
 1831SOL    HW216956   4.195   1.350   8.493  1.2485  0.3438 -0.6715
 1832SOL     OW16957   4.411   0.196   3.271  0.1027 -0.1527 -0.2454
 1832SOL    HW116958   4.370   0.110   3.274  0.3877 -0.2298  1.2894
 1832SOL    HW216959   4.411   0.214   3.177 -1.2084  0.3080 -0.1663
 1833SOL     OW16960   2.578   2.589  15.570  0.1765  0.0874 -0.3039
 1833SOL    HW116961   2.657   2.640  15.553 -0.5880  1.5666  0.5573
 1833SOL    HW216962   2.565   2.540  15.489 -1.4760 -0.9882  0.5946
 1834SOL     OW16963   0.903   0.872   8.088 -0.0790  0.0207 -0.0318
 1834SOL    HW116964   0.858   0.878   8.173  0.1178  3.0125 -0.1345
 1834SOL    HW216965   0.997   0.882   8.102 -0.1958  1.2901 -0.1490
 1835SOL     OW16966   2.606   3.159  15.460  0.1625 -0.1742  0.2807
 1835SOL    HW116967   2.601   3.081  15.515  1.8157 -0.4851 -0.0287
 1835SOL    HW216968   2.639   3.218  15.528 -0.8977  1.4632 -0.6171
 1836SOL     OW16969   3.607   0.533   3.197 -0.4286 -0.1277 -0.5535
 1836SOL    HW116970   3.619   0.627   3.190  1.3779 -0.2450  1.0310
 1836SOL    HW216971   3.535   0.517   3.136  0.3266 -4.3871 -0.3286
 1837SOL     OW16972   3.360   2.528   1.778 -0.7213 -0.2245 -0.8359
 1837SOL    HW116973   3.366   2.433   1.774 -1.6479 -0.3601  0.6805
 1837SOL    HW216974   3.385   2.547   1.869  0.2588 -0.5586 -1.0411
 1838SOL     OW16975   1.634   2.768   1.461 -0.3622 -0.5355  0.0102
 1838SOL    HW116976   1.585   2.735   1.386  0.4366 -0.2675 -0.6347
 1838SOL    HW216977   1.715   2.804   1.425 -0.3812  0.1995  0.6884
 1839SOL     OW16978   1.043   0.204   2.288  0.6153  0.2480  0.2225
 1839SOL    HW116979   1.096   0.137   2.331  0.9707 -0.2274 -0.9509
 1839SOL    HW216980   1.103   0.278   2.293  0.5832  0.2571  0.4796
 1840SOL     OW16981   1.037   3.513   5.071 -0.6122  0.0295 -0.1252
 1840SOL    HW116982   1.087   3.487   4.994  0.2464 -0.2325  0.5284
 1840SOL    HW216983   0.957   3.532   5.021  0.3159  1.5276 -1.0402
 1841SOL     OW16984   1.407   3.729   8.000 -0.2482 -0.0317  0.1195
 1841SOL    HW116985   1.397   3.754   8.092 -1.1028  0.4594 -0.1144
 1841SOL    HW216986   1.485   3.673   8.010 -0.6307 -0.8852 -1.5802
 1842SOL     OW16987   4.494   0.145   6.138  0.3380 -0.1506  0.1313
 1842SOL    HW116988   4.482   0.093   6.058 -0.9115  2.5895 -1.4650
 1842SOL    HW216989   4.580   0.181   6.115  0.0282 -0.3752 -1.3727
 1843SOL     OW16990   2.303   1.328   7.878  0.4864  0.1987 -0.2155
 1843SOL    HW116991   2.286   1.303   7.969  3.5808  0.0169  0.3065
 1843SOL    HW216992   2.399   1.327   7.876  0.5025 -1.6269  0.8626
 1844SOL     OW16993   2.758   3.258   3.791  0.2892  0.5155  0.0240
 1844SOL    HW116994   2.730   3.304   3.712  1.6384  1.2932 -0.0131
 1844SOL    HW216995   2.769   3.326   3.857  3.6989  0.3235 -0.3610
 1845SOL     OW16996   2.618   0.874   5.905 -0.9380 -0.0988 -0.2896
 1845SOL    HW116997   2.580   0.914   5.984  0.3663  1.5886 -0.5249
 1845SOL    HW216998   2.644   0.787   5.935  1.0213 -0.0018 -1.7556
 1846SOL     OW16999   3.258   0.242   3.375  0.0066 -0.3384 -0.7025
 1846SOL    HW117000   3.306   0.240   3.292  1.9901 -0.5603  0.4665
 1846SOL    HW217001   3.259   0.336   3.394 -0.2979 -0.5839  0.4935
 1847SOL     OW17002   0.731   1.614   3.302  0.0863 -0.0675  0.1539
 1847SOL    HW117003   0.732   1.707   3.283 -0.5394 -0.0493  0.2252
 1847SOL    HW217004   0.656   1.600   3.360 -1.0000 -1.1333 -1.5169
 1848SOL     OW17005   4.462   4.499   4.790  0.1814 -0.5763 -0.3059
 1848SOL    HW117006   4.508   4.420   4.761  0.6830 -1.4681  2.8493
 1848SOL    HW217007   4.388   4.517   4.732  1.4684 -3.3442 -2.8140
 1849SOL     OW17008   1.388   1.467   3.522  0.3929 -0.4283 -0.1490
 1849SOL    HW117009   1.364   1.543   3.470 -1.5988 -1.2770 -0.4943
 1849SOL    HW217010   1.349   1.398   3.468 -1.2531  0.2495  0.1527
 1850SOL     OW17011   0.269   3.143   2.639 -0.0893  0.3561 -0.0041
 1850SOL    HW117012   0.356   3.182   2.626 -0.9250  2.6383  1.3185
 1850SOL    HW217013   0.297   3.072   2.698  0.0483 -1.8265 -2.7171
 1851SOL     OW17014   2.869   2.420   4.498 -0.6591  1.0607 -0.4865
 1851SOL    HW117015   2.926   2.486   4.459  1.1841 -1.2647 -1.7655
 1851SOL    HW217016   2.838   2.466   4.576  2.9431  0.7205  1.1067
 1852SOL     OW17017   1.674   3.390   7.948  0.1579  0.1949 -0.1715
 1852SOL    HW117018   1.583   3.371   7.967  0.4269  0.2645  1.1981
 1852SOL    HW217019   1.678   3.376   7.853 -0.7804 -1.1273 -0.0157
 1853SOL     OW17020   0.584   1.229  12.025  0.0491 -0.0566 -0.7470
 1853SOL    HW117021   0.541   1.264  12.103  0.9106  1.4655 -0.9552
 1853SOL    HW217022   0.588   1.309  11.973 -2.6514  2.0668  2.3234
 1854SOL     OW17023   3.180   0.460   8.461 -0.1217  0.7242  0.1243
 1854SOL    HW117024   3.138   0.510   8.390  2.1617  2.8993  0.3083
 1854SOL    HW217025   3.172   0.374   8.421 -0.9819  1.7267 -1.8765
 1855SOL     OW17026   3.340   3.537   2.443 -0.5510 -0.6157  0.6500
 1855SOL    HW117027   3.398   3.568   2.374 -0.7181  0.1883  0.8706
 1855SOL    HW217028   3.264   3.540   2.386  0.0592 -0.0649 -0.1377
 1856SOL     OW17029   1.502   2.725   3.072  0.0676  0.4222 -0.2290
 1856SOL    HW117030   1.490   2.649   3.015  0.3908  2.7245 -3.3699
 1856SOL    HW217031   1.565   2.768   3.014  0.7028 -0.6269 -0.3101
 1857SOL     OW17032   2.608   1.301   7.855 -0.0651  0.0692  0.6325
 1857SOL    HW117033   2.634   1.221   7.901 -1.7413 -1.2518 -0.6908
 1857SOL    HW217034   2.648   1.296   7.768  0.1967  2.0296  0.6493
 1858SOL     OW17035   2.680   3.662   5.127 -0.0209  0.0179  0.0750
 1858SOL    HW117036   2.732   3.647   5.048 -2.8158 -1.9743 -1.3942
 1858SOL    HW217037   2.672   3.576   5.168  0.9336 -0.8146 -1.4757
 1859SOL     OW17038   3.170   4.353   4.782 -0.1770  0.2148 -0.2169
 1859SOL    HW117039   3.200   4.325   4.869  0.5934 -0.8675 -0.8257
 1859SOL    HW217040   3.249   4.393   4.746 -1.4210  2.3947 -0.5312
 1860SOL     OW17041   0.352   3.629   7.485 -0.0676  0.0350  0.1927
 1860SOL    HW117042   0.393   3.715   7.484 -1.3499  0.6678  1.9223
 1860SOL    HW217043   0.363   3.605   7.392 -1.1441  0.7683 -0.1163
 1861SOL     OW17044   3.236   2.876  14.121  0.1330  0.4339 -0.1090
 1861SOL    HW117045   3.263   2.911  14.206  1.0868  1.7090 -0.9300
 1861SOL    HW217046   3.150   2.910  14.098  0.0090  1.4084  1.7723
 1862SOL     OW17047   0.505   2.757   6.314  0.5771 -0.4525 -0.0963
 1862SOL    HW117048   0.412   2.774   6.330  0.8877  0.6606  0.4983
 1862SOL    HW217049   0.496   2.662   6.328  2.5041 -0.6099  0.0817
 1863SOL     OW17050   0.034   3.150   1.864 -0.0133  0.1431 -0.4854
 1863SOL    HW117051   0.055   3.242   1.884 -0.8608  0.0748  0.7250
 1863SOL    HW217052   0.111   3.109   1.824  0.2175 -2.0057  2.1401
 1864SOL     OW17053   3.135   1.295  11.800 -0.2205  0.5415  0.0033
 1864SOL    HW117054   3.215   1.348  11.797  0.6833 -0.9247 -1.4413
 1864SOL    HW217055   3.119   1.273  11.709 -1.0585 -2.0322  0.7884
 1865SOL     OW17056   0.981   1.069   2.901 -0.0075  0.5272  0.4416
 1865SOL    HW117057   0.982   1.121   2.981  0.0023 -1.7519  1.9033
 1865SOL    HW217058   0.994   1.130   2.828  0.8875  0.4225  0.5087
 1866SOL     OW17059   3.586   4.047   4.460 -0.3450  0.1370 -0.6788
 1866SOL    HW117060   3.553   4.089   4.380 -1.3427  0.0081 -0.3437
 1866SOL    HW217061   3.597   3.955   4.437  0.3211 -0.1457  0.7758
 1867SOL     OW17062   0.682   0.190   7.828  0.7227 -0.8347  0.6238
 1867SOL    HW117063   0.639   0.235   7.756 -0.8788 -1.2929  1.2830
 1867SOL    HW217064   0.610   0.149   7.877 -1.0232 -2.4645 -3.3177
 1868SOL     OW17065   3.734   4.707   4.502 -0.0099 -1.0598 -0.1785
 1868SOL    HW117066   3.809   0.041   4.491 -0.3924 -1.0535 -2.7133
 1868SOL    HW217067   3.718   4.700   4.408  1.0588 -0.6394 -0.3959
 1869SOL     OW17068   0.443   1.369   2.690  0.1116  0.0901  0.3681
 1869SOL    HW117069   0.435   1.459   2.661  1.2840 -0.2623 -1.0470
 1869SOL    HW217070   0.529   1.376   2.732 -0.1129  2.8634  0.3247
 1870SOL     OW17071   2.429   3.970   2.594 -0.1439  0.2208  0.7604
 1870SOL    HW117072   2.421   4.001   2.504  1.2188  0.0588  0.5963
 1870SOL    HW217073   2.341   3.992   2.626  0.3562  1.9739  0.9849
 1871SOL     OW17074   3.828   1.861   9.077  0.0696 -0.3209  0.2519
 1871SOL    HW117075   3.800   1.929   9.138 -1.6791  1.4677 -2.5692
 1871SOL    HW217076   3.922   1.863   9.095  0.1000 -1.8256  0.2305
 1872SOL     OW17077   3.156   1.029   3.003  0.4500  0.0069  0.4041
 1872SOL    HW117078   3.137   0.973   2.928 -0.8979  0.2875  0.5300
 1872SOL    HW217079   3.104   1.106   2.981 -2.4245 -1.5254  1.8268
 1873SOL     OW17080   0.349   1.323  15.232 -0.0870  0.2025  0.0366
 1873SOL    HW117081   0.355   1.366  15.146  1.3358  2.2904  1.1586
 1873SOL    HW217082   0.387   1.238  15.213  2.8064  1.5196 -0.1168
 1874SOL     OW17083   1.979   2.900   5.208 -0.2211  0.0240 -0.1292
 1874SOL    HW117084   2.008   2.816   5.244  1.2573  0.6774  0.1934
 1874SOL    HW217085   1.891   2.865   5.192 -0.4715  0.0399  1.2091
 1875SOL     OW17086   4.210   0.076  11.959 -0.1351  0.1896 -0.0912
 1875SOL    HW117087   4.259   0.006  11.918  0.2012  1.1186 -1.2642
 1875SOL    HW217088   4.188   0.039  12.045 -1.2860 -1.6162 -1.1770
 1876SOL     OW17089   2.469   0.756  10.881 -0.7387 -0.0113  0.3614
 1876SOL    HW117090   2.508   0.669  10.885  1.4855  0.9180 -1.0066
 1876SOL    HW217091   2.542   0.807  10.917 -0.3185  1.2922 -2.2943
 1877SOL     OW17092   2.547   3.124   8.523  0.1334  0.4658  0.1002
 1877SOL    HW117093   2.628   3.075   8.512 -1.4655 -2.4417  1.1671
 1877SOL    HW217094   2.540   3.129   8.618 -2.1218 -1.0622  0.0310
 1878SOL     OW17095   4.010   3.491   5.438  0.2351  0.0008  0.3901
 1878SOL    HW117096   3.922   3.465   5.413 -0.5916  2.2120  1.0374
 1878SOL    HW217097   3.997   3.561   5.502  0.4576 -0.0689  0.5143
 1879SOL     OW17098   0.531   3.417   9.616 -0.2850  0.7647  0.1528
 1879SOL    HW117099   0.558   3.482   9.680  2.2936 -0.9144  0.7901
 1879SOL    HW217100   0.441   3.398   9.641  0.2343 -1.7439  0.1565
 1880SOL     OW17101   1.136   2.726  13.621 -0.4512 -0.0151  0.3691
 1880SOL    HW117102   1.056   2.721  13.570  1.5215 -2.1565 -2.5249
 1880SOL    HW217103   1.115   2.757  13.709 -1.6268  1.3042 -0.3926
 1881SOL     OW17104   2.984   1.362   5.362 -0.1188  0.3190  0.0868
 1881SOL    HW117105   2.929   1.295   5.321  1.6851 -1.6216  0.7666
 1881SOL    HW217106   3.064   1.328   5.321 -0.3823 -1.9165  1.4012
 1882SOL     OW17107   0.871   1.092   8.672  0.4527  0.4762  0.1582
 1882SOL    HW117108   0.919   1.157   8.622  0.0324  1.0818  0.5434
 1882SOL    HW217109   0.850   1.132   8.756 -0.2143  0.6977 -0.1178
 1883SOL     OW17110   0.044   4.385   1.869  0.4586 -0.1058  0.2889
 1883SOL    HW117111   0.110   4.433   1.920 -1.9655  0.6333  2.7780
 1883SOL    HW217112   0.011   4.458   1.816 -2.6374 -1.8194 -0.1609
 1884SOL     OW17113   0.166   1.787   3.804 -0.5023 -0.0748 -0.4564
 1884SOL    HW117114   0.253   1.771   3.840 -0.2566  1.1958 -0.4935
 1884SOL    HW217115   0.144   1.865   3.855  0.6211 -0.9317  1.3241
 1885SOL     OW17116   4.655   0.239  10.706 -0.4504  0.6455  0.1094
 1885SOL    HW117117   4.723   0.216  10.769 -0.4378  0.3754  0.0007
 1885SOL    HW217118   4.689   0.194  10.628  0.7386 -1.5702  1.8924
 1886SOL     OW17119   3.074   4.245   7.601 -0.0332 -0.6143  0.2032
 1886SOL    HW117120   3.009   4.224   7.534  0.3644  1.3955 -0.7985
 1886SOL    HW217121   3.039   4.202   7.680  0.1311 -1.3712 -0.1305
 1887SOL     OW17122   3.999   3.591  11.423 -0.6433  0.5510 -0.4809
 1887SOL    HW117123   3.948   3.576  11.502  0.8744 -0.0522  0.3799
 1887SOL    HW217124   3.951   3.528  11.369 -1.2421  0.2367  0.4207
 1888SOL     OW17125   0.144   4.135  12.332 -0.0889  0.7900 -0.0698
 1888SOL    HW117126   0.229   4.151  12.290  0.8503 -2.5388  0.5603
 1888SOL    HW217127   0.135   4.220  12.373 -1.0974  0.5173  0.2574
 1889SOL     OW17128   1.038   4.560  14.054 -0.2153  0.2086 -0.2361
 1889SOL    HW117129   1.075   4.574  13.966 -0.3079  0.2046 -0.2755
 1889SOL    HW217130   1.111   4.582  14.111 -0.4687  3.6241 -1.2536
 1890SOL     OW17131   2.723   2.386  11.032  0.1560 -0.5276  0.4075
 1890SOL    HW117132   2.697   2.307  11.079 -2.1667  0.5187  0.8933
 1890SOL    HW217133   2.738   2.358  10.941  0.4442 -0.3265  0.3943
 1891SOL     OW17134   2.560   3.129   0.863  0.1957  0.5181  0.5255
 1891SOL    HW117135   2.629   3.174   0.814  2.5272 -2.3448  1.1813
 1891SOL    HW217136   2.496   3.111   0.795 -1.0813  2.2664  1.2746
 1892SOL     OW17137   3.749   3.506   2.365 -0.2174  0.2648  0.5158
 1892SOL    HW117138   3.843   3.522   2.369 -0.2175 -0.2553  2.5038
 1892SOL    HW217139   3.708   3.590   2.343  1.2901  0.6267 -0.8879
 1893SOL     OW17140   2.254   0.323   4.343 -0.0696 -0.8355  0.1117
 1893SOL    HW117141   2.186   0.256   4.339  0.6867 -1.4787 -2.6378
 1893SOL    HW217142   2.285   0.314   4.253 -0.4274  1.8275 -0.2643
 1894SOL     OW17143   0.652   0.293   8.485  0.2350  0.2485 -0.7617
 1894SOL    HW117144   0.582   0.335   8.436  0.3316 -0.1161 -1.2079
 1894SOL    HW217145   0.634   0.291   8.579 -2.4381  1.7352 -1.2361
 1895SOL     OW17146   0.079   1.727   6.346 -0.4086 -0.3785  0.1769
 1895SOL    HW117147   0.122   1.785   6.283 -0.8293  0.6030  0.7901
 1895SOL    HW217148   0.012   1.787   6.380 -1.8469 -0.6831 -2.1089
 1896SOL     OW17149   2.594   0.043   0.117  0.3836 -0.1284  0.0635
 1896SOL    HW117150   2.549   0.127   0.105 -2.9840 -2.2245 -1.8987
 1896SOL    HW217151   2.546   4.725   0.187  1.1764  0.5876  1.0386
 1897SOL     OW17152   2.522   2.853  15.544  0.1067  0.4733  0.2985
 1897SOL    HW117153   2.504   2.760  15.552 -0.1646  0.6949  2.3155
 1897SOL    HW217154   2.610   2.873  15.574 -0.6383  0.7971  2.2472
 1898SOL     OW17155   4.413   2.274  10.111 -0.6101  0.0134 -0.1109
 1898SOL    HW117156   4.393   2.237  10.025  2.0267  0.0461 -0.7400
 1898SOL    HW217157   4.380   2.200  10.163  1.1993  0.2784  1.4118
 1899SOL     OW17158   2.903   0.356  11.687 -0.2359  0.5705 -0.2086
 1899SOL    HW117159   2.915   0.263  11.707  0.4842  0.5501 -0.7309
 1899SOL    HW217160   2.912   0.403  11.771  0.1253  2.4139 -1.2718
 1900SOL     OW17161   1.203   3.484   9.788 -0.1373 -0.0996  0.3343
 1900SOL    HW117162   1.259   3.550   9.829  0.6763 -0.2580 -0.5118
 1900SOL    HW217163   1.117   3.517   9.814 -0.0639  0.2774  0.0918
 1901SOL     OW17164   2.884   1.767  17.531 -0.0107 -0.0955  0.5817
 1901SOL    HW117165   2.926   1.733  17.452 -4.5016 -0.0411 -1.8557
 1901SOL    HW217166   2.945   1.832  17.564 -2.7441  2.7076  0.1226
 1902SOL     OW17167   0.132   3.851   4.370  0.1287  0.3030 -0.1737
 1902SOL    HW117168   0.090   3.779   4.417  1.2569  0.0608  0.4631
 1902SOL    HW217169   0.215   3.816   4.337  0.2688 -0.1399  0.6372
 1903SOL     OW17170   2.073   4.163   6.377  0.5948 -0.4658  0.1044
 1903SOL    HW117171   1.981   4.168   6.404  0.9407  2.7355  0.7069
 1903SOL    HW217172   2.108   4.109   6.448  1.2103  0.5194  0.5610
 1904SOL     OW17173   2.843   2.327   4.803 -0.0423  0.0735 -0.2461
 1904SOL    HW117174   2.761   2.335   4.852  1.2710 -3.2832  2.5044
 1904SOL    HW217175   2.812   2.271   4.732  0.7665 -1.2007  0.4285
 1905SOL     OW17176   3.351   2.942  13.878 -0.3320 -0.0386 -0.1743
 1905SOL    HW117177   3.258   2.932  13.857 -0.0902  0.1131 -1.3307
 1905SOL    HW217178   3.340   2.922  13.971  1.3536 -1.8544 -0.3725
 1906SOL     OW17179   1.496   0.345   0.093 -0.5998  0.0369  0.4707
 1906SOL    HW117180   1.570   0.384   0.140  0.2678 -2.1607  0.9309
 1906SOL    HW217181   1.520   0.371   0.005  1.6879  0.6904  1.3001
 1907SOL     OW17182   2.622   3.845   3.608  0.2144 -0.3105 -0.1561
 1907SOL    HW117183   2.558   3.899   3.561  0.2292  1.0880  1.4091
 1907SOL    HW217184   2.584   3.758   3.597  2.5152 -0.9534 -3.0607
 1908SOL     OW17185   0.235   2.351  12.224 -0.3650  0.5980  0.1088
 1908SOL    HW117186   0.285   2.430  12.244 -0.7354  0.5225  1.3536
 1908SOL    HW217187   0.143   2.374  12.213 -1.3500 -1.5660  3.7051
 1909SOL     OW17188   0.887   3.897  17.451 -0.2970  0.1590 -0.2415
 1909SOL    HW117189   0.903   3.803  17.457  3.4744  0.8561  0.3889
 1909SOL    HW217190   0.942   3.928  17.380 -0.3841 -1.7292 -1.1292
 1910SOL     OW17191   1.164   3.173   8.154  0.5923 -0.5100 -0.4513
 1910SOL    HW117192   1.243   3.169   8.207  0.4678 -1.5365 -0.3406
 1910SOL    HW217193   1.123   3.259   8.165  0.9285 -0.2817 -1.0078
 1911SOL     OW17194   0.254   4.431  11.821  0.0053  0.1996  0.2714
 1911SOL    HW117195   0.196   4.396  11.753  1.6134 -2.2543  0.1786
 1911SOL    HW217196   0.187   4.449  11.887 -0.8878  1.8052 -1.0548
 1912SOL     OW17197   1.319   3.243  14.728 -1.1315  0.1634  0.5428
 1912SOL    HW117198   1.356   3.203  14.807  0.2168 -0.6465 -0.4966
 1912SOL    HW217199   1.398   3.275  14.684 -2.7311  0.9190 -1.7619
 1913SOL     OW17200   3.930   3.313   0.275 -0.3202 -0.2021  0.0852
 1913SOL    HW117201   3.925   3.385   0.338 -1.7104 -0.2490  0.0181
 1913SOL    HW217202   4.024   3.302   0.290 -0.2688  0.6791  0.3881
 1914SOL     OW17203   0.689   0.762   2.971  0.8809 -0.1516 -0.3738
 1914SOL    HW117204   0.608   0.810   2.986 -0.3145 -1.9894 -1.0337
 1914SOL    HW217205   0.673   0.685   3.025 -0.7786 -1.5232 -2.8253
 1915SOL     OW17206   3.724   2.943   7.459 -0.4332 -0.0908 -0.3643
 1915SOL    HW117207   3.681   3.024   7.430  0.9757  1.0160  0.6186
 1915SOL    HW217208   3.777   2.961   7.537 -2.2942  0.8021  0.7129
 1916SOL     OW17209   3.987   0.583   5.634 -0.7254  0.3353 -0.7786
 1916SOL    HW117210   3.945   0.654   5.684  0.9844  0.5514  0.3394
 1916SOL    HW217211   3.904   0.546   5.604 -0.4729 -2.6567  2.1578
 1917SOL     OW17212   2.315   3.731  12.010 -0.0905 -0.2521 -0.2576
 1917SOL    HW117213   2.331   3.775  11.926  1.3078  0.0551  0.1654
 1917SOL    HW217214   2.351   3.795  12.071 -0.3410 -0.2715 -0.0899
 1918SOL     OW17215   1.456   1.474   0.907 -0.6090 -0.3888  0.0454
 1918SOL    HW117216   1.381   1.420   0.881 -0.8951  1.4304 -3.0044
 1918SOL    HW217217   1.427   1.561   0.938  2.7458  0.8511 -0.3548
 1919SOL     OW17218   1.445   2.153   3.266 -0.6262  0.5747  0.2544
 1919SOL    HW117219   1.371   2.144   3.327  0.6461  0.5590  1.7736
 1919SOL    HW217220   1.402   2.221   3.213  2.3355  0.2934 -2.5016
 1920SOL     OW17221   1.288   1.377   2.780  0.5051  0.3724  0.2764
 1920SOL    HW117222   1.297   1.324   2.859  4.5429  0.8517  0.1608
 1920SOL    HW217223   1.204   1.347   2.746  0.2231 -0.3876  1.6487
 1921SOL     OW17224   2.666   2.243   9.221 -0.0768  0.6220 -0.6470
 1921SOL    HW117225   2.715   2.165   9.194 -0.8024  0.2848 -0.9796
 1921SOL    HW217226   2.583   2.197   9.234 -0.0028 -0.1384 -2.8511
 1922SOL     OW17227   2.179   4.287   6.795  0.3678  0.0255 -0.3712
 1922SOL    HW117228   2.100   4.264   6.845  0.6676  0.4222  0.2879
 1922SOL    HW217229   2.147   4.358   6.741 -0.4009 -1.0347 -1.3152
 1923SOL     OW17230   1.844   4.407   4.633 -0.2881  0.4669  0.2422
 1923SOL    HW117231   1.914   4.377   4.691 -0.8446 -1.5298 -0.1130
 1923SOL    HW217232   1.784   4.333   4.634  0.1142  0.1359  0.0740
 1924SOL     OW17233   3.167   1.304  17.297 -0.2403 -0.3333  0.0442
 1924SOL    HW117234   3.090   1.256  17.328 -0.0680 -0.4303  0.3256
 1924SOL    HW217235   3.129   1.331  17.214  1.5945  0.7632 -0.4464
 1925SOL     OW17236   0.176   1.789  13.847  0.0733  0.2332  0.3983
 1925SOL    HW117237   0.267   1.815  13.857  0.3167 -0.3053 -0.4384
 1925SOL    HW217238   0.185   1.696  13.867 -2.5699 -0.7478 -3.0217
 1926SOL     OW17239   2.080   2.181   6.834 -0.5210 -0.3743  0.2085
 1926SOL    HW117240   2.126   2.101   6.810 -0.4874 -0.1927 -0.3376
 1926SOL    HW217241   1.991   2.159   6.862 -1.7924  3.7476 -0.5804
 1927SOL     OW17242   2.792   0.684   3.859 -0.4643  0.7712 -0.6028
 1927SOL    HW117243   2.834   0.765   3.828 -2.8003  1.0689 -3.0317
 1927SOL    HW217244   2.698   0.704   3.858 -0.9448 -1.4882  0.5104
 1928SOL     OW17245   4.124   1.058   4.090 -0.3808  0.7860 -0.3212
 1928SOL    HW117246   4.173   0.981   4.059  0.3992  1.2933 -0.3423
 1928SOL    HW217247   4.176   1.101   4.158 -2.0719 -1.0589  2.1337
 1929SOL     OW17248   1.679   0.459   6.354  0.1217 -0.6018 -0.4000
 1929SOL    HW117249   1.692   0.486   6.444  1.2943 -0.9090 -0.4739
 1929SOL    HW217250   1.607   0.395   6.361 -0.8587  0.6180  0.6870
 1930SOL     OW17251   0.524   1.372  11.775  0.1929 -0.0976 -0.0680
 1930SOL    HW117252   0.446   1.326  11.806 -0.4582  0.5057 -0.8238
 1930SOL    HW217253   0.526   1.450  11.831  0.9322  0.0081 -0.2468
 1931SOL     OW17254   2.738   0.576   1.395 -0.2317 -0.0091  0.4316
 1931SOL    HW117255   2.693   0.652   1.434 -2.1962 -1.3351  0.7710
 1931SOL    HW217256   2.750   0.517   1.469  0.2971 -1.1925 -0.6041
 1932SOL     OW17257   0.316   1.158   0.471 -0.0622 -0.1442  0.2855
 1932SOL    HW117258   0.408   1.134   0.470 -0.2010 -0.8596  5.0531
 1932SOL    HW217259   0.281   1.102   0.540  0.9328 -0.2291  0.7185
 1933SOL     OW17260   2.146   1.903   7.717 -0.3375  0.1912  0.1753
 1933SOL    HW117261   2.075   1.964   7.737 -0.7474 -0.0600 -0.5203
 1933SOL    HW217262   2.222   1.940   7.761  1.0573 -2.1818 -0.1955
 1934SOL     OW17263   4.366   2.040   7.850  0.3302 -0.1817 -0.6823
 1934SOL    HW117264   4.344   2.101   7.780 -0.5396 -0.2093 -0.4389
 1934SOL    HW217265   4.456   2.016   7.830  1.5742  1.4082  3.0263
 1935SOL     OW17266   4.513   3.880  14.676  0.3472  0.2703 -0.3818
 1935SOL    HW117267   4.422   3.853  14.666  0.4246  0.0410 -0.4626
 1935SOL    HW217268   4.533   3.825  14.751  0.2334  1.9082  0.8645
 1936SOL     OW17269   2.800   3.456  10.768 -0.3647 -0.2053 -0.7615
 1936SOL    HW117270   2.758   3.373  10.748  1.2781 -1.8056  2.3609
 1936SOL    HW217271   2.814   3.498  10.684  1.7640 -0.5953 -0.6199
 1937SOL     OW17272   3.745   3.929   8.634  0.2706 -0.3407 -0.1733
 1937SOL    HW117273   3.789   3.972   8.561  0.6214 -1.1832 -0.4617
 1937SOL    HW217274   3.744   3.999   8.699 -0.9707 -0.0866 -0.4714
 1938SOL     OW17275   0.756   2.732   3.960 -0.1050 -0.1292  0.0929
 1938SOL    HW117276   0.840   2.755   3.998  1.3443  2.1962 -4.5322
 1938SOL    HW217277   0.720   2.684   4.035 -0.6554 -1.3401 -0.9283
 1939SOL     OW17278   1.761   1.411  16.343  0.1300 -0.1440 -0.3459
 1939SOL    HW117279   1.804   1.433  16.260 -1.3016 -2.2544 -1.6478
 1939SOL    HW217280   1.726   1.498  16.365  0.5471 -0.4572  1.5864
 1940SOL     OW17281   3.462   4.382  15.199  0.1603 -0.8404  0.1346
 1940SOL    HW117282   3.381   4.393  15.150 -1.2943  0.3452  2.8182
 1940SOL    HW217283   3.484   4.289  15.190 -2.4501 -1.4778  0.4244
 1941SOL     OW17284   0.604   2.157   9.559  0.6747 -0.3050  0.2143
 1941SOL    HW117285   0.664   2.228   9.537  2.7260 -2.1276 -0.0410
 1941SOL    HW217286   0.566   2.193   9.639  0.2244  0.6858 -0.4440
 1942SOL     OW17287   3.917   2.088  17.427  0.3721 -0.2185  0.3656
 1942SOL    HW117288   4.007   2.054  17.423  0.4213 -0.4508  3.4847
 1942SOL    HW217289   3.922   2.172  17.383  0.2652 -1.3580 -1.8624
 1943SOL     OW17290   3.463   0.956   2.984  0.3918  0.1833  0.2506
 1943SOL    HW117291   3.369   0.974   2.977  0.3053 -1.3683 -2.5531
 1943SOL    HW217292   3.491   1.039   3.024 -0.4779  0.6192 -0.0372
 1944SOL     OW17293   2.399   3.810  15.473 -0.6698 -0.6127 -0.1681
 1944SOL    HW117294   2.350   3.885  15.506 -1.3060 -1.0839 -0.0239
 1944SOL    HW217295   2.400   3.745  15.543  0.1141 -1.8693 -1.3430
 1945SOL     OW17296   1.115   0.035   6.515  0.7150 -0.0551 -0.5262
 1945SOL    HW117297   1.126   4.693   6.582 -0.9296 -0.6726 -0.8714
 1945SOL    HW217298   1.132   0.115   6.565 -0.1303 -0.0647 -0.2336
 1946SOL     OW17299   4.581   4.582   9.842 -0.1806 -0.0005 -0.5834
 1946SOL    HW117300   4.648   4.639   9.804 -1.2705  1.8935  0.3319
 1946SOL    HW217301   4.627   4.499   9.829 -0.5604 -0.2481 -0.3558
 1947SOL     OW17302   2.059   4.423  16.489 -0.4781  0.2533 -1.1329
 1947SOL    HW117303   2.064   4.360  16.561 -0.8473  0.3019 -1.0603
 1947SOL    HW217304   1.984   4.478  16.514 -0.3320  0.8247 -1.9546
 1948SOL     OW17305   3.320   0.355  14.744  0.4837 -0.0850  0.5108
 1948SOL    HW117306   3.254   0.422  14.757  0.8085  0.6009 -1.3669
 1948SOL    HW217307   3.406   0.396  14.753  0.4339  0.7271 -2.6007
 1949SOL     OW17308   0.504   3.257   6.104  0.0016  0.6231  0.6683
 1949SOL    HW117309   0.520   3.168   6.134 -2.4396  0.4714  1.5171
 1949SOL    HW217310   0.418   3.284   6.137  0.0256  0.4351  0.8766
 1950SOL     OW17311   3.550   4.552   5.314 -0.0820  0.0660  0.2623
 1950SOL    HW117312   3.522   4.540   5.223  0.1714  2.7438 -0.1800
 1950SOL    HW217313   3.628   4.607   5.307 -0.9486  1.4852  1.7005
 1951SOL     OW17314   3.032   4.266   8.045  0.3127  1.1236  0.3743
 1951SOL    HW117315   3.013   4.357   8.021 -0.4780  1.4865  2.3909
 1951SOL    HW217316   3.043   4.269   8.140 -1.2651  0.4914  0.5800
 1952SOL     OW17317   2.491   0.158   9.318  0.0033  0.4765  0.6912
 1952SOL    HW117318   2.563   0.106   9.353  0.5302  0.4416 -0.4260
 1952SOL    HW217319   2.467   0.226   9.381 -1.4435  0.5735  0.0430
 1953SOL     OW17320   2.701   2.599   3.932  0.4596  0.6676 -0.2956
 1953SOL    HW117321   2.705   2.667   3.999 -1.7649  1.8604 -1.3672
 1953SOL    HW217322   2.614   2.563   3.951  0.4793  1.1045  0.5997
 1954SOL     OW17323   3.031   1.081  17.120  0.1835  0.7173 -0.2380
 1954SOL    HW117324   2.961   1.116  17.065  0.1003 -0.4533 -0.8695
 1954SOL    HW217325   2.990   1.085  17.207 -0.0690  0.4586 -0.3479
 1955SOL     OW17326   4.538   1.676   4.843  0.2780 -0.2211 -0.7087
 1955SOL    HW117327   4.469   1.636   4.896 -0.4562  1.7103 -0.2024
 1955SOL    HW217328   4.565   1.752   4.894  0.1126  0.3592 -1.4796
 1956SOL     OW17329   4.642   2.333   6.640 -0.5745 -0.0706  0.2604
 1956SOL    HW117330   4.585   2.261   6.612 -1.2607  0.6065 -0.0796
 1956SOL    HW217331   4.691   2.357   6.561 -1.2411 -0.0473 -0.1438
 1957SOL     OW17332   0.048   0.309   9.693 -0.8083  0.3093 -0.2922
 1957SOL    HW117333   0.139   0.323   9.719 -1.0026  1.0852 -0.0139
 1957SOL    HW217334   0.037   0.387   9.639  1.0336  0.5471 -0.3050
 1958SOL     OW17335   4.312   4.145  14.723 -0.4091  0.5139  0.2671
 1958SOL    HW117336   4.393   4.112  14.684 -0.7196  0.4111 -0.2920
 1958SOL    HW217337   4.285   4.086  14.793  0.9179 -1.1990 -0.6641
 1959SOL     OW17338   1.755   3.069   3.687 -0.2741 -0.0705 -0.1982
 1959SOL    HW117339   1.836   3.032   3.720 -0.5460 -0.0363  0.5095
 1959SOL    HW217340   1.715   3.117   3.760  2.4229 -0.4004  1.5011
 1960SOL     OW17341   2.388   2.858   6.842  0.1438  0.4266 -0.6613
 1960SOL    HW117342   2.324   2.838   6.774 -0.7834 -0.8807  0.5927
 1960SOL    HW217343   2.335   2.904   6.907  1.3338  0.2340  0.4457
 1961SOL     OW17344   3.727   4.228   3.107  0.1524 -0.7441  0.5155
 1961SOL    HW117345   3.730   4.323   3.098  0.1818 -0.8568 -0.7322
 1961SOL    HW217346   3.682   4.228   3.191  1.3492  1.8455  1.1432
 1962SOL     OW17347   0.142   0.273   2.563 -0.5054  0.2965  0.9995
 1962SOL    HW117348   0.059   0.319   2.549  0.0801  1.0461 -0.0379
 1962SOL    HW217349   0.186   0.291   2.479 -1.0919  1.7647  1.0041
 1963SOL     OW17350   1.332   3.691   0.316 -0.6430 -0.0736 -0.1399
 1963SOL    HW117351   1.315   3.748   0.240  1.3453  1.9854  0.9665
 1963SOL    HW217352   1.348   3.609   0.271  0.3390 -0.7761  1.4806
 1964SOL     OW17353   0.267   3.575   9.361 -0.6255  0.1394  0.0701
 1964SOL    HW117354   0.272   3.504   9.297  0.7673  0.8800 -0.6353
 1964SOL    HW217355   0.293   3.533   9.443 -0.5662  0.2802  0.1236
 1965SOL     OW17356   2.177   1.738   9.697 -0.3567  0.2563  0.5024
 1965SOL    HW117357   2.177   1.829   9.667  0.0065 -0.3117 -1.2062
 1965SOL    HW217358   2.111   1.766   9.761  0.9717 -0.4049  2.1639
 1966SOL     OW17359   3.332   1.619   3.584  0.6842  0.0011 -0.1712
 1966SOL    HW117360   3.330   1.527   3.607  3.2741  0.1092  0.5724
 1966SOL    HW217361   3.247   1.626   3.540 -0.8640  2.1146  3.1361
 1967SOL     OW17362   1.415   4.201   3.883  0.5284  0.1651  0.0167
 1967SOL    HW117363   1.417   4.144   3.806 -0.4610 -0.5386  0.5172
 1967SOL    HW217364   1.398   4.285   3.839 -0.7324  1.4227  2.9281
 1968SOL     OW17365   2.705   2.929   1.031  0.0942  0.2809 -1.0288
 1968SOL    HW117366   2.648   2.939   1.107  2.8934  1.6062  0.9345
 1968SOL    HW217367   2.659   2.980   0.964 -2.5413  0.3622  0.8501
 1969SOL     OW17368   1.481   3.132   5.623  0.2466  0.0408  0.0149
 1969SOL    HW117369   1.402   3.185   5.627  0.2404  0.1474 -1.4221
 1969SOL    HW217370   1.523   3.131   5.709  0.1319 -0.5276  0.0618
 1970SOL     OW17371   2.135   0.415   0.577 -0.3497  0.2655  0.0770
 1970SOL    HW117372   2.091   0.366   0.647 -1.5094  2.8570  1.1369
 1970SOL    HW217373   2.087   0.384   0.500 -2.3130  0.6110  1.1720
 1971SOL     OW17374   2.390   4.040  15.195  0.1503  0.7589 -0.1484
 1971SOL    HW117375   2.406   3.947  15.176  2.0712  1.1601 -0.4831
 1971SOL    HW217376   2.304   4.030  15.236  0.3080  1.2948  0.3035
 1972SOL     OW17377   3.047   0.626   8.911 -0.0801  0.0361  0.2477
 1972SOL    HW117378   3.137   0.651   8.931  0.2167 -0.0959 -0.9336
 1972SOL    HW217379   3.054   0.532   8.896 -0.8773 -0.1271  0.9001
 1973SOL     OW17380   3.890   3.523  11.667  0.6511  0.1604 -0.3068
 1973SOL    HW117381   3.816   3.464  11.684 -0.9700  2.4689  0.7200
 1973SOL    HW217382   3.903   3.549  11.759  1.9524  3.2043 -1.3274
 1974SOL     OW17383   1.962   0.346   6.906  0.2793 -0.7967 -0.2061
 1974SOL    HW117384   1.908   0.330   6.984  1.2436 -0.5589  0.5132
 1974SOL    HW217385   1.974   0.441   6.904 -0.6548 -0.6527  1.0824
 1975SOL     OW17386   1.073   2.685   2.652  0.0121  0.0242  0.3436
 1975SOL    HW117387   1.102   2.704   2.563 -2.4573 -3.0579 -1.1011
 1975SOL    HW217388   0.978   2.697   2.652  0.0903  0.6290  0.6579
 1976SOL     OW17389   3.339   0.813  10.197 -0.1753  0.0980  0.0407
 1976SOL    HW117390   3.386   0.740  10.238 -1.2494 -0.7282 -0.2127
 1976SOL    HW217391   3.281   0.774  10.131  0.7256  0.1324 -0.7708
 1977SOL     OW17392   0.396   3.422   7.961 -0.7310  0.5144 -0.3788
 1977SOL    HW117393   0.373   3.480   8.034  0.5644  0.1758  0.3125
 1977SOL    HW217394   0.366   3.487   7.897 -1.4687  1.2506  0.7166
 1978SOL     OW17395   0.459   4.373   5.939 -0.4716  0.1595 -0.2292
 1978SOL    HW117396   0.449   4.393   5.846  0.7833 -0.1273 -0.4279
 1978SOL    HW217397   0.413   4.289   5.940  0.4190 -0.3284  0.4256
 1979SOL     OW17398   1.302   1.651   7.549  0.5925  0.0772  0.1333
 1979SOL    HW117399   1.344   1.704   7.480 -0.1814 -0.6408 -0.8973
 1979SOL    HW217400   1.226   1.708   7.559  2.0481  1.8083  1.2037
 1980SOL     OW17401   3.207   2.546   3.894 -0.9294  0.0874 -0.3575
 1980SOL    HW117402   3.232   2.496   3.817 -0.2607  0.7438 -0.5754
 1980SOL    HW217403   3.293   2.587   3.907 -1.8049  1.2983  1.7511
 1981SOL     OW17404   0.079   0.011   1.285  0.0644  0.0797  0.5156
 1981SOL    HW117405   0.162   0.029   1.241  0.0720  1.7100  1.1967
 1981SOL    HW217406   0.019   0.030   1.213 -0.8839 -1.3398  0.9333
 1982SOL     OW17407   3.258   1.913   5.395 -0.4246 -0.4758 -0.0025
 1982SOL    HW117408   3.203   1.983   5.360 -1.4022 -0.7855  0.9057
 1982SOL    HW217409   3.320   1.969   5.442 -3.1040  1.4626  1.2156
 1983SOL     OW17410   1.342   0.486  17.571 -0.0921 -0.0655 -0.4601
 1983SOL    HW117411   1.433   0.502  17.596  1.3341 -4.9996 -2.4058
 1983SOL    HW217412   1.350   0.401  17.527  0.5278 -0.9796  1.4245
 1984SOL     OW17413   3.003   2.107  10.256  0.3944 -0.1710 -0.5236
 1984SOL    HW117414   3.088   2.125  10.216  1.3404 -1.9057  0.7406
 1984SOL    HW217415   3.032   2.089  10.346  0.5756 -0.6781 -0.6857
 1985SOL     OW17416   4.626   1.658   1.184 -0.0289 -0.2068 -0.2112
 1985SOL    HW117417   4.585   1.574   1.205 -1.5546  0.5085 -0.3250
 1985SOL    HW217418   4.587   1.671   1.098 -1.9062 -0.1453  0.6481
 1986SOL     OW17419   4.306   4.147   6.183  0.2523  0.1055 -0.2740
 1986SOL    HW117420   4.303   4.122   6.276  0.3551 -0.8095 -0.5199
 1986SOL    HW217421   4.215   4.139   6.154  0.2469 -0.7868 -0.0192
 1987SOL     OW17422   4.087   0.372   0.996  0.6245 -0.2223  0.3452
 1987SOL    HW117423   4.178   0.367   1.022  0.3528 -2.3170  0.9292
 1987SOL    HW217424   4.062   0.280   0.997  2.6869 -0.7749  0.3376
 1988SOL     OW17425   0.762   4.613   0.406  0.3808 -0.0621  0.2741
 1988SOL    HW117426   0.792   4.545   0.346 -0.2864  1.7418 -2.0786
 1988SOL    HW217427   0.734   4.563   0.483  0.4022 -0.4669  0.0237
 1989SOL     OW17428   0.528   3.451   5.510 -0.0810 -0.2069 -0.7081
 1989SOL    HW117429   0.453   3.509   5.495  1.0184  1.0651 -1.3488
 1989SOL    HW217430   0.478   3.381   5.552 -0.5943  0.0110 -0.9482
 1990SOL     OW17431   1.438   0.527   1.365 -0.5348 -0.3916 -0.8840
 1990SOL    HW117432   1.460   0.550   1.274  2.0085  1.5558  0.2227
 1990SOL    HW217433   1.520   0.532   1.413 -0.7330  0.2842 -0.6041
 1991SOL     OW17434   0.965   1.891   2.903 -0.1073  0.7436  0.6974
 1991SOL    HW117435   1.026   1.955   2.938  2.1829 -0.8982 -0.2905
 1991SOL    HW217436   0.955   1.836   2.980  0.5277 -1.1881 -0.6017
 1992SOL     OW17437   0.932   3.689  12.589  0.5794  0.4170  0.0398
 1992SOL    HW117438   0.938   3.596  12.566 -0.9219 -0.1604  1.9845
 1992SOL    HW217439   0.843   3.699  12.622  0.4459  0.0337 -0.1946
 1993SOL     OW17440   2.840   4.097   6.359 -0.2324 -0.3174  0.1137
 1993SOL    HW117441   2.797   4.179   6.383  2.6573  0.1326  3.6692
 1993SOL    HW217442   2.839   4.052   6.444  2.7075 -2.3463 -0.9613
 1994SOL     OW17443   2.954   1.966   5.043  0.5758  0.3780 -0.3001
 1994SOL    HW117444   2.993   1.890   4.999 -0.1139  0.2137 -0.6151
 1994SOL    HW217445   2.869   1.982   5.002  0.4546 -1.1440 -0.6318
 1995SOL     OW17446   3.075   3.115   4.777  0.4008  0.6286  0.7442
 1995SOL    HW117447   3.008   3.184   4.774  0.8527  1.0133 -0.9886
 1995SOL    HW217448   3.048   3.063   4.852 -1.6647 -2.8095 -2.3872
 1996SOL     OW17449   1.865   4.643   9.534  0.1944  0.2273 -0.1850
 1996SOL    HW117450   1.810   4.565   9.535 -1.0695  1.1577  1.7508
 1996SOL    HW217451   1.952   4.603   9.524 -0.2789 -0.8959  0.1422
 1997SOL     OW17452   2.344   2.563   5.024 -0.1552  0.3582 -0.6985
 1997SOL    HW117453   2.344   2.495   4.957  0.5945 -0.2460 -0.0889
 1997SOL    HW217454   2.266   2.541   5.076 -1.8625  0.8572 -3.0636
 1998SOL     OW17455   2.145   3.063  11.985  0.4168  0.0939 -0.0911
 1998SOL    HW117456   2.204   2.996  11.950  0.2767  0.4514 -1.0122
 1998SOL    HW217457   2.064   3.012  11.980  1.1804 -1.1920  0.5151
 1999SOL     OW17458   4.480   3.670   4.889 -0.6077  0.0434  0.3401
 1999SOL    HW117459   4.551   3.704   4.834  0.4606  0.6833  2.1385
 1999SOL    HW217460   4.440   3.750   4.921  2.1789  0.2878  3.1470
 2000SOL     OW17461   1.561   3.113   2.570  0.0024 -0.0518  0.1926
 2000SOL    HW117462   1.634   3.174   2.559 -0.6949  0.7165 -0.1256
 2000SOL    HW217463   1.544   3.091   2.478  0.7495  1.9139 -0.4026
 2001SOL     OW17464   3.904   1.034   8.724  0.1221  0.2959 -0.4054
 2001SOL    HW117465   3.845   0.973   8.768  2.3180 -1.9107 -0.5015
 2001SOL    HW217466   3.964   0.975   8.679 -0.0557  0.6839 -1.1577
 2002SOL     OW17467   4.292   1.489   1.376 -0.2851  0.1155  0.0786
 2002SOL    HW117468   4.263   1.402   1.404 -2.2171  0.0986 -1.9995
 2002SOL    HW217469   4.209   1.513   1.335 -0.8978 -0.3772  1.0261
 2003SOL     OW17470   1.673   0.453   0.554 -0.4985 -0.0967  0.1138
 2003SOL    HW117471   1.578   0.438   0.557 -0.1731 -1.8555  1.2701
 2003SOL    HW217472   1.710   0.368   0.576 -0.9443  0.8138  4.3685
 2004SOL     OW17473   3.980   2.139   2.892 -0.5686 -0.5063  0.5705
 2004SOL    HW117474   3.964   2.056   2.849  0.3046  0.1352 -0.9818
 2004SOL    HW217475   3.948   2.200   2.826 -2.6443 -1.1241  1.0147
 2005SOL     OW17476   0.949   4.326   3.863  0.1861 -0.2558  0.0688
 2005SOL    HW117477   1.033   4.371   3.855  0.4555 -0.3654  2.1519
 2005SOL    HW217478   0.888   4.393   3.894 -0.6500 -0.8819 -0.2284
 2006SOL     OW17479   0.060   1.089   7.344 -0.7117  0.1330  0.1363
 2006SOL    HW117480   0.128   1.148   7.376 -0.6916 -0.6683  1.5528
 2006SOL    HW217481   0.065   1.099   7.249  0.6256 -0.7317  0.1115
 2007SOL     OW17482   2.689   3.533  12.115 -0.0736  0.0135 -0.4222
 2007SOL    HW117483   2.613   3.475  12.120  0.2881 -0.5383 -1.4011
 2007SOL    HW217484   2.759   3.468  12.120 -0.4338 -0.5072 -2.3768
 2008SOL     OW17485   3.362   1.341  13.547  0.7685 -0.1559  0.1740
 2008SOL    HW117486   3.450   1.379  13.547  0.0546  1.4909 -0.5091
 2008SOL    HW217487   3.382   1.255  13.583  2.5880  0.4071  0.5237
 2009SOL     OW17488   1.720   0.463   9.029  0.1688 -0.1725  0.5368
 2009SOL    HW117489   1.720   0.470   9.124 -0.4425  0.5637  0.4790
 2009SOL    HW217490   1.815   0.462   9.017 -0.0132 -2.0089 -0.8982
 2010SOL     OW17491   1.785   2.522   2.727  0.2905  0.1397  0.5324
 2010SOL    HW117492   1.745   2.472   2.797 -1.4071 -0.3216 -0.7913
 2010SOL    HW217493   1.716   2.588   2.718  1.4281  1.1649 -0.7428
 2011SOL     OW17494   2.243   3.965   4.899 -0.3431  0.2150 -0.6645
 2011SOL    HW117495   2.277   3.929   4.817  1.0678  0.9947 -0.4225
 2011SOL    HW217496   2.309   3.930   4.959 -0.3632  1.9366  0.3557
 2012SOL     OW17497   1.821   1.707   4.916  0.0351  0.3535  0.2898
 2012SOL    HW117498   1.846   1.692   5.007 -0.9460 -0.6779  0.3901
 2012SOL    HW217499   1.729   1.684   4.925 -0.0701  0.9208  0.6115
 2013SOL     OW17500   2.626   1.841  15.863 -1.0425  0.3898 -0.0817
 2013SOL    HW117501   2.604   1.810  15.775  0.8577 -0.9598 -0.0790
 2013SOL    HW217502   2.597   1.780  15.931 -1.2573 -0.2950 -0.7851
 2014SOL     OW17503   3.011   3.571   0.913 -0.1707 -0.8548  0.6442
 2014SOL    HW117504   3.026   3.540   1.002 -1.7898  2.4570  2.0624
 2014SOL    HW217505   3.083   3.544   0.856 -1.3309 -0.7953 -0.8728
 2015SOL     OW17506   2.157   3.634   3.699  0.1952 -0.1554  0.0055
 2015SOL    HW117507   2.167   3.539   3.706  0.3069 -0.2216 -1.0794
 2015SOL    HW217508   2.087   3.655   3.762 -0.8259 -0.5810 -0.9790
 2016SOL     OW17509   1.394   3.295   1.005 -0.2399 -0.0109  0.1824
 2016SOL    HW117510   1.487   3.274   1.012 -0.7204 -1.9879  0.5115
 2016SOL    HW217511   1.400   3.370   0.945 -0.4595  1.3752  1.9020
 2017SOL     OW17512   4.509   3.619   1.304 -0.0938 -0.3006  0.2498
 2017SOL    HW117513   4.548   3.706   1.290  0.8366 -0.7832 -0.1299
 2017SOL    HW217514   4.578   3.559   1.277  0.5471  0.7706 -0.5038
 2018SOL     OW17515   0.573   4.302  14.260  0.1348 -0.1004 -0.2543
 2018SOL    HW117516   0.490   4.305  14.307  0.7733 -0.3852  0.8908
 2018SOL    HW217517   0.615   4.388  14.254 -1.0299  0.4074 -1.0529
 2019SOL     OW17518   2.350   1.250   3.113  0.2185 -0.0649  0.3203
 2019SOL    HW117519   2.292   1.303   3.168 -0.6662  0.9640 -1.6168
 2019SOL    HW217520   2.310   1.260   3.027  0.1549 -1.6079  0.1761
 2020SOL     OW17521   3.949   1.921  15.667 -0.2729  0.1029  0.1087
 2020SOL    HW117522   4.020   1.862  15.641 -0.3650  0.8973 -1.9699
 2020SOL    HW217523   3.957   1.966  15.583  0.1201  2.5146  1.4332
 2021SOL     OW17524   3.732   0.503   5.527  0.0349 -0.3597 -0.6639
 2021SOL    HW117525   3.732   0.549   5.443 -0.4486  1.6057  0.4239
 2021SOL    HW217526   3.639   0.479   5.530  0.2186 -1.2384 -1.9041
 2022SOL     OW17527   0.307   1.050  11.241  0.0275 -0.0929  0.3177
 2022SOL    HW117528   0.360   1.109  11.294 -1.4682  1.5606 -0.0405
 2022SOL    HW217529   0.377   0.996  11.203  0.4833  0.8005 -0.0925
 2023SOL     OW17530   0.966   1.004   7.664 -0.1102 -0.4805  0.1784
 2023SOL    HW117531   0.957   1.083   7.611 -0.2412  0.3063  1.3825
 2023SOL    HW217532   0.900   1.016   7.732 -0.8317  0.8083 -0.7506
 2024SOL     OW17533   0.586   0.043   5.395  0.1605  0.0736 -0.4071
 2024SOL    HW117534   0.508   0.096   5.412  1.0449  1.1969  0.1225
 2024SOL    HW217535   0.627   0.077   5.474 -1.5359 -0.6990  0.8044
 2025SOL     OW17536   2.868   3.718   1.665 -0.0059 -0.6596  0.4072
 2025SOL    HW117537   2.881   3.810   1.687 -0.8706 -1.0990  2.7340
 2025SOL    HW217538   2.815   3.687   1.739 -0.9402  0.4303  0.1938
 2026SOL     OW17539   1.788   3.927   5.594 -0.1918 -0.0252  0.2240
 2026SOL    HW117540   1.710   3.877   5.568 -0.4842  1.0058 -0.8644
 2026SOL    HW217541   1.842   3.930   5.515  1.9103 -1.5230  1.5819
 2027SOL     OW17542   3.942   4.234   4.705  0.2516  0.5246 -0.2800
 2027SOL    HW117543   3.864   4.179   4.703  0.6950  0.0412 -4.3360
 2027SOL    HW217544   3.964   4.231   4.611  0.3433 -0.0069 -0.2423
 2028SOL     OW17545   3.025   1.818   0.729 -0.0323  0.2854  0.1604
 2028SOL    HW117546   3.016   1.729   0.694  4.2125  0.1331 -0.5358
 2028SOL    HW217547   2.984   1.873   0.663  0.3031 -0.4236 -0.6445
 2029SOL     OW17548   1.964   3.433   9.130 -0.1456  0.4740 -0.4667
 2029SOL    HW117549   2.004   3.520   9.128 -3.1399  1.8369  0.5950
 2029SOL    HW217550   1.948   3.413   9.037  3.1429 -0.5155 -0.8296
 2030SOL     OW17551   2.827   2.285   4.020  0.2749  0.2702 -0.0381
 2030SOL    HW117552   2.854   2.377   4.020  0.2763  0.2738  0.7175
 2030SOL    HW217553   2.830   2.269   4.115  0.2473 -0.9834 -0.2488
 2031SOL     OW17554   3.314   1.797   2.950 -0.6077 -0.3808 -0.3334
 2031SOL    HW117555   3.312   1.756   2.863  2.1247 -1.1173 -0.0398
 2031SOL    HW217556   3.222   1.786   2.974 -1.2828  2.6262 -1.4968
 2032SOL     OW17557   3.035   4.330   1.651 -0.0562  0.3275  0.4672
 2032SOL    HW117558   3.079   4.248   1.630  0.4531  0.6444  0.3097
 2032SOL    HW217559   2.943   4.306   1.661  0.2442 -1.3505 -0.9222
 2033SOL     OW17560   2.947   0.478   2.498 -0.0866 -0.3596 -0.8614
 2033SOL    HW117561   2.973   0.403   2.551  1.4018  1.1832  0.5916
 2033SOL    HW217562   2.867   0.502   2.544  0.5789 -1.8375  1.0770
 2034SOL     OW17563   1.394   4.565  11.449 -0.1134 -0.0691 -0.0968
 2034SOL    HW117564   1.465   4.507  11.423 -0.2791  0.3149 -1.4043
 2034SOL    HW217565   1.417   4.653  11.419 -0.0624  0.1383  0.5467
 2035SOL     OW17566   2.825   3.773   5.474  0.1524  0.0445 -0.0999
 2035SOL    HW117567   2.756   3.757   5.538 -1.1288  0.9963 -1.2658
 2035SOL    HW217568   2.848   3.861   5.503 -2.3910  0.3339  0.9638
 2036SOL     OW17569   1.243   0.146   1.316  0.0135  0.6360  0.6627
 2036SOL    HW117570   1.247   0.217   1.253  2.8161 -1.0601 -1.0951
 2036SOL    HW217571   1.287   0.190   1.389 -0.3905  0.9682  0.7027
 2037SOL     OW17572   1.485   0.965   7.903 -0.1698 -0.0606 -0.4859
 2037SOL    HW117573   1.517   0.889   7.854 -2.2018 -0.8210 -0.6530
 2037SOL    HW217574   1.391   0.950   7.892  0.1162 -1.0812 -1.5617
 2038SOL     OW17575   2.301   1.919  11.112  0.0323 -0.3221  0.2512
 2038SOL    HW117576   2.393   1.938  11.099  0.2119 -0.2958  1.5512
 2038SOL    HW217577   2.264   2.002  11.082 -1.7191 -0.7595  1.1349
 2039SOL     OW17578   0.644   2.413   1.964  0.3804 -0.0967  0.5926
 2039SOL    HW117579   0.613   2.479   2.027 -0.1285 -0.0552  0.2942
 2039SOL    HW217580   0.724   2.452   1.930  0.9330 -1.5355  0.2510
 2040SOL     OW17581   0.761   1.481   7.869 -0.0528  0.3361  0.4508
 2040SOL    HW117582   0.704   1.448   7.799  0.3434  0.7922 -0.0851
 2040SOL    HW217583   0.729   1.571   7.870 -1.4453 -0.1487  0.1373
 2041SOL     OW17584   1.847   4.181   4.302 -0.4760 -0.2202 -0.1750
 2041SOL    HW117585   1.916   4.246   4.316 -3.0241  2.5110 -0.2111
 2041SOL    HW217586   1.871   4.149   4.216  0.5590  0.5852 -0.1867
 2042SOL     OW17587   1.959   3.183  11.227 -0.1666 -0.2246  0.1946
 2042SOL    HW117588   1.970   3.269  11.268 -2.0093 -0.0386  0.3340
 2042SOL    HW217589   2.051   3.178  11.203 -0.4320 -0.9580 -0.6631
 2043SOL     OW17590   3.328   1.180   4.163  0.0837  0.3802 -0.6409
 2043SOL    HW117591   3.277   1.100   4.178  1.4196  0.0690  2.2607
 2043SOL    HW217592   3.348   1.203   4.254  2.0373  1.0299 -1.2364
 2044SOL     OW17593   1.718   4.501   0.981 -0.1101  0.0495  1.0497
 2044SOL    HW117594   1.675   4.565   1.037  1.2789  0.9796  1.0458
 2044SOL    HW217595   1.797   4.491   1.035 -1.1553 -1.0392  2.3715
 2045SOL     OW17596   0.903   1.532  10.083 -0.3617  0.0250  0.1540
 2045SOL    HW117597   0.931   1.472  10.014 -2.9792 -1.8655  0.7512
 2045SOL    HW217598   0.932   1.486  10.162 -1.1140  0.0713  0.4618
 2046SOL     OW17599   0.976   4.629  14.317 -0.2550  0.8793 -0.5088
 2046SOL    HW117600   0.979   4.661  14.227 -1.6620 -0.9117 -1.2087
 2046SOL    HW217601   1.056   4.575  14.316 -0.8357  0.0415 -1.5146
 2047SOL     OW17602   1.645   3.111   2.829  0.0542 -0.0704 -0.2942
 2047SOL    HW117603   1.625   3.103   2.736  2.0275  0.6853 -0.7869
 2047SOL    HW217604   1.592   3.184   2.860 -0.8510 -1.2208  0.8508
 2048SOL     OW17605   0.079   4.270  10.566 -0.1518  0.0193  0.2389
 2048SOL    HW117606   0.090   4.357  10.604 -0.0863  0.5274 -0.9371
 2048SOL    HW217607   4.714   4.244  10.588 -0.5092  0.8528 -0.2290
 2049SOL     OW17608   4.491   3.125   5.177 -0.1795 -0.1702  0.7744
 2049SOL    HW117609   4.537   3.133   5.260 -1.3437 -1.4219  1.5407
 2049SOL    HW217610   4.567   3.101   5.124  0.0311  0.4082  0.8146
 2050SOL     OW17611   2.580   2.036   7.608 -0.0196  0.8795  0.0490
 2050SOL    HW117612   2.663   2.004   7.642 -0.0962  1.9382  1.2212
 2050SOL    HW217613   2.603   2.089   7.532  0.2666  2.1161  1.0032
 2051SOL     OW17614   4.477   1.276   5.764  0.8138  0.2729 -0.2578
 2051SOL    HW117615   4.385   1.302   5.775  0.7528 -0.1578  0.2547
 2051SOL    HW217616   4.502   1.224   5.841  1.1144 -0.3389 -0.7789
 2052SOL     OW17617   2.527   1.699  16.046  0.4320 -0.0522 -0.6279
 2052SOL    HW117618   2.558   1.730  16.131 -1.1841  1.4231 -0.5693
 2052SOL    HW217619   2.518   1.604  16.054 -1.6548  0.2880  1.3496
 2053SOL     OW17620   0.691   2.955   3.804  0.4342 -0.1210  0.1905
 2053SOL    HW117621   0.704   2.871   3.849  1.0015  0.1449  0.5310
 2053SOL    HW217622   0.774   2.970   3.759  0.1696  1.3546  0.2113
 2054SOL     OW17623   3.588   4.571   8.340 -0.3039  0.1504 -0.5941
 2054SOL    HW117624   3.593   4.548   8.247 -0.4259 -1.7244 -0.1294
 2054SOL    HW217625   3.493   4.568   8.345 -0.3559  1.3981 -0.7049
 2055SOL     OW17626   0.125   3.141   6.993  0.2151 -0.2268 -0.3074
 2055SOL    HW117627   0.187   3.194   7.043  1.0591  0.8919 -2.5539
 2055SOL    HW217628   0.089   3.083   7.060  0.5335 -1.3970 -1.1529
 2056SOL     OW17629   1.098   0.674  10.595  0.3760  0.1316 -0.2003
 2056SOL    HW117630   1.104   0.584  10.626 -0.4548  0.3949  0.7354
 2056SOL    HW217631   1.031   0.663  10.528 -0.1839  0.7943  0.2521
 2057SOL     OW17632   2.071   2.428   2.268 -0.7688  0.2441 -0.4197
 2057SOL    HW117633   2.098   2.445   2.178 -0.3268  1.2345 -0.1031
 2057SOL    HW217634   2.092   2.513   2.307  1.1867 -1.1519  1.5868
 2058SOL     OW17635   1.487   1.916  15.152  0.1622  0.5783  0.1530
 2058SOL    HW117636   1.419   1.893  15.215  1.4850  0.6561  1.6038
 2058SOL    HW217637   1.497   2.009  15.174 -1.9752  1.4123 -2.3221
 2059SOL     OW17638   0.550   2.085   1.973 -0.2334 -0.2846  0.2046
 2059SOL    HW117639   0.618   2.138   2.017 -2.3361  1.7270  1.0839
 2059SOL    HW217640   0.607   2.010   1.955  0.3985  0.6392 -1.6616
 2060SOL     OW17641   2.055   3.746   8.853 -0.1922  0.2726  0.7056
 2060SOL    HW117642   2.117   3.818   8.843  0.4221  0.1037  3.1644
 2060SOL    HW217643   2.097   3.668   8.815 -1.6839  0.4308 -1.2378
 2061SOL     OW17644   3.295   1.044  17.142  0.3318  0.2838 -0.0011
 2061SOL    HW117645   3.319   0.990  17.217 -1.6563 -2.5140 -1.3943
 2061SOL    HW217646   3.202   1.050  17.163  0.2368  3.5417 -1.2870
 2062SOL     OW17647   1.005   1.205  14.454  0.0866 -0.2907 -0.0234
 2062SOL    HW117648   1.009   1.113  14.426  1.5704 -0.2350  0.0174
 2062SOL    HW217649   1.062   1.210  14.530  0.9804  2.3796 -0.8785
 2063SOL     OW17650   0.248   2.458   1.362  0.2478 -0.0569  0.5447
 2063SOL    HW117651   0.185   2.448   1.434 -2.2758  2.3655 -1.3363
 2063SOL    HW217652   0.263   2.551   1.378 -1.6619  0.0115  2.0165
 2064SOL     OW17653   0.292   1.101   3.480 -0.4499  0.5875 -0.4034
 2064SOL    HW117654   0.230   1.151   3.534 -0.9693 -0.8861  0.3805
 2064SOL    HW217655   0.262   1.138   3.397  0.2736  0.0573 -0.8991
 2065SOL     OW17656   4.601   1.829  12.116 -0.1790  0.0567 -0.2469
 2065SOL    HW117657   4.519   1.821  12.068 -0.0371 -0.0008 -0.4805
 2065SOL    HW217658   4.663   1.799  12.050  0.3970 -1.3115  0.8983
 2066SOL     OW17659   0.938   3.559   3.008 -0.2102 -0.2253  0.1797
 2066SOL    HW117660   0.926   3.645   2.968 -2.6498 -0.3162  0.7478
 2066SOL    HW217661   0.913   3.579   3.098 -0.7937 -1.2254  0.2295
 2067SOL     OW17662   0.021   1.426   2.840  0.1666 -0.5410  0.2227
 2067SOL    HW117663   4.668   1.467   2.803 -0.2084 -0.3988  1.1700
 2067SOL    HW217664   0.062   1.408   2.755  0.2412  0.3329  0.0776
 2068SOL     OW17665   1.393   2.967   6.893 -0.0747 -0.6677 -0.9003
 2068SOL    HW117666   1.460   3.027   6.861 -0.6499  0.2384 -0.4316
 2068SOL    HW217667   1.436   2.953   6.977  0.5631  2.3060 -0.7313
 2069SOL     OW17668   4.376   4.430   7.232 -0.2085  0.0712  0.9265
 2069SOL    HW117669   4.307   4.436   7.297 -0.7074  0.4429  0.3635
 2069SOL    HW217670   4.318   4.407   7.160 -1.8417  0.4915  2.1157
 2070SOL     OW17671   3.100   3.411   6.477 -0.2242 -0.0084  0.3529
 2070SOL    HW117672   3.140   3.384   6.559  0.5385 -3.0263 -0.9985
 2070SOL    HW217673   3.008   3.415   6.502  0.1460 -1.1962  1.8406
 2071SOL     OW17674   1.650   0.650   5.775  0.1636 -0.4156  0.2353
 2071SOL    HW117675   1.693   0.708   5.838 -0.2810 -1.1234  1.1846
 2071SOL    HW217676   1.560   0.682   5.767 -0.0692 -0.6084  2.1238
 2072SOL     OW17677   1.749   3.149   8.612  0.3543 -0.0193  0.7703
 2072SOL    HW117678   1.831   3.194   8.632  0.7059  0.2460 -1.3390
 2072SOL    HW217679   1.758   3.069   8.664 -0.6589  0.8450  2.3069
 2073SOL     OW17680   0.483   1.481   5.460  0.2620  0.3283  0.4657
 2073SOL    HW117681   0.515   1.443   5.543  1.2547  0.6661  0.2383
 2073SOL    HW217682   0.388   1.474   5.472  0.0964  0.3193 -0.9064
 2074SOL     OW17683   4.569   3.210   3.061  0.1488  0.1911  0.0403
 2074SOL    HW117684   4.583   3.305   3.065 -0.8378  0.2939  0.9231
 2074SOL    HW217685   4.488   3.212   3.011  0.7998 -0.3468 -1.0461
 2075SOL     OW17686   1.614   2.112   5.909 -0.3591  0.1544 -0.1697
 2075SOL    HW117687   1.574   2.054   5.844 -2.0461  1.3430 -0.2029
 2075SOL    HW217688   1.560   2.099   5.986 -0.8834 -1.7000 -0.8587
 2076SOL     OW17689   2.217   1.620   2.439  0.4580  0.3218 -0.6470
 2076SOL    HW117690   2.203   1.679   2.365  2.4001 -2.0490 -2.8856
 2076SOL    HW217691   2.247   1.676   2.511 -1.3319  0.8830 -0.3511
 2077SOL     OW17692   3.498   3.708  15.354 -0.5624  0.0125  0.1175
 2077SOL    HW117693   3.529   3.729  15.443 -0.3158  3.1780 -0.7170
 2077SOL    HW217694   3.475   3.794  15.320 -1.1648 -0.3439 -0.3779
 2078SOL     OW17695   0.749   0.121   4.687 -0.5588  0.0506  0.1134
 2078SOL    HW117696   0.732   0.036   4.648  0.0569  0.0893 -0.2456
 2078SOL    HW217697   0.767   0.172   4.608 -2.5500 -0.2017 -0.4897
 2079SOL     OW17698   1.590   2.523  11.378 -0.6422  0.5088  0.0081
 2079SOL    HW117699   1.663   2.579  11.350 -0.0589 -0.8945 -1.2796
 2079SOL    HW217700   1.635   2.440  11.396 -1.0150  0.5316  1.0315
 2080SOL     OW17701   0.865   1.755   6.569 -0.4032 -0.6797 -0.0426
 2080SOL    HW117702   0.879   1.805   6.649 -0.1015 -0.4840 -0.2207
 2080SOL    HW217703   0.955   1.726   6.553 -0.0779  1.1921 -1.5070
 2081SOL     OW17704   2.671   4.590  15.773  0.0230  0.3808 -0.1301
 2081SOL    HW117705   2.606   4.646  15.731 -0.3881 -0.5233 -0.6962
 2081SOL    HW217706   2.617   4.524  15.816  1.6925 -0.3034  0.9012
 2082SOL     OW17707   2.340   3.637   5.879  0.1301  0.3295 -0.1999
 2082SOL    HW117708   2.419   3.684   5.850 -1.2878  3.6616  1.4048
 2082SOL    HW217709   2.353   3.626   5.973 -0.6053 -1.2597 -0.2728
 2083SOL     OW17710   1.755   0.190  14.116 -0.1439 -0.1856  0.0623
 2083SOL    HW117711   1.777   0.131  14.044  0.7670  0.5538 -0.2604
 2083SOL    HW217712   1.839   0.221  14.150  0.0649 -0.4029 -0.2619
 2084SOL     OW17713   4.413   0.184  13.725 -0.1192  0.5625 -1.2370
 2084SOL    HW117714   4.411   0.154  13.816  0.4304  2.1640 -0.6927
 2084SOL    HW217715   4.337   0.142  13.684  1.3726 -0.2898 -3.1303
 2085SOL     OW17716   1.704   3.563   0.811 -0.0455  0.0717  0.3893
 2085SOL    HW117717   1.702   3.595   0.721  1.8204 -0.5267  0.1535
 2085SOL    HW217718   1.631   3.501   0.804 -0.7777  0.8101  1.3247
 2086SOL     OW17719   3.743   3.000  15.821 -0.1042  0.7920 -0.2334
 2086SOL    HW117720   3.728   2.932  15.755 -0.1379  2.7299 -2.1922
 2086SOL    HW217721   3.806   3.058  15.780 -0.2193  0.6158 -0.6646
 2087SOL     OW17722   3.272   0.251   7.068 -0.1097  0.0629  0.4004
 2087SOL    HW117723   3.239   0.163   7.082 -0.2740  0.0398 -0.1424
 2087SOL    HW217724   3.354   0.228   7.024  0.1861  0.9476  0.4787
 2088SOL     OW17725   3.663   1.893   7.577  0.2719  0.4916 -0.2831
 2088SOL    HW117726   3.592   1.883   7.513  0.9864  0.2250 -1.0252
 2088SOL    HW217727   3.721   1.833   7.531  0.3383 -0.3577  0.9161
 2089SOL     OW17728   2.662   0.023  12.637  0.1370  0.0323  0.5026
 2089SOL    HW117729   2.693   0.045  12.725 -0.2711 -2.1660  1.1862
 2089SOL    HW217730   2.722   0.078  12.586 -0.4754  0.8121  0.6295
 2090SOL     OW17731   3.337   3.929  16.053  0.3486  0.2903  0.1409
 2090SOL    HW117732   3.406   3.882  16.101 -0.0795  2.1521  2.5436
 2090SOL    HW217733   3.318   4.001  16.113 -0.3907 -0.0820  0.3559
 2091SOL     OW17734   1.788   4.153   0.306 -0.6755 -0.6721 -0.2335
 2091SOL    HW117735   1.804   4.064   0.277 -1.5990  0.0396 -2.9507
 2091SOL    HW217736   1.831   4.190   0.229 -0.7984 -0.4901 -0.2146
 2092SOL     OW17737   1.480   3.342  12.920  0.0081  0.0061  0.1600
 2092SOL    HW117738   1.575   3.340  12.909 -0.2339 -1.1525 -1.6693
 2092SOL    HW217739   1.459   3.250  12.906  3.1440 -0.5368 -1.0312
 2093SOL     OW17740   0.510   2.785   2.759 -0.2110  0.5608  0.2836
 2093SOL    HW117741   0.562   2.860   2.789  0.0747  0.0535  1.0757
 2093SOL    HW217742   0.527   2.728   2.834  0.7703  0.0706 -0.3072
 2094SOL     OW17743   3.720   3.318  10.530  0.3151 -0.5241 -0.6673
 2094SOL    HW117744   3.814   3.335  10.520  0.1522  0.9878  0.4140
 2094SOL    HW217745   3.679   3.376  10.467  1.5457  1.2117  0.1207
 2095SOL     OW17746   1.340   2.806  15.596 -0.5489  1.1458 -0.2210
 2095SOL    HW117747   1.326   2.739  15.529  0.7148  0.3299  0.3342
 2095SOL    HW217748   1.403   2.849  15.538 -0.4382  0.1842 -0.8307
 2096SOL     OW17749   0.368   3.612   7.757  0.4322 -0.0731  0.0233
 2096SOL    HW117750   0.385   3.638   7.667 -2.7628  0.6471 -0.3688
 2096SOL    HW217751   0.273   3.599   7.763  0.4912 -0.5474 -0.0687
 2097SOL     OW17752   2.525   1.364  15.079  0.5013 -0.4758  0.8248
 2097SOL    HW117753   2.585   1.354  15.006  2.2829 -0.1124  2.2567
 2097SOL    HW217754   2.555   1.450  15.108  1.5111 -0.6921  0.4176
 2098SOL     OW17755   2.200   0.181  17.221  0.8714  0.0396  0.5461
 2098SOL    HW117756   2.155   0.196  17.304  0.2730 -2.7816  0.7100
 2098SOL    HW217757   2.155   0.244  17.164  0.8027 -0.4011  0.1114
 2099SOL     OW17758   2.688   4.625   5.508  0.1458  0.0213  0.4680
 2099SOL    HW117759   2.598   4.596   5.492 -0.0606  1.1247 -0.3703
 2099SOL    HW217760   2.697   4.627   5.603  0.5174  0.9378  0.4111
 2100SOL     OW17761   1.292   0.424   1.731 -0.2985  0.1393  0.5937
 2100SOL    HW117762   1.259   0.513   1.745 -2.9926 -0.7943  0.2048
 2100SOL    HW217763   1.218   0.366   1.748 -0.2526  0.0084  0.3444
 2101SOL     OW17764   2.370   3.687   9.027  0.5521  0.0829  0.1393
 2101SOL    HW117765   2.364   3.746   8.952 -2.0469  0.6969  0.8492
 2101SOL    HW217766   2.381   3.752   9.097 -1.3841 -0.1009  0.5998
 2102SOL     OW17767   2.380   0.625   3.385 -0.6200 -0.3552 -0.7039
 2102SOL    HW117768   2.397   0.706   3.338 -1.7549  0.9124  1.0476
 2102SOL    HW217769   2.419   0.559   3.328 -0.2045 -2.4612  1.9694
 2103SOL     OW17770   3.793   4.656   2.594 -0.3137  0.0169  0.0723
 2103SOL    HW117771   3.729   4.624   2.531 -0.4981  1.5138 -0.4965
 2103SOL    HW217772   3.779   0.023   2.571 -0.6357 -0.0301  0.0775
 2104SOL     OW17773   1.790   4.121   4.564  0.0868 -0.1929  0.3215
 2104SOL    HW117774   1.804   4.133   4.470 -3.2424  0.3619 -0.1134
 2104SOL    HW217775   1.872   4.083   4.597  0.3992 -1.9613 -2.4504
 2105SOL     OW17776   2.903   2.601   0.847  0.3595  0.3468 -0.2229
 2105SOL    HW117777   2.816   2.614   0.808  0.2363  2.7790  0.8882
 2105SOL    HW217778   2.952   2.672   0.805  1.2473 -0.7498 -1.0276
 2106SOL     OW17779   2.455   1.375   4.442 -0.4535  0.1216 -0.3681
 2106SOL    HW117780   2.452   1.438   4.370  3.1233  4.2551  3.0461
 2106SOL    HW217781   2.463   1.290   4.400  0.9773  0.2973 -0.4353
 2107SOL     OW17782   1.825   0.982   7.317  0.0554 -0.4634 -0.5012
 2107SOL    HW117783   1.755   1.048   7.313 -0.1215 -0.5749  1.0075
 2107SOL    HW217784   1.845   0.986   7.223  2.5301 -0.4106  0.0266
 2108SOL     OW17785   0.602   0.792  14.446  0.2051  0.2153  0.1398
 2108SOL    HW117786   0.592   0.800  14.541  0.1848  0.9313  0.0804
 2108SOL    HW217787   0.511   0.797  14.416  0.2641 -0.5646 -0.1717
 2109SOL     OW17788   2.189   1.746  12.245  0.5576 -0.3016 -0.0561
 2109SOL    HW117789   2.209   1.691  12.169  1.7724 -1.5086  1.1507
 2109SOL    HW217790   2.273   1.789  12.261  0.2656  0.6146 -0.9248
 2110SOL     OW17791   0.642   0.705   4.978 -0.9449 -0.1682 -0.0080
 2110SOL    HW117792   0.667   0.770   4.912 -1.4281  0.4877  0.4491
 2110SOL    HW217793   0.577   0.657   4.928  0.0840 -2.4983  0.9145
 2111SOL     OW17794   4.125   3.729   1.954  0.3995  0.0274  0.4305
 2111SOL    HW117795   4.155   3.802   1.900  0.6859 -1.2476 -1.1147
 2111SOL    HW217796   4.189   3.665   1.925  0.8981  0.9552 -0.5436
 2112SOL     OW17797   0.270   1.530  13.876  0.3411 -0.0271 -0.8857
 2112SOL    HW117798   0.261   1.445  13.919  0.3375  0.5158  0.2084
 2112SOL    HW217799   0.365   1.537  13.867  0.3994 -0.7770 -0.8285
 2113SOL     OW17800   2.126   1.163   7.744  0.3265 -0.1056  0.6438
 2113SOL    HW117801   2.051   1.209   7.705  1.3532  0.4408 -0.6595
 2113SOL    HW217802   2.183   1.231   7.779  0.2613  1.7014 -2.7531
 2114SOL     OW17803   4.003   2.305  11.763  0.1905 -0.4274 -0.3208
 2114SOL    HW117804   3.910   2.322  11.771  0.4473  0.8052 -0.0801
 2114SOL    HW217805   4.029   2.344  11.846 -0.6817 -0.1056 -0.2057
 2115SOL     OW17806   2.981   1.631  16.968  0.0170  0.2517  0.1299
 2115SOL    HW117807   3.057   1.674  17.010 -0.8167  1.0401  0.8415
 2115SOL    HW217808   2.917   1.693  16.933  0.7375 -0.6960 -2.7986
 2116SOL     OW17809   0.218   2.604   7.303  0.2050  0.2696  0.2862
 2116SOL    HW117810   0.314   2.600   7.305  0.1340 -1.1348  0.9234
 2116SOL    HW217811   0.203   2.548   7.227  0.5163  1.4410 -0.6336
 2117SOL     OW17812   2.742   4.485   2.136  0.4427  0.0072  0.0814
 2117SOL    HW117813   2.749   4.434   2.217  4.2292 -1.8786 -1.4770
 2117SOL    HW217814   2.733   4.418   2.069 -1.4032  0.9471 -0.6157
 2118SOL     OW17815   4.578   1.437   5.575  0.4460  0.4002  0.6743
 2118SOL    HW117816   4.662   1.409   5.538  0.3522 -0.3656  1.0429
 2118SOL    HW217817   4.566   1.368   5.640  0.3675  0.5856  0.8572
 2119SOL     OW17818   4.164   0.623  11.185 -0.0377  0.2341 -0.4094
 2119SOL    HW117819   4.237   0.573  11.148  0.3103  0.5955 -0.2014
 2119SOL    HW217820   4.098   0.589  11.124 -0.6961  0.7431  0.0343
 2120SOL     OW17821   2.095   0.072  14.083  0.0722  0.6825  0.0059
 2120SOL    HW117822   2.076   0.121  14.163 -0.7030 -0.2942  0.4038
 2120SOL    HW217823   2.079   4.709  14.116 -0.8692  0.7375 -0.3090
 2121SOL     OW17824   3.205   1.175  16.882 -0.5491 -0.5513 -0.3829
 2121SOL    HW117825   3.122   1.163  16.928 -0.1256 -0.7368  0.3303
 2121SOL    HW217826   3.260   1.131  16.947 -0.8618  1.0230  0.9273
 2122SOL     OW17827   2.527   0.424  16.744 -0.3029  0.3280  0.0422
 2122SOL    HW117828   2.511   0.476  16.666  0.5989 -1.8365 -1.6039
 2122SOL    HW217829   2.455   0.444  16.804 -0.0357 -0.4138  0.6235
 2123SOL     OW17830   0.650   1.412  10.501  0.0611 -0.0926 -0.1069
 2123SOL    HW117831   0.585   1.451  10.561  0.0084  0.7159 -0.6861
 2123SOL    HW217832   0.637   1.318  10.514  1.6767 -0.1483  0.9995
 2124SOL     OW17833   3.798   4.228  15.293 -0.8961 -0.4305  0.5371
 2124SOL    HW117834   3.727   4.178  15.253  0.2391  0.2253 -2.3333
 2124SOL    HW217835   3.881   4.198  15.255 -1.8098 -1.5582 -0.5648
 2125SOL     OW17836   3.795   4.339   1.950 -0.1296 -0.3028  0.4144
 2125SOL    HW117837   3.790   4.245   1.931  0.5883  0.0004 -1.2584
 2125SOL    HW217838   3.856   4.365   1.881  2.0252 -0.8137  2.1295
 2126SOL     OW17839   2.747   0.480  17.439  0.2734 -0.0090  0.2532
 2126SOL    HW117840   2.840   0.459  17.426  0.1696 -1.0752  1.2249
 2126SOL    HW217841   2.753   0.542  17.511 -1.6059  0.9588 -0.4183
 2127SOL     OW17842   3.158   2.163  14.383  0.4653 -0.1608 -0.1955
 2127SOL    HW117843   3.239   2.165  14.332 -0.1749  0.2674 -1.1868
 2127SOL    HW217844   3.158   2.256  14.404 -2.0288 -0.0502 -0.6696
 2128SOL     OW17845   1.541   3.032   0.690  0.8549 -0.1316 -0.1336
 2128SOL    HW117846   1.582   3.087   0.758  0.2651  0.3295 -0.1566
 2128SOL    HW217847   1.581   3.081   0.618  1.0155  0.3094  0.2520
 2129SOL     OW17848   4.541   4.028   8.310 -0.1084 -0.1663  0.4047
 2129SOL    HW117849   4.471   3.971   8.344 -1.4932  1.3936  0.1765
 2129SOL    HW217850   4.503   4.114   8.327  1.3754  1.0548 -2.5687
 2130SOL     OW17851   1.763   0.503   3.521 -0.0635  0.2837  0.6682
 2130SOL    HW117852   1.753   0.413   3.491  0.5010  0.2270  0.6447
 2130SOL    HW217853   1.694   0.500   3.587  0.1557  1.0991  0.9352
 2131SOL     OW17854   0.592   0.814  17.467 -0.5319  0.3852 -0.5944
 2131SOL    HW117855   0.521   0.785  17.525 -0.0848  0.4304 -0.0243
 2131SOL    HW217856   0.612   0.892  17.519  2.1282 -0.8479  0.2101
 2132SOL     OW17857   2.208   0.369  12.625  0.1438  0.4388  0.4122
 2132SOL    HW117858   2.191   0.457  12.659  1.9895  1.0475 -0.2736
 2132SOL    HW217859   2.283   0.367  12.566 -2.2966 -1.6269 -2.6431
 2133SOL     OW17860   1.600   1.365   3.257 -0.2988  0.8544  0.3544
 2133SOL    HW117861   1.535   1.427   3.224 -0.5262  0.7369  0.5861
 2133SOL    HW217862   1.604   1.306   3.182 -1.4094  0.2974  0.7315
 2134SOL     OW17863   0.607   3.328   4.062  0.3686  0.2098  0.5350
 2134SOL    HW117864   0.660   3.407   4.057 -2.3093  1.9575 -0.7473
 2134SOL    HW217865   0.521   3.365   4.086  0.4900  0.7485  0.1503
 2135SOL     OW17866   0.705   1.899   3.287  0.1452 -0.0792 -0.7946
 2135SOL    HW117867   0.715   1.977   3.233 -1.4222  0.3693 -0.4412
 2135SOL    HW217868   0.666   1.939   3.365  1.4536  0.4826 -0.4145
 2136SOL     OW17869   4.181   3.331   0.061  0.0220 -0.4933  0.4420
 2136SOL    HW117870   4.160   3.350  17.670  1.3882 -0.9765  0.0215
 2136SOL    HW217871   4.276   3.342   0.059 -0.1278  0.4413 -1.2254
 2137SOL     OW17872   2.978   2.515   4.031 -0.5013 -0.4301  0.1832
 2137SOL    HW117873   3.067   2.514   3.995 -0.2060  0.0850  0.9194
 2137SOL    HW217874   2.953   2.606   4.015 -1.2939 -1.0382 -2.0845
 2138SOL     OW17875   3.655   1.849   4.635 -0.3948 -0.2317 -0.9051
 2138SOL    HW117876   3.744   1.853   4.601  0.7157 -3.2982  1.5586
 2138SOL    HW217877   3.665   1.765   4.681  2.9709  0.7891  0.2312
 2139SOL     OW17878   2.824   3.401   2.241  0.0061  1.0416 -0.0101
 2139SOL    HW117879   2.788   3.362   2.161  0.0612  1.2023 -0.1135
 2139SOL    HW217880   2.862   3.323   2.282  0.9482  2.0679  1.0625
 2140SOL     OW17881   1.348   2.523  12.413 -0.1109 -0.0307  0.3608
 2140SOL    HW117882   1.428   2.565  12.443 -0.8638  2.5869 -1.3172
 2140SOL    HW217883   1.312   2.587  12.351  1.4148  0.1057 -0.3633
 2141SOL     OW17884   1.615   0.669  11.161 -0.0482  0.6762 -0.4161
 2141SOL    HW117885   1.704   0.688  11.191  0.4578  1.3586 -2.4034
 2141SOL    HW217886   1.575   0.639  11.243  0.2422 -0.5689 -0.7230
 2142SOL     OW17887   4.053   1.103  11.244  0.1065 -0.2777 -0.3181
 2142SOL    HW117888   4.018   1.016  11.224 -1.5550 -0.1706  2.1442
 2142SOL    HW217889   4.123   1.074  11.302 -1.1039  0.5496  1.5404
 2143SOL     OW17890   2.133   0.803   2.996  0.2919 -0.3061  0.2527
 2143SOL    HW117891   2.148   0.879   3.052 -3.0616  0.4572  0.1394
 2143SOL    HW217892   2.066   0.839   2.938 -0.2330  1.9403  2.2286
 2144SOL     OW17893   2.669   0.605   5.911  0.4945 -0.4264 -0.2391
 2144SOL    HW117894   2.696   0.607   5.820 -0.5559 -0.4192 -0.5557
 2144SOL    HW217895   2.575   0.596   5.897  0.0338  5.4300 -1.0100
 2145SOL     OW17896   4.364   4.461   6.647  0.5719 -0.2111 -0.0536
 2145SOL    HW117897   4.402   4.547   6.663 -1.7008  0.3339  2.4099
 2145SOL    HW217898   4.312   4.480   6.569  2.3543 -0.0791 -1.1951
 2146SOL     OW17899   0.550   3.995   7.842  0.4340 -0.3721  0.1743
 2146SOL    HW117900   0.561   3.902   7.860  2.4089  0.0607  1.2099
 2146SOL    HW217901   0.621   4.001   7.778 -0.9801  1.0228 -1.2741
 2147SOL     OW17902   1.362   0.462   3.314  0.7084  0.5155  0.1494
 2147SOL    HW117903   1.448   0.500   3.299  2.2224 -2.4754  1.3884
 2147SOL    HW217904   1.372   0.455   3.409  0.1859 -2.3154 -0.0191
 2148SOL     OW17905   2.009   0.849  12.554 -0.1755 -0.4818 -0.2861
 2148SOL    HW117906   2.064   0.880  12.625  0.4119 -1.9245 -0.1257
 2148SOL    HW217907   2.050   0.882  12.474  0.2398  0.6909  0.4094
 2149SOL     OW17908   1.495   0.726   6.489 -0.2552 -0.1476 -0.4806
 2149SOL    HW117909   1.502   0.709   6.395 -1.4632  0.3726 -0.6663
 2149SOL    HW217910   1.553   0.662   6.531  0.8805 -0.7377 -2.9662
 2150SOL     OW17911   1.030   2.645   2.074  0.1063 -0.2079  0.0371
 2150SOL    HW117912   1.117   2.651   2.034  0.0417  0.5775  0.0123
 2150SOL    HW217913   1.007   2.738   2.079  3.6290  0.7460 -1.4693
 2151SOL     OW17914   1.176   3.941  13.353  0.2174  0.1088 -0.3352
 2151SOL    HW117915   1.150   4.026  13.317 -1.5677 -0.3516 -0.1219
 2151SOL    HW217916   1.238   3.904  13.290 -2.1742  0.1913 -2.7109
 2152SOL     OW17917   0.060   4.051  16.289  0.2818 -0.2248  0.2420
 2152SOL    HW117918   0.001   4.123  16.266  0.3783 -0.4194 -0.6082
 2152SOL    HW217919   0.024   4.016  16.371 -1.2957 -0.2638 -0.4673
 2153SOL     OW17920   0.491   4.478   8.393 -0.7368  0.7028  0.1282
 2153SOL    HW117921   0.586   4.478   8.409 -0.5402  0.2230 -1.0452
 2153SOL    HW217922   0.483   4.574   8.392  2.3335  0.9977  0.8258
 2154SOL     OW17923   1.893   2.702   7.963 -0.3313  0.7211  0.1178
 2154SOL    HW117924   1.954   2.774   7.971 -0.2520  0.5560  0.9252
 2154SOL    HW217925   1.812   2.746   7.988  0.1213  3.4553 -3.1168
 2155SOL     OW17926   1.731   4.035  14.346 -0.3095  0.0123  0.0124
 2155SOL    HW117927   1.698   4.052  14.258 -3.0548  0.3052  1.1006
 2155SOL    HW217928   1.820   4.013  14.321 -1.3674 -0.6803 -3.0501
 2156SOL     OW17929   0.986   0.117  14.488 -0.2225 -0.2533  0.3223
 2156SOL    HW117930   0.991   0.043  14.427  0.5860  0.4519 -0.4800
 2156SOL    HW217931   1.030   0.081  14.565  0.4757 -0.3301 -0.1142
 2157SOL     OW17932   3.940   2.312   3.129  0.3794  0.1759 -0.3102
 2157SOL    HW117933   3.935   2.273   3.042  1.2562  1.7106 -1.0401
 2157SOL    HW217934   3.919   2.232   3.178 -1.2472  0.6604 -0.1997
 2158SOL     OW17935   1.426   1.898   3.435 -0.6130 -0.2597  0.0638
 2158SOL    HW117936   1.485   1.936   3.501  0.9831 -2.1360 -0.2938
 2158SOL    HW217937   1.489   1.852   3.381 -0.2559 -0.3152  0.5291
 2159SOL     OW17938   1.184   0.920   9.628 -0.0618 -0.9945  0.4870
 2159SOL    HW117939   1.275   0.943   9.649 -0.4062  0.5867  0.2661
 2159SOL    HW217940   1.182   0.951   9.537 -0.3174 -0.6286  0.6178
 2160SOL     OW17941   0.743   4.119   5.091  0.8405 -0.0276 -0.2572
 2160SOL    HW117942   0.756   4.076   5.176  1.5512  0.1953 -0.2518
 2160SOL    HW217943   0.686   4.183   5.133 -0.6625  0.0680 -2.4582
 2161SOL     OW17944   1.961   1.227   9.626  0.8668  0.1846  0.1690
 2161SOL    HW117945   2.031   1.268   9.575  1.3217 -2.3727 -1.2890
 2161SOL    HW217946   1.922   1.167   9.563  2.4378 -1.4423  0.7522
 2162SOL     OW17947   4.716   0.949   5.568  0.1195 -0.1480  0.1388
 2162SOL    HW117948   0.066   0.974   5.623 -0.4245  0.6990  0.4906
 2162SOL    HW217949   0.024   0.947   5.478  4.4921 -1.1302  1.7346
 2163SOL     OW17950   1.745   0.464   8.720  0.1819  0.0061 -0.0442
 2163SOL    HW117951   1.701   0.401   8.664  1.0153  0.1186 -0.8195
 2163SOL    HW217952   1.818   0.409   8.750  0.4468 -0.8617 -2.3182
 2164SOL     OW17953   4.643   3.567   8.844  0.6146  0.1900  0.0770
 2164SOL    HW117954   4.554   3.586   8.817  1.2857  1.8727 -1.0059
 2164SOL    HW217955   4.634   3.478   8.876 -1.0233  0.2361 -0.2927
 2165SOL     OW17956   3.339   2.975  14.359  0.4586  0.4935  0.0965
 2165SOL    HW117957   3.270   2.964  14.425 -1.0125  0.9168 -1.3622
 2165SOL    HW217958   3.414   2.958  14.415 -0.1054 -1.1705  0.3633
 2166SOL     OW17959   0.790   0.598   9.377 -0.2689 -0.0288 -0.0706
 2166SOL    HW117960   0.835   0.667   9.425 -1.6252  1.3462 -0.7684
 2166SOL    HW217961   0.770   0.647   9.297  0.7958  1.0787  0.3356
 2167SOL     OW17962   1.952   2.566   3.489 -0.4029 -0.8573  0.4217
 2167SOL    HW117963   1.939   2.495   3.425  2.7750 -0.3360 -0.8359
 2167SOL    HW217964   1.885   2.622   3.451 -0.4139 -0.1588  1.4703
 2168SOL     OW17965   4.022   1.531   8.748 -0.6578  0.0093 -0.1968
 2168SOL    HW117966   4.086   1.598   8.725  2.1545 -1.1369  4.2481
 2168SOL    HW217967   3.962   1.585   8.800  0.4611  0.6158  0.4698
 2169SOL     OW17968   1.555   1.163   3.787 -0.3727 -0.4060  0.1316
 2169SOL    HW117969   1.606   1.224   3.734  0.3423 -0.1758  1.0787
 2169SOL    HW217970   1.588   1.192   3.872  0.7221 -1.1485 -0.0364
 2170SOL     OW17971   3.263   3.067  12.022 -0.4210 -0.3401  0.0349
 2170SOL    HW117972   3.312   2.986  12.037 -0.3271 -0.4486 -0.8068
 2170SOL    HW217973   3.337   3.126  12.007  2.4152 -3.8416  0.2981
 2171SOL     OW17974   1.023   0.925  10.810  0.0423  0.3431 -0.1867
 2171SOL    HW117975   1.087   0.872  10.856 -2.1334  0.1815  2.6562
 2171SOL    HW217976   1.073   1.006  10.800 -0.6481  0.4197 -3.0708
 2172SOL     OW17977   0.434   1.400   5.909 -0.0247 -0.4120  0.1054
 2172SOL    HW117978   0.431   1.495   5.895 -0.1607 -0.2498  1.2379
 2172SOL    HW217979   0.340   1.382   5.904  0.0938 -1.3480  1.1458
 2173SOL     OW17980   3.540   0.493  13.227 -0.1916 -0.2789 -0.2802
 2173SOL    HW117981   3.522   0.504  13.320 -0.1722 -1.2724 -0.1520
 2173SOL    HW217982   3.455   0.461  13.198 -0.8689  0.3819  1.0057
 2174SOL     OW17983   4.318   2.832   6.580  0.0029 -0.1685  0.3890
 2174SOL    HW117984   4.368   2.899   6.626  2.1904  1.1910 -3.9363
 2174SOL    HW217985   4.233   2.875   6.564  0.3143  0.0696 -0.6683
 2175SOL     OW17986   3.850   1.204  11.440  0.5017 -0.3117 -0.1233
 2175SOL    HW117987   3.786   1.133  11.438 -0.0949  0.2259  0.0296
 2175SOL    HW217988   3.886   1.180  11.354 -0.1329  1.5613 -0.8982
 2176SOL     OW17989   3.966   2.688   4.173  0.7876 -0.2897 -0.3185
 2176SOL    HW117990   3.951   2.596   4.193  1.6018 -0.7953 -2.0436
 2176SOL    HW217991   4.031   2.707   4.241 -1.8625 -0.2130  2.1638
 2177SOL     OW17992   4.281   4.139   9.802 -0.1472  0.9979  0.0568
 2177SOL    HW117993   4.301   4.073   9.869 -1.8655  1.8684  1.4065
 2177SOL    HW217994   4.216   4.197   9.841 -0.7331 -0.3210  1.0335
 2178SOL     OW17995   3.942   0.770   3.304 -0.3025  0.0048 -0.0438
 2178SOL    HW117996   3.972   0.758   3.214 -1.1144  0.1293 -0.3297
 2178SOL    HW217997   3.899   0.690   3.334  0.0487  0.0456  0.5708
 2179SOL     OW17998   4.694   3.479   1.182  0.2602  0.6209  0.3127
 2179SOL    HW117999   0.045   3.518   1.226  1.2095 -0.2938 -0.5020
 2179SOL    HW218000   4.719   3.388   1.198 -3.2132 -0.7960 -2.3724
 2180SOL     OW18001   3.919   4.430  13.201 -0.2250 -0.0558  0.1244
 2180SOL    HW118002   3.978   4.420  13.125  0.1850  5.4014 -0.2818
 2180SOL    HW218003   3.868   4.349  13.194 -0.2182 -0.0019 -0.5608
 2181SOL     OW18004   2.710   0.926   4.696  0.4646 -0.1933  0.4436
 2181SOL    HW118005   2.783   0.941   4.636 -0.4024  1.2357 -0.2502
 2181SOL    HW218006   2.738   0.859   4.758 -1.4199 -2.0375 -0.6734
 2182SOL     OW18007   0.221   3.239  13.500  0.1455  0.2113 -0.4333
 2182SOL    HW118008   0.163   3.268  13.429  0.3203  1.5297 -0.0285
 2182SOL    HW218009   0.302   3.289  13.495 -1.1781  2.3366 -0.4606
 2183SOL     OW18010   0.217   0.870   3.168  0.6945  0.4277 -0.5200
 2183SOL    HW118011   0.202   0.796   3.109 -0.3248 -1.0279  1.5664
 2183SOL    HW218012   0.256   0.931   3.105  2.6701  0.7011  0.9368
 2184SOL     OW18013   4.376   4.359   3.984 -0.0488  0.3378  0.5546
 2184SOL    HW118014   4.335   4.337   3.901  0.4866  0.0098  0.3783
 2184SOL    HW218015   4.321   4.305   4.040  1.1783  0.2835  1.7205
 2185SOL     OW18016   4.247   0.506   0.367  0.1829 -0.4663  0.4935
 2185SOL    HW118017   4.166   0.469   0.402  1.1963 -1.7410  1.4974
 2185SOL    HW218018   4.226   0.599   0.374 -0.9177 -0.8263  1.9711
 2186SOL     OW18019   1.070   1.244   5.621  0.2025  0.2896  0.4899
 2186SOL    HW118020   1.034   1.295   5.694  0.0599  0.4831  0.2878
 2186SOL    HW218021   1.161   1.239   5.649  0.5313  3.4906  0.0335
 2187SOL     OW18022   3.547   3.743  13.240 -0.1095 -0.0518 -0.6574
 2187SOL    HW118023   3.571   3.796  13.316 -0.3651 -1.8924  0.7033
 2187SOL    HW218024   3.528   3.663  13.289  1.4947 -0.3723 -0.5592
 2188SOL     OW18025   3.254   2.305   6.482 -0.1467  0.3416 -0.5258
 2188SOL    HW118026   3.234   2.255   6.403  0.2704  0.3162 -0.6174
 2188SOL    HW218027   3.249   2.390   6.437  0.8246  1.2725  1.1466
 2189SOL     OW18028   2.683   2.520   9.186  0.1497  0.3651  0.1596
 2189SOL    HW118029   2.684   2.426   9.208 -0.2004  0.2358 -0.3758
 2189SOL    HW218030   2.713   2.557   9.268 -0.9958  1.2574  0.1698
 2190SOL     OW18031   2.395   1.682   4.880 -0.0291  0.0000  0.0193
 2190SOL    HW118032   2.311   1.638   4.866 -0.4113  0.2909  1.4174
 2190SOL    HW218033   2.434   1.670   4.793  1.9390 -2.0891  1.1923
 2191SOL     OW18034   2.951   2.532   4.998 -0.4062 -0.4223  0.6562
 2191SOL    HW118035   2.920   2.481   4.922 -0.8822 -0.1476  0.6631
 2191SOL    HW218036   2.877   2.585   5.027 -1.1580 -0.3167 -1.4249
 2192SOL     OW18037   3.187   3.049   0.192  0.2211 -0.1309  0.4130
 2192SOL    HW118038   3.280   3.035   0.172  0.5783 -0.4934  2.3667
 2192SOL    HW218039   3.160   3.072   0.103  1.2091 -0.8416 -0.0735
 2193SOL     OW18040   1.566   2.666   0.223  0.1711 -0.2524  0.1347
 2193SOL    HW118041   1.647   2.616   0.215  0.1977  0.1499 -2.0034
 2193SOL    HW218042   1.581   2.714   0.305 -0.8670 -0.3150  0.3606
 2194SOL     OW18043   1.878   0.988   7.032 -0.2069 -0.2940 -0.1232
 2194SOL    HW118044   1.791   0.997   6.993 -0.0076  1.1263 -0.2349
 2194SOL    HW218045   1.934   0.975   6.956 -1.4646  0.0517 -1.1123
 2195SOL     OW18046   2.419   3.308   6.551 -0.5363  0.0986 -0.5933
 2195SOL    HW118047   2.484   3.257   6.600 -1.9606 -1.9683 -0.8224
 2195SOL    HW218048   2.359   3.244   6.512 -1.9699 -0.2175  2.1084
 2196SOL     OW18049   3.771   4.042  12.909  0.4627 -0.3842  0.1034
 2196SOL    HW118050   3.764   4.131  12.944 -0.9097 -1.3258  2.2475
 2196SOL    HW218051   3.691   3.995  12.933  0.4286 -0.0647  0.6179
 2197SOL     OW18052   3.664   1.537   2.126 -0.2313  0.0918 -0.0384
 2197SOL    HW118053   3.724   1.592   2.175  0.4666  0.1594 -0.9652
 2197SOL    HW218054   3.586   1.592   2.121 -0.3512 -0.2380 -1.9813
 2198SOL     OW18055   2.943   4.496  10.896  0.3271  0.6584  0.0893
 2198SOL    HW118056   2.969   4.475  10.806 -1.4332 -0.3882 -0.1582
 2198SOL    HW218057   2.986   4.428  10.948 -0.1838  1.6249  1.7880
 2199SOL     OW18058   2.948   4.257   8.996 -0.3637 -0.5959  0.1283
 2199SOL    HW118059   2.862   4.251   9.036  0.2843  1.5775  1.8663
 2199SOL    HW218060   2.981   4.322   9.058  0.4470 -0.4447 -0.4577
 2200SOL     OW18061   0.156   1.839   1.889  0.4318 -0.6466 -0.2864
 2200SOL    HW118062   0.085   1.801   1.836 -0.4320 -0.6496  0.8762
 2200SOL    HW218063   0.103   1.887   1.953 -2.2699 -2.7987 -0.8708
 2201SOL     OW18064   0.764   1.660   8.416 -0.1376 -0.3594 -0.5485
 2201SOL    HW118065   0.801   1.745   8.392 -0.9796  0.0667 -0.3196
 2201SOL    HW218066   0.845   1.626   8.454 -0.5293 -2.0729 -1.2256
 2202SOL     OW18067   0.087   2.080   3.801 -0.0546 -0.4062 -0.1594
 2202SOL    HW118068   0.157   2.142   3.822 -1.6844  0.9087  1.3826
 2202SOL    HW218069   0.033   2.128   3.738  1.2904 -0.1178 -1.0853
 2203SOL     OW18070   4.192   3.844   6.640  0.1966 -0.1645  0.3165
 2203SOL    HW118071   4.134   3.880   6.573 -2.4911 -1.3320  1.9744
 2203SOL    HW218072   4.260   3.911   6.640  1.6257 -1.6384 -3.1497
 2204SOL     OW18073   4.117   1.764   6.576 -0.0775  0.3530  0.0399
 2204SOL    HW118074   4.158   1.693   6.625 -2.8332 -2.3886 -1.5439
 2204SOL    HW218075   4.042   1.787   6.631 -0.4640  0.1927 -0.4130
 2205SOL     OW18076   2.396   0.967   0.441  0.0978  0.3274 -0.8604
 2205SOL    HW118077   2.459   1.033   0.413  0.5365  0.3323  0.1233
 2205SOL    HW218078   2.332   0.974   0.370 -0.2092  0.3414 -0.5809
 2206SOL     OW18079   4.603   2.253   3.224 -0.8698 -0.5812 -0.4279
 2206SOL    HW118080   4.613   2.199   3.145 -0.1857  0.7826 -1.2783
 2206SOL    HW218081   4.686   2.295   3.244 -0.8980 -2.2120  3.0155
 2207SOL     OW18082   4.204   2.033  17.119 -0.2991 -0.2565 -0.7410
 2207SOL    HW118083   4.237   2.115  17.155  2.6299 -1.6246 -0.2525
 2207SOL    HW218084   4.284   1.994  17.083  0.1616 -0.8263  0.9121
 2208SOL     OW18085   4.476   0.658   3.074  0.0754  0.0799  0.1638
 2208SOL    HW118086   4.565   0.623   3.076 -1.0305 -2.7704  1.0533
 2208SOL    HW218087   4.436   0.646   2.988  0.6848  0.2187 -0.1312
 2209SOL     OW18088   2.458   2.593   6.236 -0.1234  0.0954  0.3610
 2209SOL    HW118089   2.546   2.600   6.199 -0.8025 -0.3397 -1.3033
 2209SOL    HW218090   2.428   2.509   6.201  0.7241  0.4969 -1.3310
 2210SOL     OW18091   1.155   1.957   9.165 -0.4266  0.0748  0.0457
 2210SOL    HW118092   1.204   1.966   9.247 -1.2924  1.5378  0.4043
 2210SOL    HW218093   1.202   2.025   9.118 -1.3498  0.8398  0.2366
 2211SOL     OW18094   3.990   1.391  15.505  0.6638 -0.0528  0.1313
 2211SOL    HW118095   3.905   1.388  15.463  0.1508  1.4513  1.0704
 2211SOL    HW218096   3.959   1.416  15.592  0.7619  0.0946  0.1246
 2212SOL     OW18097   0.765   4.317  15.261 -0.1709  0.0482  0.0907
 2212SOL    HW118098   0.847   4.270  15.277 -1.3243 -2.5763 -1.7348
 2212SOL    HW218099   0.746   4.361  15.344  1.2763  0.8250  0.0177
 2213SOL     OW18100   0.798   0.920   6.098 -0.3926 -0.1502 -0.0886
 2213SOL    HW118101   0.837   0.964   6.174  0.7799 -2.2061  0.5024
 2213SOL    HW218102   0.877   0.905   6.046  0.4710 -0.1403  1.2220
 2214SOL     OW18103   1.104   3.834   8.965  0.3414 -0.3210 -0.1450
 2214SOL    HW118104   1.058   3.848   9.047 -0.0371 -1.1557 -0.2115
 2214SOL    HW218105   1.191   3.827   9.003 -0.3764 -0.1610  1.5229
 2215SOL     OW18106   1.032   2.053  14.449  0.4151 -0.3303  0.0410
 2215SOL    HW118107   1.108   2.029  14.396  0.8697  0.1222  0.4874
 2215SOL    HW218108   0.996   1.965  14.459  0.8263 -0.5382 -0.3189
 2216SOL     OW18109   3.319   1.943  13.547  0.2521 -0.3566  0.5875
 2216SOL    HW118110   3.347   1.853  13.532 -0.1211 -0.5419  0.9988
 2216SOL    HW218111   3.401   1.990  13.532  0.6907 -0.5810  2.2453
 2217SOL     OW18112   2.162   0.631   4.915 -0.2104  0.3436 -0.2791
 2217SOL    HW118113   2.200   0.659   4.832  0.3601  1.2466  0.2986
 2217SOL    HW218114   2.107   0.557   4.889  2.3049 -2.0784  1.2669
 2218SOL     OW18115   2.672   2.981  17.409  0.1038  0.4897  0.0327
 2218SOL    HW118116   2.694   2.892  17.434  0.4147  0.2384 -1.1465
 2218SOL    HW218117   2.600   2.973  17.346 -1.0561  1.8273  1.1602
 2219SOL     OW18118   2.061   0.303  16.990 -0.3078 -0.4981 -0.2072
 2219SOL    HW118119   2.018   0.228  16.949 -0.9427  0.1969 -0.8038
 2219SOL    HW218120   2.031   0.369  16.928  1.3009 -0.5011 -0.9970
 2220SOL     OW18121   1.703   1.354   4.890  0.0060  0.2413 -0.0021
 2220SOL    HW118122   1.741   1.326   4.807 -1.7556  2.3929 -1.5297
 2220SOL    HW218123   1.657   1.436   4.871  0.7466  0.7813  0.5544
 2221SOL     OW18124   3.989   3.578   8.054  0.4203  0.4496 -0.5882
 2221SOL    HW118125   3.908   3.625   8.033  0.5622  1.2172  0.5932
 2221SOL    HW218126   3.968   3.498   8.006 -1.8184 -0.1709  1.4429
 2222SOL     OW18127   3.078   1.911   3.667 -0.1630  0.0636 -0.4943
 2222SOL    HW118128   3.137   1.857   3.719 -0.0447  0.0856 -0.6051
 2222SOL    HW218129   3.027   1.963   3.731 -0.9241  1.4488 -2.2095
 2223SOL     OW18130   0.488   3.983   6.528 -0.5181 -0.5319  0.2917
 2223SOL    HW118131   0.502   4.073   6.555  0.9263 -0.9276  0.8808
 2223SOL    HW218132   0.564   3.935   6.561 -0.3178 -0.3737  0.0596
 2224SOL     OW18133   1.611   0.167  16.068  0.2040  0.1365  0.1643
 2224SOL    HW118134   1.594   0.186  16.160 -0.7949 -0.3551  0.0858
 2224SOL    HW218135   1.556   0.091  16.048  3.1038 -1.3911 -1.8452
 2225SOL     OW18136   2.538   2.022   8.774  0.2066  0.4242 -0.4338
 2225SOL    HW118137   2.604   2.016   8.705  1.0239 -1.7388  0.5338
 2225SOL    HW218138   2.549   1.944   8.828 -1.2188  1.7831  1.8616
 2226SOL     OW18139   0.922   2.776   2.344 -0.1808 -0.2009 -0.0967
 2226SOL    HW118140   1.001   2.734   2.377 -0.5205 -1.3387 -0.7117
 2226SOL    HW218141   0.958   2.833   2.277  0.0605 -1.3217 -0.9318
 2227SOL     OW18142   2.887   1.065   9.966 -0.4997  0.0112  0.5783
 2227SOL    HW118143   2.818   1.123   9.997 -1.3917 -1.2576  0.9726
 2227SOL    HW218144   2.912   1.017  10.045  2.8303  2.3201  0.9403
 2228SOL     OW18145   0.126   3.946  16.563 -0.0425 -0.1849  0.3478
 2228SOL    HW118146   0.166   4.032  16.574  0.2223 -0.4296  1.2589
 2228SOL    HW218147   0.037   3.961  16.596  0.0921  1.8553 -0.2359
 2229SOL     OW18148   0.887   0.470  14.076  0.0333 -0.1036 -0.0131
 2229SOL    HW118149   0.949   0.531  14.035  1.6025 -1.6988 -0.0051
 2229SOL    HW218150   0.854   0.436  13.994  0.1935  0.0832 -0.1555
 2230SOL     OW18151   3.161   0.853   0.207  0.0108 -0.0356 -0.0113
 2230SOL    HW118152   3.156   0.789   0.136  2.1509  0.2639 -0.4422
 2230SOL    HW218153   3.115   0.806   0.277 -0.8047 -1.1658 -1.3065
 2231SOL     OW18154   0.456   3.561  16.456 -0.3931 -0.2816 -0.0058
 2231SOL    HW118155   0.430   3.507  16.530 -0.5627  2.1844  1.7042
 2231SOL    HW218156   0.417   3.647  16.471  1.5795  1.2432 -3.5465
 2232SOL     OW18157   0.413   2.324   2.123  0.2619  0.2815  0.5692
 2232SOL    HW118158   0.443   2.398   2.175  0.1296  0.4194  0.4491
 2232SOL    HW218159   0.493   2.303   2.075  0.3408 -2.7040  1.9993
 2233SOL     OW18160   1.728   3.137  10.517  0.2587 -0.5681  0.8759
 2233SOL    HW118161   1.761   3.179  10.597 -0.5934  0.6447  0.5884
 2233SOL    HW218162   1.724   3.047  10.551 -0.4742 -0.2985  1.5115
 2234SOL     OW18163   2.350   1.628   0.469 -0.0121 -0.2201  0.1180
 2234SOL    HW118164   2.313   1.716   0.461  0.4329  0.2074  2.6917
 2234SOL    HW218165   2.296   1.590   0.538 -1.1418 -1.0728 -1.2618
 2235SOL     OW18166   3.923   0.189  17.097  0.2229 -0.2605 -0.4332
 2235SOL    HW118167   3.882   0.176  17.182 -0.2891 -0.2061 -0.6723
 2235SOL    HW218168   3.988   0.257  17.116 -0.4070  0.1801  0.1472
 2236SOL     OW18169   3.357   2.079   6.116  0.3046 -0.6934  0.1032
 2236SOL    HW118170   3.374   2.010   6.180  0.7062  0.8225  1.6086
 2236SOL    HW218171   3.334   2.155   6.169 -0.2469 -0.3518 -0.6254
 2237SOL     OW18172   4.717   1.299   8.379 -0.3111  0.6201 -0.4799
 2237SOL    HW118173   0.085   1.308   8.402 -0.7604  3.3605  0.3108
 2237SOL    HW218174   0.011   1.230   8.316 -0.5279 -0.8481  1.0915
 2238SOL     OW18175   4.372   1.009  10.001 -0.4322  0.4001 -0.1810
 2238SOL    HW118176   4.436   1.072  10.033 -0.5682  0.9743 -1.0340
 2238SOL    HW218177   4.356   1.040   9.912  1.5424  0.3045 -0.5561
 2239SOL     OW18178   2.791   0.442  16.596  0.5720 -0.4702  0.3173
 2239SOL    HW118179   2.840   0.491  16.662 -0.8516 -0.0212  1.0493
 2239SOL    HW218180   2.740   0.388  16.656 -2.2625 -0.3014 -1.9667
 2240SOL     OW18181   2.798   3.010   2.013  0.3057  0.0847 -0.2357
 2240SOL    HW118182   2.748   3.062   1.950 -1.9526 -0.1808  1.3024
 2240SOL    HW218183   2.801   3.055   2.097 -0.3479 -0.2804 -0.0110
 2241SOL     OW18184   0.476   0.169   3.932 -0.0786  0.1418 -0.1089
 2241SOL    HW118185   0.559   0.207   3.961 -0.2768 -0.9974  1.9405
 2241SOL    HW218186   0.452   0.120   4.011  1.3052  0.0734  0.2675
 2242SOL     OW18187   0.624   2.060   8.507 -0.4301  0.1729 -0.1208
 2242SOL    HW118188   0.581   1.983   8.470 -0.8048  0.4832 -0.3326
 2242SOL    HW218189   0.700   2.022   8.551 -0.3057 -2.1352 -2.3070
 2243SOL     OW18190   3.273   3.070   4.598 -0.0652  0.1051  0.0067
 2243SOL    HW118191   3.301   2.979   4.608  1.0720  0.4942  0.3528
 2243SOL    HW218192   3.190   3.074   4.646 -0.6808 -1.3349 -0.9361
 2244SOL     OW18193   0.612   0.519  16.822 -0.5940 -0.0692  0.2487
 2244SOL    HW118194   0.616   0.564  16.738 -0.3656  1.8695  1.2913
 2244SOL    HW218195   0.594   0.434  16.783 -0.8289  0.1900 -0.2169
 2245SOL     OW18196   4.244   2.759   1.492  0.3311  0.2302 -0.6777
 2245SOL    HW118197   4.160   2.778   1.535 -0.1316 -0.9369 -1.0766
 2245SOL    HW218198   4.282   2.847   1.486  2.2671 -0.5553 -0.0185
 2246SOL     OW18199   0.740   3.671   5.223  0.4242  0.0733  0.0712
 2246SOL    HW118200   0.665   3.712   5.267  0.2998  2.5863 -2.4998
 2246SOL    HW218201   0.697   3.631   5.148 -0.4951  1.3805 -0.1002
 2247SOL     OW18202   0.903   1.969  11.656 -0.1048 -0.2568  0.9226
 2247SOL    HW118203   0.947   1.953  11.573 -2.7819 -0.8868 -0.3966
 2247SOL    HW218204   0.866   2.054  11.635  0.2275 -0.4623 -0.4542
 2248SOL     OW18205   3.851   1.515  10.862  0.3263 -0.1533  0.1072
 2248SOL    HW118206   3.774   1.469  10.831  0.1905 -0.4718  0.9282
 2248SOL    HW218207   3.921   1.457  10.830  1.2463  0.2241  1.4461
 2249SOL     OW18208   0.756   2.186  12.959 -0.3894 -0.6827 -0.0674
 2249SOL    HW118209   0.770   2.180  13.054  0.3014 -0.7218 -0.1708
 2249SOL    HW218210   0.762   2.281  12.946 -0.1636 -0.3700  2.2453
 2250SOL     OW18211   1.041   1.603   5.043  0.0156  0.4307  0.1886
 2250SOL    HW118212   1.022   1.601   4.949  0.0705  0.2146  0.1824
 2250SOL    HW218213   1.010   1.517   5.071  2.1318 -0.3807  0.0858
 2251SOL     OW18214   1.049   4.367   5.125 -0.0868  0.0655 -0.8176
 2251SOL    HW118215   1.017   4.317   5.050 -1.1445 -1.4365  0.6225
 2251SOL    HW218216   0.983   4.436   5.124 -1.7953 -1.5226  0.5211
 2252SOL     OW18217   0.254   0.576  13.257  0.1046  0.6211 -0.1105
 2252SOL    HW118218   0.264   0.526  13.338  2.1499  1.3818  0.1049
 2252SOL    HW218219   0.285   0.505  13.202  0.5326 -0.2844  1.2863
 2253SOL     OW18220   3.041   3.539   1.576  0.1261 -0.3749  0.8831
 2253SOL    HW118221   3.108   3.581   1.521 -0.8275  0.5577  0.4316
 2253SOL    HW218222   2.973   3.605   1.588  0.6971 -0.3166  3.8330
 2254SOL     OW18223   2.586   3.500  13.200  0.0204 -0.5981 -0.7028
 2254SOL    HW118224   2.535   3.423  13.225  0.3975 -0.5506  0.2144
 2254SOL    HW218225   2.542   3.575  13.238  0.0049  0.1998 -2.2772
 2255SOL     OW18226   0.780   1.850  13.004  0.2411 -0.5750  0.1816
 2255SOL    HW118227   0.873   1.853  12.980  0.5828  0.1319  1.6172
 2255SOL    HW218228   0.753   1.927  12.954 -2.2100 -1.6226 -0.1092
 2256SOL     OW18229   3.140   0.440   0.459  0.4051 -0.0897  0.0623
 2256SOL    HW118230   3.094   0.407   0.382 -0.5385  0.4489  0.4020
 2256SOL    HW218231   3.181   0.522   0.429 -0.1869  0.2719  0.2463
 2257SOL     OW18232   3.069   1.705  12.584  0.0172  0.2431  0.1652
 2257SOL    HW118233   3.028   1.658  12.512  1.5410 -0.7463 -0.0632
 2257SOL    HW218234   3.138   1.749  12.534 -1.5111  0.4599 -1.7491
 2258SOL     OW18235   3.680   0.419   5.994 -0.0390 -0.2729  0.1416
 2258SOL    HW118236   3.595   0.402   5.954  0.6185 -3.0929 -0.0894
 2258SOL    HW218237   3.706   0.499   5.949  0.1282 -0.4505 -0.0780
 2259SOL     OW18238   3.497   2.617  15.639  0.0651 -0.1049  0.0770
 2259SOL    HW118239   3.417   2.656  15.673  0.9590  1.8970 -0.0912
 2259SOL    HW218240   3.467   2.547  15.581  0.2274  0.7898 -1.0888
 2260SOL     OW18241   2.307   2.073   3.421 -0.1692  0.1355 -0.0307
 2260SOL    HW118242   2.324   1.995   3.368 -1.8424  1.1334 -1.9848
 2260SOL    HW218243   2.353   2.131   3.360  1.0569 -1.2012 -0.3999
 2261SOL     OW18244   3.672   3.091   8.156  0.8873 -0.7388  0.1846
 2261SOL    HW118245   3.619   3.053   8.226 -1.6763 -0.2556 -1.4976
 2261SOL    HW218246   3.658   3.186   8.161  0.3656 -0.7442 -1.3242
 2262SOL     OW18247   1.258   1.193   3.723 -0.0389  0.1141  0.1024
 2262SOL    HW118248   1.350   1.175   3.740 -0.6624 -3.0450  0.1460
 2262SOL    HW218249   1.255   1.225   3.633  1.8700 -1.1262 -0.3868
 2263SOL     OW18250   0.828   0.642   5.154  0.0573 -0.2848 -0.2189
 2263SOL    HW118251   0.769   0.670   5.083  0.0324 -0.2656 -0.1903
 2263SOL    HW218252   0.862   0.571   5.101 -0.2031 -0.6787  0.1457
 2264SOL     OW18253   1.542   1.281   5.479 -0.8626 -0.2353 -0.5251
 2264SOL    HW118254   1.583   1.302   5.563 -1.0718  0.2881 -0.5491
 2264SOL    HW218255   1.603   1.312   5.412 -1.3006  0.0309 -0.8019
 2265SOL     OW18256   2.170   4.344   3.645  0.4619  0.3120  0.3585
 2265SOL    HW118257   2.182   4.393   3.726  3.0125 -0.0084  0.1570
 2265SOL    HW218258   2.261   4.320   3.632  0.0157 -1.8194  1.0912
 2266SOL     OW18259   1.945   0.065   5.625  0.0520 -0.5198  0.0682
 2266SOL    HW118260   1.980   0.081   5.537 -0.8930 -1.1502 -0.4245
 2266SOL    HW218261   2.018   0.091   5.681 -0.0293  0.6871 -0.3898
 2267SOL     OW18262   3.085   4.649   3.389  0.7472  0.1854  0.2490
 2267SOL    HW118263   3.042   4.632   3.306  3.1652  1.2866 -1.2260
 2267SOL    HW218264   3.111   0.016   3.392  2.9840 -0.4400  0.5725
 2268SOL     OW18265   3.927   2.635   3.838 -1.0696 -0.6341  0.0923
 2268SOL    HW118266   3.954   2.544   3.855 -0.5389 -0.1217  2.0746
 2268SOL    HW218267   3.922   2.667   3.929  0.5865  0.9498 -0.3641
 2269SOL     OW18268   2.382   3.348   5.612  0.5094  0.0078 -0.5648
 2269SOL    HW118269   2.385   3.283   5.542 -0.6352 -0.8205  0.1357
 2269SOL    HW218270   2.447   3.412   5.583  0.3391 -1.8328 -4.8556
 2270SOL     OW18271   2.246   3.107   5.942  0.0136  0.1349 -0.5381
 2270SOL    HW118272   2.292   3.024   5.930 -0.6744 -0.3721  0.4231
 2270SOL    HW218273   2.167   3.092   5.891  0.2408 -3.3972  0.1595
 2271SOL     OW18274   1.734   0.276   3.902 -0.3268  0.0431 -0.5858
 2271SOL    HW118275   1.650   0.299   3.941 -1.0688 -1.8031 -1.0573
 2271SOL    HW218276   1.712   0.186   3.877 -3.3794  0.2390  1.3725
 2272SOL     OW18277   3.387   2.485   7.761 -0.4891  0.0797  0.7349
 2272SOL    HW118278   3.387   2.414   7.697 -1.5722  1.3940 -0.7319
 2272SOL    HW218279   3.350   2.439   7.837 -1.4368 -0.2725  0.0661
 2273SOL     OW18280   1.074   2.772   3.167  0.6576 -0.6344 -0.0103
 2273SOL    HW118281   1.053   2.849   3.219 -2.4144 -1.3562 -0.2244
 2273SOL    HW218282   1.028   2.796   3.087  2.1086  1.7348 -0.1488
 2274SOL     OW18283   2.968   0.192  17.125 -0.8374  0.1768  0.0345
 2274SOL    HW118284   3.061   0.214  17.133 -0.9265 -0.0532  1.7590
 2274SOL    HW218285   2.947   0.242  17.047  1.0336  2.1804  0.7972
 2275SOL     OW18286   1.732   3.055  11.328 -0.0760  0.1731 -0.7069
 2275SOL    HW118287   1.811   3.100  11.300 -0.1188  0.8884  0.3063
 2275SOL    HW218288   1.765   3.007  11.405  0.0110 -0.3323 -1.0592
 2276SOL     OW18289   2.387   2.384   0.475  0.0964  0.2889  0.4050
 2276SOL    HW118290   2.325   2.441   0.520  2.6804  1.3880  2.5217
 2276SOL    HW218291   2.438   2.349   0.547  1.6063 -1.5931 -1.5826
 2277SOL     OW18292   3.398   0.282  12.858  0.4645  0.3005 -0.0975
 2277SOL    HW118293   3.419   0.205  12.911  1.8059 -0.1242 -1.2509
 2277SOL    HW218294   3.396   0.352  12.924  0.5823  0.9343 -0.7695
 2278SOL     OW18295   2.769   2.971   2.566  0.3974 -0.1138 -0.2722
 2278SOL    HW118296   2.758   2.912   2.640  1.5258 -0.6267 -0.5121
 2278SOL    HW218297   2.708   2.932   2.503  0.6036 -0.4582 -0.2582
 2279SOL     OW18298   4.121   0.011   7.342 -0.3898  0.1608  0.1543
 2279SOL    HW118299   4.169   4.654   7.357  1.6475  0.9959 -1.8278
 2279SOL    HW218300   4.140   0.060   7.422 -1.0791 -0.6923  0.8445
 2280SOL     OW18301   3.965   3.140   6.060 -0.4649 -0.1963 -0.0280
 2280SOL    HW118302   4.020   3.135   5.982  1.4820 -1.9087  1.4496
 2280SOL    HW218303   3.895   3.080   6.036  0.3607 -1.0121 -0.3729
 2281SOL     OW18304   2.723   4.270   1.596 -0.1679 -0.2747  0.1791
 2281SOL    HW118305   2.643   4.231   1.559 -0.6809 -0.0877  1.0930
 2281SOL    HW218306   2.704   4.360   1.572 -0.7054 -0.5958 -0.6038
 2282SOL     OW18307   3.049   3.218   6.771 -0.0235  0.3481  0.0623
 2282SOL    HW118308   2.992   3.147   6.742 -0.4323  0.5109  0.4657
 2282SOL    HW218309   3.115   3.166   6.818  0.7669  1.4380  0.1622
 2283SOL     OW18310   3.618   2.627   5.307  0.4743  0.1292 -0.4803
 2283SOL    HW118311   3.564   2.632   5.228  0.7025 -0.5615 -0.6767
 2283SOL    HW218312   3.624   2.531   5.308 -2.6814 -0.0582  1.4713
 2284SOL     OW18313   4.569   1.227   4.054 -0.1814 -0.3881  0.1777
 2284SOL    HW118314   4.660   1.208   4.034 -0.1113 -0.0779  0.1944
 2284SOL    HW218315   4.523   1.152   4.017 -3.0245  1.0023  0.8755
 2285SOL     OW18316   1.956   3.710   3.899  0.2439 -0.0869 -0.4181
 2285SOL    HW118317   1.918   3.773   3.960  0.3466  3.0563 -3.5814
 2285SOL    HW218318   1.935   3.624   3.936  0.0365  0.2841  0.3284
 2286SOL     OW18319   2.490   0.544   4.251  0.4391 -0.1380  0.3129
 2286SOL    HW118320   2.472   0.460   4.208 -1.0623 -1.1993  2.9805
 2286SOL    HW218321   2.443   0.609   4.199  1.4032 -0.9098 -1.5030
 2287SOL     OW18322   0.665   3.867   5.810  0.1994  0.1151 -0.2728
 2287SOL    HW118323   0.755   3.865   5.841 -0.1380  1.7498  0.7997
 2287SOL    HW218324   0.611   3.803   5.855  2.2527 -2.3628 -1.3173
 2288SOL     OW18325   4.251   2.555  10.833  0.3195 -0.0194  0.7942
 2288SOL    HW118326   4.313   2.601  10.777 -1.8688  3.1594  0.9393
 2288SOL    HW218327   4.232   2.472  10.790 -0.8944  0.0013  1.2837
 2289SOL     OW18328   0.620   4.172   9.068  0.4919 -0.0497  0.2659
 2289SOL    HW118329   0.559   4.222   9.012 -0.0661  1.6720  2.4133
 2289SOL    HW218330   0.566   4.131   9.135 -0.1795  0.7733  0.2350
 2290SOL     OW18331   0.933   0.608  12.892 -0.0922 -0.3075 -0.0604
 2290SOL    HW118332   0.952   0.697  12.863  1.2980 -0.2276  1.0944
 2290SOL    HW218333   0.908   0.625  12.983  1.2582  0.1478  0.2261
 2291SOL     OW18334   1.959   0.658   3.650  0.0176  0.1225  0.0404
 2291SOL    HW118335   2.040   0.648   3.601 -1.3841  0.0023 -2.2643
 2291SOL    HW218336   1.910   0.587   3.607 -1.6326  0.1131  1.9356
 2292SOL     OW18337   0.865   1.620   4.007  0.2330 -0.0017  0.4834
 2292SOL    HW118338   0.849   1.546   4.065 -0.2451  1.0713  1.7232
 2292SOL    HW218339   0.847   1.692   4.068  1.3187 -0.6103  1.5239
 2293SOL     OW18340   2.805   4.596   2.603  0.2078  0.6777  0.2273
 2293SOL    HW118341   2.871   4.660   2.629 -0.7738  0.4375  3.3336
 2293SOL    HW218342   2.790   4.564   2.693 -1.7158  1.2479  0.1121
 2294SOL     OW18343   2.363   2.522   9.923  0.0934 -0.5106 -0.1302
 2294SOL    HW118344   2.391   2.597   9.871 -0.1475 -1.1692 -1.1952
 2294SOL    HW218345   2.431   2.459   9.902 -0.6175 -0.6160 -2.1299
 2295SOL     OW18346   0.679   0.254   4.957 -0.1594  0.0191 -0.3990
 2295SOL    HW118347   0.626   0.180   4.985  0.4998  0.5169  2.1490
 2295SOL    HW218348   0.636   0.270   4.873 -1.0737  1.7349  0.4060
 2296SOL     OW18349   3.470   1.981  11.966  0.2570 -0.4513 -0.1303
 2296SOL    HW118350   3.560   1.950  11.981  0.2742 -0.8562 -1.0897
 2296SOL    HW218351   3.474   1.994  11.872 -1.3529  1.0933  0.0192
 2297SOL     OW18352   4.329   4.532   3.119  0.2595  0.1993  0.0826
 2297SOL    HW118353   4.251   4.570   3.160 -0.6135 -0.9612 -0.5169
 2297SOL    HW218354   4.328   4.581   3.037 -1.2549 -0.3832 -0.2353
 2298SOL     OW18355   1.526   3.634   4.752  0.2945 -0.3156  0.3559
 2298SOL    HW118356   1.464   3.605   4.818  0.1330  0.2921  0.4741
 2298SOL    HW218357   1.609   3.589   4.768  0.1990 -0.3978  0.6166
 2299SOL     OW18358   0.615   4.672   5.130 -0.2299 -0.7033 -0.0869
 2299SOL    HW118359   0.562   4.592   5.126  0.9624 -1.4552 -0.9065
 2299SOL    HW218360   0.597   4.709   5.216 -0.0209  0.6430 -0.6334
 2300SOL     OW18361   0.837   1.637   7.472 -0.5881  0.1551  0.3708
 2300SOL    HW118362   0.923   1.672   7.492 -1.1103  0.8869  1.3394
 2300SOL    HW218363   0.789   1.714   7.502 -2.9160 -0.6231 -1.3469
 2301SOL     OW18364   3.491   0.116  10.880 -0.4332 -0.3469  0.5578
 2301SOL    HW118365   3.517   0.181  10.945  0.1082 -1.0964  1.0951
 2301SOL    HW218366   3.539   0.144  10.802 -1.1088  2.4580  1.1483
 2302SOL     OW18367   2.369   4.573   5.962  0.1894 -0.1961  0.0052
 2302SOL    HW118368   2.389   4.642   6.024 -1.6159 -0.7716  1.2465
 2302SOL    HW218369   2.365   4.493   6.015  0.9090 -1.3590 -1.6870
 2303SOL     OW18370   1.029   0.463   3.553  0.6644 -0.2488 -0.3485
 2303SOL    HW118371   1.036   0.549   3.595  0.2774 -0.8706  0.9916
 2303SOL    HW218372   1.068   0.409   3.621  0.1257 -0.8898 -0.5524
 2304SOL     OW18373   3.009   2.242   5.501  0.1481  0.1010  0.5549
 2304SOL    HW118374   3.020   2.337   5.504 -0.6773  0.1979  0.7256
 2304SOL    HW218375   2.938   2.235   5.565  0.5149  1.3190  1.1026
 2305SOL     OW18376   1.554   4.015   9.028 -0.1604 -0.5420 -0.2745
 2305SOL    HW118377   1.527   4.106   9.019 -0.6556 -0.7875 -1.3049
 2305SOL    HW218378   1.648   4.025   9.037 -0.2416 -0.6418  0.6988
 2306SOL     OW18379   2.620   3.744   9.643 -0.0313  0.2663 -0.1542
 2306SOL    HW118380   2.613   3.818   9.583 -2.6647  0.6957  0.7066
 2306SOL    HW218381   2.529   3.713   9.639 -0.1649  0.7009 -0.4385
 2307SOL     OW18382   2.049   4.379   4.364  0.4573 -0.3294 -0.1101
 2307SOL    HW118383   2.130   4.364   4.413  0.9142 -2.5437 -1.5445
 2307SOL    HW218384   2.027   4.467   4.393  2.7202  0.0532  0.4894
 2308SOL     OW18385   1.375   4.434   3.768 -0.1610  0.0309 -0.4369
 2308SOL    HW118386   1.442   4.463   3.706 -0.6294  0.7344 -0.6217
 2308SOL    HW218387   1.304   4.482   3.725  0.7318  0.7273 -1.1613
 2309SOL     OW18388   2.945   2.803   4.622 -0.0394  0.2139 -0.3677
 2309SOL    HW118389   2.980   2.846   4.545  1.2730  0.7512  0.5303
 2309SOL    HW218390   3.002   2.726   4.613  0.1716  0.3623 -0.3040
 2310SOL     OW18391   3.886   3.303  16.559  0.5565 -0.0063  0.0597
 2310SOL    HW118392   3.908   3.274  16.647  1.4793 -0.0154 -0.1648
 2310SOL    HW218393   3.811   3.250  16.532  0.6021  0.6682 -1.4244
 2311SOL     OW18394   4.181   2.398   7.404 -0.1575 -0.0307  0.0599
 2311SOL    HW118395   4.256   2.451   7.377  0.1260 -1.2699 -1.6063
 2311SOL    HW218396   4.119   2.414   7.332  0.8462 -1.4298 -1.1222
 2312SOL     OW18397   0.793   1.812   5.625  0.4862  0.4722 -0.2523
 2312SOL    HW118398   0.879   1.802   5.584  0.8111  1.5441  0.1613
 2312SOL    HW218399   0.760   1.730   5.589  2.3860  0.3603 -1.7490
 2313SOL     OW18400   4.164   0.148   8.499 -0.1968 -0.0585 -0.5971
 2313SOL    HW118401   4.077   0.187   8.494  0.4767  1.7073  1.1047
 2313SOL    HW218402   4.172   0.142   8.595 -0.9488 -2.2705 -0.6867
 2314SOL     OW18403   2.460   1.634   4.619 -0.3634 -0.2455 -0.7907
 2314SOL    HW118404   2.538   1.587   4.590 -1.5058 -2.0720 -0.9498
 2314SOL    HW218405   2.387   1.591   4.573 -0.1212 -1.5139 -0.0103
 2315SOL     OW18406   2.055   0.260  10.379  0.0055  0.2109 -0.7543
 2315SOL    HW118407   2.027   0.179  10.335 -1.2093 -1.1042  2.4395
 2315SOL    HW218408   1.971   0.305  10.375 -0.5272 -0.6284  1.1480
 2316SOL     OW18409   3.959   0.007   4.732  0.2243 -0.2380  0.0162
 2316SOL    HW118410   4.031   0.044   4.681  0.2447  0.6495  0.6981
 2316SOL    HW218411   4.010   4.712   4.810  0.5722  3.3135  0.6825
 2317SOL     OW18412   3.051   3.903   6.755  0.7032 -0.2142 -0.0437
 2317SOL    HW118413   2.962   3.914   6.723  0.3266 -2.3911  0.2573
 2317SOL    HW218414   3.020   3.844   6.823 -2.3963  1.4063 -0.0744
 2318SOL     OW18415   2.440   4.538   5.454  0.7938  0.1718  0.4107
 2318SOL    HW118416   2.468   4.448   5.472  0.6454  0.0872  0.2220
 2318SOL    HW218417   2.344   4.532   5.449  0.7512  1.2474 -0.0710
 2319SOL     OW18418   3.753   0.246   4.681 -0.0656  0.1186  0.3985
 2319SOL    HW118419   3.842   0.244   4.718  1.7872 -2.0902 -4.1596
 2319SOL    HW218420   3.754   0.157   4.647 -0.1689  0.0539  0.5672
 2320SOL     OW18421   1.437   0.412   9.311 -0.0091 -0.1976  0.0968
 2320SOL    HW118422   1.519   0.460   9.295 -0.5769  0.5665 -0.5335
 2320SOL    HW218423   1.467   0.330   9.349 -0.2341 -0.5559 -0.5048
 2321SOL     OW18424   2.678   0.183   3.120  0.2831  0.0378 -0.7225
 2321SOL    HW118425   2.617   0.254   3.099 -2.8617 -2.5612 -0.4967
 2321SOL    HW218426   2.678   0.141   3.033 -0.4867 -0.7079 -0.3629
 2322SOL     OW18427   0.397   0.952   7.467 -0.3681  0.2021 -0.4320
 2322SOL    HW118428   0.304   0.970   7.480 -0.0420  1.7682 -0.1827
 2322SOL    HW218429   0.410   0.883   7.532 -1.1992  1.8911  1.5670
 2323SOL     OW18430   3.255   0.128  14.481 -0.2838  0.0951 -0.4151
 2323SOL    HW118431   3.228   0.127  14.573  0.2945  2.8660 -0.2017
 2323SOL    HW218432   3.266   0.219  14.454 -0.0096  0.1194 -0.2200
 2324SOL     OW18433   3.786   0.834   6.239  0.3406 -0.5615  0.0032
 2324SOL    HW118434   3.768   0.751   6.195  0.1278 -0.3530 -0.3062
 2324SOL    HW218435   3.776   0.808   6.330  0.6788 -2.7436 -0.6016
 2325SOL     OW18436   2.855   0.824  16.588 -0.1141  0.2097  0.3041
 2325SOL    HW118437   2.793   0.769  16.541  1.7178 -0.0569 -1.7700
 2325SOL    HW218438   2.869   0.778  16.671  2.1059  0.2694 -0.0296
 2326SOL     OW18439   4.113   2.972   1.824  0.3298 -0.5754 -0.4102
 2326SOL    HW118440   4.106   3.044   1.761  1.8105  0.4157  0.5654
 2326SOL    HW218441   4.085   2.894   1.775  0.1334  0.1833 -1.4910
 2327SOL     OW18442   3.956   2.279   0.132  0.0266  0.0156  0.1564
 2327SOL    HW118443   3.998   2.289   0.218  0.5543  0.6891 -0.1776
 2327SOL    HW218444   3.989   2.190   0.118  2.6403  1.0577 -0.3097
 2328SOL     OW18445   0.410   4.585   3.897  0.6019 -0.1252 -0.4304
 2328SOL    HW118446   0.396   4.492   3.916  1.1008 -0.4718 -1.7365
 2328SOL    HW218447   0.419   4.583   3.802  3.3490 -2.3186 -0.1448
 2329SOL     OW18448   2.982   4.138   3.241 -0.1462  0.5502 -0.0074
 2329SOL    HW118449   3.070   4.172   3.257  0.0877  0.0176 -0.1369
 2329SOL    HW218450   2.955   4.192   3.166  1.3472 -1.5827 -2.0914
 2330SOL     OW18451   2.382   2.267   2.292 -0.5842  0.2923 -0.2530
 2330SOL    HW118452   2.390   2.205   2.364 -3.1714 -0.1067 -0.2805
 2330SOL    HW218453   2.440   2.336   2.322 -1.6563  1.2693 -0.4094
 2331SOL     OW18454   2.330   4.039  11.211  0.0434  0.1136  0.7813
 2331SOL    HW118455   2.345   4.133  11.225  1.8645 -0.1944  1.0079
 2331SOL    HW218456   2.416   4.015  11.175  0.1965  1.6231  0.1614
 2332SOL     OW18457   0.120   4.172   2.117 -0.3394  0.8245 -1.1585
 2332SOL    HW118458   0.128   4.230   2.192 -2.7077  1.9871 -1.8033
 2332SOL    HW218459   0.142   4.236   2.049 -1.8899 -0.0397 -2.4917
 2333SOL     OW18460   0.868   0.813   0.602  0.3400  0.4487 -0.4382
 2333SOL    HW118461   0.934   0.828   0.534 -1.4012 -0.0881 -2.2283
 2333SOL    HW218462   0.798   0.870   0.571  1.9691  0.7878 -3.5188
 2334SOL     OW18463   3.967   2.417  15.296  0.6305 -0.1253 -0.1623
 2334SOL    HW118464   3.945   2.511  15.297  0.6552 -0.1158 -0.8561
 2334SOL    HW218465   3.939   2.388  15.383 -0.6058  0.7348 -0.2658
 2335SOL     OW18466   3.091   0.011   6.449  0.0327 -0.4701  0.4317
 2335SOL    HW118467   3.148   0.062   6.506 -0.6567  0.6749  0.0839
 2335SOL    HW218468   3.006   0.051   6.467  0.2592  1.5762 -3.0823
 2336SOL     OW18469   2.282   2.367  11.364 -0.2548  0.1017 -0.4739
 2336SOL    HW118470   2.285   2.388  11.458 -1.1213  0.9839 -0.6424
 2336SOL    HW218471   2.320   2.279  11.361 -0.6258 -0.0263 -1.3502
 2337SOL     OW18472   0.557   4.098   5.675  0.5487 -0.2457  0.2214
 2337SOL    HW118473   0.618   4.053   5.733  0.0620 -2.9435 -1.3829
 2337SOL    HW218474   0.563   4.052   5.591  0.2902  2.7984 -1.4666
 2338SOL     OW18475   3.484   1.644   1.102  0.7151 -0.4518  0.4118
 2338SOL    HW118476   3.473   1.686   1.187 -0.5226  1.7303 -0.8310
 2338SOL    HW218477   3.417   1.577   1.109  0.7712 -0.4514  0.9778
 2339SOL     OW18478   0.996   1.009  13.322 -0.0926  0.0802 -0.1227
 2339SOL    HW118479   0.955   0.935  13.366  2.2541  0.2459  2.3431
 2339SOL    HW218480   1.088   0.985  13.324 -0.3686 -0.6945  2.5240
 2340SOL     OW18481   1.506   3.933   4.078 -0.0015  0.1485 -0.1761
 2340SOL    HW118482   1.545   4.014   4.111 -1.3145 -0.3663  2.6766
 2340SOL    HW218483   1.568   3.870   4.114 -0.6998 -0.5703 -0.2270
 2341SOL     OW18484   2.851   4.609   4.151  0.1415  0.0624  0.0434
 2341SOL    HW118485   2.828   4.619   4.058 -1.4897 -1.9550  0.2413
 2341SOL    HW218486   2.930   4.664   4.150 -0.5866  1.1161  1.2794
 2342SOL     OW18487   1.541   2.174  15.180 -0.4247 -0.1556  0.3397
 2342SOL    HW118488   1.610   2.203  15.240 -1.7176  2.1054  0.7141
 2342SOL    HW218489   1.465   2.223  15.209 -0.8399  0.0172 -1.0371
 2343SOL     OW18490   1.805   4.348   1.925  0.0060  0.1672  0.8475
 2343SOL    HW118491   1.884   4.402   1.924  0.0592  0.0451 -2.3965
 2343SOL    HW218492   1.769   4.381   2.007  0.0288 -1.4191  1.4959
 2344SOL     OW18493   1.880   1.873   3.698 -0.1356 -0.5342  0.0543
 2344SOL    HW118494   1.907   1.785   3.726  1.4478  0.2423  1.0093
 2344SOL    HW218495   1.955   1.893   3.642 -1.0227  0.1263 -0.8912
 2345SOL     OW18496   3.622   0.675   1.507  0.3347 -0.6188  0.3572
 2345SOL    HW118497   3.611   0.583   1.480  1.9449 -0.6328 -0.2794
 2345SOL    HW218498   3.717   0.673   1.517  0.6659 -0.0655 -2.5333
 2346SOL     OW18499   3.613   0.629  10.007 -0.0051  0.1351  0.0546
 2346SOL    HW118500   3.597   0.661   9.918 -3.0528  1.2744  1.0083
 2346SOL    HW218501   3.527   0.637  10.049  0.5023 -0.7387  1.2677
 2347SOL     OW18502   2.136   3.886   6.145  0.2988  0.2536 -0.4040
 2347SOL    HW118503   2.196   3.947   6.102  2.1886 -0.9090  0.5560
 2347SOL    HW218504   2.185   3.871   6.226 -1.1569 -2.6535 -0.0363
 2348SOL     OW18505   4.102   1.150   7.063  0.7026 -0.0362  0.6724
 2348SOL    HW118506   4.071   1.177   6.977 -2.1112  0.7829  1.9681
 2348SOL    HW218507   4.027   1.101   7.096 -1.0755  0.8740 -1.9839
 2349SOL     OW18508   3.428   0.116   7.648  0.7018  0.2841  0.2399
 2349SOL    HW118509   3.490   0.179   7.613 -1.4834  0.4920 -3.1486
 2349SOL    HW218510   3.349   0.136   7.598  0.1761  0.3058  1.0743
 2350SOL     OW18511   3.638   0.914  15.434  0.2119  0.2799 -0.5725
 2350SOL    HW118512   3.647   0.991  15.489  2.4700 -1.3359  1.3184
 2350SOL    HW218513   3.727   0.888  15.412  0.4740 -0.8458  1.8113
 2351SOL     OW18514   0.443   3.075   0.251  0.3868  0.2883  0.1301
 2351SOL    HW118515   0.492   3.158   0.260  0.8661  0.1260 -0.8841
 2351SOL    HW218516   0.509   3.017   0.213  0.7485  0.8312 -0.0770
 2352SOL     OW18517   2.595   2.301  12.427 -0.4943  1.0022 -0.5257
 2352SOL    HW118518   2.502   2.279  12.418 -0.7932  0.2855  4.0867
 2352SOL    HW218519   2.617   2.223  12.479  0.0183  2.3704  1.2847
 2353SOL     OW18520   1.344   2.285   4.867  0.1387 -0.0760  0.2192
 2353SOL    HW118521   1.317   2.347   4.935 -1.5349  0.2540 -0.7451
 2353SOL    HW218522   1.436   2.309   4.877  0.0964  0.8844 -1.8542
 2354SOL     OW18523   0.175   3.547   2.725 -0.0505 -0.0128 -0.2899
 2354SOL    HW118524   0.186   3.619   2.664 -1.5518 -1.9195 -2.8059
 2354SOL    HW218525   0.160   3.591   2.809  0.6090 -1.7204  0.7417
 2355SOL     OW18526   3.208   3.515   0.756  0.1476  0.4035  0.2326
 2355SOL    HW118527   3.235   3.424   0.744 -0.2627 -0.0919  2.8803
 2355SOL    HW218528   3.241   3.561   0.679 -0.4250  0.0226 -0.2371
 2356SOL     OW18529   0.570   1.561   1.056  0.3645  0.2153 -0.2580
 2356SOL    HW118530   0.527   1.617   1.121 -1.1115 -0.3225 -0.7639
 2356SOL    HW218531   0.577   1.477   1.102 -1.2101 -0.4027 -1.1440
 2357SOL     OW18532   3.711   1.543  14.369  0.5640 -0.3488  0.8314
 2357SOL    HW118533   3.640   1.608  14.361 -1.0926 -2.2148  0.2428
 2357SOL    HW218534   3.711   1.530  14.464  1.3379  1.8944  1.1229
 2358SOL     OW18535   4.490   1.467   9.657  0.2614 -0.4810 -0.1762
 2358SOL    HW118536   4.572   1.433   9.694 -0.3309 -1.3376  0.3558
 2358SOL    HW218537   4.496   1.431   9.569 -3.7329 -0.0784 -0.6200
 2359SOL     OW18538   2.048   4.009   4.588 -0.0275 -0.0745  0.1795
 2359SOL    HW118539   2.041   3.913   4.587 -0.9932 -0.0020 -0.0665
 2359SOL    HW218540   2.118   4.033   4.528 -0.4820 -0.4545 -0.5023
 2360SOL     OW18541   2.327   1.642   8.066 -0.1401  0.7593  0.0769
 2360SOL    HW118542   2.305   1.650   7.974  1.7411  0.4905 -0.4024
 2360SOL    HW218543   2.277   1.716   8.101  1.4972  0.8571  2.2757
 2361SOL     OW18544   0.525   3.966  16.144  0.0633  0.2456 -0.1391
 2361SOL    HW118545   0.553   3.877  16.165 -3.1524 -1.0343 -1.1672
 2361SOL    HW218546   0.449   3.979  16.201 -2.3109  0.4083 -3.3046
 2362SOL     OW18547   1.654   0.372   5.774  0.5197  0.3853  0.8592
 2362SOL    HW118548   1.646   0.467   5.784 -2.7108  0.3306 -1.1217
 2362SOL    HW218549   1.669   0.352   5.866  0.3914  0.4701  0.8981
 2363SOL     OW18550   2.141   0.922   1.642  0.3212  0.2897 -0.0243
 2363SOL    HW118551   2.145   0.828   1.658  0.8746  0.1880 -0.7539
 2363SOL    HW218552   2.164   0.961   1.727 -0.1740 -0.4387  0.4389
 2364SOL     OW18553   1.680   3.073   7.717 -0.0100  0.4581 -0.1772
 2364SOL    HW118554   1.605   3.131   7.727  0.9346  1.7886 -0.8643
 2364SOL    HW218555   1.746   3.132   7.681 -1.2052  1.6232 -0.4254
 2365SOL     OW18556   3.802   2.912  12.505 -0.4268  0.5127  0.0784
 2365SOL    HW118557   3.859   2.936  12.578  1.4409 -0.8590 -0.9520
 2365SOL    HW218558   3.789   3.000  12.469  0.8886  0.9560  0.6743
 2366SOL     OW18559   1.878   4.606   7.730  0.8392 -0.0297  0.0705
 2366SOL    HW118560   1.879   4.597   7.825 -0.5811  0.5052  0.1370
 2366SOL    HW218561   1.801   4.555   7.705  1.0414 -1.4496  2.3660
 2367SOL     OW18562   4.414   4.316   1.846 -0.0703  0.2803  0.1680
 2367SOL    HW118563   4.361   4.262   1.905 -0.6774 -0.0712 -0.7002
 2367SOL    HW218564   4.496   4.271   1.863 -0.9821 -1.3903  0.1697
 2368SOL     OW18565   0.025   0.166   7.026  0.2959  0.0361 -0.0131
 2368SOL    HW118566   0.097   0.122   6.981 -0.1770  1.0355 -1.7636
 2368SOL    HW218567   0.070   0.220   7.091 -0.4103 -0.4487  0.8847
 2369SOL     OW18568   0.315   0.982   7.865  0.8996  0.1890 -0.1049
 2369SOL    HW118569   0.274   0.958   7.782 -0.1171  0.1127  0.4273
 2369SOL    HW218570   0.236   1.011   7.910  0.0481 -1.4397 -0.5308
 2370SOL     OW18571   3.379   3.018   3.941  0.0626  0.4198  0.0715
 2370SOL    HW118572   3.362   3.003   3.848 -0.5223 -1.7488  0.5389
 2370SOL    HW218573   3.467   2.980   3.948  0.3004  0.8934 -0.3001
 2371SOL     OW18574   1.541   2.408   5.541 -0.3782  0.4730  0.5953
 2371SOL    HW118575   1.530   2.494   5.501 -3.3765 -0.0958  0.2153
 2371SOL    HW218576   1.451   2.381   5.558 -0.2418 -2.7068 -3.7001
 2372SOL     OW18577   3.872   1.390   3.328 -0.5160  0.2191  0.2569
 2372SOL    HW118578   3.808   1.404   3.258  0.0391  0.3141 -0.2385
 2372SOL    HW218579   3.810   1.383   3.400  0.3537  1.3446  1.1199
 2373SOL     OW18580   0.348   0.381  11.525 -0.2577  0.0244 -0.4527
 2373SOL    HW118581   0.262   0.348  11.550  0.1985 -0.8774 -0.0744
 2373SOL    HW218582   0.356   0.344  11.437  0.2560 -0.8699 -0.0277
 2374SOL     OW18583   3.511   3.882  15.044 -0.5413  0.9062  0.3470
 2374SOL    HW118584   3.530   3.894  14.951  3.2669 -0.1667  0.9866
 2374SOL    HW218585   3.556   3.801  15.068 -3.9452 -0.9684  0.4431
 2375SOL     OW18586   2.043   0.614   6.897 -0.1771  0.0904  0.5746
 2375SOL    HW118587   2.122   0.572   6.864 -1.0478 -0.3436 -0.9884
 2375SOL    HW218588   2.047   0.690   6.840 -0.1747  0.8520  1.5925
 2376SOL     OW18589   2.745   3.698   2.758  0.5045 -0.1463  0.5029
 2376SOL    HW118590   2.715   3.609   2.776 -2.9054  1.0538  0.7240
 2376SOL    HW218591   2.670   3.754   2.779  1.4107  0.7580  1.2817
 2377SOL     OW18592   0.148   1.575   3.539 -0.8627 -0.8739 -0.1087
 2377SOL    HW118593   0.225   1.538   3.583 -0.0062  1.0378  0.0070
 2377SOL    HW218594   0.171   1.562   3.447 -0.5051 -2.3536  0.1908
 2378SOL     OW18595   0.935   3.320   5.865  0.3426 -0.0689 -0.0202
 2378SOL    HW118596   0.951   3.380   5.792  3.5855 -1.4864 -0.4815
 2378SOL    HW218597   0.846   3.341   5.892  0.1682 -0.8797  0.0467
 2379SOL     OW18598   3.802   2.927   5.287 -0.2025 -0.0242 -0.7559
 2379SOL    HW118599   3.776   2.987   5.216  1.4311  1.4163 -0.1486
 2379SOL    HW218600   3.722   2.876   5.296 -0.0464 -0.2377 -0.5971
 2380SOL     OW18601   1.906   4.582   5.957 -0.1413  0.6654 -0.1327
 2380SOL    HW118602   1.852   4.516   5.999  0.4491  0.4813  0.3402
 2380SOL    HW218603   1.953   4.600   6.038 -0.9247  0.7773  0.2908
 2381SOL     OW18604   0.437   1.977  13.596  0.9073 -0.2510 -0.0842
 2381SOL    HW118605   0.404   1.947  13.680  1.2485 -3.4452 -1.1045
 2381SOL    HW218606   0.517   2.022  13.625  2.0854 -2.3771 -0.0711
 2382SOL     OW18607   3.131   2.670   6.604  0.2935  0.5008  0.3623
 2382SOL    HW118608   3.190   2.600   6.635  0.9913  0.5059 -0.9751
 2382SOL    HW218609   3.168   2.694   6.519  2.8116  0.3915  1.4081
 2383SOL     OW18610   4.126   2.965   7.235 -0.2799  0.5264  0.5032
 2383SOL    HW118611   4.204   2.993   7.284  1.0816 -1.1737 -0.6579
 2383SOL    HW218612   4.172   2.938   7.155  1.6870 -0.0977  1.8472
 2384SOL     OW18613   3.383   3.822   6.347 -0.3925  0.3998  0.1228
 2384SOL    HW118614   3.352   3.877   6.420 -0.2786  0.0127  0.4664
 2384SOL    HW218615   3.300   3.777   6.329  0.2324 -0.5664 -0.3221
 2385SOL     OW18616   4.573   0.828   9.212  0.9915 -0.4712 -0.3589
 2385SOL    HW118617   4.537   0.788   9.291  1.1764  1.2696  0.6078
 2385SOL    HW218618   4.589   0.754   9.154 -3.8990 -2.4228  0.7648
 2386SOL     OW18619   4.135   0.527   7.500  0.0468  0.5741 -0.2211
 2386SOL    HW118620   4.146   0.492   7.588 -0.0169 -0.6540 -0.7095
 2386SOL    HW218621   4.118   0.619   7.520 -0.0904  0.3988  0.4570
 2387SOL     OW18622   3.361   3.594   4.610  0.3321 -0.0590 -0.2093
 2387SOL    HW118623   3.444   3.611   4.566  1.3175  1.7241  2.3896
 2387SOL    HW218624   3.314   3.669   4.572  2.7407  1.9128  0.6861
 2388SOL     OW18625   2.805   1.882   2.838  0.1025  0.6277  0.2472
 2388SOL    HW118626   2.810   1.938   2.761  2.0706  2.9569  2.0595
 2388SOL    HW218627   2.802   1.951   2.905 -2.1073  3.1760 -2.4252
 2389SOL     OW18628   0.254   4.502  15.538  0.3887  0.3178  0.2125
 2389SOL    HW118629   0.170   4.536  15.571  0.9143  0.2366  1.6162
 2389SOL    HW218630   0.300   4.585  15.522 -1.0769  1.3779  1.5088
 2390SOL     OW18631   3.919   3.436  12.745  0.3551 -0.3199  0.0741
 2390SOL    HW118632   3.988   3.469  12.802  1.5568 -1.1208 -0.9250
 2390SOL    HW218633   3.953   3.447  12.656  0.2230 -0.2447  0.0321
 2391SOL     OW18634   1.007   0.389  11.983  0.1117  0.2384  0.1047
 2391SOL    HW118635   1.011   0.469  12.036 -0.0974 -1.3557  2.5111
 2391SOL    HW218636   1.049   0.409  11.899 -1.8738  0.3185 -0.8702
 2392SOL     OW18637   1.295   0.290   3.525  0.2530  0.1236  0.1911
 2392SOL    HW118638   1.331   0.368   3.566 -0.1068  0.6073 -0.4085
 2392SOL    HW218639   1.226   0.262   3.584  0.9239  3.0310  2.3423
 2393SOL     OW18640   3.393   3.019   3.661  0.0440  0.3065  1.2529
 2393SOL    HW118641   3.433   2.939   3.629  0.3442  0.7887  0.4380
 2393SOL    HW218642   3.322   3.032   3.599  2.8385  0.3086 -1.9105
 2394SOL     OW18643   2.864   3.904   0.537 -0.0331  0.1368  0.0151
 2394SOL    HW118644   2.855   3.982   0.482 -0.1154 -0.0524 -0.2421
 2394SOL    HW218645   2.923   3.940   0.603  1.3444  0.6356 -1.4878
 2395SOL     OW18646   2.502   1.611  15.226 -0.3278 -0.0921  0.4578
 2395SOL    HW118647   2.505   1.647  15.315 -2.5282 -0.3402  0.6281
 2395SOL    HW218648   2.407   1.605  15.219 -0.3115  1.5696 -1.3728
 2396SOL     OW18649   1.588   4.226   7.840 -0.1233 -0.5452  0.3192
 2396SOL    HW118650   1.514   4.189   7.887 -0.5472  0.3659  0.3600
 2396SOL    HW218651   1.643   4.148   7.834 -0.1972 -0.7037  1.7734
 2397SOL     OW18652   2.034   4.062  13.759 -0.0660 -0.3301 -0.0152
 2397SOL    HW118653   2.041   3.973  13.724  0.6909 -0.9950  1.7904
 2397SOL    HW218654   2.121   4.103  13.752 -0.2244  0.1070  0.5892
 2398SOL     OW18655   3.268   2.886   2.942 -0.1122 -0.2962  0.0710
 2398SOL    HW118656   3.174   2.896   2.928 -0.0705 -1.0566 -0.7174
 2398SOL    HW218657   3.285   2.976   2.970 -0.6325 -0.5932  1.3372
 2399SOL     OW18658   0.376   3.910  11.870  0.1824  0.2323  0.6244
 2399SOL    HW118659   0.456   3.893  11.821  1.1820  4.7681  0.7008
 2399SOL    HW218660   0.394   3.853  11.945  0.5353 -0.8941 -0.3179
 2400SOL     OW18661   1.495   0.087   3.498 -0.4440  0.3579 -0.0327
 2400SOL    HW118662   1.467   0.036   3.422 -1.2629  0.9406 -0.1297
 2400SOL    HW218663   1.427   0.155   3.496 -1.2923 -0.5195 -1.5857
 2401SOL     OW18664   3.231   2.003   3.206 -0.3825 -0.0424  0.3819
 2401SOL    HW118665   3.322   1.977   3.193 -0.9052 -1.5033 -0.4163
 2401SOL    HW218666   3.212   1.957   3.288 -0.2413  0.7954  0.8758
 2402SOL     OW18667   2.619   2.950   6.725  0.2024 -0.5349 -0.0091
 2402SOL    HW118668   2.616   3.041   6.754 -1.2156 -0.3977 -0.5923
 2402SOL    HW218669   2.545   2.906   6.766  0.1356 -2.0127 -1.7038
 2403SOL     OW18670   4.135   2.194   3.999  0.4033 -0.3508 -0.7192
 2403SOL    HW118671   4.167   2.211   3.910 -0.4195  3.0196 -0.3996
 2403SOL    HW218672   4.198   2.128   4.027  0.5080 -0.4192 -1.1109
 2404SOL     OW18673   0.205   3.244  14.625  0.4930 -0.1522 -0.3231
 2404SOL    HW118674   0.191   3.320  14.680 -0.1518 -0.2834 -0.3084
 2404SOL    HW218675   0.270   3.202  14.681  0.1258 -1.5817 -0.9448
 2405SOL     OW18676   3.824   1.308  15.997 -0.2467 -0.4269  0.2401
 2405SOL    HW118677   3.863   1.221  16.010 -0.8698 -0.3611  2.4689
 2405SOL    HW218678   3.838   1.329  15.905  1.4709 -2.0184  0.1342
 2406SOL     OW18679   4.192   3.535  15.073  0.3503  0.4541  0.2922
 2406SOL    HW118680   4.169   3.494  15.156  1.6784 -0.3607  0.2551
 2406SOL    HW218681   4.123   3.598  15.049  0.1493  0.2179  0.2583
 2407SOL     OW18682   0.081   1.908  17.189  0.0575  0.4613 -0.2642
 2407SOL    HW118683   0.065   1.881  17.279  1.0036 -0.2101 -0.3056
 2407SOL    HW218684   0.041   1.995  17.198  0.2670  0.4806  0.5268
 2408SOL     OW18685   3.631   0.835   8.617 -0.0361  0.1160  0.4349
 2408SOL    HW118686   3.694   0.772   8.652 -2.1594 -2.2257  0.0886
 2408SOL    HW218687   3.584   0.787   8.549  0.5269 -1.6278  1.2545
 2409SOL     OW18688   0.809   3.052   1.128 -0.6675 -0.1640  0.2669
 2409SOL    HW118689   0.860   3.132   1.142 -1.4302  0.7203 -1.9562
 2409SOL    HW218690   0.728   3.071   1.176 -1.4566 -0.4170 -0.9796
 2410SOL     OW18691   2.843   3.775   9.839 -0.3685  0.0614 -0.1058
 2410SOL    HW118692   2.779   3.754   9.771 -0.9577 -0.7223  0.6990
 2410SOL    HW218693   2.788   3.774   9.917 -1.5865 -1.6615 -0.9999
 2411SOL     OW18694   0.098   0.233  15.286 -0.2427  0.0518 -0.3027
 2411SOL    HW118695   0.044   0.266  15.357 -1.8956 -0.6782 -1.2184
 2411SOL    HW218696   0.178   0.280  15.310  0.0082  0.0301 -1.0809
 2412SOL     OW18697   0.944   2.079  13.627  0.0898 -0.2345 -0.0561
 2412SOL    HW118698   0.957   2.014  13.557 -0.3618  0.1605 -0.5106
 2412SOL    HW218699   0.996   2.154  13.599 -1.0998  0.4383 -0.5020
 2413SOL     OW18700   4.348   0.823  11.254  0.9944  0.4297  0.2157
 2413SOL    HW118701   4.389   0.787  11.333  2.2334  2.3380  0.4386
 2413SOL    HW218702   4.308   0.749  11.209  1.4082  0.5523 -0.3556
 2414SOL     OW18703   2.219   4.361  14.229 -0.2694  0.4827  0.2630
 2414SOL    HW118704   2.142   4.307  14.209  1.3965 -1.2257 -1.6711
 2414SOL    HW218705   2.298   4.314  14.201 -0.5682 -0.8454  1.6404
 2415SOL     OW18706   1.457   3.987   7.914  0.0375 -0.5737 -0.1742
 2415SOL    HW118707   1.507   3.991   7.996  0.4945  2.3799 -0.5937
 2415SOL    HW218708   1.421   3.900   7.931 -1.2684  0.5262  2.6973
 2416SOL     OW18709   2.763   4.254   5.364  0.2161 -0.0823  0.5314
 2416SOL    HW118710   2.790   4.343   5.384 -1.6591  0.4928  0.4656
 2416SOL    HW218711   2.702   4.245   5.437 -0.3403 -0.4146  0.0309
 2417SOL     OW18712   0.935   0.802   9.499  0.1591 -0.2138  0.1058
 2417SOL    HW118713   0.936   0.864   9.426  2.4021  0.1125  0.4110
 2417SOL    HW218714   0.924   0.864   9.571  2.0705  0.3713 -0.1065
 2418SOL     OW18715   3.260   1.193  15.126  0.0536 -0.3663 -0.1579
 2418SOL    HW118716   3.304   1.149  15.199 -0.2622  0.5453  0.5834
 2418SOL    HW218717   3.227   1.116  15.079 -1.7450  1.3727 -1.7194
 2419SOL     OW18718   2.323   2.062  11.391  0.0068 -0.2517  0.2568
 2419SOL    HW118719   2.354   1.979  11.427  0.9341 -0.2350 -0.5090
 2419SOL    HW218720   2.251   2.031  11.336 -1.3960  2.7175  0.4018
 2420SOL     OW18721   1.693   2.736   7.182  0.1170  0.4138 -0.4223
 2420SOL    HW118722   1.644   2.686   7.117 -0.3123  1.7786 -1.1453
 2420SOL    HW218723   1.781   2.700   7.171 -0.2779 -0.5284 -0.5156
 2421SOL     OW18724   2.387   0.290   6.051  0.0346 -0.4123  0.5351
 2421SOL    HW118725   2.336   0.345   5.991 -0.5617  0.4550  1.8437
 2421SOL    HW218726   2.428   0.231   5.987  1.8950 -0.9068  2.1813
 2422SOL     OW18727   3.566   3.352   8.137 -0.4619 -0.4045  0.3059
 2422SOL    HW118728   3.479   3.357   8.098 -0.1108 -2.5459 -0.7583
 2422SOL    HW218729   3.564   3.418   8.206 -1.6138  0.4851 -0.5907
 2423SOL     OW18730   2.362   0.855  13.097 -0.5054 -0.4800  0.3321
 2423SOL    HW118731   2.444   0.832  13.054 -1.1500 -0.8194 -0.7204
 2423SOL    HW218732   2.390   0.907  13.172 -0.8303 -0.3983  0.3976
 2424SOL     OW18733   3.556   0.196   5.324 -0.2032 -0.6591 -0.1810
 2424SOL    HW118734   3.545   0.145   5.243 -0.4123 -0.2424 -0.4114
 2424SOL    HW218735   3.554   0.285   5.289  2.5666 -0.7346 -0.5029
 2425SOL     OW18736   2.613   1.883   3.591  0.3323  0.5902  1.0425
 2425SOL    HW118737   2.580   1.958   3.641 -1.5882  0.7813 -0.5254
 2425SOL    HW218738   2.528   1.857   3.555 -0.1505  3.1535  0.3640
 2426SOL     OW18739   2.437   1.798  15.656  0.1933 -0.0277 -0.4551
 2426SOL    HW118740   2.347   1.780  15.685 -0.0718  0.5765 -0.8922
 2426SOL    HW218741   2.420   1.892  15.650 -0.5177 -0.0313  1.5452
 2427SOL     OW18742   4.156   3.643  12.240 -0.2945  0.1470  0.1976
 2427SOL    HW118743   4.186   3.725  12.278  0.6273 -1.0233  2.0516
 2427SOL    HW218744   4.226   3.584  12.268 -0.5745 -1.3077 -2.1424
 2428SOL     OW18745   0.491   0.187  15.766  0.1490 -0.0279  0.0688
 2428SOL    HW118746   0.428   0.258  15.768 -0.3702 -0.4630 -0.7572
 2428SOL    HW218747   0.557   0.212  15.831  1.8133  1.0328 -2.0240
 2429SOL     OW18748   0.547   2.683   8.187 -0.7249  0.3185  0.3978
 2429SOL    HW118749   0.547   2.611   8.250  0.3109  1.9250  2.2543
 2429SOL    HW218750   0.542   2.761   8.242 -0.5281  1.1442 -0.7425
 2430SOL     OW18751   2.929   0.701   8.524  0.1517  0.3474 -0.2735
 2430SOL    HW118752   2.909   0.612   8.493 -0.5909  0.1455  0.7758
 2430SOL    HW218753   2.841   0.713   8.559  1.7420  2.9576  2.8487
 2431SOL     OW18754   0.236   1.512   0.768  0.3301  0.3187 -0.5557
 2431SOL    HW118755   0.217   1.559   0.849  0.5253 -2.1732  0.9460
 2431SOL    HW218756   0.235   1.421   0.797 -2.1214 -0.6145 -3.5031
 2432SOL     OW18757   4.543   3.496   7.584  0.0175  0.5422  0.7288
 2432SOL    HW118758   4.624   3.542   7.563 -1.1968  1.6179 -1.6201
 2432SOL    HW218759   4.482   3.564   7.612 -0.5164  0.1173  0.5985
 2433SOL     OW18760   2.384   2.856  13.071  0.3732 -0.2456 -0.7149
 2433SOL    HW118761   2.359   2.797  12.999 -2.9091  0.2902  0.0059
 2433SOL    HW218762   2.307   2.910  13.084 -1.2402 -2.8084  0.3391
 2434SOL     OW18763   0.878   0.686   1.922 -0.0636 -0.4437  0.1029
 2434SOL    HW118764   0.868   0.618   1.989 -1.6424 -0.7320 -0.4177
 2434SOL    HW218765   0.965   0.666   1.888  1.2658  0.8138  2.7946
 2435SOL     OW18766   1.239   3.973  14.579  0.1880 -0.7930  0.4622
 2435SOL    HW118767   1.280   3.956  14.494 -0.0417 -3.0912  0.7912
 2435SOL    HW218768   1.148   3.968  14.552  0.4830 -2.3445 -0.2918
 2436SOL     OW18769   4.667   4.704   3.470 -0.2051  0.3601  0.2700
 2436SOL    HW118770   0.019   4.708   3.413  1.0050  0.1190  1.8659
 2436SOL    HW218771   4.606   4.643   3.429  2.4926 -0.1591 -3.0163
 2437SOL     OW18772   0.201   2.969   3.260  0.6475 -0.4003 -0.0519
 2437SOL    HW118773   0.263   3.036   3.232 -0.0655  0.4916  0.5224
 2437SOL    HW218774   0.119   3.016   3.273  2.1047  2.4819 -1.2370
 2438SOL     OW18775   1.328   2.871   5.555 -0.1267  0.0972 -0.2108
 2438SOL    HW118776   1.328   2.872   5.460  0.8431 -1.7220 -0.2406
 2438SOL    HW218777   1.377   2.951   5.569 -1.8092  1.3729 -1.6506
 2439SOL     OW18778   2.982   4.159   8.323  0.5250 -0.4071 -0.1062
 2439SOL    HW118779   2.986   4.069   8.290 -0.4007  0.2164 -1.9362
 2439SOL    HW218780   2.894   4.164   8.360 -1.2238 -1.4253 -4.1272
 2440SOL     OW18781   2.240   1.632   6.426 -0.3477  0.4325 -0.1690
 2440SOL    HW118782   2.200   1.565   6.482  2.5484 -0.2258  1.0969
 2440SOL    HW218783   2.316   1.589   6.388 -1.3448 -1.9275  0.5016
 2441SOL     OW18784   3.488   4.165   2.963 -0.1085  0.1101 -0.0918
 2441SOL    HW118785   3.530   4.233   3.015 -1.7867  1.1306 -0.0709
 2441SOL    HW218786   3.514   4.083   3.005 -1.6112 -0.9556 -1.2570
 2442SOL     OW18787   1.262   4.214   6.347  0.0209  0.8875  0.0750
 2442SOL    HW118788   1.194   4.282   6.349  1.0020  1.7519  3.7069
 2442SOL    HW218789   1.330   4.265   6.391  1.3381 -1.0777  0.3324
 2443SOL     OW18790   4.389   3.361   8.921 -0.3769  0.1651 -0.3126
 2443SOL    HW118791   4.468   3.325   8.882 -0.0910  2.0340 -1.4316
 2443SOL    HW218792   4.406   3.323   9.008  1.1190  1.2852 -0.1188
 2444SOL     OW18793   0.148   3.295   3.560 -1.6709 -0.0900  0.4978
 2444SOL    HW118794   0.175   3.204   3.554 -1.5547 -0.0581  0.5353
 2444SOL    HW218795   0.140   3.315   3.467 -2.8346  0.1902  0.6563
 2445SOL     OW18796   3.331   4.044   7.124  0.2634  0.0305  0.4865
 2445SOL    HW118797   3.409   4.050   7.180 -0.4232  1.5398  1.2923
 2445SOL    HW218798   3.314   4.137   7.111  0.7182  0.6455  4.1942
 2446SOL     OW18799   2.604   3.928   2.164  0.2555  0.6086 -0.2918
 2446SOL    HW118800   2.515   3.923   2.200  0.4244  1.1984  0.2112
 2446SOL    HW218801   2.649   3.853   2.202 -0.0510 -0.8120 -2.7319
 2447SOL     OW18802   0.591   3.743   7.877 -0.0063  0.1890 -0.4240
 2447SOL    HW118803   0.541   3.681   7.824 -2.1157  0.6165  1.0759
 2447SOL    HW218804   0.623   3.682   7.944 -1.1275 -0.4999 -0.5186
 2448SOL     OW18805   3.870   2.210   1.446  0.0795 -0.5133  0.0011
 2448SOL    HW118806   3.918   2.253   1.516 -0.8031 -0.3751  0.5246
 2448SOL    HW218807   3.806   2.151   1.487  0.9949 -1.2374  0.3783
 2449SOL     OW18808   4.554   0.441  10.502  0.0263  0.0178  0.0944
 2449SOL    HW118809   4.587   0.394  10.579 -2.7283 -3.9607 -1.1481
 2449SOL    HW218810   4.526   0.367  10.448  1.4647 -1.5106  1.4428
 2450SOL     OW18811   3.208   4.299   4.037 -0.0602  0.9478 -0.0237
 2450SOL    HW118812   3.175   4.338   4.118 -0.3785 -1.2916  0.9359
 2450SOL    HW218813   3.142   4.310   3.970  0.1940 -0.8370 -0.5666
 2451SOL     OW18814   0.007   3.357   4.345  0.0692  0.3097  0.4995
 2451SOL    HW118815   0.086   3.309   4.373  0.3928  0.0810 -0.7621
 2451SOL    HW218816   4.672   3.283   4.333  0.2994  0.0602  0.9025
 2452SOL     OW18817   1.751   4.294  17.529 -0.6468  0.2601  0.4195
 2452SOL    HW118818   1.756   4.251  17.443 -4.8779 -0.5613  0.6024
 2452SOL    HW218819   1.742   4.389  17.524  3.0483  0.6489  1.0223
 2453SOL     OW18820   0.496   0.244  16.785  0.5673 -0.0751  0.2079
 2453SOL    HW118821   0.581   0.245  16.741  0.1855 -1.3063 -0.5744
 2453SOL    HW218822   0.456   0.164  16.750 -0.4222  0.9055 -0.8792
 2454SOL     OW18823   3.570   0.756  10.843  0.2981  0.1432  0.5120
 2454SOL    HW118824   3.497   0.792  10.793 -1.9101 -2.4337  1.8749
 2454SOL    HW218825   3.564   0.821  10.913 -1.2124 -1.7892  2.1789
 2455SOL     OW18826   1.814   0.274   7.116  0.1215 -0.2151  0.1202
 2455SOL    HW118827   1.802   0.227   7.198 -0.9545 -1.9743 -1.0581
 2455SOL    HW218828   1.772   0.354   7.150  0.8876  1.7165 -3.4372
 2456SOL     OW18829   1.600   3.029   8.404 -0.4509 -0.0617 -0.1075
 2456SOL    HW118830   1.656   3.062   8.475 -1.4394  0.1988  0.5439
 2456SOL    HW218831   1.567   2.947   8.439 -0.6223 -0.6543 -1.6398
 2457SOL     OW18832   2.041   4.171  17.245  0.0523 -0.5059  0.3426
 2457SOL    HW118833   1.946   4.164  17.236  0.0854  1.4918 -1.5368
 2457SOL    HW218834   2.067   4.259  17.217  0.1922 -0.7134 -0.1796
 2458SOL     OW18835   2.716   3.399  10.252 -0.5916  0.9937 -0.2058
 2458SOL    HW118836   2.776   3.367  10.319 -0.4468 -0.1211 -0.8593
 2458SOL    HW218837   2.723   3.493  10.267  2.5082  0.6654  0.3903
 2459SOL     OW18838   2.845   0.696   7.917  0.5893  0.6052  0.1771
 2459SOL    HW118839   2.796   0.748   7.852 -2.5593 -2.6563 -0.0510
 2459SOL    HW218840   2.799   0.703   8.001 -1.5421  0.7456 -0.9993
 2460SOL     OW18841   0.206   2.256  15.413 -0.3969  0.3654 -0.0407
 2460SOL    HW118842   0.153   2.262  15.334 -2.7230  0.6117  1.5194
 2460SOL    HW218843   0.193   2.164  15.433 -1.0815  0.6802  0.9769
 2461SOL     OW18844   1.904   0.362   6.208  0.2152  0.4166 -1.1311
 2461SOL    HW118845   1.939   0.330   6.125  2.8390 -1.3052  0.6447
 2461SOL    HW218846   1.814   0.386   6.186  0.2840  0.3842 -1.4512
 2462SOL     OW18847   1.040   2.821  13.849  0.0610 -0.4373 -0.1720
 2462SOL    HW118848   1.033   2.911  13.816  0.8289 -0.4366 -0.3286
 2462SOL    HW218849   1.100   2.836  13.922 -1.6529 -0.1272  1.1655
 2463SOL     OW18850   2.708   3.343   8.742 -0.2124 -0.5025 -0.0216
 2463SOL    HW118851   2.670   3.303   8.820  1.0640 -1.4651  0.0951
 2463SOL    HW218852   2.692   3.437   8.750  1.6118 -0.1591 -0.5007
 2464SOL     OW18853   2.603   3.848   8.277 -0.1044 -0.8581  0.2036
 2464SOL    HW118854   2.617   3.942   8.265 -2.2274 -0.4914  0.5774
 2464SOL    HW218855   2.659   3.838   8.354  0.6581  0.3420 -0.1896
 2465SOL     OW18856   2.950   1.744   4.886 -0.2158  0.3173 -0.0677
 2465SOL    HW118857   2.856   1.727   4.879 -0.2496  0.9825 -1.3649
 2465SOL    HW218858   2.977   1.708   4.801  0.8116  1.3711 -0.1929
 2466SOL     OW18859   3.820   3.986   4.234 -0.4212  0.2491 -0.0433
 2466SOL    HW118860   3.818   3.952   4.323 -1.7722 -0.0660 -0.1936
 2466SOL    HW218861   3.814   3.906   4.182 -1.4474  0.5070 -0.3119
 2467SOL     OW18862   1.437   1.370   6.811  0.2000  0.0591  0.7899
 2467SOL    HW118863   1.359   1.420   6.835 -0.4833 -0.8352  0.4377
 2467SOL    HW218864   1.394   1.291   6.777 -1.2241  0.5802  1.3692
 2468SOL     OW18865   1.870   3.042   3.430  0.1306  0.3139  0.0135
 2468SOL    HW118866   1.847   3.068   3.520  0.8320  0.4803  0.1404
 2468SOL    HW218867   1.821   3.107   3.379  0.4429  0.3572 -0.2244
 2469SOL     OW18868   1.558   0.294  15.823  0.0050  0.0381 -0.6859
 2469SOL    HW118869   1.586   0.263  15.910 -0.2808 -0.2085 -0.6829
 2469SOL    HW218870   1.563   0.211  15.776 -1.9591 -0.5355  0.1153
 2470SOL     OW18871   3.545   3.706  16.089  0.1254 -0.3871 -0.0724
 2470SOL    HW118872   3.597   3.753  16.023 -1.6354  3.1743  1.0626
 2470SOL    HW218873   3.475   3.662  16.040  1.0684 -0.0660 -1.7208
 2471SOL     OW18874   4.436   3.815   9.702  0.2704 -0.1670 -0.3982
 2471SOL    HW118875   4.488   3.791   9.778 -1.5286 -1.0326  0.5807
 2471SOL    HW218876   4.349   3.779   9.721  0.6752  0.3331  2.3188
 2472SOL     OW18877   2.982   2.884   7.564  0.4143  0.3078 -0.5272
 2472SOL    HW118878   3.009   2.848   7.649 -0.8660  0.4613 -0.0648
 2472SOL    HW218879   2.891   2.901   7.587  0.4110  0.1962 -0.4570
 2473SOL     OW18880   3.018   1.582   0.630 -0.7299  0.9474 -0.2479
 2473SOL    HW118881   3.097   1.538   0.600 -1.9664 -0.5346 -1.3217
 2473SOL    HW218882   2.960   1.574   0.554 -1.7227 -0.6538  0.6897
 2474SOL     OW18883   1.897   2.391   3.273  0.3374  0.1497  0.0904
 2474SOL    HW118884   1.805   2.366   3.288  0.4592 -1.8620 -2.3887
 2474SOL    HW218885   1.900   2.438   3.189  1.0047 -0.6173 -0.3127
 2475SOL     OW18886   0.003   4.683   9.503  0.2131 -0.2477 -0.1462
 2475SOL    HW118887   0.089   4.659   9.538  1.4107  1.5430 -1.8127
 2475SOL    HW218888   4.713   0.030   9.565  0.4381 -0.7978  0.5390
 2476SOL     OW18889   1.308   1.304  17.164 -0.0843  0.0895  0.2892
 2476SOL    HW118890   1.268   1.293  17.250  0.2781  0.0356  0.4458
 2476SOL    HW218891   1.234   1.345  17.118 -1.4941 -0.1127  2.3905
 2477SOL     OW18892   0.252   3.039   6.778  0.4162  0.0928 -0.2113
 2477SOL    HW118893   0.197   3.080   6.846  0.5848 -0.8468  0.5005
 2477SOL    HW218894   0.285   2.963   6.827 -0.6015 -0.8637 -0.9968
 2478SOL     OW18895   2.240   2.909   7.762 -0.5928 -0.7567 -0.5877
 2478SOL    HW118896   2.233   2.950   7.676 -0.8555  1.8708  0.7113
 2478SOL    HW218897   2.152   2.909   7.800  0.0205  2.0001  0.7629
 2479SOL     OW18898   1.061   0.787  13.927  0.2161  0.3960  0.5438
 2479SOL    HW118899   0.974   0.795  13.889  0.2064 -3.9158 -0.3703
 2479SOL    HW218900   1.090   0.878  13.918 -1.9363  0.9396 -0.7947
 2480SOL     OW18901   3.550   3.617   6.634  0.6216 -0.1274  0.0341
 2480SOL    HW118902   3.484   3.663   6.582  1.2969  0.5523 -0.2112
 2480SOL    HW218903   3.604   3.687   6.670 -1.2790  0.5075  1.6639
 2481SOL     OW18904   4.390   1.153   8.149  0.1884  0.8443 -0.9165
 2481SOL    HW118905   4.405   1.171   8.056  0.5968  1.3343 -0.7547
 2481SOL    HW218906   4.408   1.059   8.154  0.1421  0.9139  0.5988
 2482SOL     OW18907   1.127   3.964   8.538  0.0709 -0.4133  0.2307
 2482SOL    HW118908   1.204   4.020   8.528 -1.5426  1.9558  1.0697
 2482SOL    HW218909   1.162   3.875   8.548  0.8507 -0.2365 -0.8999
 2483SOL     OW18910   1.560   0.347  10.499  0.0411 -0.4549  0.6378
 2483SOL    HW118911   1.552   0.403  10.576  1.0618  1.8405 -0.9471
 2483SOL    HW218912   1.648   0.310  10.507  1.5211  2.5781 -1.4918
 2484SOL     OW18913   1.721   4.318   3.398 -0.0929  0.1294 -0.3101
 2484SOL    HW118914   1.793   4.377   3.376  0.5205 -0.0758  1.1209
 2484SOL    HW218915   1.772   4.238   3.402 -0.0866  0.2463  2.6706
 2485SOL     OW18916   1.335   1.961   1.564 -0.3299  0.2565  0.4666
 2485SOL    HW118917   1.388   2.013   1.625  3.4278 -2.1270 -0.8338
 2485SOL    HW218918   1.301   1.897   1.627 -2.6570 -0.1766 -1.2365
 2486SOL     OW18919   1.165   3.363  17.662 -0.1447  0.1421 -0.1232
 2486SOL    HW118920   1.077   3.331  17.684 -0.4879  1.2767  0.1802
 2486SOL    HW218921   1.174   3.353  17.567 -1.6146  3.1038 -0.5970
 2487SOL     OW18922   3.178   2.477  15.782 -0.2025 -0.3985  0.4253
 2487SOL    HW118923   3.190   2.570  15.797  0.0717 -0.6818  2.0509
 2487SOL    HW218924   3.157   2.460  15.874  1.0977  1.3268  1.0353
 2488SOL     OW18925   1.464   3.855  10.075  0.3963  0.3963  0.2218
 2488SOL    HW118926   1.501   3.776  10.114 -0.9354 -0.1171  0.4604
 2488SOL    HW218927   1.392   3.879  10.134  1.6892 -0.7911  2.3044
 2489SOL     OW18928   0.997   2.781   4.078  0.0932  0.6458 -0.2036
 2489SOL    HW118929   1.070   2.722   4.058 -0.7334 -0.4878  0.1114
 2489SOL    HW218930   1.028   2.809   4.164  0.3902  0.2085 -0.1689
 2490SOL     OW18931   4.036   3.855  16.873  0.7339 -0.1185  0.1172
 2490SOL    HW118932   4.062   3.770  16.837  1.2360  0.1369 -0.1264
 2490SOL    HW218933   4.039   3.853  16.969  0.2566  2.8087  0.1853
 2491SOL     OW18934   0.850   3.513   4.720 -0.3954 -0.0962 -0.0417
 2491SOL    HW118935   0.849   3.571   4.643  0.9783  0.8396  0.6475
 2491SOL    HW218936   0.844   3.570   4.796  2.8526 -2.4929  1.9834
 2492SOL     OW18937   1.374   0.928   6.600 -0.3438  0.3848  0.4149
 2492SOL    HW118938   1.439   0.955   6.665 -1.4480  0.8687  1.3078
 2492SOL    HW218939   1.410   0.848   6.562  0.7652  0.5758  1.0646
 2493SOL     OW18940   1.295   2.267  15.246  0.0492  0.5124  0.2699
 2493SOL    HW118941   1.249   2.276  15.163  0.1352 -1.0824  0.0465
 2493SOL    HW218942   1.231   2.207  15.283  0.1680  0.3650  0.2371
 2494SOL     OW18943   4.193   0.488   8.481 -0.2352 -0.5728  0.3042
 2494SOL    HW118944   4.270   0.457   8.529 -0.4288 -0.3270  0.7784
 2494SOL    HW218945   4.132   0.467   8.552  0.3392 -1.1043  0.6455
 2495SOL     OW18946   3.937   2.445  17.045  0.3656 -0.1728 -0.1636
 2495SOL    HW118947   3.916   2.436  17.138  0.4891 -0.5366 -0.1720
 2495SOL    HW218948   4.021   2.398  17.045  0.6153  0.2700 -0.3633
 2496SOL     OW18949   1.286   2.738  16.117  0.0186  0.2629 -0.2468
 2496SOL    HW118950   1.195   2.724  16.090 -0.3112  1.4768  0.2360
 2496SOL    HW218951   1.279   2.815  16.174  3.5720  0.5857 -0.2476
 2497SOL     OW18952   0.652   1.359   8.461 -0.5383 -0.1904 -0.0416
 2497SOL    HW118953   0.647   1.337   8.554  2.2145  1.1459  0.4144
 2497SOL    HW218954   0.651   1.455   8.463  0.5564 -0.1677 -0.9004
 2498SOL     OW18955   0.096   2.664   9.036 -0.3551 -0.6397  0.6089
 2498SOL    HW118956   0.008   2.630   9.024 -0.8068  1.4674 -2.1210
 2498SOL    HW218957   0.118   2.618   9.117  1.3670  0.1387  0.6015
 2499SOL     OW18958   2.071   4.340  12.315  0.1315 -0.2493 -0.1370
 2499SOL    HW118959   2.133   4.400  12.273  0.8991 -0.2519  0.9852
 2499SOL    HW218960   2.039   4.291  12.239  0.2965  0.3067 -0.5693
 2500SOL     OW18961   3.779   1.028   7.955  0.5354  0.0209  0.7485
 2500SOL    HW118962   3.786   1.002   8.047  2.1210 -2.4114 -0.0484
 2500SOL    HW218963   3.799   1.122   7.961 -0.9594  0.4308 -0.7425
 2501SOL     OW18964   0.435   4.457  11.468  0.1857 -0.3272  0.3091
 2501SOL    HW118965   0.424   4.375  11.515 -1.6367 -0.6122 -0.6069
 2501SOL    HW218966   0.528   4.461  11.448 -0.2180  2.1090 -1.1269
 2502SOL     OW18967   1.467   3.434   2.335  0.6770 -0.4518  0.3099
 2502SOL    HW118968   1.454   3.471   2.422 -1.5885 -0.5288  0.0184
 2502SOL    HW218969   1.377   3.401   2.326  0.5158 -0.9571  3.6355
 2503SOL     OW18970   3.159   4.038   7.952  0.1887  0.1001  0.4547
 2503SOL    HW118971   3.082   4.021   7.898 -0.0068 -0.6791  0.9837
 2503SOL    HW218972   3.123   4.121   7.985  1.9389  1.0516 -0.0208
 2504SOL     OW18973   4.708   3.939   8.716  0.4794  0.7021  0.1936
 2504SOL    HW118974   0.041   3.889   8.775  0.7375 -0.0752 -0.7124
 2504SOL    HW218975   4.713   3.889   8.635  1.9140 -2.1449  2.0100
 2505SOL     OW18976   3.205   1.025   5.889  0.0165 -0.1495  0.4184
 2505SOL    HW118977   3.210   1.120   5.899 -1.7633  0.1651 -1.6426
 2505SOL    HW218978   3.281   1.007   5.833 -0.1911 -0.7552  0.3221
 2506SOL     OW18979   0.940   0.453   1.182  0.1299 -0.2536  0.0746
 2506SOL    HW118980   0.870   0.514   1.206 -0.5413 -0.4920 -1.3279
 2506SOL    HW218981   0.889   0.380   1.149 -1.8193  1.8173 -1.4948
 2507SOL     OW18982   1.456   2.489   7.810 -0.6825  0.2905 -0.4411
 2507SOL    HW118983   1.506   2.410   7.787 -2.2454 -1.6600  2.7763
 2507SOL    HW218984   1.481   2.504   7.901 -0.0236 -0.7826 -0.4418
 2508SOL     OW18985   1.402   4.502  10.305  0.0258 -0.0776 -0.6424
 2508SOL    HW118986   1.311   4.531  10.306  0.5472  1.5761 -1.4715
 2508SOL    HW218987   1.439   4.584  10.337 -0.2934  0.7768 -2.5185
 2509SOL     OW18988   3.736   4.336   6.136  0.5408  0.1623  0.1428
 2509SOL    HW118989   3.800   4.273   6.103 -0.1369  0.0542 -0.9762
 2509SOL    HW218990   3.673   4.284   6.186  0.2609  0.9319  0.5955
 2510SOL     OW18991   0.042   1.979  16.935 -0.5000  0.5667  0.2001
 2510SOL    HW118992   0.059   1.927  17.014 -0.8217 -0.3911 -0.3618
 2510SOL    HW218993   0.091   2.056  16.965  1.6334 -1.0125  0.7699
 2511SOL     OW18994   0.624   3.091   5.678  0.1535  0.4338  0.0731
 2511SOL    HW118995   0.683   3.042   5.735  2.0051  0.6307 -1.6875
 2511SOL    HW218996   0.689   3.114   5.612 -1.2690 -0.6529 -1.7274
 2512SOL     OW18997   3.722   2.212  14.522 -0.7570 -0.5173  0.3326
 2512SOL    HW118998   3.775   2.219  14.601 -2.5582 -0.0199  1.4949
 2512SOL    HW218999   3.768   2.138  14.482 -3.0608 -1.1376 -1.1865
 2513SOL     OW19000   0.399   0.151   7.272 -0.0033 -0.3078  0.2995
 2513SOL    HW119001   0.390   0.242   7.301  0.6733  0.5215 -2.1668
 2513SOL    HW219002   0.423   0.112   7.356 -0.8431 -0.0861  0.6440
 2514SOL     OW19003   1.541   2.106   6.174  0.1363  0.1789 -0.2501
 2514SOL    HW119004   1.480   2.069   6.239 -0.1170  1.6128  0.3281
 2514SOL    HW219005   1.612   2.120   6.236  0.9070  0.7756 -1.2737
 2515SOL     OW19006   1.442   3.805   2.794 -0.3671 -0.4171  0.1862
 2515SOL    HW119007   1.469   3.816   2.703  2.3961 -1.2572  0.8793
 2515SOL    HW219008   1.443   3.890   2.838  1.5427 -0.2630 -0.1512
 2516SOL     OW19009   1.693   4.022  10.204  0.0475 -0.2397 -0.3727
 2516SOL    HW119010   1.606   4.060  10.221 -0.6177 -1.8875 -0.0873
 2516SOL    HW219011   1.710   4.028  10.110  1.0266 -1.5094 -0.2765
 2517SOL     OW19012   4.378   4.019   1.954 -1.0632 -0.0270  0.0925
 2517SOL    HW119013   4.397   3.974   1.871  0.4181  0.7193  0.0250
 2517SOL    HW219014   4.283   4.013   1.960 -1.0799 -0.4197 -0.5612
 2518SOL     OW19015   0.696   1.481   4.877  0.1633 -0.2730 -0.1684
 2518SOL    HW119016   0.757   1.463   4.948  0.6750  2.0414  0.0078
 2518SOL    HW219017   0.629   1.532   4.924  0.4167  0.2898 -0.4141
 2519SOL     OW19018   2.420   0.610   5.819  0.1096 -0.0970  0.3939
 2519SOL    HW119019   2.372   0.537   5.780 -1.0617  2.0852 -2.2910
 2519SOL    HW219020   2.363   0.619   5.896 -1.3749  0.3735 -0.7530
 2520SOL     OW19021   3.900   1.916  11.003 -0.1979 -0.4222 -0.4514
 2520SOL    HW119022   3.919   1.990  10.945  2.9198  1.6854  3.3006
 2520SOL    HW219023   3.937   1.847  10.947  0.1989 -1.5979  1.2784
 2521SOL     OW19024   3.208   4.363   5.592  0.1512  0.0482 -0.1037
 2521SOL    HW119025   3.187   4.354   5.499 -0.1489  0.7792 -0.1116
 2521SOL    HW219026   3.304   4.367   5.590  0.1493  1.0216  1.0111
 2522SOL     OW19027   0.916   1.064   7.235  0.2440 -1.0123  0.4854
 2522SOL    HW119028   0.996   1.114   7.252 -0.7203  0.7324 -0.1114
 2522SOL    HW219029   0.943   1.003   7.166 -0.3213 -0.3147 -0.3658
 2523SOL     OW19030   0.255   3.676  12.369  0.4677 -0.4637 -0.0736
 2523SOL    HW119031   0.194   3.615  12.409 -0.9956  0.0238 -1.5757
 2523SOL    HW219032   0.340   3.634  12.384  1.4301  0.4129 -3.0478
 2524SOL     OW19033   3.324   3.192   7.706  0.0537  0.8597  0.2340
 2524SOL    HW119034   3.231   3.183   7.725  0.1086 -2.3438 -1.0527
 2524SOL    HW219035   3.347   3.100   7.697 -3.0203  0.1164  0.2116
 2525SOL     OW19036   3.808   3.774   3.459 -0.2510  0.2509 -0.1788
 2525SOL    HW119037   3.739   3.840   3.450 -0.2810  0.5622  2.2029
 2525SOL    HW219038   3.818   3.760   3.365 -1.0980 -2.3584  0.1105
 2526SOL     OW19039   4.121   0.232   6.745 -0.6940 -0.3386  0.9346
 2526SOL    HW119040   4.145   0.246   6.836  2.4665  0.0783  0.0352
 2526SOL    HW219041   4.054   0.164   6.748 -1.7286  0.6400  0.3641
 2527SOL     OW19042   0.270   2.647  13.805  0.1822 -0.4879  0.3309
 2527SOL    HW119043   0.308   2.563  13.831  0.8369  0.1216  1.3553
 2527SOL    HW219044   0.330   2.676  13.736 -1.6838 -2.0339 -1.9550
 2528SOL     OW19045   1.443   2.745   6.630 -0.4175  0.0802 -0.1812
 2528SOL    HW119046   1.435   2.772   6.722 -0.3408  2.6309 -0.9319
 2528SOL    HW219047   1.532   2.710   6.619 -0.4466 -0.1685  0.3369
 2529SOL     OW19048   3.413   4.124   8.214  0.1264 -0.3139  0.1186
 2529SOL    HW119049   3.412   4.031   8.191 -1.5733 -0.3838  0.4517
 2529SOL    HW219050   3.483   4.160   8.160 -1.4019  0.6655 -1.1951
 2530SOL     OW19051   1.489   0.707   6.215  0.0732 -0.1378  0.0327
 2530SOL    HW119052   1.482   0.625   6.166  3.4399 -0.0069 -0.6496
 2530SOL    HW219053   1.404   0.744   6.193 -0.2578 -1.8241 -1.5146
 2531SOL     OW19054   0.984   1.202   3.142  0.4070 -0.0158 -0.0706
 2531SOL    HW119055   0.975   1.181   3.235 -0.3591 -1.6200 -0.5184
 2531SOL    HW219056   0.983   1.298   3.146 -1.8866 -0.0174 -1.1486
 2532SOL     OW19057   4.640   2.426  10.178 -0.3753  0.1066 -0.0241
 2532SOL    HW119058   4.676   2.434  10.089 -0.8988 -1.1660 -0.3570
 2532SOL    HW219059   4.560   2.378  10.154 -1.7574  1.0583  2.6924
 2533SOL     OW19060   1.961   4.279   3.860  0.7337 -0.8030 -0.2326
 2533SOL    HW119061   1.869   4.305   3.854  0.4886 -1.2660  1.6906
 2533SOL    HW219062   2.003   4.365   3.853 -0.9861 -0.0580 -1.3117
 2534SOL     OW19063   2.072   2.697   5.320  0.3365 -0.3760 -0.0933
 2534SOL    HW119064   2.167   2.682   5.321  0.3742 -0.1568 -0.3337
 2534SOL    HW219065   2.048   2.664   5.407  1.4722  0.4575  0.5339
 2535SOL     OW19066   2.605   0.498   0.046 -0.2800 -0.9199  0.1168
 2535SOL    HW119067   2.562   0.584   0.045  0.6963 -0.4204  0.9523
 2535SOL    HW219068   2.532   0.437   0.045 -0.6171 -0.5190 -0.0759
 2536SOL     OW19069   4.198   3.088   5.904  0.5525 -0.3359 -0.6528
 2536SOL    HW119070   4.251   3.024   5.952  1.5018  1.5073  0.7214
 2536SOL    HW219071   4.256   3.133   5.842 -1.0971  1.7478 -0.6912
 2537SOL     OW19072   0.960   2.718  11.124 -0.3979 -0.1458  0.1542
 2537SOL    HW119073   0.960   2.772  11.045  1.5728  0.2931  0.4574
 2537SOL    HW219074   0.995   2.779  11.189 -2.5984 -2.0375  3.1458
 2538SOL     OW19075   2.646   0.225  16.974 -0.3130  0.0039  0.4057
 2538SOL    HW119076   2.633   0.237  17.068 -0.1029  0.6071  0.3515
 2538SOL    HW219077   2.733   0.258  16.955 -0.7916 -0.1443 -2.1020
 2539SOL     OW19078   3.636   2.393  14.806 -0.5871 -0.1909  0.6019
 2539SOL    HW119079   3.701   2.415  14.873  0.7776  1.4014 -1.2650
 2539SOL    HW219080   3.566   2.356  14.860 -0.7756 -0.5694  0.0918
 2540SOL     OW19081   3.415   3.993  11.696  0.1824 -0.4700 -0.8183
 2540SOL    HW119082   3.408   3.996  11.791 -0.6839  1.7564 -0.9434
 2540SOL    HW219083   3.428   4.085  11.672  1.5678 -0.1871  1.0161
 2541SOL     OW19084   1.134   3.762  11.889 -0.7129  0.1647  0.1856
 2541SOL    HW119085   1.118   3.845  11.845 -2.9259  0.3693  1.3931
 2541SOL    HW219086   1.097   3.698  11.829  0.5050 -0.0953 -0.2974
 2542SOL     OW19087   4.294   0.921   6.903 -0.4205 -0.0826 -0.7190
 2542SOL    HW119088   4.250   1.005   6.914  0.7067  0.7077 -2.2447
 2542SOL    HW219089   4.235   0.857   6.944  0.4481  1.2211  2.5373
 2543SOL     OW19090   3.227   2.080   2.238  0.3618 -0.6125  0.6119
 2543SOL    HW119091   3.225   2.171   2.268  4.2084 -0.2988 -0.0852
 2543SOL    HW219092   3.235   2.093   2.143 -0.0929  1.8613  0.9178
 2544SOL     OW19093   3.912   3.672   5.620  0.1064  0.3036 -0.6154
 2544SOL    HW119094   3.825   3.637   5.604 -1.1922  2.6980  1.1773
 2544SOL    HW219095   3.920   3.679   5.715 -1.6930  2.2893 -0.6097
 2545SOL     OW19096   4.282   0.141   4.366 -0.0842  0.1269  0.4097
 2545SOL    HW119097   4.271   0.075   4.298 -0.1017  0.9351 -0.3663
 2545SOL    HW219098   4.327   0.084   4.428  0.1809 -0.4148 -0.2758
 2546SOL     OW19099   0.587   1.394  17.513 -0.0045 -0.2038  0.0226
 2546SOL    HW119100   0.603   1.479  17.554 -2.8003  0.5549 -0.5089
 2546SOL    HW219101   0.500   1.371  17.545  0.2020 -0.0907  0.6531
 2547SOL     OW19102   3.900   1.491   6.025  0.2087  0.3341  0.0343
 2547SOL    HW119103   3.868   1.468   5.938  0.0421  1.1436 -0.1165
 2547SOL    HW219104   3.931   1.406   6.056 -2.6331 -0.4074  0.8344
 2548SOL     OW19105   1.970   1.495   7.607 -1.0476  0.2943 -0.2647
 2548SOL    HW119106   1.924   1.579   7.598 -2.3716 -0.3811  0.1266
 2548SOL    HW219107   2.026   1.509   7.531  0.3361 -2.6422  0.2408
 2549SOL     OW19108   3.480   3.684  11.163 -0.1081  0.4947 -0.1694
 2549SOL    HW119109   3.438   3.705  11.246 -1.1969 -1.7296 -0.1595
 2549SOL    HW219110   3.407   3.676  11.101  0.0626  2.8110 -0.6627
 2550SOL     OW19111   1.433   3.885   7.224  0.4092  0.1894  0.1796
 2550SOL    HW119112   1.409   3.834   7.146 -0.3226  2.7418 -1.2678
 2550SOL    HW219113   1.503   3.938   7.187 -0.4325  0.9440 -0.3425
 2551SOL     OW19114   3.759   0.279   8.634 -0.4130  0.1395  0.3944
 2551SOL    HW119115   3.717   0.194   8.646  2.0288 -1.1403 -0.0339
 2551SOL    HW219116   3.713   0.334   8.698 -0.9888 -0.0322  0.1247
 2552SOL     OW19117   1.073   2.449   9.468  0.5261  0.1342  0.0478
 2552SOL    HW119118   1.022   2.438   9.548  2.5941  1.0095  1.4876
 2552SOL    HW219119   1.084   2.544   9.462 -1.0407  0.2477 -0.8368
 2553SOL     OW19120   2.145   2.270   3.994 -0.0613  0.1834  0.4310
 2553SOL    HW119121   2.093   2.204   3.949 -2.5852  2.4062  0.1199
 2553SOL    HW219122   2.204   2.300   3.925 -1.1100 -0.5472 -0.7640
 2554SOL     OW19123   3.904   4.222   8.859  0.4081 -0.6038  0.3371
 2554SOL    HW119124   3.945   4.298   8.817  0.2666  0.0378  1.3580
 2554SOL    HW219125   3.952   4.236   8.941 -0.1896 -1.4608  0.8256
 2555SOL     OW19126   2.881   2.286   3.521  0.4794 -0.5513  0.0658
 2555SOL    HW119127   2.862   2.340   3.597 -1.4382 -3.0843  1.3791
 2555SOL    HW219128   2.791   2.276   3.491  1.0216 -1.4074 -1.2640
 2556SOL     OW19129   4.381   1.719   9.684 -0.2395 -0.1258  0.2565
 2556SOL    HW119130   4.429   1.636   9.688 -0.2834 -0.1518  0.2432
 2556SOL    HW219131   4.288   1.696   9.683 -0.8172  2.0628  2.3739
 2557SOL     OW19132   3.471   2.180   6.639  0.2992 -0.0222 -0.5829
 2557SOL    HW119133   3.430   2.099   6.608  0.5710 -0.3676 -0.0386
 2557SOL    HW219134   3.403   2.244   6.619  1.4831  2.1161  2.3118
 2558SOL     OW19135   1.628   3.116   5.383  0.5818  0.0199  0.2869
 2558SOL    HW119136   1.557   3.141   5.323  0.9667 -2.7432 -1.3025
 2558SOL    HW219137   1.582   3.112   5.467 -1.5857  1.8312 -0.8160
 2559SOL     OW19138   1.096   3.173   9.385 -0.0968  0.1825 -0.9984
 2559SOL    HW119139   1.086   3.186   9.480  0.4059  0.8853 -1.0463
 2559SOL    HW219140   1.086   3.263   9.355  3.3670  0.5604 -1.0742
 2560SOL     OW19141   3.693   4.235   5.819 -0.4115  0.1483 -0.3926
 2560SOL    HW119142   3.755   4.220   5.747 -2.0073 -1.8557 -1.3655
 2560SOL    HW219143   3.662   4.144   5.823 -0.5783  0.2529  0.8225
 2561SOL     OW19144   3.461   4.581  12.035 -0.0727 -0.6716 -0.4038
 2561SOL    HW119145   3.546   4.623  12.028 -0.5650  0.5280  0.6372
 2561SOL    HW219146   3.480   4.508  12.094 -1.4924  0.7640  1.8582
 2562SOL     OW19147   0.870   1.438   8.688  0.4034 -0.1059  0.1262
 2562SOL    HW119148   0.854   1.370   8.753  1.8687  0.2687  0.8825
 2562SOL    HW219149   0.807   1.504   8.716 -0.4466 -0.2844 -1.3743
 2563SOL     OW19150   1.227   2.853  11.526  0.4855  0.0097 -0.2697
 2563SOL    HW119151   1.281   2.843  11.448 -0.9710  2.0355 -1.5457
 2563SOL    HW219152   1.224   2.760  11.549  2.7035  0.1438  0.5585
 2564SOL     OW19153   4.115   3.926   4.110 -0.2336 -0.8929 -0.1956
 2564SOL    HW119154   4.170   3.882   4.044 -1.9535 -0.8377 -1.6653
 2564SOL    HW219155   4.034   3.875   4.117 -2.7652  3.4009  1.7592
 2565SOL     OW19156   4.701   0.519  16.613  0.2035 -0.1994 -0.4555
 2565SOL    HW119157   4.722   0.597  16.664 -2.4560 -0.7636  1.5081
 2565SOL    HW219158   0.001   0.443  16.666  0.1400  0.6413  0.7587
 2566SOL     OW19159   3.587   4.438   4.501 -0.1827  0.1638 -0.3441
 2566SOL    HW119160   3.605   4.403   4.414  0.4161 -0.6114  0.0954
 2566SOL    HW219161   3.635   4.521   4.501  0.1582 -0.0285  0.9762
 2567SOL     OW19162   1.730   0.652   6.859  0.5819  0.4094 -0.4622
 2567SOL    HW119163   1.806   0.664   6.916  1.6672 -1.7436 -1.4618
 2567SOL    HW219164   1.668   0.657   6.932  2.6571  1.9122  1.1935
 2568SOL     OW19165   0.322   2.660   8.687  0.2711  0.6588 -0.4889
 2568SOL    HW119166   0.237   2.687   8.722  0.2249 -2.1720  1.5610
 2568SOL    HW219167   0.296   2.589   8.628 -0.2529 -1.9064  2.8402
 2569SOL     OW19168   2.805   0.211   4.524  0.6415 -0.7215 -0.3788
 2569SOL    HW119169   2.843   0.171   4.602 -2.4019 -1.2765  0.8014
 2569SOL    HW219170   2.717   0.174   4.521  0.2169  0.1420  1.5415
 2570SOL     OW19171   1.079   3.669   2.729 -0.1957 -0.3250 -0.4832
 2570SOL    HW119172   1.154   3.655   2.788 -1.9352 -0.4333  1.6819
 2570SOL    HW219173   1.116   3.703   2.647  0.1254  1.0062  0.2031
 2571SOL     OW19174   3.681   1.801  11.167 -0.0948  0.1427 -0.3406
 2571SOL    HW119175   3.729   1.858  11.108 -0.4815  0.9435  0.1102
 2571SOL    HW219176   3.673   1.848  11.250  2.7293  1.3963 -0.7723
 2572SOL     OW19177   0.109   4.279   7.891 -0.2106 -0.1268  0.2200
 2572SOL    HW119178   0.153   4.222   7.954  0.9054  1.8159  1.1955
 2572SOL    HW219179   0.109   4.356   7.948  0.7606  0.0980 -0.0788
 2573SOL     OW19180   1.133   2.932   1.790 -0.1755  0.1177  0.0019
 2573SOL    HW119181   1.075   3.006   1.768  0.1628  0.3403 -0.1456
 2573SOL    HW219182   1.204   2.941   1.727 -0.2815 -1.0058 -0.2808
 2574SOL     OW19183   4.029   0.235   1.775  0.0484  0.2077 -0.0345
 2574SOL    HW119184   4.006   0.310   1.720 -0.1979 -0.8390 -1.3451
 2574SOL    HW219185   4.007   0.157   1.725 -0.7730 -0.7713  1.8448
 2575SOL     OW19186   3.967   4.021   0.163 -0.2578  0.1037  0.2139
 2575SOL    HW119187   3.910   4.075   0.109  0.0444 -0.3836 -0.5940
 2575SOL    HW219188   3.985   3.942   0.112 -0.9955  0.5459 -0.7242
 2576SOL     OW19189   3.071   4.532   2.143  0.4747 -0.6935  0.0160
 2576SOL    HW119190   3.050   4.442   2.115  0.3751 -0.3540 -1.0088
 2576SOL    HW219191   2.992   4.566   2.184  0.6411  0.0933 -0.3190
 2577SOL     OW19192   3.092   0.557  16.985 -0.3652  0.2039 -0.0627
 2577SOL    HW119193   3.187   0.559  16.990 -0.4884  2.1564  1.3856
 2577SOL    HW219194   3.064   0.635  17.031  1.5979  1.3671 -0.8411
 2578SOL     OW19195   4.181   4.147  10.496 -0.3378 -0.4357  0.1011
 2578SOL    HW119196   4.140   4.195  10.424  1.4165 -1.4786 -1.5667
 2578SOL    HW219197   4.186   4.222  10.555 -1.0491 -1.2410  1.1907
 2579SOL     OW19198   4.481   3.327   5.538 -0.4530 -0.0773 -0.0167
 2579SOL    HW119199   4.393   3.306   5.570 -0.2187 -0.6016  0.2842
 2579SOL    HW219200   4.505   3.236   5.521 -2.8331 -0.8019  0.5194
 2580SOL     OW19201   1.231   3.753   2.506 -0.0214  0.3404 -0.3841
 2580SOL    HW119202   1.167   3.772   2.436 -1.0996  0.4199  0.6272
 2580SOL    HW219203   1.304   3.813   2.496  1.6782 -1.4934  1.2216
 2581SOL     OW19204   0.951   0.141   8.425  0.1311  0.1536 -0.7763
 2581SOL    HW119205   0.863   0.177   8.428 -0.3165 -0.9311 -0.9730
 2581SOL    HW219206   0.995   0.202   8.484  0.1710 -2.9156  2.3312
 2582SOL     OW19207   1.338   2.093   9.711  0.2867  0.0169  0.0537
 2582SOL    HW119208   1.363   2.008   9.747  1.7628 -0.4697 -2.0697
 2582SOL    HW219209   1.417   2.145   9.730  0.2420  1.1050 -2.6728
 2583SOL     OW19210   2.242   3.664   1.675 -0.1027  0.1908  0.0405
 2583SOL    HW119211   2.149   3.680   1.664 -0.7538 -2.5160  1.7699
 2583SOL    HW219212   2.256   3.583   1.626 -1.8204  1.6529 -2.9086
 2584SOL     OW19213   0.117   1.647   7.600  0.0414  0.3683  0.1794
 2584SOL    HW119214   0.062   1.719   7.568 -0.2993  0.9432  2.0254
 2584SOL    HW219215   0.082   1.578   7.544  2.5065 -1.2702  0.6789
 2585SOL     OW19216   4.366   1.908   7.106  0.2801 -0.1504  0.2743
 2585SOL    HW119217   4.333   1.990   7.142  0.4941  0.3274 -0.6048
 2585SOL    HW219218   4.341   1.834   7.162  0.7257  0.8081  1.7351
 2586SOL     OW19219   4.451   3.947   7.749  0.1578 -0.6674 -0.9692
 2586SOL    HW119220   4.387   3.948   7.820 -1.0738  0.5609 -2.0992
 2586SOL    HW219221   4.522   4.004   7.780 -1.1531  0.7561 -0.6011
 2587SOL     OW19222   4.423   3.543  11.470  0.5123  0.0899  0.7731
 2587SOL    HW119223   4.510   3.504  11.476  0.2709 -0.5095  0.2650
 2587SOL    HW219224   4.369   3.498  11.535  0.1902  0.5231  0.8057
 2588SOL     OW19225   1.870   4.377  16.931 -0.1588 -0.6384  0.5597
 2588SOL    HW119226   1.957   4.365  16.894 -1.0173  1.6885 -2.2600
 2588SOL    HW219227   1.833   4.436  16.865  0.5487 -0.2241  0.5347
 2589SOL     OW19228   3.587   2.490   7.087  0.7350  0.0571  0.0333
 2589SOL    HW119229   3.653   2.553   7.116 -0.5820  0.4989  2.0553
 2589SOL    HW219230   3.590   2.520   6.996 -0.3967 -2.7497 -0.9126
 2590SOL     OW19231   3.104   1.904   1.720 -0.1750 -0.3382  0.5327
 2590SOL    HW119232   3.011   1.920   1.701 -0.7015 -0.4884  3.0390
 2590SOL    HW219233   3.151   1.966   1.664  1.6487 -1.9183  0.3161
 2591SOL     OW19234   0.509   2.287   7.265 -0.1124 -0.6905  0.0979
 2591SOL    HW119235   0.487   2.196   7.288 -1.3965  0.4073  3.2542
 2591SOL    HW219236   0.421   2.323   7.277  1.9793  5.2894 -2.5555
 2592SOL     OW19237   3.185   0.279   0.877 -0.0658  0.2629 -0.7126
 2592SOL    HW119238   3.221   0.211   0.819 -0.5710 -1.0705  0.5711
 2592SOL    HW219239   3.139   0.329   0.809 -0.3944 -1.3008 -1.6356
 2593SOL     OW19240   2.004   2.793   4.746 -0.1042  0.0543 -0.2851
 2593SOL    HW119241   2.026   2.727   4.812 -0.5549  0.5220  0.3301
 2593SOL    HW219242   1.928   2.753   4.705 -2.2688  1.9361  1.8957
 2594SOL     OW19243   0.623   2.492   7.570  0.4790 -0.1685 -0.3054
 2594SOL    HW119244   0.714   2.494   7.539  0.7692 -0.8842  0.5061
 2594SOL    HW219245   0.626   2.545   7.649  2.3659 -2.3855  1.1171
 2595SOL     OW19246   3.571   3.699   5.981 -0.3395  0.0021 -0.3735
 2595SOL    HW119247   3.481   3.667   5.988  0.0419 -0.8861  0.4859
 2595SOL    HW219248   3.613   3.621   5.946  0.0255  0.4217 -0.8662
 2596SOL     OW19249   2.847   2.621   5.636 -0.1398 -0.0241  0.0637
 2596SOL    HW119250   2.879   2.610   5.547  1.4501  0.4586  0.5811
 2596SOL    HW219251   2.890   2.705   5.653 -0.2373  0.0545 -0.0799
 2597SOL     OW19252   0.078   3.215  17.005 -0.4133 -0.4184 -0.0992
 2597SOL    HW119253   0.128   3.145  17.047 -1.1240 -1.3854 -0.8619
 2597SOL    HW219254   0.030   3.257  17.076  0.7183  0.5829  0.0829
 2598SOL     OW19255   4.456   2.411   3.790 -0.2117 -0.3649 -0.0468
 2598SOL    HW119256   4.426   2.473   3.856  0.0895  0.5322 -0.7665
 2598SOL    HW219257   4.378   2.405   3.736  0.3513 -0.6688 -0.8240
 2599SOL     OW19258   3.832   3.246   1.945  0.0436  0.1068  0.2967
 2599SOL    HW119259   3.911   3.286   1.909  1.8138 -2.6365  1.0872
 2599SOL    HW219260   3.826   3.301   2.023  1.0563  2.0493 -1.0192
 2600SOL     OW19261   4.178   1.215   0.960  0.4099  0.0177  0.2913
 2600SOL    HW119262   4.226   1.297   0.972  0.6857  0.0347 -0.8691
 2600SOL    HW219263   4.203   1.171   1.041  0.2990  0.3304  0.4972
 2601SOL     OW19264   0.314   0.245   5.170 -0.2214 -0.3617 -0.1636
 2601SOL    HW119265   0.315   0.213   5.260 -2.4781  0.0536  0.0091
 2601SOL    HW219266   0.227   0.219   5.139 -0.8076  1.9790 -0.4303
 2602SOL     OW19267   3.505   3.881   1.622 -0.1770  0.1294 -0.9247
 2602SOL    HW119268   3.490   3.976   1.628 -0.5789 -0.0092  0.1295
 2602SOL    HW219269   3.551   3.879   1.538  2.1179 -1.6985  0.3633
 2603SOL     OW19270   3.979   0.999  14.582  0.3881 -0.1889  0.8714
 2603SOL    HW119271   4.007   1.009  14.490 -3.6889 -3.2872 -0.7122
 2603SOL    HW219272   3.981   1.091  14.607  1.8599 -0.0637  0.2958
 2604SOL     OW19273   1.248   3.402   7.088 -0.0932 -0.3579  0.2890
 2604SOL    HW119274   1.220   3.318   7.053  1.4042 -0.3539 -0.9427
 2604SOL    HW219275   1.216   3.455   7.015 -0.1465 -0.1042  0.4960
 2605SOL     OW19276   0.226   3.670  10.988 -0.1710  0.6550 -0.0432
 2605SOL    HW119277   0.200   3.646  10.898  4.0587 -2.1705 -0.5498
 2605SOL    HW219278   0.301   3.726  10.968 -0.9283  0.4902 -3.4346
 2606SOL     OW19279   2.685   0.171   3.415  0.0494  0.4441 -0.4887
 2606SOL    HW119280   2.701   0.145   3.324  0.4223 -1.7015  0.2008
 2606SOL    HW219281   2.634   0.095   3.442  2.1139 -0.4528  0.7735
 2607SOL     OW19282   1.890   2.470   8.955  0.5439 -0.2681 -0.0329
 2607SOL    HW119283   1.826   2.507   9.015  1.1522  0.1901  0.3362
 2607SOL    HW219284   1.970   2.521   8.972  1.1868 -0.7924 -1.5246
 2608SOL     OW19285   4.157   1.375   7.963 -0.3176  0.3288  0.4966
 2608SOL    HW119286   4.106   1.426   8.027 -1.2409  0.5196 -0.3826
 2608SOL    HW219287   4.246   1.392   7.993  0.3907 -2.3966 -0.0886
 2609SOL     OW19288   0.090   1.084   8.262  0.1355  0.7643 -0.1834
 2609SOL    HW119289   0.121   1.074   8.352 -0.9424 -0.5966  0.0395
 2609SOL    HW219290   0.109   0.993   8.239 -1.7535  0.2071  0.4669
 2610SOL     OW19291   2.828   0.629  14.241 -0.2713  0.4494 -0.1055
 2610SOL    HW119292   2.760   0.573  14.279 -0.9313  1.7596  0.6472
 2610SOL    HW219293   2.849   0.581  14.161 -0.0391 -0.7062  0.6488
 2611SOL     OW19294   2.812   0.270   3.645  0.1468  0.1747 -0.5108
 2611SOL    HW119295   2.783   0.252   3.555 -3.0406  0.2480  0.5092
 2611SOL    HW219296   2.905   0.247   3.634  0.8888  1.8655  2.2032
 2612SOL     OW19297   0.975   2.866   1.014 -0.5462 -0.2769  0.7330
 2612SOL    HW119298   0.922   2.917   1.075 -3.7390 -0.6972 -1.7138
 2612SOL    HW219299   1.063   2.900   1.030 -1.0057  1.0458  0.4772
 2613SOL     OW19300   2.271   3.101   3.350  0.1624  0.0784 -0.3353
 2613SOL    HW119301   2.281   3.106   3.254  1.4452 -1.8821 -0.3143
 2613SOL    HW219302   2.335   3.163   3.384  1.0732 -0.2034 -1.5198
 2614SOL     OW19303   1.893   2.543  15.835 -0.0773  0.5020 -0.1294
 2614SOL    HW119304   1.822   2.606  15.823  0.5210  1.2736  0.4895
 2614SOL    HW219305   1.930   2.533  15.747 -0.9097  2.4510 -0.6785
 2615SOL     OW19306   0.271   3.346   2.179  0.4455  0.2246 -0.2286
 2615SOL    HW119307   0.335   3.274   2.179 -0.9329 -0.9850 -0.3058
 2615SOL    HW219308   0.291   3.385   2.264 -1.7281  1.3964 -0.2578
 2616SOL     OW19309   1.092   2.675   7.291  0.8509 -0.1994  0.2711
 2616SOL    HW119310   1.070   2.730   7.216 -2.6155 -2.4431 -0.3491
 2616SOL    HW219311   1.184   2.695   7.304 -0.1559  3.5895  1.4300
 2617SOL     OW19312   2.382   0.802   4.133  0.2497 -0.5177  0.5014
 2617SOL    HW119313   2.401   0.812   4.040  0.9781  6.6188  1.4298
 2617SOL    HW219314   2.288   0.787   4.145  0.6438 -2.9459  0.6944
 2618SOL     OW19315   3.512   1.146   7.200 -0.6765 -0.8083  0.9359
 2618SOL    HW119316   3.600   1.156   7.235 -0.4131 -0.4560  0.1588
 2618SOL    HW219317   3.495   1.238   7.221 -0.2503 -0.7005  0.8016
 2619SOL     OW19318   1.011   1.147  13.002 -0.0783 -0.0699  0.0416
 2619SOL    HW119319   1.095   1.124  13.043  1.0100  1.2018 -1.4514
 2619SOL    HW219320   1.018   1.241  12.984  1.7089 -0.2211 -0.1021
 2620SOL     OW19321   4.348   4.270   8.373  0.2953 -0.0036 -0.1050
 2620SOL    HW119322   4.254   4.289   8.366  0.6684  1.4857 -1.1718
 2620SOL    HW219323   4.365   4.297   8.463 -0.8234 -1.0716  0.4252
 2621SOL     OW19324   4.224   0.273   9.035  0.2920 -0.1465  0.0545
 2621SOL    HW119325   4.190   0.276   9.125  0.6777 -2.7004  0.2826
 2621SOL    HW219326   4.194   0.358   9.004  0.1588 -0.2647 -0.1375
 2622SOL     OW19327   4.380   4.669   7.688  0.4208 -0.5123 -0.0682
 2622SOL    HW119328   4.474   4.663   7.670  0.7525  0.1831  1.4369
 2622SOL    HW219329   4.376   4.648   7.781 -0.2196  2.1434  0.5115
 2623SOL     OW19330   4.165   1.719   4.543  0.5393  0.5057  0.1942
 2623SOL    HW119331   4.229   1.764   4.599 -0.0126 -1.8330  2.6953
 2623SOL    HW219332   4.221   1.705   4.466  0.1414 -0.0676  0.0074
 2624SOL     OW19333   0.237   3.232  14.355 -0.5357  0.0359 -0.0770
 2624SOL    HW119334   0.234   3.239  14.450 -0.9477  0.6280 -0.1271
 2624SOL    HW219335   0.304   3.299  14.342  0.5292 -0.8954  0.6849
 2625SOL     OW19336   4.574   0.345   3.763 -0.3517 -0.4108  0.1984
 2625SOL    HW119337   4.548   0.436   3.744  1.1651  0.1110  0.6286
 2625SOL    HW219338   4.615   0.368   3.847  1.3650  2.0032 -1.2908
 2626SOL     OW19339   1.846   2.786   6.161  0.4448 -0.8784  0.1768
 2626SOL    HW119340   1.789   2.718   6.196 -1.3456  0.3774 -0.2709
 2626SOL    HW219341   1.799   2.860   6.199 -0.7403 -1.2782 -0.5026
 2627SOL     OW19342   2.778   1.717   3.759  0.4842 -0.1059 -0.2054
 2627SOL    HW119343   2.738   1.781   3.700 -0.2366 -0.2261  0.1461
 2627SOL    HW219344   2.808   1.778   3.827 -0.1857  0.1929 -0.1725
 2628SOL     OW19345   4.493   4.538   3.345 -0.6080  0.5600 -0.5831
 2628SOL    HW119346   4.534   4.454   3.324  1.0383  1.4890 -1.0919
 2628SOL    HW219347   4.416   4.529   3.289  0.0260  0.6970 -1.4821
 2629SOL     OW19348   1.039   3.957   5.635 -0.0303  1.2003 -0.3208
 2629SOL    HW119349   1.084   3.960   5.720  0.4193  0.1576 -0.5343
 2629SOL    HW219350   1.104   3.917   5.579  0.5642  1.8718 -0.1055
 2630SOL     OW19351   1.079   0.517   7.887  0.0730  0.3925 -0.2488
 2630SOL    HW119352   0.988   0.510   7.917 -0.4047  2.5402 -1.2200
 2630SOL    HW219353   1.087   0.446   7.824 -0.9272 -0.8373  0.9931
 2631SOL     OW19354   2.288   4.186  17.567  0.0433 -0.3853  0.3150
 2631SOL    HW119355   2.317   4.095  17.576  1.4304  0.0950  0.7795
 2631SOL    HW219356   2.354   4.219  17.507 -0.8845 -1.0525 -1.0572
 2632SOL     OW19357   2.411   3.761   3.317 -0.6285  0.0569 -0.2475
 2632SOL    HW119358   2.475   3.764   3.246 -1.5160  2.1710 -0.9610
 2632SOL    HW219359   2.344   3.709   3.272  1.5851 -3.3297  0.3714
 2633SOL     OW19360   0.105   2.618  11.183  0.1415 -0.3067 -0.1740
 2633SOL    HW119361   0.079   2.590  11.095  2.0064 -1.5074 -0.3355
 2633SOL    HW219362   0.061   2.558  11.243 -2.5712  1.9146  0.0482
 2634SOL     OW19363   2.635   1.649  14.169  0.2584  0.1619 -0.1084
 2634SOL    HW119364   2.562   1.616  14.117  0.0021 -1.8629  1.5277
 2634SOL    HW219365   2.599   1.730  14.205 -1.2096  0.8568 -3.2523
 2635SOL     OW19366   1.393   0.340   5.705  0.1476 -0.2426  0.0571
 2635SOL    HW119367   1.394   0.247   5.728  2.5257 -0.1954  0.1061
 2635SOL    HW219368   1.486   0.363   5.706 -0.4623  2.2833 -0.2170
 2636SOL     OW19369   3.500   1.169   3.160 -0.4468  0.0267  0.4872
 2636SOL    HW119370   3.451   1.243   3.124 -0.1920 -0.5472 -1.0183
 2636SOL    HW219371   3.492   1.181   3.255 -1.2328 -1.5050  0.6105
 2637SOL     OW19372   3.150   3.630   7.238 -0.6160  0.1687  0.7725
 2637SOL    HW119373   3.081   3.653   7.176 -1.4525  1.0699  2.0183
 2637SOL    HW219374   3.195   3.712   7.256  0.0695  0.0670 -0.5402
 2638SOL     OW19375   3.319   3.556   5.436 -0.1355  0.1224  0.1042
 2638SOL    HW119376   3.272   3.640   5.428 -3.5087 -1.7667  0.1128
 2638SOL    HW219377   3.380   3.571   5.509  0.4686 -3.1476  0.2793
 2639SOL     OW19378   4.721   0.002  10.047 -0.0345 -0.2423 -0.6303
 2639SOL    HW119379   0.083   0.032  10.019 -0.8583  2.4876 -0.2562
 2639SOL    HW219380   0.013   4.633  10.045 -1.1149 -0.4342 -0.4604
 2640SOL     OW19381   0.300   3.014   8.863  0.0292 -0.0261 -0.3117
 2640SOL    HW119382   0.240   2.950   8.825 -2.0042  2.2864 -1.0715
 2640SOL    HW219383   0.321   2.969   8.945  1.1102 -0.4693 -0.8367
 2641SOL     OW19384   2.701   1.319  14.845 -0.3311  0.2394  0.0453
 2641SOL    HW119385   2.655   1.235  14.848 -0.3534  0.2186 -0.7341
 2641SOL    HW219386   2.730   1.321  14.753 -1.9321  1.1460 -0.4321
 2642SOL     OW19387   0.535   1.862  14.190 -0.4372  0.3098  0.0792
 2642SOL    HW119388   0.599   1.830  14.126 -0.3188 -0.1089  0.4101
 2642SOL    HW219389   0.479   1.785  14.197  0.3569 -0.1620  1.2007
 2643SOL     OW19390   1.298   1.244   3.032 -0.0008  0.0109  0.1865
 2643SOL    HW119391   1.216   1.212   3.072  1.4839 -4.8324 -0.6485
 2643SOL    HW219392   1.342   1.159   3.023 -1.4500 -1.0017  2.5167
 2644SOL     OW19393   1.069   4.407   7.919 -0.0302  0.1910  0.5588
 2644SOL    HW119394   1.106   4.350   7.987  0.7909  1.1140  0.8827
 2644SOL    HW219395   1.018   4.467   7.974 -0.7761  0.9495 -0.9504
 2645SOL     OW19396   2.440   0.265   3.524  0.0476  0.4975  0.3391
 2645SOL    HW119397   2.440   0.329   3.596 -0.2614 -1.5569  2.1618
 2645SOL    HW219398   2.511   0.291   3.465 -0.7496 -3.2496 -2.2413
 2646SOL     OW19399   4.214   1.031  16.330 -0.0370  0.4638  0.3344
 2646SOL    HW119400   4.287   1.008  16.387  1.4181  2.1144 -0.8912
 2646SOL    HW219401   4.180   1.092  16.395 -1.9161  0.7307 -0.8812
 2647SOL     OW19402   1.308   1.641   2.562  0.6519  0.5967 -0.4835
 2647SOL    HW119403   1.311   1.631   2.467 -0.5552  1.9331 -0.6648
 2647SOL    HW219404   1.313   1.736   2.566 -1.3083  0.8498 -4.5394
 2648SOL     OW19405   0.796   2.764   8.363 -0.6224 -0.0320  0.6954
 2648SOL    HW119406   0.762   2.735   8.278  3.6201 -3.3685  0.0783
 2648SOL    HW219407   0.727   2.816   8.402 -0.4066  1.8857 -1.4936
 2649SOL     OW19408   3.075   2.794  11.756  0.2354  0.0380 -0.0598
 2649SOL    HW119409   3.091   2.743  11.676 -2.0718 -4.2081  2.1892
 2649SOL    HW219410   3.093   2.883  11.726  0.0067  0.4516  1.0152
 2650SOL     OW19411   2.663   2.652   4.901  0.3410 -0.1543  0.0012
 2650SOL    HW119412   2.696   2.640   4.811 -0.3150 -2.6870  0.1051
 2650SOL    HW219413   2.610   2.572   4.906 -0.6989  0.5750  0.5874
 2651SOL     OW19414   1.348   2.668   5.759 -0.1924 -0.0012  0.1657
 2651SOL    HW119415   1.396   2.711   5.830 -0.8496 -0.3227  0.8035
 2651SOL    HW219416   1.353   2.726   5.684  1.5136  0.3848  0.5819
 2652SOL     OW19417   1.656   0.709   7.405  0.0103  0.1115  0.5389
 2652SOL    HW119418   1.684   0.791   7.363  1.4753 -0.8990 -0.4584
 2652SOL    HW219419   1.729   0.681   7.460 -0.4099  0.9439  1.5082
 2653SOL     OW19420   2.272   2.729  16.451  0.0473 -0.1681 -0.9065
 2653SOL    HW119421   2.298   2.637  16.459  0.4616  0.2096  2.2711
 2653SOL    HW219422   2.353   2.780  16.463 -0.6139  0.8866 -0.9564
 2654SOL     OW19423   0.501   1.687   7.075  0.1438 -0.1965  0.1490
 2654SOL    HW119424   0.476   1.598   7.052 -0.9430  0.5858 -1.7001
 2654SOL    HW219425   0.418   1.718   7.111 -0.3515 -1.4046  0.0218
 2655SOL     OW19426   0.856   4.368   0.230 -0.4028  0.1340  0.4059
 2655SOL    HW119427   0.903   4.293   0.266 -1.3261 -0.2645  0.7617
 2655SOL    HW219428   0.866   4.351   0.136  1.6930  0.1046  0.6416
 2656SOL     OW19429   0.799   0.825  10.658 -0.2596 -0.1922  0.4182
 2656SOL    HW119430   0.853   0.756  10.621  0.2227  1.1921 -1.4912
 2656SOL    HW219431   0.866   0.869  10.711 -0.1266  0.3155 -0.1648
 2657SOL     OW19432   0.366   3.832  16.512  0.4837  0.0664  0.1459
 2657SOL    HW119433   0.279   3.843  16.551 -0.2609  1.9790 -2.0177
 2657SOL    HW219434   0.347   3.880  16.431 -1.5315 -0.3545  0.3731
 2658SOL     OW19435   2.351   1.509   3.811  0.1598  0.1166 -0.2201
 2658SOL    HW119436   2.356   1.428   3.760  1.4775 -0.4588  0.7943
 2658SOL    HW219437   2.424   1.498   3.872  1.0671 -2.9437 -1.8405
 2659SOL     OW19438   3.939   3.871   4.810  0.2674 -0.2913 -0.0825
 2659SOL    HW119439   3.882   3.795   4.826 -0.3445  0.2680  0.3884
 2659SOL    HW219440   3.923   3.915   4.894 -0.1509  1.0865 -0.8905
 2660SOL     OW19441   4.315   2.838   6.013  0.2251 -0.8464 -0.0659
 2660SOL    HW119442   4.385   2.791   5.967  3.1880  1.7333  1.7885
 2660SOL    HW219443   4.238   2.810   5.964  1.0365  0.3320 -2.0257
 2661SOL     OW19444   2.044   4.380   0.511 -0.7223 -0.5448  0.4662
 2661SOL    HW119445   2.040   4.285   0.509 -1.8659 -0.4604 -0.9810
 2661SOL    HW219446   2.130   4.399   0.549 -0.2796 -0.1112 -0.7416
 2662SOL     OW19447   3.467   2.026  14.382 -0.1936  0.6557 -0.1099
 2662SOL    HW119448   3.531   2.006  14.451 -0.7607 -0.8226 -0.0222
 2662SOL    HW219449   3.393   1.976  14.416  0.2555 -2.6975 -4.0634
 2663SOL     OW19450   0.148   4.644   6.014  0.3641 -0.0567 -0.2782
 2663SOL    HW119451   0.110   4.610   5.933 -0.5905  1.0098 -0.2751
 2663SOL    HW219452   0.174   4.565   6.062  3.6234  0.9921 -0.3623
 2664SOL     OW19453   2.185   1.042   3.423 -0.4629 -0.2796 -0.5458
 2664SOL    HW119454   2.259   1.101   3.436 -0.3588 -0.1283 -1.8113
 2664SOL    HW219455   2.147   1.043   3.511 -1.0911 -0.1000 -0.8151
 2665SOL     OW19456   0.891   3.849  12.258 -0.0291 -0.3521 -0.0785
 2665SOL    HW119457   0.981   3.828  12.233 -0.5160 -0.6585 -1.5917
 2665SOL    HW219458   0.841   3.788  12.205  0.8071 -1.2887  0.2193
 2666SOL     OW19459   2.333   4.351  11.968  0.1624  0.4061  0.6191
 2666SOL    HW119460   2.250   4.370  12.013 -0.1158  0.9572 -0.1281
 2666SOL    HW219461   2.302   4.289  11.903 -4.5560  1.4310  1.8915
 2667SOL     OW19462   2.304   2.476   8.855  0.6870  0.0342  0.2984
 2667SOL    HW119463   2.249   2.426   8.796  0.9831  0.6127 -0.4697
 2667SOL    HW219464   2.356   2.404   8.890  0.8238  0.5568  1.1693
 2668SOL     OW19465   3.571   3.649   3.159 -0.3328 -0.3490 -0.0504
 2668SOL    HW119466   3.659   3.662   3.195  0.7571  0.4027 -2.9773
 2668SOL    HW219467   3.577   3.556   3.140  2.0596 -0.1434 -0.2988
 2669SOL     OW19468   4.709   1.817   3.512 -0.5646 -0.5901  0.2753
 2669SOL    HW119469   4.692   1.750   3.446  1.2704 -1.4331  0.6496
 2669SOL    HW219470   4.667   1.893   3.470  3.1137  0.6271 -1.2369
 2670SOL     OW19471   3.210   4.503  10.669  0.1344 -0.7147  0.1994
 2670SOL    HW119472   3.297   4.474  10.696  0.8025 -0.1763 -1.3723
 2670SOL    HW219473   3.203   4.458  10.585 -0.1353 -1.3823  0.5820
 2671SOL     OW19474   3.075   3.005   3.272 -0.3665  0.5494  0.1859
 2671SOL    HW119475   3.046   2.952   3.347  1.6272 -1.2804 -0.3297
 2671SOL    HW219476   3.166   3.008   3.300  0.0419  0.8250 -1.1849
 2672SOL     OW19477   2.953   1.927  10.656  0.3126  0.3915  0.5044
 2672SOL    HW119478   2.923   1.876  10.731 -0.6724  1.6524  0.9747
 2672SOL    HW219479   2.979   1.847  10.610 -0.4617  2.0556 -2.8135
 2673SOL     OW19480   1.984   3.385  16.912  0.2009 -0.6670 -0.0713
 2673SOL    HW119481   1.909   3.441  16.933 -1.0463 -2.8272  1.1734
 2673SOL    HW219482   1.947   3.317  16.855 -1.8350 -0.6571  1.2645
 2674SOL     OW19483   4.064   0.119   1.077  0.4540  0.1288  0.2748
 2674SOL    HW119484   3.985   0.070   1.100  0.1516  0.7390  0.5680
 2674SOL    HW219485   4.127   0.049   1.089  0.6765  0.5282  1.4923
 2675SOL     OW19486   1.429   2.583   1.954  0.3088  0.5752 -0.0078
 2675SOL    HW119487   1.359   2.634   1.913  0.3106  0.2012 -0.4771
 2675SOL    HW219488   1.498   2.650   1.952  1.3287 -0.5106 -1.5898
 2676SOL     OW19489   4.554   2.326   9.162  0.1774  0.2181 -0.4228
 2676SOL    HW119490   4.526   2.348   9.252 -0.0883  0.0734 -0.4700
 2676SOL    HW219491   4.475   2.285   9.127  1.5161 -0.3262 -2.7507
 2677SOL     OW19492   2.099   3.360   4.931  0.0320  0.1418  0.4552
 2677SOL    HW119493   2.151   3.321   5.001 -2.0739 -2.5238  0.4995
 2677SOL    HW219494   2.081   3.444   4.974 -0.8432  0.5342 -0.6699
 2678SOL     OW19495   2.764   3.840   8.487 -0.3978  0.0985 -0.6477
 2678SOL    HW119496   2.826   3.902   8.524 -1.9727  1.0129  0.4226
 2678SOL    HW219497   2.815   3.760   8.497 -0.5282  0.3743  2.0502
 2679SOL     OW19498   0.396   1.970   5.216  0.1203  0.0031 -0.2446
 2679SOL    HW119499   0.444   1.962   5.298  1.2925  0.0655 -0.9254
 2679SOL    HW219500   0.453   2.002   5.146 -3.2312 -0.0129 -2.9492
 2680SOL     OW19501   1.802   1.943   7.897 -0.1318 -0.0126  0.4047
 2680SOL    HW119502   1.824   1.951   7.804 -0.6889  2.2890  0.4722
 2680SOL    HW219503   1.719   1.991   7.896 -0.1699 -0.1355 -1.8067
 2681SOL     OW19504   4.150   3.275   7.088  0.4416 -0.5729  0.2962
 2681SOL    HW119505   4.193   3.291   7.172  0.9590  1.8367 -0.4288
 2681SOL    HW219506   4.176   3.353   7.040  0.1146 -0.0828  0.9236
 2682SOL     OW19507   3.303   3.956   2.816  0.2723 -0.5967 -0.2629
 2682SOL    HW119508   3.337   3.877   2.774 -1.6351 -1.0981 -0.8861
 2682SOL    HW219509   3.376   4.011   2.844  0.2789  0.3304 -2.0797
 2683SOL     OW19510   1.725   0.428   9.296  0.2769  0.0221  0.2824
 2683SOL    HW119511   1.753   0.337   9.298  2.9584  0.8801  2.3767
 2683SOL    HW219512   1.766   0.475   9.369  1.1425  2.5218 -1.8191
 2684SOL     OW19513   1.246   2.115   3.456  0.3666  0.0502  0.3821
 2684SOL    HW119514   1.252   2.027   3.494  0.6728 -1.6409 -3.6338
 2684SOL    HW219515   1.248   2.177   3.530  1.7324  0.9884 -0.4395
 2685SOL     OW19516   0.560   0.057   7.513  0.2633  0.5582  0.0836
 2685SOL    HW119517   0.614   4.705   7.493 -1.7882 -1.0414  0.6515
 2685SOL    HW219518   0.617   0.131   7.492  1.6664  0.1233  2.3645
 2686SOL     OW19519   0.561   1.141   2.542  0.0521  0.1992 -0.6903
 2686SOL    HW119520   0.489   1.182   2.590  2.6606  1.1286  2.4787
 2686SOL    HW219521   0.601   1.089   2.612 -1.2221 -0.3638 -0.3815
 2687SOL     OW19522   3.727   3.097   2.325  0.6011  0.6676  0.1055
 2687SOL    HW119523   3.786   3.139   2.388  0.7875 -0.2965  0.5821
 2687SOL    HW219524   3.674   3.034   2.374  1.7392 -0.6833 -0.4263
 2688SOL     OW19525   4.409   2.890   4.060  0.3396  0.3928  0.0009
 2688SOL    HW119526   4.365   2.810   4.087  0.3643  0.2683 -0.3225
 2688SOL    HW219527   4.357   2.910   3.982 -1.0004 -0.2146  0.7318
 2689SOL     OW19528   2.399   1.078  12.122  0.3539 -0.1122  0.0996
 2689SOL    HW119529   2.373   1.057  12.033 -0.5789  0.6221  0.2021
 2689SOL    HW219530   2.341   1.149  12.150  1.1174  1.4150 -2.1959
 2690SOL     OW19531   3.394   1.606   9.365  0.0304 -0.4416 -0.0080
 2690SOL    HW119532   3.309   1.650   9.357  0.5036  0.6071  0.7264
 2690SOL    HW219533   3.367   1.527   9.411  2.1613 -1.6227 -0.7765
 2691SOL     OW19534   1.816   1.663   9.587  0.2657 -0.1743  0.1938
 2691SOL    HW119535   1.843   1.576   9.557 -1.9888 -1.4024  1.7758
 2691SOL    HW219536   1.854   1.712   9.514  2.1812 -1.2959  0.4294
 2692SOL     OW19537   1.392   1.779  17.144 -0.3392  0.7098  0.3138
 2692SOL    HW119538   1.342   1.789  17.226 -0.1686  2.5660  0.1901
 2692SOL    HW219539   1.411   1.870  17.125 -2.1427  1.4418  1.9776
 2693SOL     OW19540   3.875   0.235   5.466 -0.1137  0.3868 -0.0233
 2693SOL    HW119541   3.833   0.321   5.466  0.9911  0.9239 -0.8940
 2693SOL    HW219542   3.860   0.221   5.560  1.9603  1.3290  0.4520
 2694SOL     OW19543   0.194   1.261   1.554  0.2828  0.5445  0.3931
 2694SOL    HW119544   0.264   1.324   1.569  1.1954  0.3732 -3.0269
 2694SOL    HW219545   0.147   1.284   1.634  0.0503 -1.0575  0.7217
 2695SOL     OW19546   1.096   0.511   3.993  0.2392  0.0671 -0.2647
 2695SOL    HW119547   1.064   0.426   3.963  0.7696 -1.2268  2.7809
 2695SOL    HW219548   1.080   0.569   3.919 -0.1058 -1.8187 -1.6815
 2696SOL     OW19549   0.329   0.401   2.403 -0.6361  0.2634 -0.4782
 2696SOL    HW119550   0.327   0.471   2.338  0.8354  0.1144 -0.6746
 2696SOL    HW219551   0.323   0.458   2.480 -1.1875 -0.2638 -0.1223
 2697SOL     OW19552   0.711   1.874   8.176 -0.0685 -0.4874  0.0022
 2697SOL    HW119553   0.704   1.920   8.093  1.7770 -1.0226 -0.4463
 2697SOL    HW219554   0.806   1.865   8.173  0.0809  0.5138  2.1193
 2698SOL     OW19555   4.586   4.337   6.522 -0.4279  0.6276 -0.0535
 2698SOL    HW119556   4.617   4.254   6.559  0.8699  2.5369  3.2174
 2698SOL    HW219557   4.518   4.356   6.586  0.6203 -2.1151  1.8940
 2699SOL     OW19558   2.399   3.604  15.677 -0.1682 -0.2167  0.0378
 2699SOL    HW119559   2.478   3.550  15.675  0.7651  1.1005  2.0335
 2699SOL    HW219560   2.386   3.628  15.768 -0.0836 -0.1281  0.0254
 2700SOL     OW19561   3.264   3.237   0.833  0.3316  0.8690  0.0668
 2700SOL    HW119562   3.241   3.152   0.870  1.7232 -0.9936 -3.3284
 2700SOL    HW219563   3.329   3.257   0.900 -0.1236  0.7368  0.5522
 2701SOL     OW19564   4.096   3.979   7.234  0.0811 -0.0267 -0.3788
 2701SOL    HW119565   4.099   4.010   7.143  3.2011 -0.5815 -0.4421
 2701SOL    HW219566   4.017   3.925   7.236  0.9796 -1.2540  1.2132
 2702SOL     OW19567   4.693   2.197   1.325 -0.1896 -0.0074  0.6569
 2702SOL    HW119568   4.669   2.109   1.354 -0.5899 -0.2991 -0.5947
 2702SOL    HW219569   4.609   2.230   1.296  0.6948 -0.0105 -1.8510
 2703SOL     OW19570   0.078   1.960   2.132 -0.2057 -0.5336  0.5517
 2703SOL    HW119571   0.073   2.046   2.174  0.1410 -0.9543  1.4661
 2703SOL    HW219572   0.172   1.945   2.148  0.1452 -1.3306 -2.2907
 2704SOL     OW19573   3.848   3.583  16.168 -0.1897 -0.0344 -0.1950
 2704SOL    HW119574   3.836   3.519  16.097 -0.5902 -0.3691  0.1740
 2704SOL    HW219575   3.937   3.569  16.197  1.5205  2.0214 -4.4153
 2705SOL     OW19576   4.715   2.936  13.121  0.5208 -0.0542  0.4484
 2705SOL    HW119577   4.645   2.991  13.087 -0.4856  0.1686  2.8592
 2705SOL    HW219578   0.065   2.995  13.110  0.0653  0.2864 -0.7221
 2706SOL     OW19579   0.962   0.043   0.354  0.8259 -0.5633  0.3367
 2706SOL    HW119580   1.035   4.715   0.321  1.1556 -0.7578  1.3657
 2706SOL    HW219581   0.892   4.711   0.386 -0.7698 -0.0094 -2.2304
 2707SOL     OW19582   0.916   3.119   2.426 -0.6202  0.0247  0.3668
 2707SOL    HW119583   1.007   3.096   2.408 -0.3874  1.0209  0.2763
 2707SOL    HW219584   0.911   3.214   2.434  0.6910  0.3684 -2.7217
 2708SOL     OW19585   1.570   3.256   3.845  0.1546  0.5710 -0.3375
 2708SOL    HW119586   1.520   3.336   3.830 -0.2701  0.2045 -0.8815
 2708SOL    HW219587   1.630   3.272   3.918 -2.0407 -1.8234  2.0221
 2709SOL     OW19588   0.535   2.536  16.426 -0.7085  0.1306  0.4896
 2709SOL    HW119589   0.588   2.459  16.404 -1.4107 -0.7912  2.0723
 2709SOL    HW219590   0.572   2.607  16.374 -0.3212 -0.0929  0.4570
 2710SOL     OW19591   4.259   4.533   6.402  0.5650  0.0666  0.5193
 2710SOL    HW119592   4.234   4.625   6.401  2.0390  0.4609 -0.9989
 2710SOL    HW219593   4.348   4.533   6.366  0.0533  1.7903 -0.7307
 2711SOL     OW19594   1.855   3.093   1.063  0.5258  0.0872  0.6418
 2711SOL    HW119595   1.925   3.052   1.115  0.1568 -0.2203  0.8927
 2711SOL    HW219596   1.785   3.119   1.123  0.4715 -0.8256  0.9746
 2712SOL     OW19597   1.647   1.939  12.313  0.3612 -0.2375  0.1781
 2712SOL    HW119598   1.654   2.019  12.365 -0.2568 -0.8600  1.2231
 2712SOL    HW219599   1.739   1.918  12.330  0.2663 -0.3350  0.5917
 2713SOL     OW19600   2.504   0.845   4.356 -0.6716  0.4305 -0.7620
 2713SOL    HW119601   2.543   0.762   4.383  3.2175  1.9803 -1.6282
 2713SOL    HW219602   2.469   0.837   4.268 -0.5677  1.2042 -0.8736
 2714SOL     OW19603   4.323   4.237   9.002 -0.5238 -0.1573 -0.4599
 2714SOL    HW119604   4.336   4.268   9.092  0.5390 -0.4696 -0.5052
 2714SOL    HW219605   4.363   4.301   8.943 -0.8652  0.3689 -0.1250
 2715SOL     OW19606   1.572   4.057  14.926 -0.1718  0.4894  0.1465
 2715SOL    HW119607   1.605   4.066  14.837  1.1875 -2.2387  0.3871
 2715SOL    HW219608   1.526   3.976  14.907  0.8713 -0.7006  2.6139
 2716SOL     OW19609   4.616   2.968  17.184  0.4337 -0.1682 -0.0873
 2716SOL    HW119610   4.550   3.004  17.243 -0.7418  0.5941 -1.8346
 2716SOL    HW219611   4.689   3.023  17.213  0.5994 -0.8591  0.7988
 2717SOL     OW19612   1.471   3.392   3.125  0.4385 -0.3023  0.1037
 2717SOL    HW119613   1.512   3.475   3.101  0.7187  0.1363  2.0953
 2717SOL    HW219614   1.387   3.415   3.166  2.3538 -0.7682  4.3044
 2718SOL     OW19615   0.349   1.455   1.912 -0.3785  0.0856 -0.5345
 2718SOL    HW119616   0.417   1.400   1.951  0.4158  0.3114 -1.6173
 2718SOL    HW219617   0.332   1.510   1.988  1.4884 -2.1815  1.5321
 2719SOL     OW19618   2.151   0.387  13.998 -0.6005  0.0511 -0.2316
 2719SOL    HW119619   2.061   0.385  13.964 -0.2682 -1.8921 -1.0225
 2719SOL    HW219620   2.128   0.448  14.067  2.6738 -1.1453  1.8958
 2720SOL     OW19621   4.420   0.021   5.849 -0.4003 -0.5056  0.0021
 2720SOL    HW119622   4.349   0.074   5.812 -0.1889 -1.0806 -1.2274
 2720SOL    HW219623   4.364   4.680   5.890  0.0223 -1.3293 -0.7279
 2721SOL     OW19624   4.461   0.100   9.239  0.3245 -0.3050  0.0279
 2721SOL    HW119625   4.393   0.032   9.238 -0.0671  0.0874  0.1576
 2721SOL    HW219626   4.522   0.072   9.170 -0.1309  0.5726 -0.7292
 2722SOL     OW19627   1.493   0.266   6.386  0.0555 -0.5976  0.1689
 2722SOL    HW119628   1.398   0.261   6.374  0.0627  0.8317 -0.4847
 2722SOL    HW219629   1.507   0.180   6.426 -4.3760 -0.3604  2.1997
 2723SOL     OW19630   4.549   3.677  11.263 -0.2338 -0.0939 -0.3252
 2723SOL    HW119631   4.503   3.761  11.270 -0.4494 -0.1983 -0.4963
 2723SOL    HW219632   4.497   3.631  11.329  3.0858  0.9794  3.0279
 2724SOL     OW19633   3.303   3.634   1.464  0.0315 -0.1096  0.2044
 2724SOL    HW119634   3.387   3.672   1.492 -0.4783  1.7112 -0.7501
 2724SOL    HW219635   3.330   3.545   1.444  0.3594 -0.3607  1.7278
 2725SOL     OW19636   2.053   2.093   7.894 -0.3259 -0.5512  0.0723
 2725SOL    HW119637   2.050   2.188   7.906 -0.8676 -0.8573  2.3768
 2725SOL    HW219638   1.962   2.066   7.884 -0.0794 -1.6316  0.7017
 2726SOL     OW19639   2.448   3.679   7.190 -0.4824 -0.1158  0.4674
 2726SOL    HW119640   2.445   3.760   7.243 -1.4330  0.9334 -1.1857
 2726SOL    HW219641   2.407   3.709   7.109 -0.0160  1.5657  0.8559
 2727SOL     OW19642   1.181   1.708  13.103 -0.1917 -0.0255 -0.3144
 2727SOL    HW119643   1.214   1.760  13.176 -1.5176 -3.3309  2.6349
 2727SOL    HW219644   1.187   1.627  13.153  0.0086 -0.4483 -1.0127
 2728SOL     OW19645   3.833   2.411   8.977  0.8330 -0.0172 -0.5759
 2728SOL    HW119646   3.828   2.449   8.889 -1.6597 -1.4921 -1.0672
 2728SOL    HW219647   3.927   2.395   8.989  0.7570  1.7535  2.2219
 2729SOL     OW19648   3.905   2.085   9.199 -0.0414 -0.3495  0.1012
 2729SOL    HW119649   3.921   2.141   9.122 -1.3203 -1.4812 -0.9792
 2729SOL    HW219650   3.997   2.083   9.227  0.5475  1.7113 -1.6601
 2730SOL     OW19651   1.304   0.944   3.341 -0.0558  0.3920  0.3036
 2730SOL    HW119652   1.398   0.941   3.321 -0.2359  5.3012 -1.2373
 2730SOL    HW219653   1.259   0.904   3.266  0.2281 -0.7161  0.7305
 2731SOL     OW19654   4.064   0.272  13.404 -0.2526  0.3803  0.7184
 2731SOL    HW119655   4.067   0.318  13.487  2.1648  1.2427  0.1355
 2731SOL    HW219656   3.975   0.293  13.374 -0.3488 -1.3308 -0.2361
 2732SOL     OW19657   3.002   3.730  10.288 -0.4143  0.0403 -0.2996
 2732SOL    HW119658   2.914   3.696  10.304 -0.3627  0.0093 -0.0841
 2732SOL    HW219659   3.020   3.689  10.203 -0.2350 -0.4684 -0.0137
 2733SOL     OW19660   2.498   2.147  15.280 -0.3935 -0.3978 -0.7230
 2733SOL    HW119661   2.462   2.162  15.192  1.5281  1.6072 -1.1636
 2733SOL    HW219662   2.569   2.085  15.262 -1.2016 -0.9627 -1.9655
 2734SOL     OW19663   4.065   4.186   2.480  0.1913  0.1671  0.1638
 2734SOL    HW119664   4.155   4.216   2.483  0.1495 -0.0046  3.2769
 2734SOL    HW219665   4.045   4.176   2.573  1.8892  1.7228  0.6953
 2735SOL     OW19666   2.498   4.391   2.377  0.5579  0.4133 -0.5430
 2735SOL    HW119667   2.545   4.328   2.322 -0.0151 -0.0588 -0.4871
 2735SOL    HW219668   2.463   4.459   2.320  1.1685 -0.1903 -1.6425
 2736SOL     OW19669   1.892   1.320   3.769 -0.3987 -0.2844  0.2426
 2736SOL    HW119670   1.946   1.312   3.847 -1.5783 -1.3705  0.9552
 2736SOL    HW219671   1.812   1.307   3.820 -0.6868 -1.5609 -0.5397
 2737SOL     OW19672   3.765   1.159   4.195 -0.0391 -0.0340  0.4001
 2737SOL    HW119673   3.698   1.145   4.128  1.7573 -0.1364 -1.3734
 2737SOL    HW219674   3.759   1.088   4.259  0.8932 -0.8127 -0.3893
 2738SOL     OW19675   0.099   1.421   5.929 -0.8649 -0.0864  0.3639
 2738SOL    HW119676   0.123   1.455   6.016 -0.6400 -1.1880  0.7355
 2738SOL    HW219677   0.042   1.493   5.905 -2.1021 -2.0289 -2.4069
 2739SOL     OW19678   3.257   2.721   1.618  0.3158 -0.1109 -0.2987
 2739SOL    HW119679   3.282   2.672   1.697  0.5319  0.9102  0.2639
 2739SOL    HW219680   3.202   2.785   1.663  0.0296  1.4289 -2.8133
 2740SOL     OW19681   2.124   3.380  11.010  0.6022  0.2757  0.4187
 2740SOL    HW119682   2.134   3.386  11.105 -2.7105  0.8817  0.7019
 2740SOL    HW219683   2.160   3.294  10.990  0.6664  0.4960 -0.4121
 2741SOL     OW19684   2.681   3.849   2.519 -0.4380 -0.5763  0.5096
 2741SOL    HW119685   2.620   3.909   2.561 -0.4411 -1.6939  2.0815
 2741SOL    HW219686   2.698   3.797   2.598  0.5845 -0.6425  0.2500
 2742SOL     OW19687   2.240   0.704  11.838  0.1307 -0.5233  0.7720
 2742SOL    HW119688   2.327   0.685  11.803  0.3780  0.6810  0.7590
 2742SOL    HW219689   2.210   0.613  11.835 -1.0256 -0.0784 -1.2831
 2743SOL     OW19690   0.606   1.250  15.690  0.3267 -0.7269  0.4716
 2743SOL    HW119691   0.560   1.195  15.754 -1.2684 -0.2814 -0.2813
 2743SOL    HW219692   0.585   1.342  15.707 -1.8849 -0.9519 -1.0112
 2744SOL     OW19693   3.663   4.121   8.099  0.1108  0.3442 -0.1233
 2744SOL    HW119694   3.635   4.122   8.007 -1.8650 -1.0021  0.4465
 2744SOL    HW219695   3.739   4.066   8.081 -1.2520 -1.2729 -1.0254
 2745SOL     OW19696   4.670   3.964   2.098 -0.4755 -0.0398  0.7989
 2745SOL    HW119697   0.007   3.891   2.100 -0.8451 -0.3347  1.3115
 2745SOL    HW219698   4.716   4.045   2.115  0.4107 -0.0592 -1.4280
 2746SOL     OW19699   4.082   1.913   9.711  0.7546  0.4308  0.5207
 2746SOL    HW119700   4.177   1.905   9.708  0.6340 -0.6082 -0.7170
 2746SOL    HW219701   4.054   1.822   9.697 -0.5465  1.1688 -1.6643
 2747SOL     OW19702   0.504   0.201   2.363 -0.4195 -0.0601 -0.3131
 2747SOL    HW119703   0.435   0.267   2.370  1.8522  2.3699 -0.7633
 2747SOL    HW219704   0.578   0.254   2.333 -0.1363 -0.2635  0.0216
 2748SOL     OW19705   3.422   1.618   1.784 -0.1488  0.4947 -0.0167
 2748SOL    HW119706   3.444   1.641   1.875 -0.3880 -0.1929  0.2183
 2748SOL    HW219707   3.499   1.639   1.731 -0.2091  1.5908  0.3361
 2749SOL     OW19708   4.499   0.639   7.888 -0.0744  0.0067 -0.5677
 2749SOL    HW119709   4.421   0.693   7.903 -0.4767 -0.5736 -0.5159
 2749SOL    HW219710   4.492   0.581   7.964  3.8685  1.5310  0.9271
 2750SOL     OW19711   0.126   3.316  16.057 -0.5568 -0.5272 -0.5120
 2750SOL    HW119712   0.182   3.394  16.046 -0.2720 -0.4557  1.4507
 2750SOL    HW219713   0.066   3.357  16.119  1.0316 -1.2845  1.5313
 2751SOL     OW19714   2.418   2.305   6.219  0.1005 -0.3757  0.3980
 2751SOL    HW119715   2.513   2.317   6.227  0.0948 -0.5183  0.6904
 2751SOL    HW219716   2.398   2.243   6.290 -0.7338  0.6748  1.0823
 2752SOL     OW19717   2.287   0.136   8.203  0.1401  0.3102 -0.2941
 2752SOL    HW119718   2.223   0.181   8.258 -0.9252 -2.4786  0.7545
 2752SOL    HW219719   2.235   0.102   8.130  2.5821 -0.8575 -1.4768
 2753SOL     OW19720   3.017   0.851   9.449 -0.4192 -0.2929  0.4207
 2753SOL    HW119721   2.928   0.861   9.415 -0.4203 -0.0910  0.4799
 2753SOL    HW219722   3.058   0.890   9.372  0.2506  2.2349  2.0313
 2754SOL     OW19723   1.471   4.217  10.424 -0.4283 -0.3631  0.0657
 2754SOL    HW119724   1.496   4.186  10.511 -0.6036  1.7193  0.8736
 2754SOL    HW219725   1.552   4.255  10.390  1.2543 -2.4961  1.7096
 2755SOL     OW19726   4.175   0.406   4.378  0.1388  0.5315 -0.1725
 2755SOL    HW119727   4.174   0.434   4.287  0.4246  0.7192 -0.1156
 2755SOL    HW219728   4.216   0.320   4.373  0.5425  0.6484  1.1527
 2756SOL     OW19729   2.150   0.800  10.713  0.1112 -0.1688 -0.6544
 2756SOL    HW119730   2.156   0.854  10.791  1.0279  0.8717 -1.4487
 2756SOL    HW219731   2.164   0.856  10.637 -0.4805  1.8842  0.7693
 2757SOL     OW19732   0.799   3.378   9.561  0.0686  0.4549 -0.4587
 2757SOL    HW119733   0.784   3.300   9.507  2.9266 -0.2427 -0.2576
 2757SOL    HW219734   0.712   3.392   9.598  1.6550  2.2322  2.6320
 2758SOL     OW19735   3.099   2.990  10.262 -0.1466  0.2625 -0.9690
 2758SOL    HW119736   3.131   2.916  10.313 -1.4886  0.0273 -0.4567
 2758SOL    HW219737   3.021   2.961  10.214 -0.4031  0.7577 -0.8601
 2759SOL     OW19738   1.939   1.241   8.503 -0.4124 -0.1372  0.0603
 2759SOL    HW119739   1.850   1.252   8.471 -0.5063 -0.4691  0.2127
 2759SOL    HW219740   1.952   1.151   8.474  1.3142  0.0933  0.0716
 2760SOL     OW19741   0.610   4.580   2.252 -0.3086  0.1171  0.2838
 2760SOL    HW119742   0.683   4.565   2.313 -0.4321 -0.0888  0.3819
 2760SOL    HW219743   0.657   4.616   2.177  0.9537 -1.7770  0.1846
 2761SOL     OW19744   3.938   2.052   7.605 -0.2176 -0.0995 -0.5294
 2761SOL    HW119745   3.929   2.139   7.567 -0.9109  0.3835  0.7451
 2761SOL    HW219746   3.863   2.039   7.663  0.1668  0.9304  0.1998
 2762SOL     OW19747   0.694   1.698  10.159 -0.0660 -1.1191  0.4851
 2762SOL    HW119748   0.774   1.649  10.141  0.5784 -0.0129  0.3269
 2762SOL    HW219749   0.643   1.630  10.202 -0.2679 -2.1435 -1.3841
 2763SOL     OW19750   3.821   0.909   4.378  0.4880  0.5493 -0.3156
 2763SOL    HW119751   3.876   0.863   4.315 -0.3968 -2.9930  1.4898
 2763SOL    HW219752   3.891   0.958   4.420  1.3247 -0.4224 -0.5701
 2764SOL     OW19753   4.108   0.860  16.557  0.3928  0.1896  0.4733
 2764SOL    HW119754   4.068   0.870  16.470 -2.1636 -1.3408  1.4741
 2764SOL    HW219755   4.201   0.873  16.538  0.6734 -2.0892  0.2304
 2765SOL     OW19756   0.373   0.441   1.408 -0.3448 -0.0429  0.0776
 2765SOL    HW119757   0.426   0.488   1.473  0.5498 -0.5358 -0.3019
 2765SOL    HW219758   0.313   0.408   1.475 -0.5886 -1.1326 -0.6909
 2766SOL     OW19759   1.030   2.587   8.932  0.5380  0.3135  0.1232
 2766SOL    HW119760   1.024   2.664   8.990 -1.3336  1.2374 -1.3005
 2766SOL    HW219761   1.020   2.632   8.848 -1.1866  3.4673  2.0051
 2767SOL     OW19762   1.296   2.323   3.898  0.0049  0.6911  0.1986
 2767SOL    HW119763   1.363   2.256   3.887 -1.8440 -1.2728  0.8609
 2767SOL    HW219764   1.349   2.401   3.911  0.4282  0.7124 -1.6378
 2768SOL     OW19765   1.979   2.497   6.252 -0.4040 -0.9764  0.2376
 2768SOL    HW119766   1.997   2.501   6.158 -1.7322  0.3030  0.0308
 2768SOL    HW219767   1.894   2.541   6.254 -0.1413 -0.4215 -0.3583
 2769SOL     OW19768   2.727   1.860   7.098  0.3181  0.8031 -0.0004
 2769SOL    HW119769   2.819   1.839   7.112  0.1830  0.1598 -0.0898
 2769SOL    HW219770   2.718   1.922   7.170 -0.1792 -3.0065  3.2241
 2770SOL     OW19771   0.412   3.169   8.045  0.1561  0.0975  0.2296
 2770SOL    HW119772   0.317   3.170   8.058  0.0298  1.0536 -0.7383
 2770SOL    HW219773   0.421   3.259   8.013  1.2835  0.3897  1.3922
 2771SOL     OW19774   0.557   0.984   3.734  0.0362 -0.3528 -0.7107
 2771SOL    HW119775   0.536   0.914   3.672  3.2269 -0.1415 -2.0037
 2771SOL    HW219776   0.469   1.002   3.768  0.8232  1.3127  0.4246
 2772SOL     OW19777   0.390   3.205   8.499  0.0116 -0.3268 -0.2950
 2772SOL    HW119778   0.313   3.150   8.512 -0.6139  0.7486  0.5359
 2772SOL    HW219779   0.422   3.217   8.588  1.0402  0.0049 -0.6997
 2773SOL     OW19780   0.543   0.286   4.723  0.1769 -0.0231 -0.2231
 2773SOL    HW119781   0.598   0.217   4.686 -0.9336 -1.9369  1.7295
 2773SOL    HW219782   0.460   0.243   4.742  0.0839  0.6757  0.9606
 2774SOL     OW19783   4.132   0.755   0.433  0.1190  0.1337 -0.6676
 2774SOL    HW119784   4.191   0.802   0.492 -0.1782  1.0655 -1.1134
 2774SOL    HW219785   4.095   0.831   0.389  0.6012 -0.5370 -2.2358
 2775SOL     OW19786   1.625   2.247   1.905 -0.3914 -0.0521  0.5226
 2775SOL    HW119787   1.677   2.264   1.983 -1.2973  2.0412  0.6632
 2775SOL    HW219788   1.675   2.298   1.842 -0.3967  0.5119  0.9748
 2776SOL     OW19789   2.705   1.410   7.617  0.1139  0.1563 -0.0038
 2776SOL    HW119790   2.649   1.486   7.607  0.5380  0.5566  0.6280
 2776SOL    HW219791   2.747   1.417   7.532 -0.6766 -0.1692 -0.4178
 2777SOL     OW19792   1.825   2.326   9.765 -0.6956 -0.2541 -0.5959
 2777SOL    HW119793   1.869   2.307   9.847  0.8925 -0.0332 -1.3986
 2777SOL    HW219794   1.863   2.260   9.706 -0.2159 -0.9828  0.5345
 2778SOL     OW19795   0.929   4.156  11.484  0.4982  0.2081 -0.2661
 2778SOL    HW119796   0.917   4.086  11.549 -0.2096 -1.0600 -1.7426
 2778SOL    HW219797   0.900   4.111  11.404  0.8988  0.4385 -0.5377
 2779SOL     OW19798   1.483   2.989   3.611  0.3816 -0.1545 -0.0181
 2779SOL    HW119799   1.446   2.908   3.645  0.5915  0.0800  0.7607
 2779SOL    HW219800   1.579   2.986   3.610  0.3221 -2.4787  0.6110
 2780SOL     OW19801   0.783   0.615   3.804  0.5571  0.7399 -0.2208
 2780SOL    HW119802   0.730   0.671   3.860 -1.0553  0.2569 -1.2866
 2780SOL    HW219803   0.722   0.599   3.732  0.5653  2.3221 -0.5707
 2781SOL     OW19804   3.394   1.594   4.657 -0.2929 -0.5182  0.1364
 2781SOL    HW119805   3.354   1.541   4.726  0.3698 -1.2597 -0.0544
 2781SOL    HW219806   3.325   1.598   4.591 -0.0280  1.7389 -0.0314
 2782SOL     OW19807   1.649   2.357   3.354 -0.6014  0.2083 -0.0049
 2782SOL    HW119808   1.582   2.289   3.344 -0.9977  0.4913  0.7435
 2782SOL    HW219809   1.597   2.431   3.323  1.2764  0.2314 -3.1074
 2783SOL     OW19810   4.079   3.108   4.758  0.0652  0.4427 -0.1975
 2783SOL    HW119811   4.136   3.036   4.730 -2.2767 -1.0822 -0.9900
 2783SOL    HW219812   4.096   3.120   4.852 -0.6652 -0.4054  0.0370
 2784SOL     OW19813   2.439   0.562   7.813  0.2009  0.0874  0.1803
 2784SOL    HW119814   2.484   0.495   7.760 -0.9241 -0.7735  0.3185
 2784SOL    HW219815   2.382   0.615   7.757  1.0839  0.5975 -0.2420
 2785SOL     OW19816   4.143   4.050  12.927  0.0691 -0.3850  0.0880
 2785SOL    HW119817   4.229   4.027  12.893 -1.1921 -0.1893 -3.3350
 2785SOL    HW219818   4.161   4.082  13.015  0.4605  0.9121 -0.4712
 2786SOL     OW19819   1.455   0.980   2.320 -0.1752 -0.4421 -0.2935
 2786SOL    HW119820   1.462   1.074   2.307 -0.2960 -0.8850 -3.5651
 2786SOL    HW219821   1.366   0.963   2.287 -0.0909 -0.1932 -0.6487
 2787SOL     OW19822   2.348   1.098   7.439 -0.3744 -0.3232 -0.0204
 2787SOL    HW119823   2.259   1.096   7.404 -0.0781 -0.0196 -0.7875
 2787SOL    HW219824   2.329   1.046   7.517 -1.3830 -0.5069 -0.3811
 2788SOL     OW19825   3.001   1.458  17.522  0.9988  0.0035 -0.0185
 2788SOL    HW119826   3.094   1.461  17.501  1.8767 -3.4422  3.4834
 2788SOL    HW219827   2.974   1.533  17.469  1.5527 -0.3967 -0.8717
 2789SOL     OW19828   1.488   2.877   4.638  0.4493  0.3300 -0.1356
 2789SOL    HW119829   1.536   2.896   4.558  0.8974  0.8166  0.2450
 2789SOL    HW219830   1.480   2.965   4.675 -0.4875 -0.0525  0.5807
 2790SOL     OW19831   1.933   1.956  12.381  0.4805  0.4149 -0.6674
 2790SOL    HW119832   1.992   2.032  12.384 -0.7817  1.4253 -1.5846
 2790SOL    HW219833   1.906   1.944  12.472  2.2225  1.0386 -0.0612
 2791SOL     OW19834   1.407   1.486   3.122  0.2687  0.0927 -0.3690
 2791SOL    HW119835   1.369   1.401   3.101 -0.5400  0.4194 -0.2177
 2791SOL    HW219836   1.383   1.535   3.044 -0.9281  1.7952  1.0653
 2792SOL     OW19837   4.120   0.463  11.587 -0.4279  0.1507  0.0694
 2792SOL    HW119838   4.132   0.370  11.605  3.3326  0.2687 -1.9232
 2792SOL    HW219839   4.035   0.469  11.631 -0.5092  1.2820 -0.2429
 2793SOL     OW19840   0.567   1.480  10.265  0.0290 -0.1021 -0.2517
 2793SOL    HW119841   0.513   1.400  10.264 -3.8835  2.5785 -1.5626
 2793SOL    HW219842   0.610   1.460  10.348 -0.2817 -1.5134 -0.4286
 2794SOL     OW19843   0.695   0.854   2.673  0.3932 -0.1481  0.4966
 2794SOL    HW119844   0.690   0.845   2.768  1.2024 -2.4185  0.3184
 2794SOL    HW219845   0.781   0.834   2.637  2.0018  2.6644  2.8206
 2795SOL     OW19846   1.200   2.584   3.340  0.2091 -0.1913 -0.3699
 2795SOL    HW119847   1.143   2.637   3.284 -0.2436  2.3180  2.4756
 2795SOL    HW219848   1.145   2.547   3.409  0.4538  0.8240  0.3696
 2796SOL     OW19849   0.782   4.501   1.753  0.6792 -0.1484 -0.4310
 2796SOL    HW119850   0.852   4.436   1.748 -0.2976 -1.2677  0.0410
 2796SOL    HW219851   0.714   4.453   1.705 -0.5848  0.5702  0.6262
 2797SOL     OW19852   4.069   1.785   4.981  0.7018  0.1983 -0.4838
 2797SOL    HW119853   4.027   1.850   4.923  0.3478  0.3531 -0.0525
 2797SOL    HW219854   4.005   1.714   4.979  0.4276  0.4003  1.0544
 2798SOL     OW19855   2.764   2.107  12.536 -1.0286 -0.1123  0.5490
 2798SOL    HW119856   2.846   2.155  12.544 -0.1389 -1.3060 -1.3944
 2798SOL    HW219857   2.786   2.020  12.567 -1.2083  0.2001  1.5531
 2799SOL     OW19858   2.021   3.580  16.586  0.1282 -0.2692  0.0928
 2799SOL    HW119859   1.999   3.580  16.493  0.1010  0.8801  0.1007
 2799SOL    HW219860   2.026   3.674  16.602 -1.9994 -0.1205 -0.0634
 2800SOL     OW19861   2.392   3.667   7.741  0.0829 -0.4648 -0.2602
 2800SOL    HW119862   2.431   3.685   7.827  0.3229  0.3364 -0.5289
 2800SOL    HW219863   2.326   3.736   7.735 -0.5912 -0.9557  1.4830
 2801SOL     OW19864   3.899   1.956   1.642 -0.3201  0.1876 -0.0486
 2801SOL    HW119865   3.990   1.980   1.625 -0.7586  3.7724  2.6994
 2801SOL    HW219866   3.903   1.861   1.628  1.4765  0.6091 -2.3759
 2802SOL     OW19867   1.931   0.363  15.696 -0.7719  0.5643 -0.2577
 2802SOL    HW119868   1.888   0.310  15.762  1.6377  0.5877  1.3449
 2802SOL    HW219869   1.867   0.412  15.645 -0.4859  0.3761 -0.7989
 2803SOL     OW19870   3.795   2.488   1.150 -0.1047  0.0592  0.1730
 2803SOL    HW119871   3.748   2.433   1.089  0.6626 -0.3042 -0.0868
 2803SOL    HW219872   3.744   2.467   1.228 -0.1259  1.0371  0.4272
 2804SOL     OW19873   4.259   1.091   9.043 -0.2000 -0.0444  0.2041
 2804SOL    HW119874   4.184   1.063   9.096 -0.3714 -0.5608 -0.3129
 2804SOL    HW219875   4.215   1.110   8.960  1.2111  1.8602 -0.0892
 2805SOL     OW19876   3.374   4.493   4.647  0.2776  0.0706  0.2488
 2805SOL    HW119877   3.445   4.542   4.688  0.5710  0.5002 -0.7773
 2805SOL    HW219878   3.420   4.466   4.568  0.0573 -0.4400  0.2960
 2806SOL     OW19879   0.846   2.164   6.737 -0.2898 -0.1373 -0.7934
 2806SOL    HW119880   0.817   2.122   6.656  2.6855 -0.3569 -1.7499
 2806SOL    HW219881   0.859   2.089   6.796  2.5692  0.7082 -0.3366
 2807SOL     OW19882   2.703   3.934   4.281  0.5259  0.0550 -0.5216
 2807SOL    HW119883   2.799   3.935   4.284  0.4494 -0.2026  1.6869
 2807SOL    HW219884   2.692   4.020   4.240 -0.9826 -0.4858 -1.2560
 2808SOL     OW19885   3.311   3.250  14.366  0.6706  0.4338 -0.2355
 2808SOL    HW119886   3.321   3.211  14.453 -0.3719  0.7755  0.0345
 2808SOL    HW219887   3.367   3.194  14.311 -0.6955 -0.3803 -0.7910
 2809SOL     OW19888   0.944   4.165   6.723 -0.6117 -0.2866  0.6726
 2809SOL    HW119889   0.929   4.152   6.817  0.3948  0.3214  0.9123
 2809SOL    HW219890   0.886   4.239   6.706  0.9038  1.0069  1.2112
 2810SOL     OW19891   1.141   2.954   9.589 -0.4413  0.1875  0.2013
 2810SOL    HW119892   1.138   2.874   9.642 -2.3620 -0.6661 -1.1771
 2810SOL    HW219893   1.062   3.002   9.616 -1.4392 -0.0236 -2.3528
 2811SOL     OW19894   3.662   3.389   1.479 -0.1953  0.1737 -0.2143
 2811SOL    HW119895   3.710   3.332   1.540  0.9197  2.5929  1.1526
 2811SOL    HW219896   3.640   3.467   1.529  2.3288  0.5487  0.2846
 2812SOL     OW19897   4.258   1.596   9.019 -0.3575  0.0779 -0.1524
 2812SOL    HW119898   4.350   1.580   9.043 -0.6795 -1.7488 -0.1714
 2812SOL    HW219899   4.245   1.561   8.932  1.4668  2.5574 -1.4335
 2813SOL     OW19900   4.329   3.731   8.956  0.5084 -0.1866 -0.1182
 2813SOL    HW119901   4.297   3.673   8.887  1.8611 -0.5919 -0.4112
 2813SOL    HW219902   4.381   3.803   8.920  0.6614  0.2891  1.0513
 2814SOL     OW19903   1.535   3.555   9.126 -0.4719 -0.3418 -0.2167
 2814SOL    HW119904   1.459   3.517   9.171  0.7051 -2.0986  0.2933
 2814SOL    HW219905   1.575   3.483   9.077 -1.4917 -0.9085 -0.2161
 2815SOL     OW19906   3.322   3.679   1.032 -0.4442 -0.1815 -0.3804
 2815SOL    HW119907   3.266   3.606   1.058 -3.0399  1.2492 -1.8671
 2815SOL    HW219908   3.393   3.627   0.995 -0.2595 -1.2384  1.4588
 2816SOL     OW19909   3.691   4.339   7.014 -0.3453  0.0455  0.1750
 2816SOL    HW119910   3.695   4.360   7.108 -1.4476 -3.2957  0.9631
 2816SOL    HW219911   3.720   4.416   6.965  0.4719  0.8543  1.9238
 2817SOL     OW19912   0.552   2.596   9.146  0.1285  0.5915 -0.4179
 2817SOL    HW119913   0.543   2.589   9.051 -0.6614 -1.0361 -0.2057
 2817SOL    HW219914   0.461   2.575   9.167  0.2045 -1.0721 -1.7937
 2818SOL     OW19915   0.643   2.559   3.058  0.0993  0.1990  0.5150
 2818SOL    HW119916   0.701   2.520   2.993  1.7820  1.1771  1.4335
 2818SOL    HW219917   0.563   2.562   3.005 -0.1209  0.0055  0.8317
 2819SOL     OW19918   2.810   3.927   6.577  1.0768 -0.6092  0.3489
 2819SOL    HW119919   2.802   3.872   6.499  1.8165  1.3288 -1.0905
 2819SOL    HW219920   2.723   3.929   6.617  1.0480 -0.5242  0.2810
 2820SOL     OW19921   2.457   3.784   6.529 -0.0527 -0.2790 -0.3030
 2820SOL    HW119922   2.504   3.846   6.584  0.5962 -1.7763  0.8496
 2820SOL    HW219923   2.478   3.712   6.589  2.4915  1.0984  0.4468
 2821SOL     OW19924   4.347   3.627   3.443 -0.2041 -0.4382 -0.1288
 2821SOL    HW119925   4.358   3.533   3.428 -1.1620 -0.6577  0.5280
 2821SOL    HW219926   4.280   3.647   3.378 -1.1291  1.5438  1.4385
 2822SOL     OW19927   2.383   4.281   2.762  0.4304  0.1241  0.1421
 2822SOL    HW119928   2.312   4.343   2.776 -1.5668 -1.9911 -0.6254
 2822SOL    HW219929   2.330   4.202   2.750  3.0273 -1.9301  2.1585
 2823SOL     OW19930   3.825   1.726   3.353 -0.5129 -0.3770  0.2039
 2823SOL    HW119931   3.841   1.776   3.273  1.1768  0.0697  0.8210
 2823SOL    HW219932   3.903   1.670   3.349  1.1617  2.0940 -1.2662
 2824SOL     OW19933   0.832   4.071   2.703 -0.0978  0.3940 -0.4288
 2824SOL    HW119934   0.875   4.096   2.785  0.5652 -1.3344 -0.2426
 2824SOL    HW219935   0.902   4.032   2.651  1.9885  0.4718  2.3488
 2825SOL     OW19936   2.699   0.562   4.412  0.3098 -0.3988 -0.6201
 2825SOL    HW119937   2.620   0.566   4.358  0.1341  0.8821 -0.2653
 2825SOL    HW219938   2.663   0.544   4.499 -1.0000  1.0244 -0.8614
 2826SOL     OW19939   4.023   2.497   6.256  0.1826 -0.7005 -0.5819
 2826SOL    HW119940   4.027   2.405   6.282  1.0542 -0.1950  1.0661
 2826SOL    HW219941   4.051   2.538   6.338 -1.0001  1.2973 -1.1620
 2827SOL     OW19942   4.558   3.147   6.476  0.2100  0.2893 -0.3896
 2827SOL    HW119943   4.483   3.140   6.535 -0.4819  1.7755 -1.0956
 2827SOL    HW219944   4.580   3.239   6.492 -1.0475  0.6406 -0.6747
 2828SOL     OW19945   2.918   1.207   6.846  0.4394  0.3582  0.5812
 2828SOL    HW119946   2.944   1.242   6.931  1.6796  0.9899 -0.0687
 2828SOL    HW219947   2.846   1.269   6.835  0.7295  0.6877  0.5321
 2829SOL     OW19948   2.120   2.536  16.299 -0.2224  0.1426  0.0041
 2829SOL    HW119949   2.044   2.502  16.347  0.5052  0.6661  1.5355
 2829SOL    HW219950   2.170   2.583  16.366 -1.6088  1.5260  0.0927
 2830SOL     OW19951   2.220   1.381   8.334 -0.1672  0.2198  0.0429
 2830SOL    HW119952   2.152   1.336   8.283  1.6969  0.7589 -2.8635
 2830SOL    HW219953   2.166   1.449   8.375  1.0678 -1.2556  4.0953
 2831SOL     OW19954   1.715   0.098   6.022 -0.3840  0.0658  0.2048
 2831SOL    HW119955   1.687   0.015   6.062 -0.9882  0.2040  0.0666
 2831SOL    HW219956   1.668   0.071   5.944  0.2781  2.2125 -0.9278
 2832SOL     OW19957   0.503   2.622   8.886  0.4389 -0.2099  0.2094
 2832SOL    HW119958   0.575   2.636   8.825  1.3603 -1.3546  1.0336
 2832SOL    HW219959   0.432   2.604   8.824  2.7392 -1.1368 -2.1193
 2833SOL     OW19960   4.665   4.138   3.688 -0.1216 -0.0611 -0.1280
 2833SOL    HW119961   4.580   4.097   3.706 -0.3965  0.1299 -1.0339
 2833SOL    HW219962   4.676   4.108   3.598 -2.8730 -1.3050 -0.0384
 2834SOL     OW19963   1.051   0.457   6.863  0.5912 -0.4720  0.1956
 2834SOL    HW119964   0.966   0.485   6.895  0.2142  0.5596 -1.7086
 2834SOL    HW219965   1.085   0.545   6.852  0.7903 -0.1860  3.2127
 2835SOL     OW19966   0.621   1.471   1.932 -0.2979  0.3022  0.0913
 2835SOL    HW119967   0.673   1.445   2.007 -0.2264 -0.4122 -0.2076
 2835SOL    HW219968   0.684   1.483   1.861  0.7701  1.6400  1.2663
 2836SOL     OW19969   2.317   3.058   2.507  0.0278 -0.4953 -0.2156
 2836SOL    HW119970   2.334   3.112   2.584  0.8743 -1.3768  0.2249
 2836SOL    HW219971   2.258   2.988   2.535 -0.5899 -0.7247 -2.1495
 2837SOL     OW19972   4.385   2.075   2.088  0.4214  0.2541 -0.7316
 2837SOL    HW119973   4.334   2.083   2.169  1.4383  2.7479 -0.3120
 2837SOL    HW219974   4.469   2.106   2.122 -0.1654  0.1702  0.8047
 2838SOL     OW19975   2.701   4.393   1.857 -0.0586  0.1249  0.0330
 2838SOL    HW119976   2.781   4.447   1.852  0.5420 -0.7402  0.2605
 2838SOL    HW219977   2.738   4.317   1.811 -1.3175  0.7877 -2.1020
 2839SOL     OW19978   0.124   4.703   3.827  0.1143 -0.0224  0.1970
 2839SOL    HW119979   0.136   4.611   3.806 -0.8661  0.2736 -1.6199
 2839SOL    HW219980   0.033   4.717   3.801  0.7688  3.5265 -0.2604
 2840SOL     OW19981   0.879   0.559  10.447  0.2631 -0.1427  0.7377
 2840SOL    HW119982   0.935   0.500  10.397  0.4003 -0.4053  1.1956
 2840SOL    HW219983   0.797   0.559  10.398  0.8181 -3.4351 -0.1702
 2841SOL     OW19984   0.745   2.631   3.302 -0.2866 -0.2551 -0.6502
 2841SOL    HW119985   0.787   2.560   3.351 -0.3980 -0.0708 -0.2833
 2841SOL    HW219986   0.716   2.593   3.219 -0.9034  2.2969 -1.6248
 2842SOL     OW19987   2.940   3.079   3.616 -0.1223 -0.5459 -0.1535
 2842SOL    HW119988   2.935   3.155   3.557  2.0834  0.6822  1.2917
 2842SOL    HW219989   2.876   3.104   3.682  0.5414  0.9331 -0.0719
 2843SOL     OW19990   1.694   0.817   6.035  0.3399  0.6051  0.0723
 2843SOL    HW119991   1.639   0.888   6.003  1.2996  2.2760  2.0887
 2843SOL    HW219992   1.651   0.794   6.118 -0.3885 -0.5247 -0.6331
 2844SOL     OW19993   0.611   0.187   5.915  0.5228  0.2825 -0.1670
 2844SOL    HW119994   0.644   0.276   5.905 -0.7041  1.1247  3.2469
 2844SOL    HW219995   0.689   0.148   5.953  1.3752  0.8633 -1.3402
 2845SOL     OW19996   1.718   4.368   3.820 -0.1407 -0.3419  0.1716
 2845SOL    HW119997   1.661   4.337   3.750  2.3409  1.4051 -2.6192
 2845SOL    HW219998   1.674   4.440   3.864  1.6118  1.3732 -0.8908
 2846SOL     OW19999   3.114   0.194   8.353  0.0731  0.1832  0.0388
 2846SOL    HW120000   3.071   0.123   8.400  2.4985 -2.5960 -1.9436
 2846SOL    HW220001   3.200   0.153   8.357 -0.7330 -1.8241 -3.2352
 2847SOL     OW20002   0.019   2.131   2.483 -0.9644 -0.0517  0.2683
 2847SOL    HW120003   0.098   2.153   2.433 -0.9912 -1.2773 -0.3261
 2847SOL    HW220004   0.036   2.195   2.553 -0.3063  0.1402 -0.0678
 2848SOL     OW20005   4.554   2.043   5.321 -0.1315  0.3663 -0.0602
 2848SOL    HW120006   4.498   2.113   5.354 -0.8054  0.5714 -1.6276
 2848SOL    HW220007   4.531   2.061   5.230  0.2321 -1.6995 -0.5733
 2849SOL     OW20008   3.160   4.523  11.572  0.5782 -0.2698 -0.4461
 2849SOL    HW120009   3.241   4.484  11.607  0.4943  0.9835  1.1096
 2849SOL    HW220010   3.175   4.617  11.573 -0.3587 -0.1241 -0.7995
 2850SOL     OW20011   4.246   2.654   4.817 -0.5245  0.7418  0.2499
 2850SOL    HW120012   4.172   2.601   4.847 -0.4746  0.0308 -0.8857
 2850SOL    HW220013   4.248   2.650   4.722  0.0539  1.6280  0.2161
 2851SOL     OW20014   2.158   3.519   5.687  0.4989 -0.0437  0.2521
 2851SOL    HW120015   2.205   3.558   5.761  1.3744  0.0937 -0.3746
 2851SOL    HW220016   2.230   3.460   5.665 -2.0251 -2.3713 -1.7315
 2852SOL     OW20017   4.219   0.619   6.821  0.0358 -0.1332  0.0572
 2852SOL    HW120018   4.242   0.703   6.781  1.6716 -0.7905 -0.3930
 2852SOL    HW220019   4.135   0.604   6.778 -0.7084  0.3153  1.3804
 2853SOL     OW20020   4.081   1.008   4.957 -0.5333 -0.2604  0.2181
 2853SOL    HW120021   4.050   1.003   5.047 -2.8010 -0.4060 -0.5897
 2853SOL    HW220022   4.004   1.028   4.904 -0.8605  0.6482  1.0485
 2854SOL     OW20023   2.556   4.587   6.991 -0.2954  0.1699 -0.0177
 2854SOL    HW120024   2.564   4.590   6.896  0.3932  0.8643  0.0647
 2854SOL    HW220025   2.470   4.547   7.003  1.2421 -2.6668  1.6175
 2855SOL     OW20026   1.987   2.577  15.009 -0.4689 -0.1757  0.0937
 2855SOL    HW120027   1.926   2.577  15.084 -0.3168  1.5984  0.2136
 2855SOL    HW220028   1.963   2.492  14.971 -0.2001 -0.8338  1.3678
 2856SOL     OW20029   2.806   3.341   9.130  0.2852  0.0120 -0.2620
 2856SOL    HW120030   2.896   3.372   9.139  0.4498  0.3138 -2.9513
 2856SOL    HW220031   2.803   3.258   9.082 -0.5678 -0.4305  0.5515
 2857SOL     OW20032   3.966   2.743  15.554  0.2287  0.3351 -0.5640
 2857SOL    HW120033   3.950   2.732  15.461  0.0052  3.5331 -0.9100
 2857SOL    HW220034   3.879   2.772  15.582  0.6049 -0.4732  1.4418
 2858SOL     OW20035   2.511   1.783   5.460  0.0520  0.8705  0.0799
 2858SOL    HW120036   2.501   1.707   5.517  2.8324 -0.6149 -1.4038
 2858SOL    HW220037   2.595   1.772   5.416  1.5370  2.0057  2.6902
 2859SOL     OW20038   4.537   4.377   5.457 -0.6077 -0.1935 -0.2054
 2859SOL    HW120039   4.485   4.382   5.538 -1.4204 -0.7394 -0.6906
 2859SOL    HW220040   4.622   4.411   5.484 -1.6874  1.2034  1.4589
 2860SOL     OW20041   1.834   3.739   3.186  0.4754  0.1960 -0.0977
 2860SOL    HW120042   1.827   3.803   3.115  0.3565  1.6105  1.1589
 2860SOL    HW220043   1.896   3.680   3.145  0.9923 -0.0197  1.0068
 2861SOL     OW20044   1.785   3.827  17.352  0.0457  0.1083  0.0229
 2861SOL    HW120045   1.877   3.841  17.376  0.1186 -1.1463  0.4834
 2861SOL    HW220046   1.747   3.790  17.432  0.1322 -0.2098 -0.0823
 2862SOL     OW20047   2.338   0.689   6.879 -0.5295 -0.4396  0.3830
 2862SOL    HW120048   2.402   0.753   6.909  0.7327 -0.8973 -1.3007
 2862SOL    HW220049   2.300   0.658   6.961  2.7063 -2.3722  1.1633
 2863SOL     OW20050   3.960   2.471   4.397 -0.1560 -0.1265  0.7265
 2863SOL    HW120051   4.000   2.384   4.404  1.3412  0.5798  0.9071
 2863SOL    HW220052   3.960   2.456   4.302 -1.4701  1.4348  0.4860
 2864SOL     OW20053   3.539   1.582   2.965 -0.4688  0.2768 -0.1460
 2864SOL    HW120054   3.466   1.631   2.927 -1.0838  0.2252  0.9527
 2864SOL    HW220055   3.595   1.576   2.888 -1.1288 -2.2985 -0.4206
 2865SOL     OW20056   3.447   4.411   3.938 -1.1110  0.1274  0.5017
 2865SOL    HW120057   3.440   4.398   3.843  1.4131 -1.1550  0.4874
 2865SOL    HW220058   3.372   4.361   3.968  0.0447 -1.4020  0.8298
 2866SOL     OW20059   0.517   2.686   7.805 -0.3865  0.6335  0.8466
 2866SOL    HW120060   0.512   2.623   7.877 -4.3591 -0.3274 -0.2881
 2866SOL    HW220061   0.520   2.774   7.841 -0.4568  0.3995  1.4280
 2867SOL     OW20062   2.633   3.137   3.027  0.4108 -0.2055  0.1762
 2867SOL    HW120063   2.669   3.147   3.115  1.0738 -0.6254 -0.0504
 2867SOL    HW220064   2.712   3.141   2.973  0.7731 -0.6701  0.6770
 2868SOL     OW20065   1.358   3.434   3.815 -0.2416 -0.1936 -0.3711
 2868SOL    HW120066   1.299   3.459   3.743  1.4741 -0.0114 -1.7001
 2868SOL    HW220067   1.327   3.349   3.845  0.4219 -0.3133 -0.0376
 2869SOL     OW20068   0.285   1.597   8.276 -0.1451  0.1965 -0.5124
 2869SOL    HW120069   0.266   1.653   8.352  0.6122  2.1237 -1.7514
 2869SOL    HW220070   0.278   1.506   8.306 -0.2728 -0.0050 -1.1638
 2870SOL     OW20071   3.519   4.374   1.311 -0.4954 -0.7235 -0.2114
 2870SOL    HW120072   3.500   4.453   1.261 -0.1869  0.1850  1.1175
 2870SOL    HW220073   3.509   4.409   1.399  1.0190  1.3777 -0.8929
 2871SOL     OW20074   4.633   1.825   1.794  0.6057  0.2779  0.0827
 2871SOL    HW120075   4.616   1.757   1.730 -3.0076 -0.3995  1.7312
 2871SOL    HW220076   4.569   1.803   1.861  0.7340  0.6962  0.3461
 2872SOL     OW20077   0.154   0.491   6.725 -0.1146 -0.2339  0.1197
 2872SOL    HW120078   0.178   0.583   6.734 -0.6975  0.0381 -1.0933
 2872SOL    HW220079   0.239   0.447   6.729 -1.6191 -3.1686 -0.1483
 2873SOL     OW20080   0.458   2.375   3.191  0.3595  0.0994 -0.3167
 2873SOL    HW120081   0.505   2.427   3.126  1.4231  1.0126  1.1840
 2873SOL    HW220082   0.476   2.288   3.157  1.3868  2.0060 -4.6356
 2874SOL     OW20083   1.318   2.136   7.719 -0.6268  0.5575 -0.1732
 2874SOL    HW120084   1.261   2.205   7.753  0.1493  0.1186  1.9853
 2874SOL    HW220085   1.262   2.075   7.671  0.3819 -0.5370  0.0661
 2875SOL     OW20086   2.048   4.666   7.508 -0.1519  0.2898 -0.3404
 2875SOL    HW120087   2.077   0.023   7.548  2.0756 -1.5088  1.7504
 2875SOL    HW220088   2.012   4.630   7.590  1.2153  1.2074  0.6708
 2876SOL     OW20089   4.604   3.206   8.184 -0.1117 -0.0160  0.6252
 2876SOL    HW120090   4.623   3.269   8.114  0.9072 -0.5574  0.4311
 2876SOL    HW220091   4.525   3.162   8.152  0.2429 -2.7870  3.5912
 2877SOL     OW20092   1.834   3.770   4.576  0.2827 -0.3191  0.0154
 2877SOL    HW120093   1.909   3.762   4.634 -1.8224 -1.0587  2.6199
 2877SOL    HW220094   1.753   3.743   4.619 -0.9108 -0.6595 -2.4476
 2878SOL     OW20095   4.372   3.582   6.698 -0.0297  0.1567 -0.4121
 2878SOL    HW120096   4.331   3.610   6.617 -0.9135 -0.7445 -0.2883
 2878SOL    HW220097   4.424   3.657   6.726 -1.1536  0.6096  0.4565
 2879SOL     OW20098   3.972   0.018  12.968  0.2672  0.5832 -0.4651
 2879SOL    HW120099   3.981   4.648  12.954  0.2250  0.1847  2.1669
 2879SOL    HW220100   3.884   0.031  12.933 -0.3899 -2.3552  0.0957
 2880SOL     OW20101   1.929   2.924  11.435 -0.8165  0.0987 -0.7692
 2880SOL    HW120102   1.954   3.009  11.470 -0.1610 -1.0214  1.4708
 2880SOL    HW220103   1.996   2.917  11.366  0.3112 -1.0656  0.4365
 2881SOL     OW20104   3.086   1.010  14.993 -0.2238 -0.7407  0.1056
 2881SOL    HW120105   3.131   0.927  15.009 -0.4877 -0.7847  0.5942
 2881SOL    HW220106   3.017   0.981  14.934 -0.2311 -0.1285 -0.1940
 2882SOL     OW20107   1.527   0.767  13.304  0.1568  0.4787  0.3219
 2882SOL    HW120108   1.463   0.717  13.253  0.2552  2.9674 -2.2160
 2882SOL    HW220109   1.603   0.733  13.256 -1.7731  1.2167 -3.2995
 2883SOL     OW20110   3.827   1.716   5.736 -0.3613  0.0836  0.1936
 2883SOL    HW120111   3.885   1.790   5.716 -0.3620  0.0143 -0.0575
 2883SOL    HW220112   3.886   1.642   5.721  0.1930  0.7442 -0.8813
 2884SOL     OW20113   2.944   0.915  12.987 -0.0887 -0.5870 -0.0487
 2884SOL    HW120114   2.882   0.964  13.040  2.0866  1.5830  0.4890
 2884SOL    HW220115   2.887   0.872  12.923 -0.5651  1.2019 -0.8332
 2885SOL     OW20116   3.660   4.236  11.160 -0.4749 -0.0699  0.1977
 2885SOL    HW120117   3.685   4.150  11.126 -2.1089 -0.8668  1.0374
 2885SOL    HW220118   3.578   4.217  11.205 -1.5824 -1.1824 -2.2734
 2886SOL     OW20119   1.329   0.092   5.796  0.1424 -0.0543 -0.0100
 2886SOL    HW120120   1.400   0.064   5.854  0.5199  1.0314  0.0514
 2886SOL    HW220121   1.298   0.004   5.774 -1.1609  0.0924  1.1976
 2887SOL     OW20122   1.155   0.035  13.531 -0.4573  0.0654  0.2027
 2887SOL    HW120123   1.199   4.675  13.532 -0.5667 -0.0285 -1.7513
 2887SOL    HW220124   1.217   0.085  13.584  0.0321  1.1045 -1.3300
 2888SOL     OW20125   3.005   1.608   4.678  0.1855  0.6132  0.8875
 2888SOL    HW120126   3.027   1.515   4.672  1.3528  1.1193 -2.5873
 2888SOL    HW220127   3.024   1.630   4.587 -0.4352  0.8359  0.8148
 2889SOL     OW20128   3.228   2.475   6.878  0.5262 -0.0233  0.0116
 2889SOL    HW120129   3.313   2.518   6.886  0.3594  0.8724 -2.9035
 2889SOL    HW220130   3.196   2.477   6.968  0.0380 -0.5119 -0.1510
 2890SOL     OW20131   0.772   1.119   3.769 -0.3905 -0.3942 -0.5482
 2890SOL    HW120132   0.688   1.075   3.760  0.0658 -1.3075 -0.3765
 2890SOL    HW220133   0.733   1.204   3.751 -1.0430 -0.6592 -0.3595
 2891SOL     OW20134   0.098   2.349   2.629 -0.8408 -0.4125 -0.8992
 2891SOL    HW120135   0.181   2.395   2.620  0.5382 -2.2734  2.3479
 2891SOL    HW220136   0.078   2.375   2.719  0.2972  0.3230 -0.8673
 2892SOL     OW20137   2.904   2.471  16.471 -0.1750 -0.1073 -0.2092
 2892SOL    HW120138   2.867   2.544  16.422 -0.8463 -0.5367 -0.3269
 2892SOL    HW220139   2.859   2.397  16.431 -0.7750 -0.3092  0.8586
 2893SOL     OW20140   1.420   2.982   9.965  0.9639  0.2627  0.4211
 2893SOL    HW120141   1.374   3.039   9.904 -1.0026 -0.2548  1.4134
 2893SOL    HW220142   1.346   2.925   9.987 -0.2397  1.1497 -1.3115
 2894SOL     OW20143   1.466   3.688   5.131 -0.1949 -0.1094 -0.8341
 2894SOL    HW120144   1.467   3.777   5.095 -3.7702 -0.3523 -1.5413
 2894SOL    HW220145   1.442   3.635   5.056 -2.6957  0.3399 -0.3475
 2895SOL     OW20146   2.765   3.578  16.536 -0.1538  0.2269 -0.3163
 2895SOL    HW120147   2.787   3.671  16.546 -3.7682  1.1606 -0.8490
 2895SOL    HW220148   2.749   3.580  16.442  1.5345 -0.3818 -0.5986
 2896SOL     OW20149   2.512   1.933   3.194 -1.0525 -0.0502 -0.1239
 2896SOL    HW120150   2.593   1.973   3.226 -1.8301  1.2080  0.2629
 2896SOL    HW220151   2.478   1.989   3.125 -1.2453 -1.1343 -0.9140
 2897SOL     OW20152   3.700   0.965   1.690  0.3750 -0.8142  0.1431
 2897SOL    HW120153   3.612   0.942   1.660  0.3747  0.0155 -0.4879
 2897SOL    HW220154   3.728   1.025   1.622  0.3854  0.5238  1.3177
 2898SOL     OW20155   4.069   4.321   8.370 -0.3833 -0.0613 -0.1138
 2898SOL    HW120156   3.986   4.338   8.325  0.7456 -2.0841 -2.9335
 2898SOL    HW220157   4.081   4.404   8.416 -0.1034  0.6939 -1.5273
 2899SOL     OW20158   1.816   1.732   7.609  0.4581 -0.1439 -0.0304
 2899SOL    HW120159   1.739   1.788   7.621  1.1956  0.7330  0.6020
 2899SOL    HW220160   1.871   1.793   7.560 -0.1038 -0.9237 -1.6690
 2900SOL     OW20161   3.940   4.125   6.229 -0.0798  0.5329 -0.4759
 2900SOL    HW120162   3.999   4.200   6.229 -1.7491  1.8344  0.0670
 2900SOL    HW220163   3.936   4.116   6.133  0.2957 -1.8921 -0.2756
 2901SOL     OW20164   2.440   1.859   4.427 -0.4708  0.0387  0.1069
 2901SOL    HW120165   2.430   1.798   4.500 -0.8088 -1.3311 -1.0986
 2901SOL    HW220166   2.414   1.807   4.352 -0.3077  0.0210  0.0614
 2902SOL     OW20167   4.042   2.630   8.647  0.1158  0.0586  0.2861
 2902SOL    HW120168   4.134   2.609   8.665  0.3898 -0.3528 -1.6269
 2902SOL    HW220169   4.029   2.714   8.691  1.8257  1.9064 -2.7207
 2903SOL     OW20170   0.768   2.233  10.417  0.2251 -0.1118  0.2584
 2903SOL    HW120171   0.692   2.235  10.476 -0.7001 -0.8062 -0.9045
 2903SOL    HW220172   0.787   2.326  10.406 -0.3099 -0.1890 -1.2833
 2904SOL     OW20173   0.845   4.410  11.773  0.0525  0.1616 -0.0161
 2904SOL    HW120174   0.877   4.342  11.833 -0.4038  1.1999  1.3887
 2904SOL    HW220175   0.834   4.479  11.838  1.3492  1.8968 -1.6509
 2905SOL     OW20176   1.470   1.856   9.620  0.5765  0.0782  0.1100
 2905SOL    HW120177   1.397   1.819   9.571  1.2207  0.6850 -1.3097
 2905SOL    HW220178   1.515   1.899   9.547 -0.5013  1.5584  0.3057
 2906SOL     OW20179   0.632   1.554   3.874 -0.3422 -0.2114  0.2624
 2906SOL    HW120180   0.649   1.484   3.811 -0.8131  0.5864 -0.7576
 2906SOL    HW220181   0.723   1.575   3.894  0.4161 -3.1391 -0.0810
 2907SOL     OW20182   1.754   3.443   7.223  0.1220  0.1970 -0.3110
 2907SOL    HW120183   1.687   3.423   7.157 -0.2753 -0.2972  0.2397
 2907SOL    HW220184   1.706   3.515   7.263 -1.1445  0.1764 -1.7561
 2908SOL     OW20185   2.349   2.624   9.532  0.2158 -0.7380 -0.0007
 2908SOL    HW120186   2.371   2.645   9.623 -0.5878  0.2245 -0.0332
 2908SOL    HW220187   2.371   2.531   9.536  1.7090 -0.5148 -3.0684
 2909SOL     OW20188   2.403   3.612   1.886 -0.1017 -0.0275  0.1955
 2909SOL    HW120189   2.341   3.624   1.815 -2.1871  0.2666  2.0606
 2909SOL    HW220190   2.346   3.621   1.962  0.2748 -0.0979  0.4885
 2910SOL     OW20191   0.794   3.550  13.986  0.0649  0.0776 -1.0473
 2910SOL    HW120192   0.699   3.545  13.980 -0.0961  1.6725  0.1095
 2910SOL    HW220193   0.805   3.634  13.940  2.7541  0.5275  0.4139
 2911SOL     OW20194   1.114   2.867   9.033  0.0099 -0.0063  0.2833
 2911SOL    HW120195   1.097   2.873   9.126  0.7952  0.8979  0.3684
 2911SOL    HW220196   1.206   2.840   9.038  0.0031 -0.6023 -2.3474
 2912SOL     OW20197   3.444   0.274   5.934 -0.2173 -0.0121 -0.2523
 2912SOL    HW120198   3.465   0.213   5.864 -2.1407 -0.8072 -0.1398
 2912SOL    HW220199   3.362   0.313   5.904  0.3514  1.0645 -0.4132
 2913SOL     OW20200   4.621   3.259   2.263 -0.2485  0.2408  0.3232
 2913SOL    HW120201   4.616   3.354   2.258 -1.5771  0.3081  2.8485
 2913SOL    HW220202   4.703   3.250   2.312  0.3539  0.5351 -0.6413
 2914SOL     OW20203   3.647   2.327   8.387  0.3142  0.4778  0.0151
 2914SOL    HW120204   3.736   2.327   8.351 -0.4627 -0.2366 -1.8883
 2914SOL    HW220205   3.668   2.330   8.480 -1.1942  0.2599  0.3554
 2915SOL     OW20206   1.807   3.841   4.077  0.2768  0.3681 -0.3790
 2915SOL    HW120207   1.822   3.934   4.094  1.5184  0.0174  0.4786
 2915SOL    HW220208   1.802   3.796   4.161  2.5979 -0.0540 -0.4548
 2916SOL     OW20209   4.505   3.449  11.986  0.0817 -0.3353  0.3123
 2916SOL    HW120210   4.423   3.422  11.946  0.0201  0.6985 -0.2294
 2916SOL    HW220211   4.542   3.510  11.922  1.9556 -2.1098 -0.3090
 2917SOL     OW20212   1.887   4.521   7.342  0.0717  0.3444  0.1799
 2917SOL    HW120213   1.912   4.561   7.425 -1.2037  1.0232  0.2376
 2917SOL    HW220214   1.967   4.522   7.290  0.6901  1.3815  1.1567
 2918SOL     OW20215   3.529   3.864   9.211 -0.3326  0.0470 -0.5509
 2918SOL    HW120216   3.455   3.900   9.260 -1.1002 -1.3503 -0.6809
 2918SOL    HW220217   3.516   3.895   9.121 -0.2616  0.4172 -0.4332
 2919SOL     OW20218   2.654   1.682   4.977 -0.5396 -0.1607 -0.3360
 2919SOL    HW120219   2.586   1.659   4.914  0.5284 -3.0907 -0.4275
 2919SOL    HW220220   2.612   1.652   5.057  2.7921  0.6354  1.7273
 2920SOL     OW20221   4.299   1.853  16.243 -0.6152  0.4840  0.1132
 2920SOL    HW120222   4.307   1.946  16.264 -1.7021  0.7318 -0.5386
 2920SOL    HW220223   4.386   1.828  16.274 -0.5306  0.7354  0.0776
 2921SOL     OW20224   3.150   3.971  17.467  0.4557 -0.3961 -0.3408
 2921SOL    HW120225   3.091   4.046  17.477  0.9928 -0.0131 -0.0454
 2921SOL    HW220226   3.183   3.973  17.556  2.0169  1.1257 -0.9524
 2922SOL     OW20227   4.319   1.807   6.863 -0.1829 -0.6063  0.1363
 2922SOL    HW120228   4.233   1.850   6.861 -0.9017 -2.0303  0.6975
 2922SOL    HW220229   4.340   1.829   6.953 -0.3781 -0.1309  0.0699
 2923SOL     OW20230   3.529   3.918   5.798  0.3653 -0.5603  0.0909
 2923SOL    HW120231   3.440   3.949   5.816 -0.1827 -1.1756 -1.5441
 2923SOL    HW220232   3.522   3.828   5.831  1.7950 -0.7681 -0.1417
 2924SOL     OW20233   1.555   4.069  16.830 -0.6945 -0.1167 -0.1734
 2924SOL    HW120234   1.510   4.087  16.747  1.4020  0.5295 -1.1746
 2924SOL    HW220235   1.582   3.980  16.808 -0.8653 -0.2255  0.0618
 2925SOL     OW20236   1.617   2.478   1.187  0.4102  0.2105 -0.1018
 2925SOL    HW120237   1.682   2.421   1.144  1.6779  1.9026 -0.4193
 2925SOL    HW220238   1.562   2.416   1.235  0.1017 -0.3191 -1.1307
 2926SOL     OW20239   1.462   2.971   6.189 -0.2635 -0.6511 -0.2738
 2926SOL    HW120240   1.411   2.957   6.269 -0.6739 -1.9610 -0.7543
 2926SOL    HW220241   1.547   2.992   6.227 -0.9548 -0.0935  0.9948
 2927SOL     OW20242   2.311   1.824   2.902 -0.0129 -0.2940 -0.4732
 2927SOL    HW120243   2.337   1.917   2.904 -0.8869 -0.0009 -2.5730
 2927SOL    HW220244   2.233   1.826   2.958 -0.3519 -1.7942 -0.8832
 2928SOL     OW20245   0.378   1.692   7.636  0.0570 -0.3393  0.3355
 2928SOL    HW120246   0.283   1.677   7.632  0.1659 -0.9100 -0.0006
 2928SOL    HW220247   0.404   1.651   7.554  0.8299  0.8235  0.0007
 2929SOL     OW20248   3.206   1.821   2.410  0.0595  0.0034 -0.1371
 2929SOL    HW120249   3.266   1.896   2.403  1.4346 -1.2885 -1.9102
 2929SOL    HW220250   3.146   1.863   2.472  1.2349  1.3777  0.0678
 2930SOL     OW20251   3.745   2.084  11.372 -0.3036 -0.1059  0.2115
 2930SOL    HW120252   3.831   2.107  11.407 -0.3641  0.5322 -0.0720
 2930SOL    HW220253   3.754   2.103  11.279  0.4081  0.2927  0.3669
 2931SOL     OW20254   0.103   2.073   6.784  0.0191  0.3090  1.3258
 2931SOL    HW120255   0.041   2.048   6.852 -2.2315 -0.5622 -1.0365
 2931SOL    HW220256   0.171   2.007   6.798 -1.3940 -1.4179  0.1827
 2932SOL     OW20257   4.259   4.125   2.219  0.0559 -0.7232 -0.1654
 2932SOL    HW120258   4.229   4.194   2.160  1.1748  0.7429  1.0102
 2932SOL    HW220259   4.220   4.151   2.302  0.1733  1.0635 -0.6824
 2933SOL     OW20260   3.836   0.907   3.600  0.5691  0.0760  0.1935
 2933SOL    HW120261   3.928   0.883   3.611  1.2738  1.3349 -2.7518
 2933SOL    HW220262   3.807   0.878   3.513  0.7052 -0.4989  0.3360
 2934SOL     OW20263   1.575   4.400   8.607 -0.2328  0.1797  0.2763
 2934SOL    HW120264   1.582   4.369   8.697  1.3326 -0.4519 -0.0481
 2934SOL    HW220265   1.665   4.430   8.594  0.0506 -0.8755 -0.1604
 2935SOL     OW20266   4.516   2.384   8.039 -0.0815  0.1228 -0.2170
 2935SOL    HW120267   4.514   2.291   8.061  3.8199  0.2204  0.5615
 2935SOL    HW220268   4.426   2.396   8.010 -0.0565 -1.5202 -0.9605
 2936SOL     OW20269   0.954   3.555   5.729  0.0513  0.0650 -0.4122
 2936SOL    HW120270   0.957   3.649   5.713 -4.3445  0.0860 -1.0399
 2936SOL    HW220271   0.863   3.553   5.760 -0.2456  0.8352 -1.2362
 2937SOL     OW20272   2.851   0.010   0.135 -0.0909  0.6804 -0.3872
 2937SOL    HW120273   2.875   0.091   0.180 -0.0627 -0.0104  0.8136
 2937SOL    HW220274   2.757   0.027   0.133 -0.2944 -0.2933  0.6976
 2938SOL     OW20275   4.561   1.953   2.577  0.2787 -0.7510  0.3690
 2938SOL    HW120276   4.503   2.020   2.542 -0.8681 -0.3686  2.9596
 2938SOL    HW220277   4.643   2.001   2.567  0.6071 -1.7224 -1.5807
 2939SOL     OW20278   2.688   4.209   0.808 -0.2108 -0.3215 -0.1018
 2939SOL    HW120279   2.627   4.279   0.832  0.0207 -0.7742  1.8003
 2939SOL    HW220280   2.654   4.135   0.857 -0.1868 -1.4202 -1.7533
 2940SOL     OW20281   0.553   1.559   4.629  0.7109  0.0001  0.3587
 2940SOL    HW120282   0.582   1.650   4.635  0.2565  0.0232  2.1638
 2940SOL    HW220283   0.605   1.527   4.702 -2.2438 -2.1077  1.5473
 2941SOL     OW20284   3.494   3.171   3.195 -0.2087 -0.4217 -0.1384
 2941SOL    HW120285   3.551   3.178   3.118  1.3635  0.0236  1.0735
 2941SOL    HW220286   3.528   3.093   3.238  1.3839 -1.7775 -3.8159
 2942SOL     OW20287   0.024   0.490   9.446  0.3192 -0.1935 -0.0114
 2942SOL    HW120288   4.657   0.516   9.441  0.3018 -0.1233  0.6425
 2942SOL    HW220289   0.020   0.407   9.398  0.2166 -0.6443  0.7739
 2943SOL     OW20290   1.857   1.953   4.801 -0.5462 -0.0463  0.0964
 2943SOL    HW120291   1.860   1.859   4.818  1.7908 -0.0431 -0.2780
 2943SOL    HW220292   1.948   1.963   4.773 -0.3008 -0.3100  0.8084
 2944SOL     OW20293   2.545   3.716  11.571 -0.3478 -0.0526  0.5043
 2944SOL    HW120294   2.542   3.748  11.481 -2.0766  0.7822  0.8584
 2944SOL    HW220295   2.620   3.765  11.607 -0.1210  0.5201 -0.7414
 2945SOL     OW20296   1.697   2.636   6.635 -0.1021 -0.5898 -0.3380
 2945SOL    HW120297   1.690   2.548   6.597  0.7052 -0.8137  0.0342
 2945SOL    HW220298   1.773   2.628   6.693 -0.1861  1.4483  0.0471
 2946SOL     OW20299   1.019   4.240   4.253  0.2349  0.3330 -0.0723
 2946SOL    HW120300   1.051   4.153   4.277 -0.8516 -0.3801 -1.2322
 2946SOL    HW220301   1.095   4.282   4.214 -0.5234  1.5025 -0.2912
 2947SOL     OW20302   2.734   0.936   3.454  0.3534  0.2645 -0.0534
 2947SOL    HW120303   2.687   0.864   3.494 -0.5363  0.8242 -0.0892
 2947SOL    HW220304   2.697   0.937   3.366  0.5327 -0.7450 -0.1352
 2948SOL     OW20305   2.253   3.149   9.103 -0.6067  0.0877 -0.5167
 2948SOL    HW120306   2.319   3.095   9.148 -1.6358  2.1965  3.5175
 2948SOL    HW220307   2.219   3.200   9.176 -1.9770  0.7282 -1.6040
 2949SOL     OW20308   3.900   3.254   7.372 -0.2389 -0.2643 -0.1359
 2949SOL    HW120309   3.911   3.173   7.323 -1.6346  0.1547 -1.1352
 2949SOL    HW220310   3.833   3.294   7.317  2.0115  4.3800  0.5336
 2950SOL     OW20311   1.055   1.106   2.514  0.2435  0.4739 -0.5715
 2950SOL    HW120312   1.115   1.179   2.532  2.2993 -0.6793 -2.6811
 2950SOL    HW220313   1.030   1.126   2.423  1.2841  1.6241 -0.6089
 2951SOL     OW20314   0.611   4.348   7.090  0.6374  0.3580  0.0630
 2951SOL    HW120315   0.641   4.434   7.119  1.3197  0.1892 -0.1427
 2951SOL    HW220316   0.517   4.362   7.086  0.5951 -0.0508 -0.4786
 2952SOL     OW20317   3.492   0.503   7.858  0.2900  0.1891  0.6501
 2952SOL    HW120318   3.507   0.583   7.908  1.4311  2.3666 -3.1499
 2952SOL    HW220319   3.553   0.438   7.894 -0.3043 -0.5961  0.2511
 2953SOL     OW20320   2.470   0.259  12.516 -0.2087 -0.2118  0.3006
 2953SOL    HW120321   2.461   0.246  12.421 -0.4276  0.7621  0.1870
 2953SOL    HW220322   2.562   0.284  12.524 -0.0226 -1.5746  2.3050
 2954SOL     OW20323   3.723   3.362   7.170  0.4852  0.2104  0.0586
 2954SOL    HW120324   3.649   3.321   7.124  1.1251 -0.7288 -0.1416
 2954SOL    HW220325   3.713   3.457   7.160 -0.1558  0.0101 -1.1964
 2955SOL     OW20326   0.324   0.429  13.467 -0.3387  0.2057 -0.1885
 2955SOL    HW120327   0.247   0.436  13.522  0.8168  1.1031  1.3262
 2955SOL    HW220328   0.385   0.413  13.539 -0.3277  1.8993  0.1701
 2956SOL     OW20329   4.404   2.945   7.243  0.0096 -0.2412  0.0831
 2956SOL    HW120330   4.453   3.008   7.191  0.2220 -0.2014  0.3312
 2956SOL    HW220331   4.400   2.987   7.329  0.2007  1.6407 -0.8369
 2957SOL     OW20332   1.955   3.057   8.977 -0.4750  0.2026  0.3523
 2957SOL    HW120333   2.039   3.103   8.972 -0.6128  0.8005  3.7077
 2957SOL    HW220334   1.941   3.049   9.071  2.8195 -1.0626  0.7156
 2958SOL     OW20335   2.696   3.308   2.688  0.1694  0.0046  0.3447
 2958SOL    HW120336   2.777   3.258   2.679  0.0506 -0.4565  1.8922
 2958SOL    HW220337   2.710   3.379   2.625  2.1063  0.3313  1.1307
 2959SOL     OW20338   0.479   1.405  12.204  0.0421  0.4277 -0.3246
 2959SOL    HW120339   0.451   1.386  12.294  0.0047  3.3087  0.2964
 2959SOL    HW220340   0.451   1.496  12.192 -2.5649 -0.2788  0.4044
 2960SOL     OW20341   3.873   1.967   2.117 -0.8791 -0.7147  0.2258
 2960SOL    HW120342   3.963   1.971   2.148 -0.5355 -0.9116 -0.7642
 2960SOL    HW220343   3.830   1.903   2.174  1.0839 -2.6660 -0.5026
 2961SOL     OW20344   0.771   1.352   2.128  0.0776  0.3268  0.0034
 2961SOL    HW120345   0.820   1.416   2.179  0.2283  1.0954 -1.1080
 2961SOL    HW220346   0.848   1.297   2.115 -0.4062 -0.2845 -0.3204
 2962SOL     OW20347   1.853   2.163   6.071 -0.4325  0.2730  0.3767
 2962SOL    HW120348   1.775   2.138   6.023 -0.2956 -1.2904  0.9497
 2962SOL    HW220349   1.887   2.077   6.099 -0.3875  0.4932  1.0066
 2963SOL     OW20350   4.633   2.719   6.204  0.4216  0.3733  0.2182
 2963SOL    HW120351   4.566   2.657   6.231  0.2656  0.7518  0.6963
 2963SOL    HW220352   4.589   2.804   6.214  1.7353  1.0305  0.4062
 2964SOL     OW20353   2.438   0.110   7.792 -0.5055  0.1500 -0.2953
 2964SOL    HW120354   2.427   0.057   7.714 -3.1994  0.1724  0.0609
 2964SOL    HW220355   2.526   0.090   7.825 -1.0150 -1.5619  0.0551
 2965SOL     OW20356   0.392   1.125  16.387  0.0578 -0.2442  0.0710
 2965SOL    HW120357   0.360   1.209  16.420  0.5518  0.7056 -1.8718
 2965SOL    HW220358   0.443   1.156  16.312  1.1348  0.6174  1.1436
 2966SOL     OW20359   1.197   4.103   4.667  0.0470 -0.0845 -0.4245
 2966SOL    HW120360   1.283   4.114   4.709 -0.1039  0.5106 -0.2691
 2966SOL    HW220361   1.144   4.180   4.687  0.3610  0.3760 -1.3418
 2967SOL     OW20362   2.425   0.906   7.223  0.1021  0.5540  0.7456
 2967SOL    HW120363   2.483   0.938   7.155  0.6180  1.6642  1.7052
 2967SOL    HW220364   2.426   0.984   7.278  2.0641  0.5498  0.7033
 2968SOL     OW20365   2.949   4.644  15.016  0.8221 -0.1128  0.3103
 2968SOL    HW120366   2.953   4.564  14.964 -1.5963  0.1384 -0.2772
 2968SOL    HW220367   2.908   4.615  15.098  0.5978  2.5802  1.1612
 2969SOL     OW20368   3.792   2.497  14.602 -0.2751  0.7048  0.2627
 2969SOL    HW120369   3.825   2.499  14.692 -0.2683  2.3475  0.2253
 2969SOL    HW220370   3.711   2.458  14.635 -0.7688 -0.8352 -2.8422
 2970SOL     OW20371   0.103   0.747   7.064 -0.3525  0.0939  0.1384
 2970SOL    HW120372   0.187   0.759   7.109 -0.8360  0.3424  0.9714
 2970SOL    HW220373   0.092   0.654   7.044 -1.7976  0.4322 -0.6317
 2971SOL     OW20374   3.642   1.557   8.666 -0.1741  0.1937 -0.0748
 2971SOL    HW120375   3.665   1.610   8.742 -0.2343  0.0948  0.0128
 2971SOL    HW220376   3.707   1.489   8.654 -1.4514 -1.1297  0.4693
 2972SOL     OW20377   0.112   1.140  15.038  0.2123 -0.1101  0.3114
 2972SOL    HW120378   0.145   1.096  15.117 -1.1182 -2.2093 -0.2890
 2972SOL    HW220379   0.110   1.066  14.976 -0.2534 -0.0624  0.2696
 2973SOL     OW20380   0.116   0.806   1.813  0.0833  0.2703 -0.1787
 2973SOL    HW120381   0.195   0.782   1.765 -0.2389 -0.5162 -0.3113
 2973SOL    HW220382   0.110   0.734   1.876 -2.9930  0.7274  0.0611
 2974SOL     OW20383   1.529   4.218   3.000 -0.0072  0.3467  0.8156
 2974SOL    HW120384   1.463   4.199   2.933 -0.5661  0.5246  1.3126
 2974SOL    HW220385   1.597   4.251   2.942  0.1607 -0.1637  0.7199
 2975SOL     OW20386   1.146   1.558   9.722  0.8151  0.0952 -0.8596
 2975SOL    HW120387   1.107   1.497   9.660 -1.0327  0.2165  0.2033
 2975SOL    HW220388   1.101   1.640   9.704 -1.1547 -0.5723  1.0128
 2976SOL     OW20389   1.872   2.650  14.420  0.2325  0.5648  0.4128
 2976SOL    HW120390   1.921   2.696  14.352 -0.1927  2.5358  1.4381
 2976SOL    HW220391   1.871   2.707  14.498  1.1968  2.0812 -0.6812
 2977SOL     OW20392   0.465   3.408   0.959 -0.2097 -0.4759  0.3451
 2977SOL    HW120393   0.415   3.483   0.927  1.8553  0.9109  0.3640
 2977SOL    HW220394   0.422   3.334   0.916 -0.2293 -1.8284  2.7439
 2978SOL     OW20395   3.566   3.780  13.518 -0.1149  0.3262 -0.1630
 2978SOL    HW120396   3.641   3.791  13.576 -2.5197  0.9471  2.8517
 2978SOL    HW220397   3.502   3.842  13.555  0.0698 -0.3796  1.3366
 2979SOL     OW20398   2.003   0.911   6.810  0.1338 -0.2074 -0.3487
 2979SOL    HW120399   1.937   0.938   6.746 -1.5895 -1.0415  1.0997
 2979SOL    HW220400   2.068   0.981   6.805 -0.2438  0.3645  2.7420
 2980SOL     OW20401   3.415   3.850   8.754  0.3419  0.2741 -0.7738
 2980SOL    HW120402   3.421   3.936   8.711 -1.5656  0.0232 -1.5738
 2980SOL    HW220403   3.444   3.882   8.839  0.8500  0.9301 -1.1945
 2981SOL     OW20404   2.466   1.747   7.570 -0.1239 -0.1586 -0.1747
 2981SOL    HW120405   2.517   1.705   7.501  1.0850  1.4827 -0.2749
 2981SOL    HW220406   2.461   1.838   7.541  2.2933 -0.0396 -0.2283
 2982SOL     OW20407   3.967   0.272   4.211 -0.0318 -0.2391 -0.0570
 2982SOL    HW120408   4.040   0.317   4.167 -1.7808  2.2674 -0.4170
 2982SOL    HW220409   3.902   0.282   4.142  0.2198  0.2529 -0.2292
 2983SOL     OW20410   4.350   3.729   9.315  0.0662 -0.1974 -0.3250
 2983SOL    HW120411   4.395   3.747   9.232  1.3637  1.7117  0.7903
 2983SOL    HW220412   4.371   3.813   9.358 -1.3693  0.0330 -0.0778
 2984SOL     OW20413   0.263   4.183   8.429 -0.0673 -0.0055 -0.4064
 2984SOL    HW120414   0.263   4.088   8.420 -0.3771 -0.1110  0.6783
 2984SOL    HW220415   0.356   4.204   8.439 -0.5885  1.9961  0.1327
 2985SOL     OW20416   4.616   2.690  12.304 -0.0557  0.0501 -0.2958
 2985SOL    HW120417   4.540   2.726  12.260 -1.5224  0.1819  2.3285
 2985SOL    HW220418   4.641   2.764  12.360  1.4609 -1.3677  0.9051
 2986SOL     OW20419   2.124   0.622  12.774 -0.2134  0.1581  0.2435
 2986SOL    HW120420   2.204   0.655  12.733 -0.9950  2.5044  0.5616
 2986SOL    HW220421   2.125   0.686  12.846  0.0216  0.3456  0.0743
 2987SOL     OW20422   1.388   0.846   5.904  0.0501 -0.1223 -0.0630
 2987SOL    HW120423   1.389   0.893   5.821 -0.0656 -3.0123 -1.7302
 2987SOL    HW220424   1.401   0.920   5.964 -0.0393 -0.5252  0.4576
 2988SOL     OW20425   4.030   3.307   3.100 -0.1485  0.6506  0.2288
 2988SOL    HW120426   4.034   3.303   3.004  1.7111  0.3558  0.3192
 2988SOL    HW220427   4.116   3.340   3.125 -0.6826  0.6046  2.1250
 2989SOL     OW20428   1.676   4.358   9.276 -0.4270 -0.0552  0.3902
 2989SOL    HW120429   1.586   4.327   9.291  0.0481 -1.2552  0.7893
 2989SOL    HW220430   1.719   4.346   9.361  0.0529 -3.1808 -0.2824
 2990SOL     OW20431   1.630   1.895   3.927 -0.0709  0.4994 -0.1393
 2990SOL    HW120432   1.713   1.901   3.975 -0.8516  1.6618  1.0410
 2990SOL    HW220433   1.619   1.800   3.923 -0.2455  0.5453 -0.7936
 2991SOL     OW20434   2.482   3.362  17.133  0.5596  0.1682 -0.2123
 2991SOL    HW120435   2.397   3.406  17.125 -0.7962 -1.9876  2.5227
 2991SOL    HW220436   2.542   3.424  17.173 -0.4063  0.9449  0.0383
 2992SOL     OW20437   0.915   2.856   2.968  0.7477  0.0659  0.3804
 2992SOL    HW120438   0.911   2.793   2.896 -4.0071  2.4759 -1.4953
 2992SOL    HW220439   0.861   2.933   2.948 -0.3953 -1.2768 -1.6657
 2993SOL     OW20440   2.476   2.313   5.917 -0.1930 -0.8421  0.4423
 2993SOL    HW120441   2.464   2.382   5.982  0.9461 -2.8432  2.7336
 2993SOL    HW220442   2.562   2.276   5.935 -0.1433 -1.0762 -0.2514
 2994SOL     OW20443   4.187   1.657   6.241  0.3395  0.2421 -0.5723
 2994SOL    HW120444   4.267   1.692   6.281 -0.8526 -0.5332  2.5235
 2994SOL    HW220445   4.149   1.609   6.314  3.6836 -0.6795  0.5462
 2995SOL     OW20446   4.524   1.393   1.246  0.7428 -0.0161  0.1121
 2995SOL    HW120447   4.577   1.334   1.299 -1.0690 -0.7307  1.1310
 2995SOL    HW220448   4.445   1.406   1.299  1.4517  3.1055  0.3723
 2996SOL     OW20449   0.410   3.530   7.212 -0.6648 -0.2059 -0.7663
 2996SOL    HW120450   0.505   3.546   7.216 -0.8395  0.5689  0.3627
 2996SOL    HW220451   0.392   3.580   7.132 -0.8190  1.6795  0.4428
 2997SOL     OW20452   0.717   3.395   6.001  0.0173  0.1501 -0.1234
 2997SOL    HW120453   0.668   3.458   5.948 -0.9737 -0.6806 -0.2039
 2997SOL    HW220454   0.643   3.335   6.014 -0.2976  0.4174 -0.6967
 2998SOL     OW20455   0.260   1.264   0.840 -0.0270  0.1792  0.0746
 2998SOL    HW120456   0.214   1.259   0.756 -0.2366 -3.7507  0.4414
 2998SOL    HW220457   0.316   1.186   0.836  0.3342  0.4813 -0.9871
 2999SOL     OW20458   1.281   4.566   8.737 -0.9997 -0.1427 -0.2453
 2999SOL    HW120459   1.226   4.601   8.808 -0.6544  1.4375 -0.7528
 2999SOL    HW220460   1.249   4.476   8.743 -1.0186 -0.2708 -2.3550
 3000SOL     OW20461   3.136   3.963   7.552 -0.0742 -0.2796  0.1170
 3000SOL    HW120462   3.172   3.979   7.465  1.6218  0.0869  0.8840
 3000SOL    HW220463   3.132   4.052   7.587  1.8337  1.2603 -3.6144
 3001SOL     OW20464   2.524   0.346   7.674 -0.1088 -0.3602  0.1060
 3001SOL    HW120465   2.580   0.316   7.603  0.7737  0.6973  0.3539
 3001SOL    HW220466   2.456   0.281   7.689  0.5419 -1.1966 -0.6067
 3002SOL     OW20467   4.434   0.977   2.525 -0.1665 -0.5075 -0.0818
 3002SOL    HW120468   4.361   0.916   2.509 -0.3217 -0.9500  2.2128
 3002SOL    HW220469   4.413   1.047   2.463 -1.1735 -0.9597 -0.2595
 3003SOL     OW20470   1.720   4.292   0.785 -0.0722 -0.6042 -0.0345
 3003SOL    HW120471   1.745   4.217   0.839  0.2578 -0.6187 -0.2072
 3003SOL    HW220472   1.723   4.361   0.851 -1.0739 -0.3053 -0.2975
 3004SOL     OW20473   2.712   2.789  14.176  0.2494  0.0402  0.0517
 3004SOL    HW120474   2.738   2.728  14.245  0.1269  1.8821  1.7343
 3004SOL    HW220475   2.799   2.827  14.167  0.4001 -0.2448  0.3156
 3005SOL     OW20476   2.459   0.414   2.598 -0.3126  0.2488 -0.1162
 3005SOL    HW120477   2.421   0.381   2.679 -1.7376 -1.6435 -1.5364
 3005SOL    HW220478   2.442   0.331   2.553  0.4873  0.2468 -0.4109
 3006SOL     OW20479   2.385   2.452   4.710 -0.3129 -0.4980 -0.1065
 3006SOL    HW120480   2.403   2.379   4.651  1.7420 -1.1958  1.3762
 3006SOL    HW220481   2.305   2.416   4.749 -0.0941  0.3703  1.1321
 3007SOL     OW20482   2.191   1.119   6.753  0.2064 -0.1905  0.2537
 3007SOL    HW120483   2.132   1.167   6.695 -0.9850 -1.0566  0.7546
 3007SOL    HW220484   2.236   1.186   6.804  0.2699  1.1631 -1.5999
 3008SOL     OW20485   4.303   2.605   7.307  0.5609  0.1768  0.7617
 3008SOL    HW120486   4.225   2.655   7.332  1.3146  2.4208 -1.4072
 3008SOL    HW220487   4.334   2.641   7.224  1.3991  0.3158  1.1378
 3009SOL     OW20488   2.422   3.794   1.496 -0.2293  0.0459  0.1750
 3009SOL    HW120489   2.477   3.728   1.537  1.1366  1.4264  0.5560
 3009SOL    HW220490   2.335   3.777   1.532 -0.6113  0.8911 -0.3242
 3010SOL     OW20491   4.064   1.195   6.810 -0.6250  0.8915  0.1581
 3010SOL    HW120492   4.106   1.187   6.725 -1.0473 -0.3643  0.0615
 3010SOL    HW220493   4.034   1.286   6.803 -0.7544  0.6743 -2.1661
 3011SOL     OW20494   2.401   1.923   5.964 -0.1783 -0.2864  0.5776
 3011SOL    HW120495   2.370   2.013   5.978 -0.5778 -0.3744  0.2487
 3011SOL    HW220496   2.337   1.899   5.897 -0.6595  1.1351  0.5195
 3012SOL     OW20497   3.007   0.722   7.016 -0.2510  0.0152  0.5750
 3012SOL    HW120498   3.084   0.665   7.016 -0.3268 -0.0710 -0.4829
 3012SOL    HW220499   3.051   0.805   6.998 -0.1694 -0.4568 -1.3566
 3013SOL     OW20500   0.409   4.456   5.157 -0.6446 -0.1771 -0.2664
 3013SOL    HW120501   0.346   4.470   5.087 -0.5076 -0.4277 -0.4442
 3013SOL    HW220502   0.341   4.458   5.224 -0.5049  0.4568 -0.1457
 3014SOL     OW20503   2.382   1.746   5.155  0.3328  0.7084  0.1087
 3014SOL    HW120504   2.395   1.653   5.176  2.5815  0.6573 -1.5815
 3014SOL    HW220505   2.375   1.747   5.059  1.4571  1.3858  0.0341
 3015SOL     OW20506   3.334   1.348   2.568  0.0111 -0.5914  0.8030
 3015SOL    HW120507   3.302   1.421   2.515 -1.0474 -3.1480 -2.0506
 3015SOL    HW220508   3.423   1.380   2.584  0.6414 -0.7214 -2.5398
 3016SOL     OW20509   3.500   0.455   6.865  0.0520  0.3578  0.4889
 3016SOL    HW120510   3.509   0.364   6.892  2.2288  0.6521  0.7831
 3016SOL    HW220511   3.533   0.449   6.775  0.5868 -1.6187  0.8270
 3017SOL     OW20512   4.249   0.830   3.768  0.9358  0.1662  0.4002
 3017SOL    HW120513   4.286   0.899   3.713 -0.6108  0.2465 -0.5101
 3017SOL    HW220514   4.189   0.786   3.708  0.7705  2.9344 -1.4628
 3018SOL     OW20515   4.015   0.330   4.738 -0.5797 -0.3146  0.2208
 3018SOL    HW120516   4.103   0.324   4.775 -0.3564  4.6420  0.3997
 3018SOL    HW220517   4.006   0.425   4.747 -2.8608 -0.5351  0.4233
 3019SOL     OW20518   2.086   1.129   7.310  0.1363 -0.1023  0.3449
 3019SOL    HW120519   1.991   1.137   7.320  0.0102 -1.7348  0.3251
 3019SOL    HW220520   2.093   1.157   7.219 -1.1867  0.6454  0.4657
 3020SOL     OW20521   3.804   2.693   7.085  0.7584 -0.2786 -0.0462
 3020SOL    HW120522   3.783   2.779   7.047 -2.0873 -0.9393  0.0553
 3020SOL    HW220523   3.896   2.689   7.058  0.7576 -0.5973 -0.0033
 3021SOL     OW20524   0.948   0.735  11.733  0.0428  0.2332  0.6241
 3021SOL    HW120525   0.874   0.675  11.743 -0.1393  0.1565 -1.0566
 3021SOL    HW220526   0.904   0.804  11.682 -0.9085 -0.4344  0.5490
 3022SOL     OW20527   3.709   0.013  12.059 -0.5009  0.4633 -0.3066
 3022SOL    HW120528   3.789   0.011  12.006  0.6676  1.6611  1.3979
 3022SOL    HW220529   3.743   0.049  12.141 -1.0076 -0.7002  0.4168
 3023SOL     OW20530   2.923   0.616   4.617  0.1001  0.4093  0.4851
 3023SOL    HW120531   2.946   0.539   4.565 -0.3057 -0.2643  1.3079
 3023SOL    HW220532   3.000   0.673   4.619 -0.3272  1.0279 -1.1196
 3024SOL     OW20533   2.683   4.309   6.483  0.5292 -0.1475 -0.4188
 3024SOL    HW120534   2.711   4.302   6.575  2.2319  0.6793 -0.8745
 3024SOL    HW220535   2.609   4.369   6.484  0.4091 -0.2971 -0.1148
 3025SOL     OW20536   0.854   2.759   9.734 -0.2104  0.4277  0.3523
 3025SOL    HW120537   0.828   2.715   9.815 -0.1644  0.7342  0.5322
 3025SOL    HW220538   0.949   2.761   9.745 -0.0680  0.0950 -0.8400
 3026SOL     OW20539   3.575   1.752  11.673  0.0122  0.2408 -0.1670
 3026SOL    HW120540   3.482   1.731  11.678  0.3330 -1.6936 -2.1793
 3026SOL    HW220541   3.603   1.711  11.755 -2.1163  0.2187  0.5350
 3027SOL     OW20542   3.131   3.836   1.951  0.4393  0.1103  0.2434
 3027SOL    HW120543   3.128   3.882   2.034 -1.1237 -0.8058  0.7135
 3027SOL    HW220544   3.089   3.761   1.994 -0.2913  0.8858  0.8868
 3028SOL     OW20545   2.749   1.564   4.532  0.3362 -0.0026 -0.1460
 3028SOL    HW120546   2.785   1.597   4.614 -0.0490 -3.1506  1.2724
 3028SOL    HW220547   2.812   1.601   4.469  3.2611 -1.1207  2.1222
 3029SOL     OW20548   2.073   2.398  10.147  0.1361  0.1390  0.2390
 3029SOL    HW120549   2.080   2.303  10.139  0.9827  0.3051 -0.9450
 3029SOL    HW220550   2.037   2.424  10.063  1.4717  1.2248 -0.0081
 3030SOL     OW20551   3.752   1.298  15.397 -0.3587 -0.4224  0.4885
 3030SOL    HW120552   3.746   1.243  15.320 -0.3893 -0.9473  0.8656
 3030SOL    HW220553   3.659   1.319  15.410 -0.6681 -1.6537  0.1820
 3031SOL     OW20554   1.869   3.617   8.636  0.2172  0.2175 -0.0815
 3031SOL    HW120555   1.905   3.591   8.551 -2.3624 -2.6866 -0.2976
 3031SOL    HW220556   1.956   3.628   8.675  0.2385 -0.6718  0.1187
 3032SOL     OW20557   0.939   4.241  10.160  0.1376 -0.2379 -0.1446
 3032SOL    HW120558   0.849   4.236  10.191  0.3486 -2.2292  0.1256
 3032SOL    HW220559   0.931   4.227  10.066 -1.2983 -0.4723  0.0222
 3033SOL     OW20560   2.316   3.570   2.183  0.0101 -0.2670 -0.2161
 3033SOL    HW120561   2.328   3.497   2.244  2.8103  2.3430  2.3560
 3033SOL    HW220562   2.374   3.640   2.213 -0.9179  0.9350 -1.2130
 3034SOL     OW20563   1.066   2.881   5.152 -0.3579  0.2007 -0.2620
 3034SOL    HW120564   1.146   2.912   5.194 -0.1588 -0.3986 -0.1978
 3034SOL    HW220565   1.002   2.939   5.194  0.6372 -1.4043  3.5003
 3035SOL     OW20566   1.077   3.524   6.421 -0.3543  0.0005 -0.1943
 3035SOL    HW120567   1.098   3.430   6.414  1.0117  0.3099 -0.1766
 3035SOL    HW220568   1.008   3.528   6.355  0.5913 -0.7937 -1.2560
 3036SOL     OW20569   3.790   3.025  15.336 -0.3703  0.1297 -0.1293
 3036SOL    HW120570   3.695   3.015  15.346  0.0190 -2.1593  1.3470
 3036SOL    HW220571   3.828   2.991  15.417  0.5819  0.3741 -0.4749
 3037SOL     OW20572   3.674   1.335   6.509  0.1812 -0.7803 -0.2531
 3037SOL    HW120573   3.734   1.272   6.468 -0.1880 -1.5660  0.4228
 3037SOL    HW220574   3.607   1.346   6.442 -0.5623  2.4401  1.0423
 3038SOL     OW20575   0.977   2.081   4.021 -0.1960  0.0865  0.2759
 3038SOL    HW120576   0.915   2.151   4.001 -1.4904 -1.0010  0.4902
 3038SOL    HW220577   1.022   2.119   4.097  0.5862  2.8849 -1.5573
 3039SOL     OW20578   1.271   1.222   3.440  0.6717  0.0371 -0.2597
 3039SOL    HW120579   1.180   1.241   3.419  0.0131 -0.2821  2.2689
 3039SOL    HW220580   1.278   1.129   3.417 -1.9251  0.1417 -1.4465
 3040SOL     OW20581   0.177   0.715   4.190  0.4200 -0.0505 -0.2954
 3040SOL    HW120582   0.145   0.798   4.226  0.6027  1.3523 -3.3763
 3040SOL    HW220583   0.200   0.742   4.101  1.9712  3.2413  1.0894
 3041SOL     OW20584   3.716   2.343  13.878 -0.1052 -0.1985 -0.7242
 3041SOL    HW120585   3.752   2.428  13.852 -0.3728  0.4271  0.9700
 3041SOL    HW220586   3.768   2.287  13.820  0.5139 -0.2907 -0.0863
 3042SOL     OW20587   3.636   4.113   6.249  0.5217 -0.3729 -0.3926
 3042SOL    HW120588   3.712   4.119   6.307  0.2243  1.1063 -0.1360
 3042SOL    HW220589   3.641   4.032   6.199 -0.3035  1.3370 -3.2144
 3043SOL     OW20590   2.042   4.454   0.250  0.5685  0.5642 -0.5700
 3043SOL    HW120591   2.048   4.422   0.340  1.9645 -0.7641 -1.1159
 3043SOL    HW220592   2.021   4.374   0.201  2.2083  0.4874 -1.1652
 3044SOL     OW20593   0.028   1.018   9.129 -0.1487  0.5527  0.2843
 3044SOL    HW120594   4.678   0.960   9.145  0.5597 -0.0966  1.2358
 3044SOL    HW220595   0.097   0.954   9.110 -1.0890 -0.5424  0.5759
 3045SOL     OW20596   0.513   0.486   9.314 -0.2339 -0.3631  0.2375
 3045SOL    HW120597   0.603   0.514   9.327 -0.3532 -0.9497  2.1813
 3045SOL    HW220598   0.471   0.520   9.393  0.4719 -1.5536  1.1169
 3046SOL     OW20599   0.815   3.116   7.311 -0.8237  0.2751 -0.1792
 3046SOL    HW120600   0.749   3.047   7.313 -2.3095  1.6692 -0.7845
 3046SOL    HW220601   0.794   3.161   7.393 -0.2900 -0.1682  0.2025
 3047SOL     OW20602   3.165   0.045   6.182  0.1986  0.3695 -0.0598
 3047SOL    HW120603   3.150   0.022   6.274  0.5810 -2.3986 -0.6745
 3047SOL    HW220604   3.133   0.135   6.185  0.9470  0.6153  0.8271
 3048SOL     OW20605   0.118   4.512   8.031 -0.5513 -0.5029  0.2680
 3048SOL    HW120606   0.187   4.498   8.096  0.2126  0.7075 -0.2806
 3048SOL    HW220607   0.147   4.599   8.005 -0.5255 -1.5993 -3.3358
 3049SOL     OW20608   1.276   4.162   2.429  0.3694  0.2232  0.1850
 3049SOL    HW120609   1.274   4.083   2.375 -2.2833 -0.2473  0.9657
 3049SOL    HW220610   1.354   4.206   2.395  1.1441  0.4892  2.3238
 3050SOL     OW20611   3.683   0.397   4.911  0.0412  0.3516 -0.6854
 3050SOL    HW120612   3.701   0.360   4.825  0.9444  0.6062 -0.6144
 3050SOL    HW220613   3.748   0.344   4.957  1.5419  1.9327 -0.9626
 3051SOL     OW20614   2.633   4.707   2.422  0.1418  0.1237 -0.0365
 3051SOL    HW120615   2.674   4.666   2.498 -0.6380  1.5905  1.1651
 3051SOL    HW220616   2.538   4.711   2.436  0.2270  0.2164  0.5263
 3052SOL     OW20617   2.099   0.069   0.540 -0.0929  0.1416  0.7207
 3052SOL    HW120618   2.037   0.005   0.503  0.1252 -1.1863  2.6715
 3052SOL    HW220619   2.045   0.131   0.589 -1.8429 -1.1142  0.3928
 3053SOL     OW20620   2.666   2.089   6.587  0.0867  0.1667 -0.7083
 3053SOL    HW120621   2.594   2.074   6.648  0.5836 -0.0801 -0.1856
 3053SOL    HW220622   2.714   2.155   6.636 -1.8335  0.2158  1.0997
 3054SOL     OW20623   3.250   2.332   2.366  0.5234 -0.6459 -0.7007
 3054SOL    HW120624   3.290   2.275   2.432 -1.5688  1.1606  2.1159
 3054SOL    HW220625   3.210   2.398   2.422 -0.7098 -1.9526 -0.0358
 3055SOL     OW20626   1.072   3.413  11.985  0.0654  0.0160  0.2702
 3055SOL    HW120627   1.080   3.318  11.989  1.3034 -0.0064 -2.4912
 3055SOL    HW220628   1.159   3.450  11.998  0.1488 -1.0187  2.5373
 3056SOL     OW20629   0.018   4.639   6.332  0.3280  0.0745  0.0638
 3056SOL    HW120630   0.037   4.687   6.413 -0.1326 -0.4121  0.4585
 3056SOL    HW220631   0.088   4.573   6.331 -0.9495 -1.2881  0.8101
 3057SOL     OW20632   0.951   2.436  10.349  0.0103  0.0434  0.1946
 3057SOL    HW120633   1.028   2.427  10.292 -0.1903  0.0932 -0.0833
 3057SOL    HW220634   0.980   2.500  10.414 -3.7288 -1.5305  3.3895
 3058SOL     OW20635   3.518   0.936  10.034 -0.2142  0.3393 -0.4893
 3058SOL    HW120636   3.479   0.901  10.114 -1.3605 -2.1298 -2.1532
 3058SOL    HW220637   3.477   0.884   9.966  0.7145 -0.7426 -0.2238
 3059SOL     OW20638   2.525   0.751  11.764  0.6063 -0.3357 -0.2947
 3059SOL    HW120639   2.585   0.761  11.838  0.9011  0.1668 -0.6014
 3059SOL    HW220640   2.535   0.838  11.725  0.0819  0.6194  1.6708
 3060SOL     OW20641   1.832   3.434   8.844  0.0529 -0.1318  0.0747
 3060SOL    HW120642   1.836   3.501   8.776  1.0070 -0.8504 -0.5576
 3060SOL    HW220643   1.866   3.354   8.805 -2.8369 -0.4917 -1.7520
 3061SOL     OW20644   1.214   1.334  14.648 -0.0369  0.2190  0.1512
 3061SOL    HW120645   1.271   1.393  14.698  1.5293 -0.5050 -0.7578
 3061SOL    HW220646   1.251   1.328  14.560 -0.5720  1.6766 -0.1636
 3062SOL     OW20647   1.586   4.417   5.547 -0.4429  0.2185 -0.0666
 3062SOL    HW120648   1.564   4.374   5.629  0.3120  0.8092  0.4436
 3062SOL    HW220649   1.651   4.480   5.578 -1.2560  0.7983  0.4808
 3063SOL     OW20650   2.081   3.720   9.158 -0.4662 -0.8871  0.6479
 3063SOL    HW120651   1.986   3.711   9.146 -0.9390  1.8866  2.1933
 3063SOL    HW220652   2.113   3.726   9.068  1.2340 -3.4055  1.0954
 3064SOL     OW20653   3.676   2.330  11.504 -0.3012  0.2904  0.0570
 3064SOL    HW120654   3.585   2.356  11.495  0.0169  1.1917 -0.5661
 3064SOL    HW220655   3.680   2.249  11.454  1.0617 -0.1198  0.8262
 3065SOL     OW20656   1.174   1.804  10.238  0.2462 -0.0138  0.2183
 3065SOL    HW120657   1.195   1.880  10.292  0.8705  0.0465 -0.1119
 3065SOL    HW220658   1.181   1.727  10.294  1.0091 -1.7648 -2.2960
 3066SOL     OW20659   3.011   0.462  17.359  0.2481  0.4407  0.4267
 3066SOL    HW120660   3.096   0.440  17.399  0.6647  0.6427 -0.3457
 3066SOL    HW220661   3.020   0.436  17.268 -1.4654 -1.1091  0.7179
 3067SOL     OW20662   3.532   0.319   3.873  0.3246 -0.3932 -0.6335
 3067SOL    HW120663   3.596   0.374   3.828 -1.7187  2.0646 -0.5723
 3067SOL    HW220664   3.509   0.263   3.799  1.7666 -0.6664 -0.8806
 3068SOL     OW20665   0.258   1.136   1.899 -0.5092  0.6704 -0.0522
 3068SOL    HW120666   0.325   1.149   1.966  0.5287 -1.1274 -0.7411
 3068SOL    HW220667   0.314   1.099   1.831  0.3935  0.9048  0.5633
 3069SOL     OW20668   4.650   4.127   1.848  0.3157 -0.3380  0.5729
 3069SOL    HW120669   4.647   4.092   1.937 -1.9126  0.6382  0.8832
 3069SOL    HW220670   4.706   4.204   1.858 -1.8508  0.7655  3.8565
 3070SOL     OW20671   3.270   3.621   5.995  0.0802  0.0287  0.2393
 3070SOL    HW120672   3.180   3.637   5.966  0.0465 -0.0514  0.2984
 3070SOL    HW220673   3.256   3.644   6.088  0.7464 -0.0021  0.3441
 3071SOL     OW20674   3.219   3.825   0.628 -0.7214  0.4638  0.0033
 3071SOL    HW120675   3.189   3.800   0.541  1.3524 -0.5168 -0.4211
 3071SOL    HW220676   3.285   3.758   0.646 -1.8732 -0.6142  0.2120
 3072SOL     OW20677   0.552   1.833   4.112  0.2415  0.3715  0.2795
 3072SOL    HW120678   0.583   1.908   4.163 -3.5763  1.5417  0.9024
 3072SOL    HW220679   0.611   1.766   4.148  0.6207  0.6008  0.0905
 3073SOL     OW20680   2.407   4.163   6.984  0.5577  0.4557 -0.2817
 3073SOL    HW120681   2.350   4.240   6.979  0.4341  0.3563 -0.4121
 3073SOL    HW220682   2.491   4.196   7.016  0.9032  0.2596 -0.9814
 3074SOL     OW20683   0.869   0.831  15.894  0.1379 -0.1386 -0.4338
 3074SOL    HW120684   0.870   0.793  15.806 -0.7527  2.4287 -1.5492
 3074SOL    HW220685   0.951   0.880  15.884 -0.4503  0.8236 -0.5815
 3075SOL     OW20686   3.357   4.490   6.264 -0.2998 -0.0295 -0.2208
 3075SOL    HW120687   3.279   4.531   6.303 -1.3891 -2.1026 -0.2241
 3075SOL    HW220688   3.347   4.502   6.170  2.2396  1.6535 -0.2699
 3076SOL     OW20689   3.146   3.950  12.564 -0.6314  0.4146 -0.0094
 3076SOL    HW120690   3.158   3.896  12.642 -1.5167  1.1268  0.6178
 3076SOL    HW220691   3.087   3.890  12.519 -0.9353  0.3467  0.4747
 3077SOL     OW20692   2.144   0.849   7.178 -0.3169  0.1339 -0.2007
 3077SOL    HW120693   2.123   0.866   7.086 -0.9580  0.0796 -0.0651
 3077SOL    HW220694   2.239   0.861   7.176 -0.3014 -0.1752 -1.1731
 3078SOL     OW20695   0.003   0.920   4.039  0.2401  0.0822  0.7826
 3078SOL    HW120696   4.690   0.834   4.021 -1.8286  0.9776  0.9518
 3078SOL    HW220697   4.695   0.939   4.127  1.9604  0.0765  1.4310
 3079SOL     OW20698   3.104   1.315   7.672  0.1532 -0.5032 -0.5187
 3079SOL    HW120699   3.116   1.304   7.767 -0.1661 -2.8306 -0.7689
 3079SOL    HW220700   3.033   1.380   7.671  0.9227  0.4003  1.6189
 3080SOL     OW20701   2.334   0.983   5.256  0.2101  0.1164  0.0979
 3080SOL    HW120702   2.376   1.046   5.315 -0.1967 -0.6535  1.2002
 3080SOL    HW220703   2.394   0.911   5.274 -0.1942 -0.5580 -1.2675
 3081SOL     OW20704   4.214   2.128   7.173  0.2262 -0.0074  0.1480
 3081SOL    HW120705   4.125   2.094   7.172  0.0282  0.5098  0.4132
 3081SOL    HW220706   4.206   2.179   7.092 -1.8416  1.5678  1.3658
 3082SOL     OW20707   3.103   1.369   4.972  0.8263 -0.6370 -0.1794
 3082SOL    HW120708   3.019   1.411   4.958  0.2694 -1.4002  0.8828
 3082SOL    HW220709   3.075   1.290   5.019 -0.1327  0.1079  0.4928
 3083SOL     OW20710   4.342   2.600   8.650 -0.1191 -0.1946 -0.0386
 3083SOL    HW120711   4.376   2.644   8.728 -0.8838 -0.3562  0.3820
 3083SOL    HW220712   4.390   2.517   8.652 -2.2990 -1.5270 -2.5425
 3084SOL     OW20713   1.891   1.241   7.583 -0.4732  0.1752  0.3784
 3084SOL    HW120714   1.803   1.204   7.577  0.0199 -0.8082 -0.9574
 3084SOL    HW220715   1.888   1.335   7.567  1.4573  0.1890  0.0215
 3085SOL     OW20716   0.410   2.148   5.534 -0.6789  0.0437 -0.1171
 3085SOL    HW120717   0.418   2.063   5.492  0.2926 -0.5940  1.3571
 3085SOL    HW220718   0.318   2.149   5.563 -0.5132  0.6516  0.3897
 3086SOL     OW20719   2.143   3.475   2.604 -0.2759 -0.4777  0.2890
 3086SOL    HW120720   2.175   3.400   2.654  1.0845 -0.0429  0.0630
 3086SOL    HW220721   2.106   3.432   2.526  1.0148 -1.0730  0.0053
 3087SOL     OW20722   3.997   0.663   6.638  0.0465 -0.4024 -0.2721
 3087SOL    HW120723   3.909   0.694   6.616  0.6474  1.5069  0.0024
 3087SOL    HW220724   4.055   0.736   6.616  0.0995 -0.3395  0.0747
 3088SOL     OW20725   3.039   2.546   2.064 -0.4422 -0.6663  0.0539
 3088SOL    HW120726   3.015   2.562   1.973  0.9327 -0.1358 -0.2106
 3088SOL    HW220727   2.956   2.508   2.094 -0.0999 -0.9660  0.6221
 3089SOL     OW20728   1.952   0.372  15.258 -0.3411  0.1238 -0.0722
 3089SOL    HW120729   1.870   0.322  15.254 -1.0388  1.3382 -0.9620
 3089SOL    HW220730   2.002   0.338  15.184  0.4689  0.8474  0.1516
 3090SOL     OW20731   1.676   3.318   6.364  0.8354 -0.2093 -0.6424
 3090SOL    HW120732   1.763   3.312   6.403  0.0185 -2.6006  0.8611
 3090SOL    HW220733   1.707   3.349   6.279  0.8197  0.1372 -0.5196
 3091SOL     OW20734   4.518   2.304  12.563 -0.4211  0.3556  0.1462
 3091SOL    HW120735   4.571   2.364  12.615 -2.0104  1.5685  0.3893
 3091SOL    HW220736   4.440   2.297  12.618 -1.2092 -4.3227 -1.5847
 3092SOL     OW20737   3.102   2.458   5.615  0.2868  0.0946 -0.4880
 3092SOL    HW120738   3.153   2.436   5.693 -2.2678 -1.6574  0.6729
 3092SOL    HW220739   3.088   2.551   5.632  1.4068  0.5698 -2.1725
 3093SOL     OW20740   1.040   1.882  17.522 -0.4776 -0.1015 -0.0074
 3093SOL    HW120741   1.096   1.930  17.583 -0.6922 -2.6684  2.2537
 3093SOL    HW220742   1.087   1.874  17.439 -1.1883 -0.6006 -0.3633
 3094SOL     OW20743   3.211   4.543   0.857  0.3804  0.7124 -0.1116
 3094SOL    HW120744   3.225   4.578   0.769  1.3883 -0.3587 -0.3782
 3094SOL    HW220745   3.217   4.449   0.836  0.0791  0.4754  0.8519
 3095SOL     OW20746   4.299   4.298   2.790  0.0172 -0.3996 -0.1679
 3095SOL    HW120747   4.222   4.304   2.848  0.5632  1.0252  0.4106
 3095SOL    HW220748   4.335   4.213   2.815  1.5566  0.4033  0.3282
 3096SOL     OW20749   1.521   2.035   1.750  0.1288 -0.4600 -0.6456
 3096SOL    HW120750   1.606   2.000   1.724 -0.7623 -1.8265 -1.6820
 3096SOL    HW220751   1.539   2.125   1.780  1.3539 -1.0457  0.3939
 3097SOL     OW20752   4.153   3.929   2.763  0.5294 -0.4723 -0.1900
 3097SOL    HW120753   4.200   3.943   2.845 -0.5763  2.1295  0.0051
 3097SOL    HW220754   4.123   4.019   2.751 -0.7334 -1.1258 -2.0496
 3098SOL     OW20755   2.350   3.438   8.898 -0.1490 -0.4465 -0.2881
 3098SOL    HW120756   2.372   3.493   8.973  0.1208 -0.9671  0.0136
 3098SOL    HW220757   2.296   3.498   8.846 -1.8567 -1.6277  0.1495
 3099SOL     OW20758   2.363   4.250   6.061 -0.1911 -0.5141  0.2230
 3099SOL    HW120759   2.378   4.161   6.094 -0.3666 -0.6551 -0.0807
 3099SOL    HW220760   2.268   4.259   6.063 -0.2236 -1.0374  1.0460
 3100SOL     OW20761   2.224   3.727   2.532  0.1767 -0.2276  0.0156
 3100SOL    HW120762   2.177   3.644   2.541 -0.9294  0.1949 -1.7186
 3100SOL    HW220763   2.150   3.788   2.523 -0.3005 -1.0072 -1.3794
 3101SOL     OW20764   3.345   2.501  10.894 -0.2030 -0.6710 -0.4087
 3101SOL    HW120765   3.311   2.426  10.846 -0.8565 -2.0750  2.2994
 3101SOL    HW220766   3.440   2.486  10.889  0.1124  0.4833  2.1687
 3102SOL     OW20767   2.687   2.471   2.849  0.3005  0.0459 -0.0870
 3102SOL    HW120768   2.750   2.523   2.898  1.6159 -1.2011 -0.4538
 3102SOL    HW220769   2.746   2.433   2.784 -1.4719 -2.4586 -0.2180
 3103SOL     OW20770   1.800   1.749   5.931 -0.0303 -0.5583 -0.5301
 3103SOL    HW120771   1.867   1.817   5.923  0.8576 -1.4545 -0.7354
 3103SOL    HW220772   1.724   1.784   5.885 -0.4688 -0.7638  0.0377
 3104SOL     OW20773   0.085   2.989   5.142 -0.1929  0.1358  0.5628
 3104SOL    HW120774   0.074   3.079   5.111  0.0353 -0.4263 -1.1669
 3104SOL    HW220775   0.178   2.979   5.165  0.5024  0.9930 -1.8542
 3105SOL     OW20776   0.457   1.044   8.617  0.5144  0.3156  0.3365
 3105SOL    HW120777   0.520   1.107   8.652 -1.2046  1.1742  1.8667
 3105SOL    HW220778   0.384   1.050   8.679 -0.2950 -1.5468 -0.4242
 3106SOL     OW20779   2.200   2.532   5.728  0.2759  0.0095 -0.6376
 3106SOL    HW120780   2.216   2.480   5.649  1.1428  0.4067 -0.7322
 3106SOL    HW220781   2.198   2.460   5.791  0.6788 -0.0456 -0.6846
 3107SOL     OW20782   3.684   1.357  12.971  0.6844  0.1168 -0.3411
 3107SOL    HW120783   3.753   1.358  13.037 -0.7043 -2.4423  1.1399
 3107SOL    HW220784   3.679   1.452  12.959  0.2085  0.3801  2.0415
 3108SOL     OW20785   2.146   4.408  17.496  0.0712 -0.3177  0.1935
 3108SOL    HW120786   2.181   4.326  17.531 -0.0729 -0.2330  0.5281
 3108SOL    HW220787   2.109   4.368  17.417 -1.8121 -0.2404  1.0608
 3109SOL     OW20788   3.296   3.201  13.810  0.6334  0.3511  0.7019
 3109SOL    HW120789   3.338   3.117  13.829 -1.7979 -0.6194  1.7693
 3109SOL    HW220790   3.373   3.254  13.828 -0.2051  1.0778  2.1371
 3110SOL     OW20791   1.846   3.886   8.481  0.4668  0.4831  0.2860
 3110SOL    HW120792   1.919   3.896   8.542  2.0009 -1.3534 -1.2874
 3110SOL    HW220793   1.847   3.793   8.461 -2.9627  0.1794  1.4913
 3111SOL     OW20794   0.707   0.840   2.259  0.5211  0.4973 -0.0656
 3111SOL    HW120795   0.770   0.873   2.195 -0.8877  1.3418 -0.9973
 3111SOL    HW220796   0.667   0.917   2.300 -0.8772  0.2350 -0.9525
 3112SOL     OW20797   2.814   3.019  11.585 -0.5314  0.2784  0.2627
 3112SOL    HW120798   2.776   2.996  11.670  0.8327 -0.8651  0.5581
 3112SOL    HW220799   2.758   3.095  11.570  0.6535  1.1346  0.2171
 3113SOL     OW20800   0.760   0.680   7.953 -0.5050 -0.7007 -0.1504
 3113SOL    HW120801   0.788   0.771   7.968  1.7697 -1.2606 -1.0032
 3113SOL    HW220802   0.762   0.647   8.042 -0.5963  0.0581  0.1366
 3114SOL     OW20803   0.437   0.444   2.957  0.1503 -0.1512 -0.1555
 3114SOL    HW120804   0.492   0.438   2.879 -0.8264 -2.0046 -0.6939
 3114SOL    HW220805   0.502   0.459   3.025  1.8499 -3.0686 -1.1377
 3115SOL     OW20806   3.085   4.438   3.725  0.2647 -0.2002  0.0014
 3115SOL    HW120807   3.046   4.392   3.650 -0.1835  1.0500 -0.5195
 3115SOL    HW220808   3.008   4.462   3.777  0.1654  0.1807 -0.3264
 3116SOL     OW20809   2.458   2.725   3.051  0.1202 -0.7319 -0.2471
 3116SOL    HW120810   2.460   2.685   3.138  1.6808  1.8168  0.8899
 3116SOL    HW220811   2.384   2.684   3.005  0.0585  0.0139 -0.8113
 3117SOL     OW20812   0.833   1.445   1.008  0.5058 -0.0109  0.2240
 3117SOL    HW120813   0.743   1.422   1.029  1.5589 -4.1475  0.1998
 3117SOL    HW220814   0.878   1.440   1.092 -1.7248 -1.2598  1.3558
 3118SOL     OW20815   2.797   2.315   2.668 -0.2185 -0.0115 -0.0689
 3118SOL    HW120816   2.834   2.227   2.662 -2.3557 -0.8809 -0.4843
 3118SOL    HW220817   2.809   2.347   2.579  0.4087 -2.0417 -0.6914
 3119SOL     OW20818   4.342   2.268   3.312  0.1050  0.3522 -0.5337
 3119SOL    HW120819   4.328   2.359   3.338  2.1367  0.4309  0.2581
 3119SOL    HW220820   4.428   2.271   3.271  0.7706 -0.8017  0.7633
 3120SOL     OW20821   2.194   2.241  15.756  0.0902 -0.4194  0.5331
 3120SOL    HW120822   2.281   2.253  15.795  0.7493 -0.7024 -0.8450
 3120SOL    HW220823   2.215   2.294  15.679  1.1978 -0.8322  0.5523
 3121SOL     OW20824   2.813   3.830   6.883 -0.0421 -0.5371  0.2724
 3121SOL    HW120825   2.786   3.922   6.874 -2.8886 -1.1953  2.0879
 3121SOL    HW220826   2.731   3.784   6.865  0.6856 -1.2293 -1.2496
 3122SOL     OW20827   2.752   3.496   2.478  0.0582  0.0349  0.0966
 3122SOL    HW120828   2.821   3.540   2.527 -1.7436  3.4515 -0.3979
 3122SOL    HW220829   2.789   3.460   2.398  0.4035 -1.2032  0.8027
 3123SOL     OW20830   1.433   1.028   6.207 -0.3746 -0.0577 -0.4141
 3123SOL    HW120831   1.366   0.970   6.170  0.7411 -2.0271  0.6465
 3123SOL    HW220832   1.473   1.055   6.124 -0.4352 -2.0141 -1.0885
 3124SOL     OW20833   4.235   2.437   1.751 -0.0135  0.1363  0.0467
 3124SOL    HW120834   4.166   2.487   1.794  1.5438  1.0453  1.5004
 3124SOL    HW220835   4.230   2.350   1.790  0.2499  0.1240  0.0526
 3125SOL     OW20836   1.391   1.375   4.041  0.3241 -0.6465  0.2219
 3125SOL    HW120837   1.363   1.401   3.954 -0.5305 -1.1765  0.3429
 3125SOL    HW220838   1.477   1.416   4.041 -0.5706  1.2632  3.3637
 3126SOL     OW20839   0.587   0.365   7.618  0.1067  0.0151  0.2834
 3126SOL    HW120840   0.637   0.436   7.656  1.1636 -0.7847  0.3958
 3126SOL    HW220841   0.627   0.348   7.532 -0.0764  2.2376 -0.2314
 3127SOL     OW20842   2.216   3.373   1.960  0.3091 -0.3835  0.2685
 3127SOL    HW120843   2.271   3.432   2.012 -0.6546  2.4245 -1.8678
 3127SOL    HW220844   2.130   3.388   2.000  1.6156 -0.4887  3.1570
 3128SOL     OW20845   3.150   1.295   0.840 -0.2756  0.0499  0.2968
 3128SOL    HW120846   3.239   1.294   0.874  0.0378  1.7723 -0.4730
 3128SOL    HW220847   3.168   1.272   0.748  0.8795  1.8421  0.0722
 3129SOL     OW20848   4.151   3.805   6.206  0.1516 -0.3714 -0.2701
 3129SOL    HW120849   4.081   3.740   6.212  1.3866 -1.4808  2.4257
 3129SOL    HW220850   4.110   3.875   6.257  1.1566  0.1436 -0.1755
 3130SOL     OW20851   4.466   2.081  13.907  0.3867 -0.0832 -0.2287
 3130SOL    HW120852   4.548   2.050  13.869  0.3281 -1.3472  0.6843
 3130SOL    HW220853   4.485   2.175  13.910  0.0079 -0.0871  1.9993
 3131SOL     OW20854   0.865   2.445   6.776  0.0105  0.5445 -0.1118
 3131SOL    HW120855   0.874   2.350   6.771  0.6611  0.7061 -1.7549
 3131SOL    HW220856   0.784   2.473   6.734  0.3290  2.2713  0.4251
 3132SOL     OW20857   0.384   0.322   6.631  0.2147  0.6238 -0.2554
 3132SOL    HW120858   0.350   0.343   6.544 -1.6677 -1.7030 -0.0988
 3132SOL    HW220859   0.449   0.255   6.608  0.7905  1.2309 -0.3928
 3133SOL     OW20860   3.361   4.408   6.884  0.0682  0.1618  0.1277
 3133SOL    HW120861   3.342   4.348   6.955  1.9719 -1.8688 -1.0521
 3133SOL    HW220862   3.432   4.361   6.840 -0.3655 -0.1971 -0.1904
 3134SOL     OW20863   3.077   0.230   3.601  0.2061 -0.2995  0.0387
 3134SOL    HW120864   3.127   0.200   3.525 -0.4763 -0.0371 -0.5142
 3134SOL    HW220865   3.136   0.198   3.668 -0.0583  0.2897  0.5522
 3135SOL     OW20866   4.593   1.126   6.461 -0.0478  0.2141 -0.4674
 3135SOL    HW120867   4.603   1.212   6.503  1.5575 -0.9391  1.5190
 3135SOL    HW220868   4.642   1.079   6.528 -0.2324  0.6247 -0.0441
 3136SOL     OW20869   1.200   3.284   1.202  0.1185 -0.6134  0.3247
 3136SOL    HW120870   1.118   3.271   1.153  0.3779  0.1360 -0.3220
 3136SOL    HW220871   1.258   3.305   1.129  1.1873  0.7064  1.5705
 3137SOL     OW20872   2.479   1.351   6.497 -0.1356 -0.4649  0.6021
 3137SOL    HW120873   2.403   1.405   6.476 -1.4029 -2.2243  0.5906
 3137SOL    HW220874   2.461   1.257   6.487  0.2374 -0.3064 -1.6148
 3138SOL     OW20875   4.352   2.747   7.035  0.4507 -0.7613 -1.0035
 3138SOL    HW120876   4.380   2.818   7.091  0.7183 -1.6409 -0.0219
 3138SOL    HW220877   4.327   2.799   6.959 -3.9018  1.1841  1.7381
 3139SOL     OW20878   3.890   4.193   7.616 -0.2284 -0.0855  0.1881
 3139SOL    HW120879   3.819   4.129   7.608  0.1269 -0.6966  1.9060
 3139SOL    HW220880   3.930   4.197   7.529 -2.8950  2.1540 -0.9550
 3140SOL     OW20881   0.275   3.420   5.204  0.3974 -0.5710 -0.0694
 3140SOL    HW120882   0.269   3.448   5.295  0.2127 -0.2030 -0.1945
 3140SOL    HW220883   0.201   3.360   5.198  0.7692 -0.8807 -1.7875
 3141SOL     OW20884   0.876   4.682   4.108 -0.3777  0.3557 -0.0211
 3141SOL    HW120885   0.865   4.618   4.038  3.6750  0.5548 -0.8373
 3141SOL    HW220886   0.965   4.665   4.140 -0.0998  3.5624  0.8762
 3142SOL     OW20887   3.825   2.976   3.773 -0.2141 -0.2832 -0.2131
 3142SOL    HW120888   3.918   2.988   3.755 -0.0199 -0.0862  0.9078
 3142SOL    HW220889   3.774   3.041   3.725  1.1101  0.2401 -0.8990
 3143SOL     OW20890   0.493   4.144   8.045 -0.1106 -0.2758  0.1376
 3143SOL    HW120891   0.508   4.098   7.962  1.1532 -1.8661  1.2410
 3143SOL    HW220892   0.575   4.194   8.039 -0.5647  0.6142  1.4876
 3144SOL     OW20893   4.251   3.087   9.010 -0.2451  0.1697  0.1459
 3144SOL    HW120894   4.243   3.118   9.100  0.2073  1.2136 -0.1743
 3144SOL    HW220895   4.341   3.055   9.012  0.4389  2.0928 -0.0901
 3145SOL     OW20896   1.755   3.748   6.733 -0.4466 -0.5947 -0.2512
 3145SOL    HW120897   1.694   3.767   6.662 -0.6999 -1.3205 -0.2281
 3145SOL    HW220898   1.784   3.833   6.767 -1.7633 -0.9512  1.7649
 3146SOL     OW20899   4.587   3.436   3.904 -0.3167  0.6722  0.4437
 3146SOL    HW120900   4.622   3.351   3.876 -1.8779  0.7264 -1.6636
 3146SOL    HW220901   4.555   3.473   3.822  1.0948  0.6850 -0.1128
 3147SOL     OW20902   2.047   2.165  16.515  0.1460  0.0045  0.2507
 3147SOL    HW120903   1.962   2.189  16.478 -0.3435  0.6448  1.7748
 3147SOL    HW220904   2.067   2.098  16.450  1.2924  1.7075 -1.1871
 3148SOL     OW20905   1.042   3.270   4.923 -0.3632 -0.2504 -0.1758
 3148SOL    HW120906   1.017   3.194   4.871 -2.4548  2.1509 -2.6932
 3148SOL    HW220907   0.960   3.281   4.971 -0.3058  1.1845 -0.3930
 3149SOL     OW20908   2.071   2.854   8.540 -0.5888  0.4431  0.5457
 3149SOL    HW120909   2.147   2.898   8.578 -0.9895  1.0317  0.6712
 3149SOL    HW220910   2.019   2.857   8.620  0.3568 -2.0108  1.2481
 3150SOL     OW20911   4.337   3.895   8.389 -0.3808  0.0631  0.0994
 3150SOL    HW120912   4.250   3.897   8.349 -0.3941 -1.3999  0.0584
 3150SOL    HW220913   4.311   3.884   8.481  0.8188  2.6793  0.7654
 3151SOL     OW20914   1.448   4.610   2.847  0.0188 -0.2987 -0.1323
 3151SOL    HW120915   1.441   4.692   2.894 -0.1495  0.3423 -1.2679
 3151SOL    HW220916   1.538   4.625   2.817  0.2269 -0.8565  0.2139
 3152SOL     OW20917   4.663   3.398   7.959  0.0236 -0.1540  0.1783
 3152SOL    HW120918   4.693   3.451   8.033  0.5395 -1.7862  1.1337
 3152SOL    HW220919   4.629   3.465   7.899 -0.1827  1.9161  2.6114
 3153SOL     OW20920   1.820   1.514   6.447  0.2399  0.4251 -0.1427
 3153SOL    HW120921   1.911   1.511   6.477 -0.9644 -2.1138  3.2706
 3153SOL    HW220922   1.804   1.605   6.475 -0.8845  0.6583 -1.5616
 3154SOL     OW20923   0.700   3.310   1.018 -0.6138  0.0020 -0.7559
 3154SOL    HW120924   0.620   3.361   1.033 -0.7877 -0.4241 -0.2423
 3154SOL    HW220925   0.668   3.220   1.013 -0.9344  0.1625 -1.7199
 3155SOL     OW20926   2.081   4.335   8.493 -0.3880 -0.3177 -0.5628
 3155SOL    HW120927   2.112   4.402   8.432 -0.6344  1.3816  1.1804
 3155SOL    HW220928   2.054   4.262   8.437 -0.1050 -0.9918  0.1981
 3156SOL     OW20929   1.610   3.169   1.223 -0.1388 -0.3026 -0.0862
 3156SOL    HW120930   1.635   3.258   1.248 -0.3890  0.4937 -2.6539
 3156SOL    HW220931   1.521   3.166   1.257  0.0501 -0.3830  0.4066
 3157SOL     OW20932   3.470   2.512   5.512 -0.2006 -0.0381 -0.1235
 3157SOL    HW120933   3.522   2.591   5.492  0.4491 -0.5954 -0.6505
 3157SOL    HW220934   3.439   2.492   5.424  1.4356  3.2796 -1.4792
 3158SOL     OW20935   4.338   1.189   7.645  0.7019 -0.6261  0.0199
 3158SOL    HW120936   4.370   1.234   7.566  1.3107  0.3686  0.8375
 3158SOL    HW220937   4.299   1.111   7.605  1.0775 -1.2517  0.8863
 3159SOL     OW20938   1.899   4.196   7.190  0.0074 -0.1098  0.4988
 3159SOL    HW120939   1.837   4.152   7.247  0.4821  0.7032  1.6409
 3159SOL    HW220940   1.883   4.289   7.211  0.2807 -0.3831  1.9029
 3160SOL     OW20941   3.364   3.399   9.112  0.2089 -0.0930 -0.6293
 3160SOL    HW120942   3.423   3.328   9.138 -0.3602 -0.2372  0.2622
 3160SOL    HW220943   3.425   3.449   9.058  0.2955 -0.6262 -1.0207
 3161SOL     OW20944   0.348   2.992   2.102 -0.4663 -0.0242  0.1078
 3161SOL    HW120945   0.439   2.961   2.108  0.0243  1.2555 -0.7039
 3161SOL    HW220946   0.354   3.037   2.186 -1.0305  1.0622 -0.4336
 3162SOL     OW20947   2.574   0.041   8.849 -0.2722  0.9009  0.4696
 3162SOL    HW120948   2.493   0.078   8.885 -0.6845  1.1081 -0.6764
 3162SOL    HW220949   2.591   4.717   8.929  1.0383 -0.4834 -0.6618
 3163SOL     OW20950   1.622   1.412   3.630  0.1062  0.9506 -0.3426
 3163SOL    HW120951   1.658   1.501   3.634 -0.1857  1.1574 -2.3521
 3163SOL    HW220952   1.531   1.439   3.619 -0.6986 -1.9088 -0.7318
 3164SOL     OW20953   4.643   2.238   3.683 -0.5461  0.1095 -0.1299
 3164SOL    HW120954   4.611   2.299   3.750  0.7167 -1.7580  2.1586
 3164SOL    HW220955   4.563   2.201   3.647 -0.8139  0.3434  0.2308
 3165SOL     OW20956   1.088   0.976   3.695  0.3842  0.1487  0.0511
 3165SOL    HW120957   1.157   1.040   3.680  0.7285 -0.0579  0.7808
 3165SOL    HW220958   1.015   1.026   3.658 -0.5930 -0.2150  1.4919
 3166SOL     OW20959   0.781   0.950   8.322 -0.4764  0.0414  0.8205
 3166SOL    HW120960   0.787   0.893   8.399  0.2374 -0.6269  0.2711
 3166SOL    HW220961   0.705   1.006   8.339 -1.2532 -0.3547 -1.4359
 3167SOL     OW20962   0.215   0.702   6.338 -0.0945  0.1650 -0.1913
 3167SOL    HW120963   0.225   0.794   6.314  0.1374  0.4262  0.8919
 3167SOL    HW220964   0.222   0.662   6.252  0.1119 -1.2935  0.4968
 3168SOL     OW20965   4.350   2.823  12.946 -0.0565 -0.4520 -0.1803
 3168SOL    HW120966   4.344   2.835  13.041  2.6927 -1.0308  0.0751
 3168SOL    HW220967   4.374   2.730  12.939  1.0930  0.0466 -2.7397
 3169SOL     OW20968   2.106   2.055  10.817  0.0433  0.0925  0.1954
 3169SOL    HW120969   2.026   2.102  10.795 -0.9067 -1.2308  0.7799
 3169SOL    HW220970   2.139   2.105  10.892 -1.2664 -0.8628  1.3983
 3170SOL     OW20971   0.150   3.353   3.301 -0.3345 -0.1907  0.5877
 3170SOL    HW120972   0.096   3.431   3.295  1.0331  0.7834  0.9703
 3170SOL    HW220973   0.184   3.328   3.214  2.4564  1.7584  1.1281
 3171SOL     OW20974   2.036   1.698   8.984  0.5863  0.1390  0.2271
 3171SOL    HW120975   1.981   1.748   8.923  2.5633  0.2832 -1.4591
 3171SOL    HW220976   2.067   1.629   8.926 -1.6082 -0.5087 -0.1593
 3172SOL     OW20977   3.554   0.976   5.539  0.6279 -0.2803 -0.5424
 3172SOL    HW120978   3.523   1.045   5.480  0.9879  1.7200  1.5991
 3172SOL    HW220979   3.587   1.024   5.615 -0.4908 -2.0243  1.0501
 3173SOL     OW20980   0.972   2.574  12.970  0.3217 -0.9695  0.1508
 3173SOL    HW120981   1.011   2.659  12.952 -0.8418 -0.7335 -1.2277
 3173SOL    HW220982   0.878   2.591  12.982  0.4082 -0.1759 -0.3536
 3174SOL     OW20983   0.683   0.368   3.980 -0.6490  0.2659 -0.3671
 3174SOL    HW120984   0.778   0.361   3.996 -0.7710  1.2845  0.8270
 3174SOL    HW220985   0.682   0.394   3.888  3.0192 -2.0656 -1.0773
 3175SOL     OW20986   0.967   4.656  11.198 -0.1493  0.1606 -0.0886
 3175SOL    HW120987   1.014   4.597  11.257  1.9433  0.8071 -1.0828
 3175SOL    HW220988   0.882   4.615  11.187 -0.4935  0.6200  0.8600
 3176SOL     OW20989   2.909   3.446   4.253 -0.4963 -0.2234  0.0926
 3176SOL    HW120990   2.994   3.413   4.223 -1.2091 -2.1404  0.1778
 3176SOL    HW220991   2.945   3.492   4.328 -0.1567 -1.0181  0.4151
 3177SOL     OW20992   3.503   1.720  15.847  1.0288 -0.3288  0.2186
 3177SOL    HW120993   3.490   1.758  15.934 -2.6316  0.7357 -0.8084
 3177SOL    HW220994   3.599   1.720  15.850  1.0197 -2.6916  0.5762
 3178SOL     OW20995   0.542   4.355   2.112  0.8412  0.9016 -0.1640
 3178SOL    HW120996   0.585   4.424   2.163  1.3864  1.8580 -1.8911
 3178SOL    HW220997   0.621   4.316   2.072 -0.7872 -1.7393 -0.8066
 3179SOL     OW20998   2.296   3.400   8.111  0.5008  0.0106  0.1538
 3179SOL    HW120999   2.315   3.321   8.162  3.2953  0.3742 -0.3491
 3179SOL    HW221000   2.246   3.445   8.180 -1.7511 -0.1689 -1.3595
 3180SOL     OW21001   4.665   3.038   2.601  0.1890 -0.1661 -0.5033
 3180SOL    HW121002   0.013   2.980   2.625  0.5824  0.6970  0.4074
 3180SOL    HW221003   4.691   3.062   2.512  1.5934 -0.2221 -0.1172
 3181SOL     OW21004   0.457   1.231  10.284 -0.6408  0.3030  0.2393
 3181SOL    HW121005   0.424   1.141  10.280 -1.9183  0.8271 -0.7320
 3181SOL    HW221006   0.398   1.267  10.351  0.5201  1.4071  0.6667
 3182SOL     OW21007   2.431   0.269   0.102  0.1565  0.4040  0.3814
 3182SOL    HW121008   2.358   0.282   0.041  0.0338 -1.5912  0.0919
 3182SOL    HW221009   2.392   0.201   0.157  1.4045  0.1738  0.9665
 3183SOL     OW21010   1.026   4.268   9.010  0.1930  0.6072 -0.1339
 3183SOL    HW121011   1.054   4.233   9.094 -1.0634  0.5229  0.2524
 3183SOL    HW221012   1.052   4.203   8.944 -0.6852  0.3398 -0.2228
 3184SOL     OW21013   0.925   2.857   4.543 -0.0454  0.5035  0.1671
 3184SOL    HW121014   0.858   2.825   4.604  1.6293  0.7340  2.1381
 3184SOL    HW221015   0.963   2.924   4.600 -2.8709  1.7397  0.6471
 3185SOL     OW21016   2.006   0.278   3.689 -0.3855  0.2728  0.4844
 3185SOL    HW121017   1.932   0.273   3.628  0.9815 -1.5877 -1.0161
 3185SOL    HW221018   2.074   0.222   3.652  1.6667  1.9773  1.7098
 3186SOL     OW21019   0.889   2.001  15.061 -0.3162 -0.7474 -0.2355
 3186SOL    HW121020   0.871   2.044  14.977 -0.6643  1.6652  1.0629
 3186SOL    HW221021   0.798   1.979  15.079 -0.4166  0.5064  0.8346
 3187SOL     OW21022   1.705   0.984   4.716  0.0061 -0.0274  0.2814
 3187SOL    HW121023   1.660   0.988   4.632  1.2789  5.1665 -0.1788
 3187SOL    HW221024   1.792   0.955   4.691  0.6791  1.3884  0.9543
 3188SOL     OW21025   1.616   1.508  16.043 -0.1571 -0.1307 -0.1531
 3188SOL    HW121026   1.557   1.437  16.069  1.4529 -0.8866  1.5407
 3188SOL    HW221027   1.565   1.587  16.027 -0.9632 -0.2125  2.0072
 3189SOL     OW21028   0.600   4.340   7.653 -0.3180  0.3802  0.1446
 3189SOL    HW121029   0.567   4.415   7.702 -1.3735 -1.0333  1.5826
 3189SOL    HW221030   0.689   4.319   7.682 -0.7898  0.6885  1.8152
 3190SOL     OW21031   2.886   1.663   5.995 -0.1468 -0.3021  0.0321
 3190SOL    HW121032   2.946   1.735   5.975 -1.4527  0.8501  0.3220
 3190SOL    HW221033   2.888   1.610   5.915 -0.3636  1.4687 -1.1372
 3191SOL     OW21034   0.234   1.292   7.453 -1.0563 -0.1899  0.0111
 3191SOL    HW121035   0.307   1.303   7.514 -1.4300  1.2799  0.1826
 3191SOL    HW221036   0.158   1.300   7.510  0.4280  0.0373  1.9793
 3192SOL     OW21037   0.305   2.724   8.391  0.1275 -0.1223 -0.3738
 3192SOL    HW121038   0.359   2.646   8.380 -1.1986 -0.9266 -1.0677
 3192SOL    HW221039   0.343   2.754   8.474 -0.2181 -1.8870  0.4195
 3193SOL     OW21040   0.058   0.597   5.882 -0.2664  0.4479 -0.3790
 3193SOL    HW121041   4.687   0.607   5.879 -0.4359 -1.0448  0.3861
 3193SOL    HW221042   0.072   0.576   5.789 -0.7220  1.1691 -0.6115
 3194SOL     OW21043   2.622   1.786  10.150  0.1669  0.5016  0.0556
 3194SOL    HW121044   2.645   1.768  10.241  0.1250  4.3878  0.8483
 3194SOL    HW221045   2.599   1.703  10.108  0.3561 -0.1092  1.1602
 3195SOL     OW21046   0.340   2.808   9.027 -0.1343  0.3998 -0.6868
 3195SOL    HW121047   0.260   2.757   9.042  0.6426 -1.4471 -2.8601
 3195SOL    HW221048   0.394   2.736   8.995  0.1831 -0.0554  0.8781
 3196SOL     OW21049   4.008   1.360   5.531 -0.3167  0.7059 -0.2248
 3196SOL    HW121050   4.103   1.346   5.539 -0.3137  1.3164  0.9977
 3196SOL    HW221051   4.010   1.444   5.485 -1.7190  2.0795  2.1784
 3197SOL     OW21052   0.013   2.486   9.657 -0.0510  0.1801 -0.3505
 3197SOL    HW121053   0.049   2.572   9.634 -0.1628  0.5552  0.8418
 3197SOL    HW221054   0.079   2.417   9.652 -0.3734  0.0305 -2.4335
 3198SOL     OW21055   2.237   3.164   5.040  0.4910 -0.2481  0.0944
 3198SOL    HW121056   2.190   3.098   4.989  1.4269 -1.0110  0.2212
 3198SOL    HW221057   2.326   3.146   5.011  0.1982  2.7301 -2.6413
 3199SOL     OW21058   2.455   2.854   8.356  0.1828  0.2172  0.2207
 3199SOL    HW121059   2.508   2.909   8.413 -1.0933  0.9415  0.7149
 3199SOL    HW221060   2.478   2.896   8.273 -1.8675  3.8263  1.4660
 3200SOL     OW21061   0.377   4.696  11.390  0.0456  0.3680  0.2504
 3200SOL    HW121062   0.391   4.623  11.451  0.6236 -0.6650 -1.1197
 3200SOL    HW221063   0.410   0.055  11.423 -1.5105  0.0060  2.7553
 3201SOL     OW21064   1.196   4.199   7.297 -0.3590 -0.2789 -0.3106
 3201SOL    HW121065   1.203   4.174   7.205 -0.4691 -0.3349 -0.3036
 3201SOL    HW221066   1.208   4.115   7.341 -2.2528  1.0986  2.7915
 3202SOL     OW21067   4.344   3.352  10.517 -0.0499 -0.4839 -0.1429
 3202SOL    HW121068   4.402   3.292  10.564  2.6643  0.8551 -1.7312
 3202SOL    HW221069   4.336   3.317  10.428 -0.0042 -1.1915  0.1330
 3203SOL     OW21070   0.755   0.377  17.026  0.1333  0.0133 -0.4453
 3203SOL    HW121071   0.829   0.438  17.031 -1.8628  2.2329  2.0222
 3203SOL    HW221072   0.691   0.435  16.984  1.2211  1.6172  0.0945
 3204SOL     OW21073   0.590   2.666   6.053 -0.4714 -0.3015  0.3997
 3204SOL    HW121074   0.677   2.704   6.064 -0.4933 -0.0577 -0.2559
 3204SOL    HW221075   0.570   2.708   5.969  0.7222  1.1833  0.8583
 3205SOL     OW21076   1.601   0.352   7.702 -0.0904  0.1752  0.0118
 3205SOL    HW121077   1.690   0.325   7.679  0.4624  3.3204 -1.4283
 3205SOL    HW221078   1.591   0.299   7.781 -0.5441 -0.0471 -0.1911
 3206SOL     OW21079   2.820   2.651   3.427 -0.0801 -0.1388 -0.0757
 3206SOL    HW121080   2.850   2.597   3.354 -2.8136  0.1423 -1.4331
 3206SOL    HW221081   2.897   2.704   3.447 -3.0999  3.5052  1.9567
 3207SOL     OW21082   3.102   2.521   2.512 -0.0459 -0.6977 -0.0909
 3207SOL    HW121083   3.112   2.517   2.607 -2.0711  0.8012  0.1931
 3207SOL    HW221084   3.091   2.616   2.508  0.0103 -0.7880 -2.1022
 3208SOL     OW21085   4.349   2.997   1.968  0.0289  0.0386  0.2935
 3208SOL    HW121086   4.270   2.987   1.915  0.5895  1.7073 -0.8813
 3208SOL    HW221087   4.408   3.052   1.917 -0.0705  2.0362  2.3387
 3209SOL     OW21088   2.278   0.164   0.336 -0.7538 -0.1469 -0.4697
 3209SOL    HW121089   2.279   0.069   0.330  0.7127 -0.2125  0.9042
 3209SOL    HW221090   2.215   0.190   0.403 -0.1692 -0.1610  0.0903
 3210SOL     OW21091   2.859   1.889   3.974 -0.5335 -0.1314  0.3062
 3210SOL    HW121092   2.931   1.830   3.996  0.3294  0.6868 -0.3532
 3210SOL    HW221093   2.819   1.893   4.061  1.0008 -2.8342  1.1589
 3211SOL     OW21094   2.483   3.091   7.264 -0.7929 -0.2982 -0.0190
 3211SOL    HW121095   2.441   3.058   7.184 -0.5830  0.0484 -0.2736
 3211SOL    HW221096   2.562   3.128   7.223 -2.0337  1.7641 -0.5505
 3212SOL     OW21097   0.986   0.604   6.145 -0.1346  0.0552  0.3619
 3212SOL    HW121098   1.004   0.521   6.103 -0.3080  0.8815 -1.3479
 3212SOL    HW221099   0.895   0.585   6.168 -0.0455  1.0634  1.6039
 3213SOL     OW21100   2.837   4.347  17.449  0.1667 -1.0640  0.6896
 3213SOL    HW121101   2.812   4.421  17.505 -0.8553 -1.6049  0.9462
 3213SOL    HW221102   2.868   4.391  17.370 -1.6992 -0.4005  0.3349
 3214SOL     OW21103   1.079   3.200   9.993  0.6345  0.2887  0.1619
 3214SOL    HW121104   1.020   3.250   9.936 -2.3539 -1.1441  2.0624
 3214SOL    HW221105   1.163   3.217   9.950 -0.2054  1.4815 -1.0022
 3215SOL     OW21106   3.774   1.216   3.105 -0.3282  0.2321  0.6260
 3215SOL    HW121107   3.756   1.307   3.129  4.4016  1.1888  0.5749
 3215SOL    HW221108   3.682   1.189   3.111 -0.4285  0.2363 -0.7805
 3216SOL     OW21109   3.539   1.613   3.364  0.1026 -0.3520 -0.3640
 3216SOL    HW121110   3.468   1.608   3.429  1.0113  0.3740  0.6834
 3216SOL    HW221111   3.620   1.611   3.415 -0.7268  1.2714  1.0190
 3217SOL     OW21112   0.613   0.568   3.140  0.0392  0.0184 -0.1367
 3217SOL    HW121113   0.561   0.546   3.217 -1.2477  2.8804 -0.1651
 3217SOL    HW221114   0.688   0.509   3.148 -0.3623 -0.0812  3.0713
 3218SOL     OW21115   3.839   2.037   7.941  0.2340  0.3533  0.2931
 3218SOL    HW121116   3.787   1.969   7.984 -0.5189  1.3451  0.9170
 3218SOL    HW221117   3.762   2.077   7.902  0.5008  1.2131  0.6513
 3219SOL     OW21118   1.875   3.658   8.315 -0.2249  0.5671  0.0494
 3219SOL    HW121119   1.921   3.728   8.269 -1.0614  2.1951  1.6321
 3219SOL    HW221120   1.930   3.584   8.290  0.1709  1.0030 -0.3718
 3220SOL     OW21121   0.878   0.414   3.090  0.3861 -0.1512 -0.3119
 3220SOL    HW121122   0.886   0.330   3.045  0.1915 -0.7922  0.8281
 3220SOL    HW221123   0.921   0.382   3.169 -2.1987 -0.0822  1.1477
 3221SOL     OW21124   3.252   0.523   5.588 -0.8464 -0.2830  0.3136
 3221SOL    HW121125   3.183   0.527   5.521  0.3187  1.2311 -0.7959
 3221SOL    HW221126   3.249   0.615   5.616  0.2995 -0.4344  0.9076
 3222SOL     OW21127   0.073   1.195   4.755  0.3841 -0.3401  0.3948
 3222SOL    HW121128   0.092   1.211   4.847  2.2221 -0.6964  0.0674
 3222SOL    HW221129   0.152   1.232   4.715  0.3231  0.2365  0.8109
 3223SOL     OW21130   4.646   0.813   6.481 -0.1145 -0.3822  0.6529
 3223SOL    HW121131   4.706   0.762   6.427 -1.9181 -0.7419 -1.0348
 3223SOL    HW221132   4.583   0.747   6.510 -0.6940  0.2414  0.8199
 3224SOL     OW21133   0.754   4.067   2.276 -0.4146 -0.2123  0.2858
 3224SOL    HW121134   0.734   4.124   2.202  1.4136  0.8748  0.6146
 3224SOL    HW221135   0.843   4.095   2.297 -0.5839  0.9976 -0.6312
 3225SOL     OW21136   1.929   3.081   6.037  0.3454  0.2108 -0.3471
 3225SOL    HW121137   1.976   3.140   5.978 -1.7700  0.3562 -1.8718
 3225SOL    HW221138   1.902   3.019   5.969  1.7298  0.2566 -0.9293
 3226SOL     OW21139   2.090   0.516   4.472  0.0470  0.5866  0.2439
 3226SOL    HW121140   2.084   0.581   4.403 -1.1185 -1.0134 -1.1667
 3226SOL    HW221141   2.118   0.438   4.424  2.4707 -0.5892  3.5984
 3227SOL     OW21142   2.456   4.312  15.149  0.2723  0.0655 -0.1586
 3227SOL    HW121143   2.429   4.228  15.112 -0.7745  0.6918 -0.8103
 3227SOL    HW221144   2.372   4.358  15.143  0.6923  0.8181 -0.1340
 3228SOL     OW21145   2.090   0.713   5.655  0.1178  0.3310  0.0609
 3228SOL    HW121146   2.128   0.633   5.621 -1.4585  0.7141 -2.5441
 3228SOL    HW221147   2.064   0.675   5.739  0.4253 -0.6823 -0.3062
 3229SOL     OW21148   0.995   1.601  10.586  0.6806 -0.3735  0.0503
 3229SOL    HW121149   0.957   1.685  10.562  1.0600 -0.9311 -2.4133
 3229SOL    HW221150   0.946   1.564  10.660  0.3019  0.7040  0.3386
 3230SOL     OW21151   4.310   4.655   3.949 -0.4428  0.1045 -0.7805
 3230SOL    HW121152   4.319   4.572   3.902 -0.8165 -0.6417  0.4526
 3230SOL    HW221153   4.235   4.690   3.901  0.5806  0.5836 -2.0116
 3231SOL     OW21154   1.886   1.686   6.840 -0.0429  0.1480 -0.5865
 3231SOL    HW121155   1.966   1.653   6.800  0.5776  1.4424 -0.3979
 3231SOL    HW221156   1.850   1.736   6.767 -4.1062 -1.1009  0.5151
 3232SOL     OW21157   2.285   3.177   8.350  0.3953  0.1736 -0.0255
 3232SOL    HW121158   2.379   3.176   8.369  0.1595  3.4709  1.3467
 3232SOL    HW221159   2.252   3.087   8.352 -0.4049  0.4919  0.8900
 3233SOL     OW21160   0.084   0.775   0.278 -0.0239 -0.1663 -0.5830
 3233SOL    HW121161   0.047   0.703   0.328  2.4601 -0.1866  1.2396
 3233SOL    HW221162   0.109   0.838   0.346 -0.3150 -1.5366  0.7919
 3234SOL     OW21163   3.332   0.510   1.599  0.3608 -0.5664 -0.0256
 3234SOL    HW121164   3.241   0.493   1.623  0.9706 -3.3689  0.2883
 3234SOL    HW221165   3.349   0.472   1.513  2.4248 -1.0536  0.6008
 3235SOL     OW21166   2.939   2.892   8.093  0.6880  0.5198  0.6075
 3235SOL    HW121167   2.922   2.806   8.054 -1.3503  0.1527  2.2934
 3235SOL    HW221168   3.019   2.913   8.045 -0.8418 -0.4081 -2.4140
 3236SOL     OW21169   0.453   2.038   7.419 -0.5149  0.4375  0.1410
 3236SOL    HW121170   0.364   2.005   7.429  0.2954 -2.1559 -1.1521
 3236SOL    HW221171   0.494   1.976   7.358  1.6830  1.7181  0.3349
 3237SOL     OW21172   4.630   2.521   6.857  0.0429  0.4974 -0.5357
 3237SOL    HW121173   4.662   2.450   6.803 -0.2856  0.8779 -1.2311
 3237SOL    HW221174   4.543   2.540   6.821  0.6908  0.3351 -2.1726
 3238SOL     OW21175   4.574   3.608   5.247  0.7788 -0.0378  0.3881
 3238SOL    HW121176   4.634   3.557   5.303  1.4041  0.9761  0.6330
 3238SOL    HW221177   4.607   3.695   5.266 -0.1924  0.1463  1.1729
 3239SOL     OW21178   0.093   1.032  14.012 -0.7875  0.0451 -0.6076
 3239SOL    HW121179   0.140   0.954  13.983 -1.1831 -0.2333 -0.4990
 3239SOL    HW221180   0.031   1.047  13.940 -0.0158 -0.4679 -1.3761
 3240SOL     OW21181   0.824   2.720   2.762 -0.2181 -0.0294 -0.2556
 3240SOL    HW121182   0.787   2.635   2.735 -0.7884  0.0624  0.2427
 3240SOL    HW221183   0.791   2.773   2.689 -1.0474 -0.2075 -0.0055
 3241SOL     OW21184   3.656   1.957   7.105 -0.1224 -0.1371 -0.1504
 3241SOL    HW121185   3.633   2.031   7.050 -1.6913 -1.6828 -1.5579
 3241SOL    HW221186   3.684   1.896   7.037 -0.5102 -0.5243  0.0370
 3242SOL     OW21187   1.174   0.959   9.364  0.0962 -0.9127  0.0420
 3242SOL    HW121188   1.253   0.928   9.322  0.9351 -0.5875  1.3787
 3242SOL    HW221189   1.123   0.973   9.285  1.7100 -1.5200 -1.1017
 3243SOL     OW21190   1.410   4.295   4.143 -0.4459  0.0570  0.5133
 3243SOL    HW121191   1.467   4.262   4.213 -0.4581 -1.5621 -0.2547
 3243SOL    HW221192   1.429   4.226   4.080  2.4602 -0.0859  1.5675
 3244SOL     OW21193   0.675   0.837   6.514 -0.3366  0.0510 -0.3346
 3244SOL    HW121194   0.708   0.800   6.596 -0.2133 -0.7511 -0.7421
 3244SOL    HW221195   0.645   0.763   6.461  0.7740  0.4215 -1.4692
 3245SOL     OW21196   2.795   1.135   8.537 -0.1035 -0.5387  0.5209
 3245SOL    HW121197   2.861   1.066   8.527 -0.9072 -0.8306 -2.9212
 3245SOL    HW221198   2.720   1.097   8.490 -0.1283 -0.0603  0.1687
 3246SOL     OW21199   1.015   3.642   8.781  0.1852  0.4010  0.3268
 3246SOL    HW121200   0.959   3.621   8.855 -0.9980 -2.9924 -1.5589
 3246SOL    HW221201   1.054   3.721   8.820  0.4906  0.6541 -0.4938
 3247SOL     OW21202   3.958   2.851   4.541 -0.5188 -0.8027  0.3550
 3247SOL    HW121203   3.965   2.875   4.633  2.0049 -0.0225 -0.0357
 3247SOL    HW221204   3.901   2.919   4.506  0.0313 -0.3218  0.4052
 3248SOL     OW21205   1.761   2.922   9.201 -0.1502  0.1202 -0.3396
 3248SOL    HW121206   1.807   2.883   9.275 -0.8892 -1.5853 -0.7726
 3248SOL    HW221207   1.782   3.015   9.205  1.2156 -0.1383 -1.4936
 3249SOL     OW21208   3.930   0.548  16.357 -0.2814 -0.5214  0.3980
 3249SOL    HW121209   4.025   0.538  16.354 -0.3446 -0.4029 -1.9167
 3249SOL    HW221210   3.904   0.483  16.292 -0.7970  0.7675 -0.6721
 3250SOL     OW21211   4.613   0.387   2.505  0.2051 -0.5253 -0.1349
 3250SOL    HW121212   4.542   0.336   2.466  0.2452  0.5878 -1.6417
 3250SOL    HW221213   4.566   0.464   2.539  2.3198  1.0842 -0.9010
 3251SOL     OW21214   0.771   0.369   6.654 -0.4401 -0.3197 -0.8144
 3251SOL    HW121215   0.831   0.355   6.581 -1.1982  0.1266 -1.5340
 3251SOL    HW221216   0.794   0.289   6.702 -0.7592 -0.1242 -0.3375
 3252SOL     OW21217   0.496   4.541   6.160 -0.0774 -0.1066 -0.7508
 3252SOL    HW121218   0.486   4.474   6.091 -0.3057 -0.2585 -0.5709
 3252SOL    HW221219   0.591   4.549   6.148  0.3188 -1.3399  1.6636
 3253SOL     OW21220   1.066   1.794   3.636 -0.7688 -0.3914  0.1365
 3253SOL    HW121221   1.072   1.862   3.703  1.1878 -0.9126  0.5002
 3253SOL    HW221222   0.973   1.781   3.621 -1.0871 -1.0635  2.7092
 3254SOL     OW21223   4.209   0.534   3.205  0.3782  0.4693  0.0832
 3254SOL    HW121224   4.292   0.567   3.170 -1.1348  1.2402 -2.7098
 3254SOL    HW221225   4.146   0.583   3.153  1.3287  2.0396  0.4075
 3255SOL     OW21226   1.097   4.655  14.669  0.5741 -0.4191  0.0760
 3255SOL    HW121227   1.111   4.624  14.759  1.2029 -3.8929 -1.2221
 3255SOL    HW221228   1.084   4.578  14.613 -0.0810  1.6796 -2.6471
 3256SOL     OW21229   3.408   0.991   8.320  0.1104  0.1547 -0.1948
 3256SOL    HW121230   3.437   0.934   8.249  0.1922  0.3004 -0.2788
 3256SOL    HW221231   3.337   1.027   8.267  0.4323  1.6310  0.3566
 3257SOL     OW21232   3.560   2.181   2.104  0.1039 -0.6927  0.1621
 3257SOL    HW121233   3.517   2.107   2.061  0.4910 -1.9484  1.9136
 3257SOL    HW221234   3.551   2.154   2.196  2.0189 -1.5067  0.1089
 3258SOL     OW21235   1.741   1.337  13.238 -0.1774  0.4010  0.0913
 3258SOL    HW121236   1.790   1.255  13.250 -0.6637 -0.1174 -1.4643
 3258SOL    HW221237   1.779   1.363  13.154  0.9797 -2.1640 -0.1879
 3259SOL     OW21238   1.994   0.888   8.845  0.0750  0.1129 -0.0570
 3259SOL    HW121239   2.011   0.835   8.767  2.6211  2.3899 -1.0573
 3259SOL    HW221240   2.047   0.967   8.832  1.3403 -0.9048 -1.0385
 3260SOL     OW21241   3.612   2.225   2.777 -0.6056  0.0581  0.2484
 3260SOL    HW121242   3.603   2.196   2.868 -0.4586 -0.0702  0.2212
 3260SOL    HW221243   3.570   2.311   2.771  1.7470  1.1934  0.1186
 3261SOL     OW21244   1.794   1.402   7.878  0.7255  0.1918 -0.1408
 3261SOL    HW121245   1.727   1.341   7.849  1.8399 -0.8535 -0.5231
 3261SOL    HW221246   1.826   1.437   7.795  0.7928 -1.4987 -0.8323
 3262SOL     OW21247   3.657   3.987   5.017 -0.3607  0.1369  0.3122
 3262SOL    HW121248   3.623   4.066   5.060 -0.3479  0.1712  0.2590
 3262SOL    HW221249   3.748   4.003   5.043 -0.7380  2.0865  0.4881
 3263SOL     OW21250   1.060   1.838  12.904  0.2857  0.0718  0.6862
 3263SOL    HW121251   1.116   1.916  12.911  0.2210  0.2156 -0.3995
 3263SOL    HW221252   1.105   1.782  12.967  0.2691 -1.7759 -0.9373
 3264SOL     OW21253   2.329   3.482  15.121 -0.1317 -0.1528  0.0766
 3264SOL    HW121254   2.325   3.486  15.217 -0.7948  0.0191  0.0453
 3264SOL    HW221255   2.405   3.424  15.117 -1.6105 -1.9435 -1.8709
 3265SOL     OW21256   0.257   0.473   0.692 -0.1626  0.2415  0.5613
 3265SOL    HW121257   0.291   0.422   0.766  1.0446  1.1562  0.6379
 3265SOL    HW221258   0.263   0.405   0.625  2.1544  0.5132  0.4711
 3266SOL     OW21259   0.171   3.254   6.578 -0.0894 -0.1909 -0.0753
 3266SOL    HW121260   0.208   3.177   6.621  1.2274  0.2184 -0.4773
 3266SOL    HW221261   0.088   3.209   6.565  0.6664 -1.5827 -0.1346
 3267SOL     OW21262   3.918   4.654   3.981  0.2842 -0.1977 -0.1418
 3267SOL    HW121263   3.960   4.568   3.977 -1.9445 -1.3582  0.8000
 3267SOL    HW221264   3.988   4.712   4.008 -1.2141  2.3089 -1.6081
 3268SOL     OW21265   1.050   4.531   9.137  0.0757  0.0408 -0.1560
 3268SOL    HW121266   1.024   4.439   9.133  2.5277 -0.7456  1.8555
 3268SOL    HW221267   0.982   4.561   9.198  1.1984  2.8170 -0.2626
 3269SOL     OW21268   1.829   2.672  10.335  0.3169 -0.3220 -0.1799
 3269SOL    HW121269   1.922   2.680  10.316  0.7963 -2.2016  1.3517
 3269SOL    HW221270   1.834   2.589  10.382 -0.8672  0.1718  0.8342
 3270SOL     OW21271   0.764   1.930   1.572 -0.3182 -0.4906 -0.1044
 3270SOL    HW121272   0.789   1.889   1.489  2.9302  0.0813  0.6031
 3270SOL    HW221273   0.732   2.016   1.545  0.7378 -0.2982 -0.7566
 3271SOL     OW21274   1.020   1.143   3.946  0.0721 -0.0380  0.0801
 3271SOL    HW121275   0.952   1.130   3.879  0.0468  1.8306 -0.2438
 3271SOL    HW221276   1.045   1.052   3.961 -0.5367 -0.3059 -0.5268
 3272SOL     OW21277   1.025   1.915   5.394  0.4987 -0.4353 -0.4234
 3272SOL    HW121278   1.068   1.845   5.345 -0.2897  0.4157 -2.3204
 3272SOL    HW221279   0.939   1.914   5.352  0.6143  2.1949 -0.7262
 3273SOL     OW21280   4.629   2.987   2.180 -0.1432  0.1159 -0.5446
 3273SOL    HW121281   4.634   3.082   2.170 -4.1241  0.7070  3.1936
 3273SOL    HW221282   4.534   2.979   2.191 -0.2964  3.2276  0.4555
 3274SOL     OW21283   1.489   0.746  10.527 -0.0169 -0.4644 -0.0951
 3274SOL    HW121284   1.404   0.785  10.545 -0.4697 -0.7315 -1.7195
 3274SOL    HW221285   1.493   0.661  10.572 -1.7323  0.6696  2.1996
 3275SOL     OW21286   4.357   2.989   1.592  0.3601  0.0255 -0.5468
 3275SOL    HW121287   4.353   3.050   1.667  0.4316  1.6208 -1.8409
 3275SOL    HW221288   4.421   3.033   1.537  0.1087 -0.7407 -1.4411
 3276SOL     OW21289   0.942   3.348   7.198 -0.0820  0.3089  0.0155
 3276SOL    HW121290   0.988   3.394   7.269  0.0953 -1.7418  1.2429
 3276SOL    HW221291   0.922   3.267   7.247  2.0985 -0.2333 -0.0108
 3277SOL     OW21292   0.112   0.111   4.058  0.3408 -0.5669 -0.4652
 3277SOL    HW121293   0.117   0.062   3.976 -0.6748 -0.2048 -0.7391
 3277SOL    HW221294   0.081   0.047   4.122 -0.5985  0.9193  0.5593
 3278SOL     OW21295   0.522   0.307   3.705 -0.0585  0.5000 -0.2145
 3278SOL    HW121296   0.439   0.277   3.670  0.5552 -0.8482 -0.5402
 3278SOL    HW221297   0.517   0.262   3.790  3.3269 -1.7552 -1.1963
 3279SOL     OW21298   2.943   3.828   3.942  0.4349 -0.2596  0.0432
 3279SOL    HW121299   2.853   3.803   3.963 -0.1694  1.0645 -0.9874
 3279SOL    HW221300   2.930   3.857   3.852  0.7414  2.4957  0.8937
 3280SOL     OW21301   2.311   2.031  11.824  0.8444 -0.7094 -0.5567
 3280SOL    HW121302   2.406   2.040  11.832  0.2705  3.2206  1.7898
 3280SOL    HW221303   2.299   1.953  11.769 -2.1579  0.0173 -0.8883
 3281SOL     OW21304   1.225   4.146  16.998  0.2080 -0.1037  0.1241
 3281SOL    HW121305   1.280   4.220  17.022  0.6249  0.0514 -1.3162
 3281SOL    HW221306   1.147   4.194  16.971 -0.2865 -2.7330 -3.2257
 3282SOL     OW21307   1.721   2.852  10.557 -0.3446 -0.1434 -0.3034
 3282SOL    HW121308   1.715   2.809  10.472 -0.3473 -1.2597  0.2597
 3282SOL    HW221309   1.668   2.785  10.602  1.2366 -0.7428  0.6769
 3283SOL     OW21310   0.270   4.119  11.573 -0.3339 -0.0653  0.2121
 3283SOL    HW121311   0.198   4.175  11.600 -1.9817 -2.6089  1.0864
 3283SOL    HW221312   0.338   4.170  11.618 -0.7029  0.2198  0.4387
 3284SOL     OW21313   2.761   0.303   6.718 -0.3348 -0.6805  0.3657
 3284SOL    HW121314   2.699   0.360   6.763  1.0295  0.9351  0.2152
 3284SOL    HW221315   2.840   0.282   6.768  1.2269 -0.1781 -1.8831
 3285SOL     OW21316   0.678   2.839   0.964 -0.2433 -0.2093  0.3849
 3285SOL    HW121317   0.737   2.898   0.918 -0.0628 -0.1576  0.6822
 3285SOL    HW221318   0.680   2.877   1.052  2.0221  2.0270 -0.6257
 3286SOL     OW21319   2.929   0.848   2.590  0.6852  0.2433 -0.2669
 3286SOL    HW121320   3.000   0.826   2.650 -0.1144  1.2278  1.0312
 3286SOL    HW221321   2.858   0.790   2.616 -0.2736  2.1615  1.3814
 3287SOL     OW21322   1.887   3.911   0.187 -0.5477 -0.5003 -0.1332
 3287SOL    HW121323   1.819   3.868   0.134  0.1532 -0.8703 -0.7312
 3287SOL    HW221324   1.967   3.863   0.166 -0.7413 -0.0363 -1.8806
 3288SOL     OW21325   3.435   1.258  12.180  0.8089 -0.0421  0.4342
 3288SOL    HW121326   3.406   1.180  12.228  4.1249 -1.4566  0.1329
 3288SOL    HW221327   3.509   1.225  12.130  1.8020  1.1305  1.1419
 3289SOL     OW21328   1.174   0.126   2.928  1.1377  0.0068  0.2307
 3289SOL    HW121329   1.227   0.194   2.969  0.0823 -0.1903  1.8810
 3289SOL    HW221330   1.092   0.163   2.960  0.6504  0.0609 -1.0915
 3290SOL     OW21331   3.930   3.840   9.591  0.5621  0.2366  0.4931
 3290SOL    HW121332   3.996   3.868   9.527 -0.7159 -1.2647 -1.4495
 3290SOL    HW221333   3.913   3.752   9.558  0.1111  0.0074  1.3409
 3291SOL     OW21334   0.596   0.686  15.267 -0.1489  0.7452 -0.0600
 3291SOL    HW121335   0.588   0.652  15.178 -0.4890 -0.6287  0.5020
 3291SOL    HW221336   0.682   0.649  15.287  0.4715  1.4690 -1.3863
 3292SOL     OW21337   0.783   3.930  11.357 -0.0452 -0.1507 -0.0284
 3292SOL    HW121338   0.710   3.937  11.418 -0.5562 -1.1525 -0.5397
 3292SOL    HW221339   0.825   3.849  11.385 -0.4336  0.3946  2.1912
 3293SOL     OW21340   3.053   0.047  14.788 -0.1344  0.0181  0.2029
 3293SOL    HW121341   3.148   0.044  14.792 -0.0018  0.6648 -3.0136
 3293SOL    HW221342   3.030   4.722  14.867 -2.4513  1.0601  0.2010
 3294SOL     OW21343   1.041   1.300   4.744 -0.3313  0.1089  0.6228
 3294SOL    HW121344   1.116   1.267   4.693 -0.1645  1.7058 -0.1534
 3294SOL    HW221345   1.040   1.237   4.816 -4.2815  1.6705  1.9422
 3295SOL     OW21346   4.308   1.733   8.184 -0.1022  0.0099  0.1642
 3295SOL    HW121347   4.290   1.639   8.193  1.2730 -0.3800 -0.9743
 3295SOL    HW221348   4.267   1.749   8.099 -0.4197 -3.1113 -0.2994
 3296SOL     OW21349   1.650   4.268  17.048  0.1056  0.3217  0.1653
 3296SOL    HW121350   1.729   4.314  17.018 -0.6072  1.8282  0.5874
 3296SOL    HW221351   1.643   4.193  16.989 -0.3369  0.4091  0.1032
 3297SOL     OW21352   2.694   4.002   5.830  0.4250  0.0076  0.0840
 3297SOL    HW121353   2.654   4.083   5.799 -0.7453  0.4903  2.8975
 3297SOL    HW221354   2.785   4.030   5.818  0.4756  0.0849  0.6526
 3298SOL     OW21355   4.244   0.815   5.628  0.3837  0.4671  0.0721
 3298SOL    HW121356   4.230   0.818   5.534 -3.4508 -1.3351  0.5888
 3298SOL    HW221357   4.306   0.886   5.640  0.8692 -0.0930  0.8882
 3299SOL     OW21358   3.462   2.341  13.695 -0.0384 -0.0131 -0.1330
 3299SOL    HW121359   3.523   2.388  13.752  0.0769  3.3501 -3.0113
 3299SOL    HW221360   3.514   2.284  13.638  0.4945  0.4682 -0.1370
 3300SOL     OW21361   2.976   2.242   7.914  0.2864 -0.3322  0.3009
 3300SOL    HW121362   2.967   2.337   7.908  3.5499 -0.1874 -2.3239
 3300SOL    HW221363   2.984   2.217   7.822 -0.7149 -0.0736  0.1376
 3301SOL     OW21364   0.848   2.263   8.384 -0.1719 -0.6834  0.3389
 3301SOL    HW121365   0.856   2.341   8.328 -0.3874 -2.1331 -1.7163
 3301SOL    HW221366   0.782   2.212   8.338 -0.1718 -1.3906  1.1178
 3302SOL     OW21367   2.536   2.925   2.417  0.2020  0.3040  0.2010
 3302SOL    HW121368   2.474   2.856   2.394  0.5055  0.0127  0.2544
 3302SOL    HW221369   2.460   2.981   2.432 -0.7361 -1.0066  0.3009
 3303SOL     OW21370   3.327   2.912   2.588  0.5673  0.2108 -0.3726
 3303SOL    HW121371   3.295   2.985   2.640 -1.8317  0.4302 -2.1822
 3303SOL    HW221372   3.253   2.852   2.585  2.0218 -1.5976 -0.0495
 3304SOL     OW21373   3.950   0.859   1.800 -0.0541 -0.0828 -0.0524
 3304SOL    HW121374   3.964   0.862   1.895  0.9175  0.4893 -0.2054
 3304SOL    HW221375   3.863   0.898   1.793 -0.3482 -0.3370  2.0274
 3305SOL     OW21376   2.942   3.297   3.452  0.3926  0.0692 -0.1114
 3305SOL    HW121377   2.908   3.328   3.369  1.3507 -0.2786 -0.6422
 3305SOL    HW221378   3.034   3.319   3.438 -0.3217  1.7416 -1.9548
 3306SOL     OW21379   3.227   0.372   3.080 -0.0885 -0.2045 -0.7703
 3306SOL    HW121380   3.216   0.460   3.115 -0.9105 -0.9849  0.9149
 3306SOL    HW221381   3.137   0.341   3.075  0.2364 -1.1452 -0.8255
 3307SOL     OW21382   4.669   1.369   6.556  0.1342  0.2003 -0.3497
 3307SOL    HW121383   4.697   1.300   6.616 -0.2990  0.6355  0.3407
 3307SOL    HW221384   0.012   1.433   6.575 -0.2003  0.2874  0.5414
 3308SOL     OW21385   4.260   2.549   5.309 -0.1818 -0.2086 -0.1416
 3308SOL    HW121386   4.221   2.526   5.393 -1.1164 -0.1657 -0.5677
 3308SOL    HW221387   4.352   2.529   5.327  0.0922  0.3069 -1.0014
 3309SOL     OW21388   3.966   2.224  11.430  0.2298  0.3666 -0.3675
 3309SOL    HW121389   3.964   2.319  11.440  4.5328  0.4734 -0.4396
 3309SOL    HW221390   4.040   2.223  11.369 -0.2786  2.8059 -1.0186
 3310SOL     OW21391   4.205   2.247  11.283 -0.3601  0.2324 -0.3393
 3310SOL    HW121392   4.274   2.312  11.269  0.4286 -0.2437  1.3675
 3310SOL    HW221393   4.236   2.202  11.361 -0.0072  2.4179  0.7718
 3311SOL     OW21394   1.385   3.344   7.962 -0.0561  0.0407  0.1875
 3311SOL    HW121395   1.309   3.395   7.991 -1.1300 -0.5668 -1.5977
 3311SOL    HW221396   1.415   3.293   8.037 -0.3034  1.5264  1.3012
 3312SOL     OW21397   0.405   4.058  12.510  0.1169 -0.4741  0.3686
 3312SOL    HW121398   0.393   4.135  12.565  0.7504 -0.4708  0.5022
 3312SOL    HW221399   0.497   4.036  12.520 -0.2487 -1.5998  1.3040
 3313SOL     OW21400   0.830   3.715   7.630  0.5082  0.0553 -0.2298
 3313SOL    HW121401   0.896   3.780   7.606  0.0198  0.0959 -1.4367
 3313SOL    HW221402   0.800   3.745   7.716  0.1795  2.5903 -1.2327
 3314SOL     OW21403   3.953   0.054  11.917 -0.4067  0.3296 -0.0661
 3314SOL    HW121404   4.035   0.013  11.889  0.0139 -0.7600  2.8338
 3314SOL    HW221405   3.990   0.119  11.976  0.2088  0.8341 -1.0008
 3315SOL     OW21406   4.245   1.401  15.607 -0.4863  0.1053 -0.4452
 3315SOL    HW121407   4.159   1.380  15.570 -1.3372  0.4976  1.3187
 3315SOL    HW221408   4.217   1.477  15.658 -1.5707 -0.5897 -0.0090
 3316SOL     OW21409   0.444   1.761   3.879 -0.4265 -0.2657 -0.0941
 3316SOL    HW121410   0.497   1.692   3.838  1.0106  0.8649 -0.1131
 3316SOL    HW221411   0.501   1.784   3.952 -0.0928  1.2609 -0.8530
 3317SOL     OW21412   0.539   4.348  12.152  0.1404 -0.1584 -0.8299
 3317SOL    HW121413   0.471   4.382  12.210  0.9025  2.5249 -1.4904
 3317SOL    HW221414   0.569   4.423  12.100  0.4749  0.5411  0.3768
 3318SOL     OW21415   0.542   1.169   6.676 -0.9402 -0.4949 -0.3230
 3318SOL    HW121416   0.495   1.094   6.711  0.4976 -1.3306 -0.1696
 3318SOL    HW221417   0.526   1.167   6.582 -0.6641 -0.0143 -0.3830
 3319SOL     OW21418   2.889   2.761   8.612  0.4133  0.2242  0.4678
 3319SOL    HW121419   2.858   2.673   8.591  2.2744 -0.7762  1.8977
 3319SOL    HW221420   2.975   2.728   8.639  0.6469  0.5562  0.1343
 3320SOL     OW21421   1.722   2.648  16.274  0.2451 -0.4380 -0.1580
 3320SOL    HW121422   1.801   2.702  16.273  1.1585 -1.7832 -2.7195
 3320SOL    HW221423   1.754   2.559  16.263 -0.5082 -0.7486  0.1353
 3321SOL     OW21424   4.301   3.913   2.527  0.1720 -0.3137 -0.3380
 3321SOL    HW121425   4.256   3.905   2.611  1.4347 -0.1981  0.3493
 3321SOL    HW221426   4.225   3.908   2.470  0.8627  0.2419 -1.3187
 3322SOL     OW21427   4.531   1.184  10.119  0.1727  0.1529 -0.0878
 3322SOL    HW121428   4.496   1.264  10.078  1.6005  0.5770 -0.4599
 3322SOL    HW221429   4.496   1.202  10.206  1.8183  1.1826  0.3548
 3323SOL     OW21430   4.276   0.700   2.846 -0.3681  0.0995  0.3032
 3323SOL    HW121431   4.210   0.633   2.829  0.6966 -0.1019 -3.0696
 3323SOL    HW221432   4.217   0.775   2.855 -0.8901 -0.4635  1.4836
 3324SOL     OW21433   4.093   2.218   4.388 -0.3737  0.1377  0.1891
 3324SOL    HW121434   4.065   2.128   4.403  0.6390 -0.0322  1.0494
 3324SOL    HW221435   4.186   2.203   4.368 -0.2994  1.3521 -0.3824
 3325SOL     OW21436   1.907   3.931   5.843 -0.2259  0.3441 -0.2303
 3325SOL    HW121437   1.877   3.844   5.869  2.3905 -0.4504  0.1416
 3325SOL    HW221438   1.873   3.921   5.754 -0.7665  3.6564 -0.4247
 3326SOL     OW21439   1.611   2.374   6.478  0.1430  0.8898  0.1664
 3326SOL    HW121440   1.682   2.327   6.522  1.3882  3.2768  0.7166
 3326SOL    HW221441   1.537   2.314   6.490  1.4795 -0.8823 -0.4860
 3327SOL     OW21442   2.722   4.091   5.142 -0.4329 -0.4239  0.2682
 3327SOL    HW121443   2.715   4.146   5.220  0.2858  0.5402 -0.3460
 3327SOL    HW221444   2.807   4.048   5.150 -0.0068  0.4156  0.2544
 3328SOL     OW21445   0.369   0.600   2.226  0.7837 -0.5981  0.3238
 3328SOL    HW121446   0.396   0.644   2.306 -0.5376  2.1525 -0.7596
 3328SOL    HW221447   0.440   0.618   2.164 -1.0203  2.3100 -0.9005
 3329SOL     OW21448   3.287   1.040   7.307 -0.1795 -0.5042  0.0484
 3329SOL    HW121449   3.373   1.057   7.267 -0.6093  0.1116 -0.6130
 3329SOL    HW221450   3.273   0.953   7.271  1.7797  0.3929 -2.9411
 3330SOL     OW21451   4.269   0.706   8.343 -0.0164 -0.5329  0.0219
 3330SOL    HW121452   4.226   0.639   8.397 -1.7204  1.2901  0.9039
 3330SOL    HW221453   4.321   0.748   8.411 -0.2976  2.5075 -1.6538
 3331SOL     OW21454   4.471   0.452   9.333  0.6287 -0.1575 -0.6473
 3331SOL    HW121455   4.453   0.387   9.402 -0.2980  1.0192  0.2272
 3331SOL    HW221456   4.523   0.402   9.271 -1.4690 -2.0262 -0.8953
 3332SOL     OW21457   0.188   1.739   8.056 -0.0264  0.4509  0.3856
 3332SOL    HW121458   0.176   1.674   8.125 -1.5498  1.2592  0.9000
 3332SOL    HW221459   0.178   1.683   7.979 -0.1727  0.7153  0.2125
 3333SOL     OW21460   1.500   4.161  13.067 -0.6500 -0.1244  0.1420
 3333SOL    HW121461   1.549   4.198  13.140 -0.1006  1.2202 -0.9018
 3333SOL    HW221462   1.561   4.193  13.000 -0.6835  1.2026  0.7646
 3334SOL     OW21463   0.225   0.010  11.082  0.1230  0.1261 -0.7512
 3334SOL    HW121464   0.217   4.709  11.174  2.0894 -1.9403 -1.1444
 3334SOL    HW221465   0.247   4.651  11.041 -2.5932  0.4811 -2.9212
 3335SOL     OW21466   0.565   3.420   6.574 -0.2813 -0.4081 -0.4672
 3335SOL    HW121467   0.557   3.325   6.568 -1.9480 -0.1049 -2.9356
 3335SOL    HW221468   0.531   3.449   6.489  0.0922 -1.3268 -0.9288
 3336SOL     OW21469   0.998   0.771   3.913  0.1266 -0.1813 -0.0711
 3336SOL    HW121470   1.027   0.776   3.822 -0.4284  1.2730 -0.1656
 3336SOL    HW221471   0.921   0.717   3.894  0.1145 -0.2611  0.2093
 3337SOL     OW21472   0.127   0.568   1.120 -0.1965 -0.0864  0.4348
 3337SOL    HW121473   0.103   0.545   1.030 -1.3766  2.6636  0.0510
 3337SOL    HW221474   0.162   0.482   1.145 -0.6244 -0.6378 -0.8614
 3338SOL     OW21475   2.424   2.326   4.175  0.1180 -0.4807  0.5090
 3338SOL    HW121476   2.414   2.267   4.250  2.6204 -1.1222  0.3382
 3338SOL    HW221477   2.427   2.413   4.214  0.9047 -0.6294  0.7657
 3339SOL     OW21478   3.098   1.869   4.272  0.1084  0.4113 -0.4277
 3339SOL    HW121479   3.109   1.964   4.264 -0.3156  0.5955  1.1078
 3339SOL    HW221480   3.176   1.836   4.228 -1.6155  0.3901 -3.4653
 3340SOL     OW21481   2.575   0.992   8.399  0.6529 -0.1145  0.3383
 3340SOL    HW121482   2.502   1.053   8.394  0.0908 -0.5916  2.7147
 3340SOL    HW221483   2.526   0.913   8.423 -0.3565  0.6530  0.8106
 3341SOL     OW21484   0.002   0.561   0.626  0.0595  0.2275  0.7661
 3341SOL    HW121485   0.012   0.532   0.535  0.5066 -3.7414  2.1023
 3341SOL    HW221486   0.087   0.536   0.660  0.5539  1.0218  0.1129
 3342SOL     OW21487   4.382   0.517   7.369 -0.6874  0.2746 -0.4971
 3342SOL    HW121488   4.309   0.521   7.430 -1.1895 -1.5385 -0.9941
 3342SOL    HW221489   4.340   0.486   7.289 -1.6503 -1.5335  0.7041
 3343SOL     OW21490   1.714   2.341   2.481  0.1123 -0.5832 -0.6017
 3343SOL    HW121491   1.734   2.365   2.571  0.8899  3.0684 -1.7463
 3343SOL    HW221492   1.760   2.411   2.435 -0.1509  0.4253  0.6747
 3344SOL     OW21493   1.060   1.257   7.918 -0.2058  0.0507 -0.4135
 3344SOL    HW121494   1.057   1.344   7.878 -0.6280  0.2162 -0.0208
 3344SOL    HW221495   0.988   1.210   7.874 -0.2184 -0.4310  0.1188
 3345SOL     OW21496   0.841   3.428   4.404  0.6039  0.2363  0.2709
 3345SOL    HW121497   0.912   3.431   4.340 -2.3224  1.8787 -2.9123
 3345SOL    HW221498   0.829   3.522   4.418  1.2664  0.5753 -1.4167
 3346SOL     OW21499   0.980   0.523   4.657 -0.0007 -0.0084  0.3226
 3346SOL    HW121500   0.930   0.559   4.583  0.3999 -1.9670 -0.9204
 3346SOL    HW221501   0.973   0.591   4.724 -2.5758 -0.3880  0.4610
 3347SOL     OW21502   0.664   0.969  12.192 -0.5627  0.1634  0.5450
 3347SOL    HW121503   0.656   1.046  12.136 -1.5625  0.4804  1.1135
 3347SOL    HW221504   0.691   0.897  12.136 -1.5542  0.9656 -0.9559
 3348SOL     OW21505   3.791   0.810  12.160  0.0941 -0.1631 -0.2408
 3348SOL    HW121506   3.760   0.892  12.121 -1.0675 -0.4731  0.0217
 3348SOL    HW221507   3.886   0.815  12.156 -0.1116  1.4329 -3.2526
 3349SOL     OW21508   2.839   3.165  12.387  0.5610 -0.1251 -0.1705
 3349SOL    HW121509   2.914   3.131  12.337  0.1454 -0.5769 -0.4916
 3349SOL    HW221510   2.883   3.232  12.439  0.6245  0.8848 -1.5077
 3350SOL     OW21511   1.931   0.344   5.415  0.1825 -0.0489  0.4635
 3350SOL    HW121512   1.951   0.253   5.394  1.7896 -0.7425  5.2405
 3350SOL    HW221513   1.974   0.404   5.354  2.9324 -0.4640  2.0268
 3351SOL     OW21514   2.874   4.337   3.925 -0.1696  0.2182 -0.5360
 3351SOL    HW121515   2.853   4.262   3.869  1.8943 -0.0796 -0.9377
 3351SOL    HW221516   2.804   4.396   3.897 -0.3775 -0.9913 -2.6358
 3352SOL     OW21517   4.177   2.045   3.405  0.0382 -0.2961 -0.2990
 3352SOL    HW121518   4.130   2.128   3.413  0.5152  0.1842 -2.3610
 3352SOL    HW221519   4.241   2.066   3.337 -0.4441 -0.3265 -0.7623
 3353SOL     OW21520   0.592   2.932   2.155 -0.0410  0.3894 -0.0679
 3353SOL    HW121521   0.623   2.998   2.218 -0.7920 -0.8352  1.5745
 3353SOL    HW221522   0.673   2.882   2.145 -1.6566 -2.1217 -0.5067
 3354SOL     OW21523   4.429   0.569   2.607  0.3894 -0.1091 -0.0991
 3354SOL    HW121524   4.398   0.632   2.542  0.7964  0.6224  0.4094
 3354SOL    HW221525   4.421   0.624   2.685 -0.4518 -0.4658  0.0580
 3355SOL     OW21526   0.296   2.980   6.518 -0.2627 -0.2201 -0.1438
 3355SOL    HW121527   0.266   2.982   6.608  0.0076 -3.2145  0.0382
 3355SOL    HW221528   0.277   2.887   6.503  1.6094 -0.4022 -1.3891
 3356SOL     OW21529   3.816   2.039   6.786  0.3227  0.2530 -0.3896
 3356SOL    HW121530   3.732   2.050   6.829  1.0025 -0.7351  1.1936
 3356SOL    HW221531   3.833   2.128   6.755  2.5362  0.9010  2.6443
 3357SOL     OW21532   4.485   3.796   6.805 -0.0311  0.0084 -0.1511
 3357SOL    HW121533   4.560   3.797   6.864 -0.4966  1.4486  0.4127
 3357SOL    HW221534   4.420   3.805   6.874  1.4567 -0.7102  1.3358
 3358SOL     OW21535   3.461   0.553   2.969  0.7335  0.5770 -0.1911
 3358SOL    HW121536   3.540   0.557   2.916  2.2714  2.9863  2.2789
 3358SOL    HW221537   3.392   0.574   2.906  0.6492  1.1476  0.0951
 3359SOL     OW21538   0.969   1.541   4.794  0.0782 -0.2260  0.0575
 3359SOL    HW121539   0.875   1.561   4.786  0.4814  1.8968  0.6947
 3359SOL    HW221540   0.973   1.446   4.791 -1.9941 -0.2091 -2.7615
 3360SOL     OW21541   0.841   1.174   0.941  0.2269  0.8447  0.3796
 3360SOL    HW121542   0.870   1.257   0.980  2.5808  0.0048  0.4751
 3360SOL    HW221543   0.862   1.129   1.024 -0.4288 -2.3828 -1.2029
 3361SOL     OW21544   4.510   2.300   5.800  0.0442 -0.1160 -0.2143
 3361SOL    HW121545   4.423   2.275   5.769 -0.4280  0.9941  0.1771
 3361SOL    HW221546   4.505   2.386   5.843  2.8294 -0.3069  0.4750
 3362SOL     OW21547   3.650   0.540  10.668 -0.0688 -0.4367 -0.1104
 3362SOL    HW121548   3.640   0.612  10.731  0.9846  0.4958 -1.0129
 3362SOL    HW221549   3.653   0.594  10.589  1.6835 -0.1928  0.1279
 3363SOL     OW21550   0.511   0.702   1.342 -0.2284 -0.8176  0.6664
 3363SOL    HW121551   0.516   0.607   1.339 -0.5791 -0.8438  0.7813
 3363SOL    HW221552   0.432   0.712   1.289  0.9409  0.5610 -0.7955
 3364SOL     OW21553   4.281   4.215   4.604  0.6677 -0.2556  0.7945
 3364SOL    HW121554   4.304   4.171   4.686  2.7270 -1.6666 -0.5576
 3364SOL    HW221555   4.258   4.135   4.556 -0.4313  1.7796 -2.0760
 3365SOL     OW21556   1.507   2.326   2.243 -0.6928  0.1289 -0.0343
 3365SOL    HW121557   1.591   2.304   2.203 -0.5779 -0.7521  0.7181
 3365SOL    HW221558   1.541   2.362   2.324 -1.2777 -1.1310  0.7709
 3366SOL     OW21559   1.816   3.933   9.157 -1.0060  0.3219  0.4196
 3366SOL    HW121560   1.844   3.862   9.099  1.2965  3.1952 -2.0075
 3366SOL    HW221561   1.799   3.891   9.241  1.2185  1.8016  1.6106
 3367SOL     OW21562   3.021   2.849   3.489  0.1370 -0.0514  0.7112
 3367SOL    HW121563   2.998   2.929   3.536 -0.0202  1.9022 -2.7430
 3367SOL    HW221564   3.070   2.797   3.552 -0.7628  0.3321  1.7358
 3368SOL     OW21565   4.535   1.850  10.734  0.3473  0.0521 -0.0375
 3368SOL    HW121566   4.495   1.830  10.819  0.0569 -1.6220 -0.5743
 3368SOL    HW221567   4.600   1.913  10.762  1.0491 -0.6068 -0.1871
 3369SOL     OW21568   2.609   2.639   5.351  0.1650 -0.3898  0.0568
 3369SOL    HW121569   2.689   2.691   5.353 -1.4701  2.1408 -1.5664
 3369SOL    HW221570   2.632   2.549   5.326 -2.3551 -0.4528 -2.0794
 3370SOL     OW21571   2.721   3.186   7.150 -0.4794 -0.1793  0.2331
 3370SOL    HW121572   2.687   3.274   7.137 -0.4359 -0.0858  0.7586
 3370SOL    HW221573   2.812   3.211   7.160 -0.0016 -2.8330  2.6410
 3371SOL     OW21574   4.293   2.680   8.401 -0.3364 -0.0191 -0.2815
 3371SOL    HW121575   4.306   2.600   8.349  0.6453  0.5122 -0.8488
 3371SOL    HW221576   4.286   2.642   8.488  1.9667 -0.8172 -0.4472
 3372SOL     OW21577   2.194   1.017   3.151 -0.0572  0.0305  0.2531
 3372SOL    HW121578   2.240   1.100   3.133  0.5202 -0.4172 -0.3336
 3372SOL    HW221579   2.194   1.000   3.245 -2.2727 -0.4294  0.1660
 3373SOL     OW21580   2.549   0.096   4.488  0.0201 -0.0151 -0.6822
 3373SOL    HW121581   2.498   0.031   4.536  0.5263 -2.7570 -3.9010
 3373SOL    HW221582   2.549   0.068   4.396 -0.1381 -2.3730  0.0398
 3374SOL     OW21583   1.981   0.434   8.966 -0.3107 -0.2479 -0.2715
 3374SOL    HW121584   2.038   0.408   9.039  1.0176  1.6399 -0.6383
 3374SOL    HW221585   2.032   0.492   8.909  1.3595 -0.3628  1.0767
 3375SOL     OW21586   0.627   1.773  16.187 -0.0388  0.4922 -0.7573
 3375SOL    HW121587   0.561   1.735  16.245 -2.8906  1.7998 -3.1441
 3375SOL    HW221588   0.699   1.770  16.251 -1.3836 -0.9047  0.7079
 3376SOL     OW21589   3.603   2.404  14.122 -0.2527  0.4702 -0.2332
 3376SOL    HW121590   3.550   2.328  14.142  0.7220  0.4483  2.2242
 3376SOL    HW221591   3.640   2.384  14.036 -0.8665 -0.6629 -0.2318
 3377SOL     OW21592   0.486   2.455   2.500 -0.3276  0.1451 -0.3574
 3377SOL    HW121593   0.525   2.404   2.430 -0.4759 -0.3417 -0.0888
 3377SOL    HW221594   0.500   2.548   2.482  0.2844 -0.2396 -1.8152
 3378SOL     OW21595   0.109   0.160   4.528 -0.2568  0.3659  0.0274
 3378SOL    HW121596   0.041   0.187   4.466  0.0167  0.7899 -0.0907
 3378SOL    HW221597   0.117   0.066   4.509 -3.1233  0.2216 -0.3881
 3379SOL     OW21598   3.994   1.241   6.127  0.3504 -0.0489 -0.1307
 3379SOL    HW121599   4.058   1.257   6.196 -0.5996 -0.7426  0.9128
 3379SOL    HW221600   3.922   1.214   6.184  0.2787  0.0621 -0.1680
 3380SOL     OW21601   1.365   3.071   9.514  0.1649  0.7750 -0.0463
 3380SOL    HW121602   1.286   3.027   9.547  0.4394 -1.0142 -1.7674
 3380SOL    HW221603   1.316   3.153   9.506  0.4700  0.9247 -0.4008
 3381SOL     OW21604   3.241   3.185   8.693 -0.2695 -0.3906  0.1414
 3381SOL    HW121605   3.308   3.138   8.743 -0.6419 -2.2018 -1.0504
 3381SOL    HW221606   3.177   3.117   8.674  0.1064 -0.6687 -0.1273
 3382SOL     OW21607   2.780   0.486   0.534  0.0378  0.1080 -0.0480
 3382SOL    HW121608   2.751   0.404   0.493  1.0554 -1.0373  1.5615
 3382SOL    HW221609   2.768   0.549   0.462  1.9404  0.7205  0.1815
 3383SOL     OW21610   0.056   1.149   3.902  0.0655  0.4547 -0.1680
 3383SOL    HW121611   0.034   1.063   3.937  0.3010  1.3539  2.1926
 3383SOL    HW221612   0.129   1.134   3.841  0.8432  0.6013  0.7367
 3384SOL     OW21613   4.132   0.546   8.985  0.0037 -0.5942 -0.0733
 3384SOL    HW121614   4.181   0.608   8.930  1.6101 -1.0775  0.8058
 3384SOL    HW221615   4.157   0.583   9.069  0.8021 -1.7523  0.2034
 3385SOL     OW21616   0.166   4.709   0.996  0.4219 -0.3358 -0.6390
 3385SOL    HW121617   0.199   4.638   1.052  1.4729 -0.0133 -0.8393
 3385SOL    HW221618   0.072   4.717   1.009  1.0699  4.3078  1.3109
 3386SOL     OW21619   2.073   1.335  14.991  0.2636  0.2241  0.6224
 3386SOL    HW121620   1.991   1.317  14.945  1.3303  0.7541 -1.4811
 3386SOL    HW221621   2.086   1.429  14.978 -0.5858  0.2622  0.0455
 3387SOL     OW21622   2.278   2.705   4.628 -0.3596 -0.3066  0.0674
 3387SOL    HW121623   2.191   2.668   4.622 -0.0273 -1.4338  2.0419
 3387SOL    HW221624   2.329   2.632   4.664  2.3813  0.1793 -2.8123
 3388SOL     OW21625   4.514   4.426   2.721 -0.2729  0.0246 -0.1047
 3388SOL    HW121626   4.486   4.515   2.699  1.2387  1.0547  2.1163
 3388SOL    HW221627   4.443   4.386   2.771 -2.0527  0.1425 -2.5492
 3389SOL     OW21628   0.239   4.538  13.755  0.1706  0.6406 -0.2306
 3389SOL    HW121629   0.253   4.477  13.827 -0.5331  0.8596  0.0985
 3389SOL    HW221630   0.297   4.500  13.690  1.1618 -0.7046  1.4359
 3390SOL     OW21631   1.432   0.814  12.150 -0.2952 -0.8716  0.2559
 3390SOL    HW121632   1.438   0.907  12.130  2.9856 -1.2277 -0.5882
 3390SOL    HW221633   1.426   0.774  12.063 -1.7787  1.7100 -0.8282
 3391SOL     OW21634   0.625   0.667   2.475  0.1901 -0.4841  0.2664
 3391SOL    HW121635   0.655   0.729   2.541  0.5551 -0.6136  0.2230
 3391SOL    HW221636   0.652   0.722   2.401 -0.3390  0.6445  0.9153
 3392SOL     OW21637   1.476   1.789   1.219  0.0288  0.6637  0.2085
 3392SOL    HW121638   1.436   1.872   1.193 -0.8625  0.2971  0.4222
 3392SOL    HW221639   1.494   1.743   1.137 -2.1068  0.8821 -0.3849
 3393SOL     OW21640   2.538   3.267  10.448  0.2346 -0.0814  0.1692
 3393SOL    HW121641   2.603   3.276  10.378  0.0262 -1.7197 -0.2387
 3393SOL    HW221642   2.467   3.220  10.404  2.3235 -2.3739 -0.8000
 3394SOL     OW21643   0.187   4.497   5.301  0.0855  0.5480  0.2139
 3394SOL    HW121644   0.191   4.577   5.353  1.8754  0.8672 -0.4579
 3394SOL    HW221645   0.168   4.539   5.217  1.9572  3.3620  1.2254
 3395SOL     OW21646   2.415   2.840   3.435  0.2144  0.2696 -1.1129
 3395SOL    HW121647   2.336   2.890   3.457  0.9246 -0.4544  2.9381
 3395SOL    HW221648   2.397   2.771   3.499  1.9366  1.3740  0.5515
 3396SOL     OW21649   2.041   3.909   1.274  0.0406  0.2452 -0.0927
 3396SOL    HW121650   1.961   3.947   1.238  1.3032  2.9513 -0.0552
 3396SOL    HW221651   2.100   3.911   1.199  1.0272 -0.4896  0.6648
 3397SOL     OW21652   0.597   3.302   7.126  0.2785  0.2509 -0.0100
 3397SOL    HW121653   0.636   3.311   7.214  1.2923 -1.3895 -0.2871
 3397SOL    HW221654   0.607   3.395   7.105 -1.3197 -0.4255 -3.6721
 3398SOL     OW21655   3.535   2.621   6.560  0.2588 -0.1777 -0.5600
 3398SOL    HW121656   3.551   2.580   6.475  1.3330 -0.6898 -0.1091
 3398SOL    HW221657   3.492   2.703   6.532 -0.9545 -0.1911  1.2532
 3399SOL     OW21658   0.750   2.555  10.234  0.3359  0.6849 -0.0755
 3399SOL    HW121659   0.828   2.525  10.281  0.7383 -0.0819 -1.2428
 3399SOL    HW221660   0.687   2.502  10.283  0.8241 -0.9445 -1.2407
 3400SOL     OW21661   3.686   4.163   1.380 -0.0468  0.0473 -0.2061
 3400SOL    HW121662   3.693   4.184   1.473 -3.5488 -1.5247  0.4086
 3400SOL    HW221663   3.616   4.221   1.351 -1.7533 -1.4159  1.0509
 3401SOL     OW21664   3.261   2.219  10.210  0.2565  0.5433  0.1713
 3401SOL    HW121665   3.339   2.271  10.228  0.4644  0.3614 -0.1982
 3401SOL    HW221666   3.200   2.278  10.166 -0.6332 -1.4008 -1.2434
 3402SOL     OW21667   2.960   4.001   8.590  0.6769 -0.1520  0.7527
 3402SOL    HW121668   3.025   3.940   8.623 -0.7050 -1.5547  0.8887
 3402SOL    HW221669   2.930   4.044   8.671 -2.5595  1.8918 -1.5161
 3403SOL     OW21670   2.095   4.713   2.024  0.1649 -0.0821  0.3033
 3403SOL    HW121671   2.098   0.027   1.937  1.5033 -2.3760 -0.6498
 3403SOL    HW221672   2.058   4.629   1.999  0.0699 -0.0281  0.2597
 3404SOL     OW21673   1.790   2.503   0.231  0.0977 -0.2637  0.2942
 3404SOL    HW121674   1.817   2.412   0.245 -0.9586 -0.7032 -0.5914
 3404SOL    HW221675   1.815   2.549   0.311  0.1294  1.1743 -0.5496
 3405SOL     OW21676   3.820   0.544  11.181  0.6703  0.3568  0.0428
 3405SOL    HW121677   3.839   0.472  11.241 -2.4389 -1.7277 -1.4693
 3405SOL    HW221678   3.728   0.566  11.197  1.2033  2.0887  0.7605
 3406SOL     OW21679   4.058   2.358   2.294  0.1846  0.1455  0.0339
 3406SOL    HW121680   3.974   2.334   2.255 -0.3970  2.0135  0.1676
 3406SOL    HW221681   4.024   2.423   2.356  1.2121 -0.1524  0.9200
 3407SOL     OW21682   0.518   2.030  12.931  0.2160 -0.1338 -0.2697
 3407SOL    HW121683   0.568   2.112  12.926 -0.9031  0.6422  1.0157
 3407SOL    HW221684   0.533   1.994  12.844  1.1076 -0.1966 -0.0923
 3408SOL     OW21685   1.174   2.709   6.956 -0.2078 -0.6210 -0.3753
 3408SOL    HW121686   1.087   2.701   6.994 -1.2930  2.1605 -2.2850
 3408SOL    HW221687   1.183   2.621   6.919  0.7418 -0.3411 -0.8089
 3409SOL     OW21688   1.311   2.954   4.148 -0.2651 -0.0124  0.2187
 3409SOL    HW121689   1.256   2.888   4.189 -1.1196 -1.1391 -2.7299
 3409SOL    HW221690   1.252   3.030   4.152 -2.2747 -1.5135 -1.3283
 3410SOL     OW21691   2.320   1.833  17.505 -0.0954 -0.0009  0.2333
 3410SOL    HW121692   2.333   1.867  17.593  3.3479  0.6923 -0.5549
 3410SOL    HW221693   2.348   1.912  17.458  1.1535 -0.7479 -0.2493
 3411SOL     OW21694   4.563   1.758   8.200 -0.2675  0.1445  0.2404
 3411SOL    HW121695   4.574   1.754   8.105  0.2554 -0.4440  0.3248
 3411SOL    HW221696   4.471   1.734   8.209 -0.5753  0.8643 -1.0645
 3412SOL     OW21697   0.624   3.923  16.513  0.7531  0.5533 -0.2250
 3412SOL    HW121698   0.592   3.931  16.423  0.8071  0.1252 -0.2808
 3412SOL    HW221699   0.547   3.880  16.548  2.0515 -0.7036  1.0685
 3413SOL     OW21700   3.957   4.478   8.722 -0.1148  0.0819 -0.2329
 3413SOL    HW121701   4.004   4.493   8.640 -0.6051  2.2857 -0.0922
 3413SOL    HW221702   3.866   4.465   8.696  0.1397  0.9198 -1.5526
 3414SOL     OW21703   1.300   0.660   4.146  0.4637 -0.8350 -0.2761
 3414SOL    HW121704   1.247   0.648   4.067 -0.0589  0.4222 -0.1170
 3414SOL    HW221705   1.280   0.576   4.186 -0.9717 -0.6274 -0.5544
 3415SOL     OW21706   4.148   3.559   2.247 -0.0375  0.4265  0.0166
 3415SOL    HW121707   4.074   3.582   2.303  0.8418 -2.5661  2.3926
 3415SOL    HW221708   4.207   3.517   2.310 -0.3324  1.6203  1.0736
 3416SOL     OW21709   4.422   2.109  14.317  0.2993 -0.1662  0.2837
 3416SOL    HW121710   4.506   2.140  14.350  0.8115 -1.7022  0.3947
 3416SOL    HW221711   4.379   2.195  14.316 -0.8803 -0.7624 -0.1214
 3417SOL     OW21712   0.905   0.256   6.368  0.0704 -0.0938  0.4658
 3417SOL    HW121713   0.985   0.204   6.379 -0.5273 -1.2830 -0.9581
 3417SOL    HW221714   0.886   0.241   6.276 -3.0705 -1.0976  1.2836
 3418SOL     OW21715   1.038   3.471   7.482 -0.7842  0.0950 -0.4693
 3418SOL    HW121716   1.080   3.384   7.480 -1.1333 -0.0910  0.5537
 3418SOL    HW221717   0.972   3.458   7.549 -2.1330 -0.6810 -1.9391
 3419SOL     OW21718   2.759   1.137   4.403 -0.3764  0.3810  0.2308
 3419SOL    HW121719   2.752   1.177   4.489  0.5639  0.3514  0.3252
 3419SOL    HW221720   2.793   1.049   4.423  0.4024  0.7193  0.3873
 3420SOL     OW21721   1.492   3.373  17.684  0.7940  0.1126 -0.5076
 3420SOL    HW121722   1.425   3.433  17.652  2.8559  0.7973 -3.6004
 3420SOL    HW221723   1.513   3.312  17.613 -1.4991 -0.8219 -0.3726
 3421SOL     OW21724   2.155   4.409   2.834  0.2402 -0.0911 -0.1320
 3421SOL    HW121725   2.108   4.351   2.894  1.8511  0.9358  2.1272
 3421SOL    HW221726   2.086   4.444   2.777  0.7380  1.6856  0.3406
 3422SOL     OW21727   3.466   3.005   8.782  0.3186 -0.0331  0.0100
 3422SOL    HW121728   3.447   2.914   8.803 -2.1367  0.5138  0.1883
 3422SOL    HW221729   3.523   3.029   8.855 -0.1620  0.7296  0.1406
 3423SOL     OW21730   2.378   0.276   0.657 -0.0133 -0.0203  0.7729
 3423SOL    HW121731   2.435   0.351   0.674 -3.7721  2.6588  1.6575
 3423SOL    HW221732   2.305   0.313   0.607  0.3826 -0.5444 -0.1691
 3424SOL     OW21733   3.064   1.063   6.658  1.0003  0.2984  0.6295
 3424SOL    HW121734   3.094   1.105   6.577 -0.7587  1.9174  0.8260
 3424SOL    HW221735   3.021   1.132   6.708 -0.9950 -0.3571 -0.1700
 3425SOL     OW21736   4.253   2.118   6.015 -0.4519 -0.0791  0.1539
 3425SOL    HW121737   4.316   2.048   6.028 -1.5554 -0.5030  3.1020
 3425SOL    HW221738   4.306   2.191   6.048 -1.6919  1.2994 -0.8845
 3426SOL     OW21739   3.871   3.460  13.912  0.1122 -0.7620  0.2081
 3426SOL    HW121740   3.960   3.493  13.899 -0.2282  0.9792  2.1781
 3426SOL    HW221741   3.874   3.366  13.898 -1.1651 -0.3560 -2.8824
 3427SOL     OW21742   3.946   1.674  17.109  0.6842  0.4550 -0.2038
 3427SOL    HW121743   3.895   1.754  17.118 -1.1886 -0.9350  1.6176
 3427SOL    HW221744   3.934   1.640  17.021 -0.4786  1.2985 -0.3684
 3428SOL     OW21745   4.009   2.675  10.878 -0.3401 -0.6725  0.5583
 3428SOL    HW121746   4.022   2.745  10.814 -0.0695 -0.3033  1.0232
 3428SOL    HW221747   4.099   2.645  10.883 -0.6224 -1.6106  0.0234
 3429SOL     OW21748   1.202   4.676   5.525  0.0630 -0.0653 -0.0181
 3429SOL    HW121749   1.226   4.584   5.542  0.7473 -0.1734 -1.5701
 3429SOL    HW221750   1.210   4.693   5.431  1.4330  0.4090  0.1747
 3430SOL     OW21751   2.414   0.398   8.634 -0.7328  0.2890 -0.5376
 3430SOL    HW121752   2.462   0.321   8.662  1.1616  0.7261 -2.5476
 3430SOL    HW221753   2.478   0.442   8.579  0.6476  0.6364  1.3476
 3431SOL     OW21754   0.839   4.444   6.387 -0.1176 -0.0234  0.2163
 3431SOL    HW121755   0.751   4.405   6.387 -0.0883 -0.0720 -0.9825
 3431SOL    HW221756   0.833   4.521   6.331 -2.5575 -1.7463 -1.8966
 3432SOL     OW21757   1.403   4.441   4.829 -0.4168  0.3995  0.7783
 3432SOL    HW121758   1.447   4.470   4.909 -1.8525  0.2315  1.6083
 3432SOL    HW221759   1.424   4.349   4.841 -0.3584 -0.0669 -2.9086
 3433SOL     OW21760   3.454   1.490   6.927 -0.3763  0.0951  0.2177
 3433SOL    HW121761   3.500   1.524   7.003  0.5706 -3.1821  1.1269
 3433SOL    HW221762   3.504   1.411   6.904 -1.5803 -0.3052 -1.0386
 3434SOL     OW21763   1.668   0.131   5.593 -0.0476 -0.0905 -0.4037
 3434SOL    HW121764   1.687   0.181   5.672 -0.1970 -0.4377 -0.1453
 3434SOL    HW221765   1.756   0.122   5.557  0.3503  1.1934  0.2516
 3435SOL     OW21766   4.207   1.374   5.057 -0.1392 -0.5744 -0.0268
 3435SOL    HW121767   4.174   1.309   5.119  1.8158 -0.7083  0.8681
 3435SOL    HW221768   4.264   1.319   5.004  1.1261 -0.8522  1.6478
 3436SOL     OW21769   3.262   0.684   0.414 -0.2439  0.1502 -0.1937
 3436SOL    HW121770   3.350   0.647   0.419 -0.2490  0.4630  2.3386
 3436SOL    HW221771   3.274   0.770   0.374 -0.8650 -0.0671 -0.8422
 3437SOL     OW21772   1.851   3.382  10.982 -0.0142 -0.1688  0.0823
 3437SOL    HW121773   1.946   3.395  10.971  0.8022 -3.9194  2.7263
 3437SOL    HW221774   1.842   3.361  11.075 -0.7343 -0.2119 -0.0004
 3438SOL     OW21775   1.506   1.607   8.752 -0.2030  0.3274 -0.2688
 3438SOL    HW121776   1.573   1.563   8.804  0.6952  0.9727 -0.8910
 3438SOL    HW221777   1.477   1.671   8.817  0.3794  1.9824 -1.6487
 3439SOL     OW21778   2.993   4.051   4.309 -0.1952  0.1712  0.6974
 3439SOL    HW121779   3.086   4.048   4.332 -0.1513 -2.1926  0.2068
 3439SOL    HW221780   2.973   4.133   4.265 -1.3287 -0.8474 -0.6857
 3440SOL     OW21781   4.116   2.207   5.300 -0.0131  0.2336  0.1091
 3440SOL    HW121782   4.091   2.221   5.208  0.4770 -1.5845 -0.2990
 3440SOL    HW221783   4.035   2.206   5.351  0.7952 -0.2815  1.3852
 3441SOL     OW21784   2.831   0.129   5.359 -0.1501 -0.4284 -0.0480
 3441SOL    HW121785   2.776   0.054   5.384 -3.9091  2.9605  1.9234
 3441SOL    HW221786   2.828   0.177   5.442 -0.1025  3.0126 -2.0640
 3442SOL     OW21787   4.296   4.041   5.881 -0.0308  0.1328 -0.0383
 3442SOL    HW121788   4.243   4.095   5.823 -0.3191 -1.6582 -1.4494
 3442SOL    HW221789   4.228   3.975   5.895  0.1839  0.1427  1.0482
 3443SOL     OW21790   3.904   4.494   3.132  0.2929  0.3277  0.6092
 3443SOL    HW121791   3.820   4.479   3.090  1.4499  1.3328 -2.0737
 3443SOL    HW221792   3.888   4.583   3.164 -1.4835  0.2591 -0.0846
 3444SOL     OW21793   3.846   1.423   5.748  0.7840  0.2854  0.1834
 3444SOL    HW121794   3.769   1.379   5.711  1.9991  0.1341 -2.2117
 3444SOL    HW221795   3.915   1.383   5.694 -0.0325  1.3742 -1.6778
 3445SOL     OW21796   3.489   1.830   2.601  0.1468 -0.5049 -0.0765
 3445SOL    HW121797   3.438   1.888   2.658  0.1960 -0.1859 -0.3526
 3445SOL    HW221798   3.489   1.742   2.638  0.3289 -0.3691  0.2469
 3446SOL     OW21799   2.530   1.423  16.123 -0.3193 -0.5430  0.3014
 3446SOL    HW121800   2.554   1.370  16.047 -4.4097 -0.1878 -1.2491
 3446SOL    HW221801   2.461   1.364  16.156 -3.3946  2.0597 -1.4366
 3447SOL     OW21802   0.578   1.338   7.204  0.5779  0.7186 -0.3830
 3447SOL    HW121803   0.640   1.410   7.199  2.6904 -1.2061 -1.7539
 3447SOL    HW221804   0.638   1.286   7.258 -1.7208 -1.8888 -0.3176
 3448SOL     OW21805   0.566   2.172   1.545  0.2856 -0.3840 -0.0713
 3448SOL    HW121806   0.617   2.232   1.491  2.0812 -1.7235  0.1356
 3448SOL    HW221807   0.566   2.226   1.624 -0.3100 -1.3587  0.5941
 3449SOL     OW21808   0.041   1.387  14.991 -0.2644 -0.1325 -0.1387
 3449SOL    HW121809   0.001   1.374  15.077 -0.0160  0.1257  0.0141
 3449SOL    HW221810   0.084   1.302  14.984  0.6812  0.0337  3.7827
 3450SOL     OW21811   0.710   1.144   5.971 -0.3656 -0.2721 -0.2516
 3450SOL    HW121812   0.698   1.123   5.878 -0.5501  1.2305 -0.5740
 3450SOL    HW221813   0.746   1.063   6.006  0.0107  0.4702  1.0814
 3451SOL     OW21814   2.875   2.312   9.629  0.4210  0.6029  0.0154
 3451SOL    HW121815   2.821   2.371   9.576 -3.0447 -2.4020  0.2678
 3451SOL    HW221816   2.851   2.231   9.584 -1.7362  2.2398 -1.7834
 3452SOL     OW21817   3.068   2.470  10.929 -0.0634  0.0540  0.3516
 3452SOL    HW121818   3.159   2.457  10.956  0.3838  2.7753  0.1908
 3452SOL    HW221819   3.081   2.523  10.850  0.2383 -0.5221  0.0169
 3453SOL     OW21820   1.096   2.898   7.468  0.0962  0.2408  0.4976
 3453SOL    HW121821   1.050   2.834   7.413 -0.4288  0.3158  0.8488
 3453SOL    HW221822   1.133   2.844   7.537  2.4173  0.3378 -0.6871
 3454SOL     OW21823   0.871   2.554   1.874  0.0983 -0.2873 -0.1470
 3454SOL    HW121824   0.901   2.463   1.871 -1.4770 -0.8063 -0.0805
 3454SOL    HW221825   0.917   2.602   1.943  0.8237  0.7879 -1.3936
 3455SOL     OW21826   0.777   3.390   5.383 -0.3240 -0.0882  0.9769
 3455SOL    HW121827   0.773   3.479   5.349 -0.2311 -1.1156 -1.6572
 3455SOL    HW221828   0.694   3.388   5.431 -1.2653  0.7709 -0.6263
 3456SOL     OW21829   3.953   3.718   7.281 -0.1754 -0.1725 -0.0579
 3456SOL    HW121830   4.025   3.699   7.341 -0.6883  1.9146  1.2174
 3456SOL    HW221831   3.878   3.676   7.323  0.2420 -0.0335  0.8352
 3457SOL     OW21832   1.628   0.614   0.910  0.1086  0.6155  0.5326
 3457SOL    HW121833   1.554   0.588   0.855  1.5297  0.3745 -1.2676
 3457SOL    HW221834   1.682   0.657   0.843 -1.7071 -1.1087 -2.0481
 3458SOL     OW21835   1.850   1.012   9.473  0.2482 -0.0072  0.2695
 3458SOL    HW121836   1.909   0.947   9.511  1.5989  0.7845 -0.4723
 3458SOL    HW221837   1.767   0.964   9.463 -0.1134  0.9344 -1.2168
 3459SOL     OW21838   1.206   3.573   5.843  0.6494 -0.0979 -0.2897
 3459SOL    HW121839   1.122   3.568   5.798  0.5368 -0.4099 -0.0409
 3459SOL    HW221840   1.192   3.609   5.930  0.3316 -1.7341  0.3356
 3460SOL     OW21841   2.728   2.385   8.931  0.0643  0.0252 -0.4986
 3460SOL    HW121842   2.818   2.389   8.899  0.2068 -0.0268 -0.0987
 3460SOL    HW221843   2.743   2.380   9.025 -2.6063  2.3703  0.0688
 3461SOL     OW21844   4.629   2.593   5.158  0.4428 -0.1547 -0.2330
 3461SOL    HW121845   4.591   2.538   5.226  0.6100 -0.5699 -0.4764
 3461SOL    HW221846   4.716   2.552   5.160 -0.6111 -2.3543  0.4756
 3462SOL     OW21847   0.874   1.016  11.034  0.0948  0.1287 -0.0879
 3462SOL    HW121848   0.840   1.074  10.966 -0.8394 -0.4188 -0.0925
 3462SOL    HW221849   0.927   0.959  10.979  1.2360  0.3440  0.7860
 3463SOL     OW21850   4.480   0.155   6.417 -0.1364 -0.3160  0.4099
 3463SOL    HW121851   4.502   0.143   6.324  0.3671 -0.6922  0.5795
 3463SOL    HW221852   4.389   0.183   6.413  0.0104  0.0649 -0.4151
 3464SOL     OW21853   0.899   1.548   5.343  0.0526  0.6115  0.4055
 3464SOL    HW121854   0.903   1.641   5.322  2.5120  0.6161  0.9548
 3464SOL    HW221855   0.845   1.538   5.422 -1.6658 -0.4942 -0.9035
 3465SOL     OW21856   2.676   2.528  11.764 -0.0839  0.0211  0.5486
 3465SOL    HW121857   2.684   2.463  11.835 -3.2734 -1.5389 -0.5173
 3465SOL    HW221858   2.701   2.486  11.682 -0.2528  2.3478 -0.6686
 3466SOL     OW21859   2.748   1.259   2.400 -0.2982 -0.1799 -0.1380
 3466SOL    HW121860   2.807   1.323   2.360  1.7467 -2.5787 -0.9490
 3466SOL    HW221861   2.661   1.293   2.378 -0.4394 -1.1879 -1.1316
 3467SOL     OW21862   4.135   4.279   4.901  0.2208  0.3156  0.0500
 3467SOL    HW121863   4.074   4.254   4.831  4.2706 -2.5956 -2.4172
 3467SOL    HW221864   4.198   4.208   4.888 -0.9954 -0.6728 -0.5060
 3468SOL     OW21865   1.714   0.046   9.836  0.1516 -0.0754 -0.1245
 3468SOL    HW121866   1.800   0.016   9.866 -0.0876  0.6271  1.3000
 3468SOL    HW221867   1.660   4.691   9.839  0.7377 -0.4875 -0.5530
 3469SOL     OW21868   4.010   1.937   5.800 -0.0703  0.1825 -0.6587
 3469SOL    HW121869   4.016   2.030   5.824 -2.2652 -0.1386  1.1472
 3469SOL    HW221870   4.041   1.899   5.882 -0.2225  0.7652 -0.3287
 3470SOL     OW21871   1.609   3.650   7.346 -0.0257  0.0847  0.7687
 3470SOL    HW121872   1.555   3.589   7.396 -1.9651  2.2240  1.2707
 3470SOL    HW221873   1.550   3.715   7.307  1.2350  0.5039 -0.4567
 3471SOL     OW21874   1.770   4.604   6.252 -0.3685  0.2853 -0.1671
 3471SOL    HW121875   1.714   4.527   6.256  0.5200 -0.3612 -0.1902
 3471SOL    HW221876   1.860   4.573   6.246  0.1792  1.7578  0.3754
 3472SOL     OW21877   2.528   0.238   8.188  0.1701  0.1813 -0.4260
 3472SOL    HW121878   2.546   0.297   8.115  3.5067 -1.4464 -0.9286
 3472SOL    HW221879   2.439   0.205   8.177  0.8789 -1.5697 -0.9264
 3473SOL     OW21880   1.240   3.517   8.701  0.0963  0.7374 -0.4073
 3473SOL    HW121881   1.185   3.568   8.760  2.8238  2.0541  1.0366
 3473SOL    HW221882   1.323   3.529   8.748 -0.9375  0.7055  1.4501
 3474SOL     OW21883   3.704   1.666   1.723 -0.4495 -0.2440 -0.2231
 3474SOL    HW121884   3.776   1.693   1.665  1.0317  1.2668  2.2900
 3474SOL    HW221885   3.741   1.584   1.756  1.7547 -0.0880 -2.2758
 3475SOL     OW21886   4.320   0.502   0.678  0.2162 -0.3284 -0.1953
 3475SOL    HW121887   4.247   0.518   0.617 -0.8134 -0.9799  0.8576
 3475SOL    HW221888   4.396   0.514   0.622  1.6538 -1.0567  1.6071
 3476SOL     OW21889   4.603   2.447   4.402 -0.0141  0.4829  0.0585
 3476SOL    HW121890   4.688   2.420   4.367  0.9570  2.5968  0.7577
 3476SOL    HW221891   4.600   2.543   4.400 -0.1042  0.4763 -0.0674
 3477SOL     OW21892   2.298   4.364   6.308  0.3805  0.3522 -0.2630
 3477SOL    HW121893   2.269   4.283   6.351 -0.1138  1.0907  0.7980
 3477SOL    HW221894   2.330   4.323   6.227 -1.6184 -0.7112 -0.5033
 3478SOL     OW21895   1.525   0.995   6.812  0.7942 -0.3241  0.6353
 3478SOL    HW121896   1.527   0.968   6.904  3.0383  1.6034  1.1252
 3478SOL    HW221897   1.537   1.087   6.836  2.9235 -0.7519  1.2097
 3479SOL     OW21898   2.132   1.807   4.783  0.1281 -0.3814  0.1793
 3479SOL    HW121899   2.121   1.712   4.778  0.4856 -0.3672 -1.0243
 3479SOL    HW221900   2.124   1.823   4.877  2.5674  2.3087 -0.0400
 3480SOL     OW21901   0.248   0.260   4.760 -0.1496 -0.3434  0.1323
 3480SOL    HW121902   0.173   0.284   4.814 -0.4058 -0.5817 -0.1201
 3480SOL    HW221903   0.216   0.251   4.671  1.8208  1.2831 -0.7412
 3481SOL     OW21904   1.164   3.756  17.678  0.0906 -0.6701 -0.2715
 3481SOL    HW121905   1.187   3.848  17.693  1.7132 -1.1282  0.0371
 3481SOL    HW221906   1.246   3.710  17.659  1.2854  1.3295  0.0630
 3482SOL     OW21907   4.362   4.442   7.951  0.2760  0.3094 -0.1152
 3482SOL    HW121908   4.422   4.427   8.024  0.9185 -0.4076 -0.7849
 3482SOL    HW221909   4.292   4.484   8.000  0.2961 -1.8306  1.7209
 3483SOL     OW21910   4.003   4.009  12.300  0.0571 -0.2065 -0.1684
 3483SOL    HW121911   3.955   3.942  12.251  0.0813  0.9700 -1.8179
 3483SOL    HW221912   4.095   3.981  12.299 -0.1598 -0.8822 -0.7141
 3484SOL     OW21913   1.677   0.663   1.162  0.3703  0.2737 -0.0721
 3484SOL    HW121914   1.769   0.684   1.151  0.3789  1.1624  1.6767
 3484SOL    HW221915   1.648   0.636   1.075  1.0835 -0.6980 -0.0032
 3485SOL     OW21916   3.283   2.668   3.329  0.4936  0.3639 -0.1084
 3485SOL    HW121917   3.266   2.629   3.243 -2.4995 -1.8272  1.4563
 3485SOL    HW221918   3.194   2.675   3.363 -0.2936 -0.6568 -1.9168
 3486SOL     OW21919   2.054   2.259   1.805 -0.0843  0.7414 -0.3205
 3486SOL    HW121920   1.983   2.306   1.761 -1.9881  0.1075  2.0654
 3486SOL    HW221921   2.054   2.178   1.754 -2.0824 -1.5622  3.2826
 3487SOL     OW21922   2.636   0.714   8.574 -0.4905  0.1877 -0.2272
 3487SOL    HW121923   2.542   0.733   8.571 -0.4995  0.2474  0.3963
 3487SOL    HW221924   2.650   0.676   8.660 -0.2566  2.0229  0.5372
 3488SOL     OW21925   0.109   0.891   8.451  0.5995 -0.0451  0.4029
 3488SOL    HW121926   0.093   0.887   8.545  2.1986  0.7263  0.7044
 3488SOL    HW221927   0.042   0.832   8.414  1.0042  0.2340 -0.7958
 3489SOL     OW21928   3.268   1.703   6.146 -0.5124 -0.4699 -0.3365
 3489SOL    HW121929   3.310   1.705   6.232  1.0283 -1.8489 -1.0657
 3489SOL    HW221930   3.216   1.783   6.144 -0.6467 -0.5185  1.2817
 3490SOL     OW21931   0.213   2.502   7.760 -0.4951 -0.1354 -0.2341
 3490SOL    HW121932   0.183   2.579   7.809 -1.7271 -0.5011 -0.4131
 3490SOL    HW221933   0.196   2.525   7.668  2.6664 -0.3178 -0.8423
 3491SOL     OW21934   4.495   3.923  11.609 -0.6274 -0.2505 -0.2041
 3491SOL    HW121935   4.425   3.986  11.592  0.2793  0.9433  0.5110
 3491SOL    HW221936   4.555   3.931  11.534 -0.9207 -2.1840 -0.6655
 3492SOL     OW21937   3.849   3.814  11.251 -0.3408  0.2822  0.2130
 3492SOL    HW121938   3.788   3.769  11.310  0.5393 -0.0049  0.9019
 3492SOL    HW221939   3.912   3.753  11.214 -0.5306  1.0476 -1.3423
 3493SOL     OW21940   3.466   4.123   1.701  0.0236  0.2568 -1.0659
 3493SOL    HW121941   3.434   4.122   1.792  2.0845 -1.4346 -0.3413
 3493SOL    HW221942   3.523   4.200   1.698 -0.7669  1.0187  2.6914
 3494SOL     OW21943   2.168   3.731   8.508  0.1830 -0.2866  0.3424
 3494SOL    HW121944   2.158   3.826   8.511 -1.2664 -0.5401  3.1855
 3494SOL    HW221945   2.186   3.714   8.415  3.4388  1.3308  0.6780
 3495SOL     OW21946   3.079   1.919   2.650  0.5281  0.3107 -0.1979
 3495SOL    HW121947   3.078   1.823   2.656  2.2141  0.3589  0.8218
 3495SOL    HW221948   3.157   1.951   2.695 -0.8579 -0.4800  2.8029
 3496SOL     OW21949   1.360   2.835   1.588  0.2310  0.5323 -0.0925
 3496SOL    HW121950   1.444   2.837   1.543  0.1120  1.5616 -0.2719
 3496SOL    HW221951   1.367   2.900   1.658 -1.5022  0.3641  0.2441
 3497SOL     OW21952   4.375   1.616   2.183  0.1948 -0.1133 -0.1625
 3497SOL    HW121953   4.364   1.523   2.163  1.9582 -0.3158 -0.1161
 3497SOL    HW221954   4.468   1.631   2.194  0.1921  0.1099 -0.4412
 3498SOL     OW21955   0.426   3.602   9.116  0.0352 -0.0342  0.5133
 3498SOL    HW121956   0.403   3.661   9.189 -0.2352 -0.2763  0.6228
 3498SOL    HW221957   0.428   3.663   9.043 -1.9342  0.6410  1.0126
 3499SOL     OW21958   0.810   0.531   3.390  0.3109  0.2923  0.0734
 3499SOL    HW121959   0.890   0.510   3.437  1.1696  0.5937 -1.2584
 3499SOL    HW221960   0.766   0.448   3.409 -0.0584  0.2528 -0.9640
 3500SOL     OW21961   0.910   0.153   2.999 -0.3781 -0.1445  0.2834
 3500SOL    HW121962   0.878   0.088   2.937  2.0718 -1.1635  0.0915
 3500SOL    HW221963   0.901   0.099   3.077  0.1564 -0.5771  0.0449
 3501SOL     OW21964   0.459   1.539  11.044 -0.1691  0.0420 -0.0058
 3501SOL    HW121965   0.483   1.573  11.130 -1.1495 -0.2714  0.3973
 3501SOL    HW221966   0.489   1.448  11.051 -2.2703 -0.7027 -0.4527
 3502SOL     OW21967   1.560   1.121  15.513 -0.0250 -0.8830 -0.3452
 3502SOL    HW121968   1.468   1.110  15.537  0.3062  0.7435  1.6207
 3502SOL    HW221969   1.572   1.207  15.553  0.5862 -0.6095 -1.1041
 3503SOL     OW21970   2.107   2.131   4.428 -0.6101 -0.4271 -0.0347
 3503SOL    HW121971   2.109   2.041   4.459 -0.1404 -0.5279 -0.3596
 3503SOL    HW221972   2.145   2.123   4.341 -0.0228  1.4357  0.0423
 3504SOL     OW21973   0.526   4.087  14.575  0.1240 -0.1882  0.3219
 3504SOL    HW121974   0.572   4.171  14.574  1.0483 -0.7019  0.1973
 3504SOL    HW221975   0.544   4.055  14.664 -0.6406 -1.3170  0.0575
 3505SOL     OW21976   4.550   3.421   5.033  0.0121 -0.3055  0.1402
 3505SOL    HW121977   4.578   3.470   5.111  0.6315 -1.3478  0.5814
 3505SOL    HW221978   4.527   3.485   4.967 -0.4484 -0.2466  0.3558
 3506SOL     OW21979   1.348   3.543   6.693 -0.7454 -0.3037 -0.2978
 3506SOL    HW121980   1.360   3.465   6.638 -0.1469  0.4181 -1.1931
 3506SOL    HW221981   1.275   3.540   6.755 -0.7903  0.6675 -0.3097
 3507SOL     OW21982   2.360   2.313   3.275 -0.2740  0.4896 -0.4110
 3507SOL    HW121983   2.327   2.402   3.290  2.8154  1.6607 -0.4950
 3507SOL    HW221984   2.432   2.336   3.216 -1.6551  1.0407 -1.8923
 3508SOL     OW21985   2.253   4.623   8.763 -0.3750  0.2896 -0.4578
 3508SOL    HW121986   2.321   4.613   8.697  1.4041 -1.0618  1.6165
 3508SOL    HW221987   2.291   4.695   8.814  0.2931 -1.0406  0.8986
 3509SOL     OW21988   1.029   2.371   7.108 -0.1191  0.0796 -0.4952
 3509SOL    HW121989   0.947   2.361   7.156  0.8216  0.1800  1.1142
 3509SOL    HW221990   1.073   2.293   7.141 -0.7880 -0.2267 -0.3180
 3510SOL     OW21991   3.401   4.504   3.172  0.2837  0.7424  0.1675
 3510SOL    HW121992   3.372   4.526   3.260  1.6085  2.0909  0.2587
 3510SOL    HW221993   3.342   4.435   3.142  0.9233  0.2526  0.0615
 3511SOL     OW21994   4.285   1.483   1.850 -0.7765  0.0098  0.3941
 3511SOL    HW121995   4.287   1.544   1.776  1.6286  0.8187  1.1235
 3511SOL    HW221996   4.374   1.486   1.886 -0.2701  0.6695 -0.9003
 3512SOL     OW21997   0.421   1.432   5.170 -0.1485 -0.1515 -0.1869
 3512SOL    HW121998   0.448   1.513   5.127  1.8834 -1.0685 -0.6196
 3512SOL    HW221999   0.458   1.441   5.257 -0.2024 -1.0542 -0.0671
 3513SOL     OW22000   2.832   3.731   6.383 -0.4398  0.1502 -0.1556
 3513SOL    HW122001   2.810   3.650   6.429 -0.7961  0.3299 -0.0098
 3513SOL    HW222002   2.801   3.711   6.295 -3.4747  0.4582  0.8650
 3514SOL     OW22003   1.855   4.169   9.028  0.5866  0.2640 -0.3443
 3514SOL    HW122004   1.844   4.088   9.078 -0.9891  0.8392  0.2119
 3514SOL    HW222005   1.870   4.131   8.941  0.5990 -0.6807  0.0640
 3515SOL     OW22006   2.724   0.344  12.548 -0.2316 -0.1361 -0.0518
 3515SOL    HW122007   2.793   0.282  12.570 -1.0463 -0.6391  1.1155
 3515SOL    HW222008   2.762   0.415  12.497 -1.3977 -1.0108 -2.1500
 3516SOL     OW22009   3.938   1.241   3.998  0.4192  0.2839  0.1295
 3516SOL    HW122010   4.002   1.173   4.020 -1.6981 -1.3925  1.1291
 3516SOL    HW222011   3.877   1.208   4.064 -1.0705  3.6857  0.4308
 3517SOL     OW22012   1.978   3.447   2.094  0.9987  0.1975  0.2976
 3517SOL    HW122013   1.912   3.480   2.033  0.2460 -2.3195 -0.2330
 3517SOL    HW222014   1.985   3.523   2.152 -0.2510  1.1376 -0.7872
 3518SOL     OW22015   2.179   2.790   3.027  0.4323 -0.2732  0.3666
 3518SOL    HW122016   2.149   2.771   3.116 -1.1645 -0.0240 -0.1297
 3518SOL    HW222017   2.113   2.853   2.997 -0.0903 -1.0953 -0.2277
 3519SOL     OW22018   2.727   1.932   8.313  0.2970  0.0937 -0.2415
 3519SOL    HW122019   2.771   1.930   8.399  0.2893  0.5307 -0.2300
 3519SOL    HW222020   2.656   1.994   8.330 -1.6148 -2.4932  1.2785
 3520SOL     OW22021   2.953   1.403  14.444 -0.1630  0.1965 -0.0131
 3520SOL    HW122022   3.025   1.465  14.444  0.6047 -0.7169 -2.1790
 3520SOL    HW222023   2.888   1.453  14.394 -0.0701  0.7005  0.3630
 3521SOL     OW22024   0.516   4.426   3.255  0.1334  0.1641 -0.2907
 3521SOL    HW122025   0.442   4.391   3.306 -0.0738  1.2801  0.1596
 3521SOL    HW222026   0.507   4.359   3.188  0.3489 -0.0541 -0.1026
 3522SOL     OW22027   2.051   4.705   2.822 -0.5861 -0.1380  0.6026
 3522SOL    HW122028   2.012   4.629   2.778 -0.6563 -0.5729  1.4174
 3522SOL    HW222029   2.118   0.011   2.761  0.4496  0.4216  2.0196
 3523SOL     OW22030   1.153   3.654   4.552  0.0473  0.2104 -0.1193
 3523SOL    HW122031   1.089   3.715   4.589 -2.1769 -1.7251 -0.8052
 3523SOL    HW222032   1.198   3.627   4.632  2.1354  1.7583 -0.7640
 3524SOL     OW22033   1.380   1.733   3.995 -0.1322 -0.2704 -0.0255
 3524SOL    HW122034   1.384   1.659   3.934  0.7728 -1.1934  1.1385
 3524SOL    HW222035   1.318   1.799   3.963  0.4156  0.8132  1.1618
 3525SOL     OW22036   1.900   2.077   5.674 -0.1979 -0.1352 -0.1872
 3525SOL    HW122037   1.849   2.158   5.685 -1.6344 -0.9788 -0.5390
 3525SOL    HW222038   1.970   2.114   5.620  1.1790 -0.8648  1.1247
 3526SOL     OW22039   1.189   2.079   9.462  1.2487 -0.6179  0.3108
 3526SOL    HW122040   1.226   2.142   9.401  0.5127  2.4852  3.0137
 3526SOL    HW222041   1.242   2.088   9.541  0.9613  0.5138  0.3811
 3527SOL     OW22042   1.587   0.328   6.067 -0.2469  0.4502  0.4794
 3527SOL    HW122043   1.634   0.247   6.047 -1.5386 -0.3877  0.8700
 3527SOL    HW222044   1.606   0.324   6.160  1.1584  1.7720  0.2416
 3528SOL     OW22045   1.601   1.908   9.861 -0.1062  0.2731  0.1173
 3528SOL    HW122046   1.692   1.927   9.839  0.5154 -0.1512  2.2783
 3528SOL    HW222047   1.557   1.866   9.787  0.4433  1.3234 -0.8090
 3529SOL     OW22048   3.733   2.686  10.178  0.4299  0.3459 -0.0553
 3529SOL    HW122049   3.681   2.616  10.140  0.0503  0.1207  0.8811
 3529SOL    HW222050   3.661   2.721  10.232 -1.7763 -3.6106 -0.4268
 3530SOL     OW22051   3.397   1.981   3.825 -0.2601  0.2983  0.5447
 3530SOL    HW122052   3.346   1.901   3.836 -2.2052  1.1993 -1.9419
 3530SOL    HW222053   3.488   1.951   3.824 -0.3647 -0.0062  0.2856
 3531SOL     OW22054   0.402   3.473  13.454  0.3202 -0.1529  0.3481
 3531SOL    HW122055   0.384   3.565  13.477 -2.4373 -1.3184  2.8091
 3531SOL    HW222056   0.427   3.474  13.362 -2.4234  3.0203 -0.3786
 3532SOL     OW22057   3.308   0.804   2.572 -0.0748  0.5752 -0.1625
 3532SOL    HW122058   3.399   0.832   2.581  0.6160 -2.2064  1.2421
 3532SOL    HW222059   3.291   0.796   2.478  0.6750  0.7543 -0.3099
 3533SOL     OW22060   1.741   2.327  15.309 -0.3861 -0.4405 -1.0773
 3533SOL    HW122061   1.809   2.340  15.376  1.0833  1.8375 -2.9817
 3533SOL    HW222062   1.756   2.413  15.269 -0.2350  0.3483  0.7025
 3534SOL     OW22063   3.200   3.459   3.740 -0.9206 -0.3772  0.3932
 3534SOL    HW122064   3.192   3.401   3.664 -1.7904  1.3044 -0.8115
 3534SOL    HW222065   3.114   3.500   3.743 -1.4355 -1.2885 -1.6974
 3535SOL     OW22066   1.595   2.093   2.440  0.4158 -0.1333 -0.0031
 3535SOL    HW122067   1.674   2.130   2.480  2.2403 -2.2464 -1.5919
 3535SOL    HW222068   1.542   2.171   2.426  0.0303 -0.7172 -1.8596
 3536SOL     OW22069   1.201   3.447   5.272 -0.0386  0.6869  0.0129
 3536SOL    HW122070   1.130   3.457   5.335  1.7372 -0.1998  2.1728
 3536SOL    HW222071   1.147   3.454   5.193 -0.7519  2.4683  0.6594
 3537SOL     OW22072   3.221   0.100  14.181 -0.4433 -0.0070  0.1687
 3537SOL    HW122073   3.250   0.190  14.165 -0.8476  0.0835 -0.0518
 3537SOL    HW222074   3.219   0.099  14.277  1.0520  3.0517  0.2540
 3538SOL     OW22075   4.317   1.222   4.228  0.4873 -0.6344  0.0254
 3538SOL    HW122076   4.385   1.255   4.169 -1.0655  0.2369 -1.2914
 3538SOL    HW222077   4.360   1.138   4.242  0.7212  0.4500  5.9766
 3539SOL     OW22078   2.774   2.212  15.510  0.2733  0.5447 -0.1206
 3539SOL    HW122079   2.714   2.219  15.584  3.0418  1.7377  2.0178
 3539SOL    HW222080   2.771   2.117  15.495  0.6899  0.3948  0.7128
 3540SOL     OW22081   3.671   1.107   4.800  0.3070 -0.1587  0.3369
 3540SOL    HW122082   3.734   1.152   4.744  1.6730 -1.8531  0.5125
 3540SOL    HW222083   3.590   1.134   4.755 -0.2494 -1.0721  0.7925
 3541SOL     OW22084   3.480   0.110   1.000  0.2910 -0.0133 -0.1518
 3541SOL    HW122085   3.453   0.103   0.909 -2.3400  1.4081  0.5296
 3541SOL    HW222086   3.444   0.027   1.031  2.3847 -1.1595 -0.7512
 3542SOL     OW22087   1.260   2.875   6.425 -0.3640 -0.2095 -0.1771
 3542SOL    HW122088   1.230   2.928   6.499 -1.1350 -0.2067 -0.4855
 3542SOL    HW222089   1.318   2.810   6.466  1.1569  0.5008 -1.2366
 3543SOL     OW22090   0.451   1.560  11.321  0.0104  0.4099 -0.1250
 3543SOL    HW122091   0.358   1.545  11.337 -0.1211  0.1516 -1.1444
 3543SOL    HW222092   0.490   1.511  11.394 -4.0928 -0.1224  1.6759
 3544SOL     OW22093   2.475   4.619   2.884  0.1490  0.4241 -0.1164
 3544SOL    HW122094   2.392   4.659   2.910 -0.3111 -0.1114 -0.7392
 3544SOL    HW222095   2.520   4.693   2.843 -1.3811  1.6201  0.3803
 3545SOL     OW22096   1.217   1.377   2.418  0.5652  0.4908 -0.5932
 3545SOL    HW122097   1.215   1.459   2.369  0.1241  2.1019  2.1695
 3545SOL    HW222098   1.300   1.389   2.464  0.9803  0.1117 -1.2308
 3546SOL     OW22099   1.322   4.443   5.499  0.0803 -0.3354 -0.7260
 3546SOL    HW122100   1.417   4.446   5.493  0.2941 -0.9946  2.0602
 3546SOL    HW222101   1.306   4.377   5.567  1.3435  2.2370  2.0737
 3547SOL     OW22102   1.248   2.500   4.999  0.0952 -0.1016  0.1997
 3547SOL    HW122103   1.155   2.512   4.981  0.6387  0.5017 -2.1836
 3547SOL    HW222104   1.282   2.566   4.939 -1.4380 -1.2693 -1.9500
 3548SOL     OW22105   2.369   1.439   7.626  0.0899  0.0654  1.0122
 3548SOL    HW122106   2.357   1.388   7.706 -1.2431  1.0375  1.4302
 3548SOL    HW222107   2.329   1.523   7.647  0.4915 -0.1944  2.8215
 3549SOL     OW22108   2.242   4.194   7.578  0.0403  0.6739  0.0332
 3549SOL    HW122109   2.229   4.161   7.489 -1.5233 -1.8585  1.1883
 3549SOL    HW222110   2.313   4.257   7.566  2.0236 -1.4880  0.2089
 3550SOL     OW22111   4.677   4.398  14.491 -0.5296  0.2800 -0.3989
 3550SOL    HW122112   4.675   4.492  14.508  0.9086  0.3030 -0.3254
 3550SOL    HW222113   0.011   4.379  14.564 -0.7596 -4.9456 -1.5849
 3551SOL     OW22114   0.071   2.910   7.122  0.3560  0.1865 -0.2931
 3551SOL    HW122115   4.718   2.860   7.148  2.1090 -2.1999  0.3677
 3551SOL    HW222116   0.109   2.950   7.200 -0.3366 -0.3829  0.3351
 3552SOL     OW22117   1.796   1.499   6.021  0.3240  0.2056  0.1562
 3552SOL    HW122118   1.810   1.591   5.997 -2.3812 -0.0329 -2.3223
 3552SOL    HW222119   1.881   1.466   5.992 -0.3944 -0.8397 -0.7629
 3553SOL     OW22120   4.011   2.697  11.301  0.3003 -0.8611  0.5792
 3553SOL    HW122121   3.970   2.637  11.363  1.6840 -2.9719 -0.5467
 3553SOL    HW222122   4.093   2.713  11.348 -0.5830  0.0917  1.7881
 3554SOL     OW22123   1.752   3.637   0.264 -0.2014  0.0150  0.0297
 3554SOL    HW122124   1.675   3.584   0.283 -1.2360  1.9801  1.2358
 3554SOL    HW222125   1.718   3.697   0.198  2.1387 -0.6588 -1.8163
 3555SOL     OW22126   2.265   0.942  10.911 -0.1592 -0.3910 -0.5679
 3555SOL    HW122127   2.310   1.021  10.942 -1.4616 -0.6423  1.9482
 3555SOL    HW222128   2.338   0.881  10.925 -0.6573 -0.3514  2.0838
 3556SOL     OW22129   2.572   2.791  10.396  0.1531 -0.6315  0.5449
 3556SOL    HW122130   2.551   2.704  10.363  1.0428 -0.4066 -0.6109
 3556SOL    HW222131   2.662   2.798  10.363 -0.0528  0.7191  0.2876
 3557SOL     OW22132   0.190   4.009   4.590  0.2796  0.4001 -0.0897
 3557SOL    HW122133   0.108   4.032   4.546  0.9847  1.8001 -0.6590
 3557SOL    HW222134   0.212   3.934   4.534 -0.8746  0.4134 -0.5530
 3558SOL     OW22135   1.869   4.101   3.418 -0.0754 -0.3383  0.0797
 3558SOL    HW122136   1.931   4.162   3.376  1.2456 -1.0004  1.0530
 3558SOL    HW222137   1.912   4.088   3.503  0.2062 -0.5600 -0.0955
 3559SOL     OW22138   1.514   3.796   5.547  0.5377  0.0727  0.4799
 3559SOL    HW122139   1.549   3.724   5.599 -0.4366 -0.9906 -0.3429
 3559SOL    HW222140   1.479   3.752   5.470 -1.9015  0.3360  1.4377
 3560SOL     OW22141   3.315   1.254   6.544 -0.1280 -0.1706  0.1221
 3560SOL    HW122142   3.325   1.303   6.462  1.0369  0.2420  0.5074
 3560SOL    HW222143   3.249   1.307   6.589 -0.4826 -0.4248 -0.1060
 3561SOL     OW22144   0.662   0.476   1.266 -0.0892  0.3658 -0.5173
 3561SOL    HW122145   0.735   0.487   1.328 -0.3633  1.1566 -0.3295
 3561SOL    HW222146   0.605   0.423   1.322  1.5164 -1.0838 -0.2655
 3562SOL     OW22147   3.853   0.923  11.158 -0.1544 -0.4063 -0.0982
 3562SOL    HW122148   3.794   0.969  11.099  0.6507  0.9146  0.1297
 3562SOL    HW222149   3.786   0.862  11.192  0.1935  0.0036  1.3226
 3563SOL     OW22150   1.331   3.517   2.587  0.2965  0.1138  0.2015
 3563SOL    HW122151   1.267   3.581   2.557  1.5715  1.6789  0.8373
 3563SOL    HW222152   1.288   3.435   2.563  0.3844 -0.3189  1.5006
 3564SOL     OW22153   2.521   0.098  15.895  0.1554  0.8120  0.0181
 3564SOL    HW122154   2.434   0.108  15.934 -0.8457 -0.8349 -1.7816
 3564SOL    HW222155   2.501   0.051  15.814 -0.0383  1.3421 -0.2413
 3565SOL     OW22156   0.578   0.053   3.515  0.2824 -0.2423  0.6874
 3565SOL    HW122157   0.506   4.714   3.509  0.9908 -0.8330 -1.4460
 3565SOL    HW222158   0.569   0.115   3.443  0.8491  1.6869  2.2972
 3566SOL     OW22159   0.554   2.282  13.300  0.1602  0.6389  0.2224
 3566SOL    HW122160   0.596   2.264  13.384  0.2397 -1.5480 -0.3059
 3566SOL    HW222161   0.473   2.232  13.306  0.7000 -0.1201  0.9463
 3567SOL     OW22162   2.852   1.051   4.158 -0.4063  0.2604  0.3298
 3567SOL    HW122163   2.770   1.025   4.116 -0.5630 -0.7538  1.2511
 3567SOL    HW222164   2.831   1.083   4.246 -3.2574 -3.2577  0.9343
 3568SOL     OW22165   2.175   2.905  10.342 -0.3169 -0.0845  0.0858
 3568SOL    HW122166   2.147   2.815  10.326 -0.8901 -0.0536  0.9295
 3568SOL    HW222167   2.164   2.943  10.255 -2.0034 -1.6845 -0.3910
 3569SOL     OW22168   4.371   3.574   8.713  0.0001 -0.4414 -0.5780
 3569SOL    HW122169   4.355   3.580   8.619 -0.6430 -1.0361 -0.5058
 3569SOL    HW222170   4.368   3.483   8.743  1.8174 -0.8642 -1.6555
 3570SOL     OW22171   4.697   3.749   6.943  0.2679 -0.3982  0.0376
 3570SOL    HW122172   0.042   3.809   6.917 -0.5272  1.0688  1.2516
 3570SOL    HW222173   0.012   3.662   6.941  0.9861 -0.1027  1.7319
 3571SOL     OW22174   1.918   0.799   0.571  0.2063 -0.2659 -0.0989
 3571SOL    HW122175   1.990   0.780   0.631 -0.1980 -0.0119  0.4648
 3571SOL    HW222176   1.970   0.793   0.491  1.1155 -1.0028  0.5441
 3572SOL     OW22177   2.186   4.194   4.163 -0.3809 -0.4136  0.2711
 3572SOL    HW122178   2.159   4.271   4.213 -1.7003 -0.8806  0.2820
 3572SOL    HW222179   2.239   4.168   4.239 -0.7521  0.1107  0.7134
 3573SOL     OW22180   0.309   0.198  17.303  0.9084  0.2528 -0.1367
 3573SOL    HW122181   0.348   0.149  17.374  1.1900  0.1716 -0.3476
 3573SOL    HW222182   0.286   0.278  17.352 -1.0915 -0.1948 -0.3282
 3574SOL     OW22183   2.538   0.345   7.332 -0.0158  0.0192  0.3659
 3574SOL    HW122184   2.455   0.298   7.332 -0.8333  1.4623 -3.9998
 3574SOL    HW222185   2.520   0.432   7.369  0.3973  0.3037 -0.0916
 3575SOL     OW22186   4.290   0.405  13.050 -0.4901  0.3501  0.3575
 3575SOL    HW122187   4.259   0.393  12.960 -0.0906  2.8919 -0.1267
 3575SOL    HW222188   4.243   0.334  13.094  1.1607 -0.9286  0.0465
 3576SOL     OW22189   0.832   0.672  15.673 -0.2629 -0.2664 -0.2004
 3576SOL    HW122190   0.767   0.603  15.657  1.4765 -2.0583  0.4755
 3576SOL    HW222191   0.877   0.678  15.589  0.8986  2.2415  0.5961
 3577SOL     OW22192   1.087   3.979   1.299  0.1739  0.6204  0.0826
 3577SOL    HW122193   1.120   3.890   1.301  0.1966  0.6277  0.0276
 3577SOL    HW222194   1.111   3.997   1.208  1.7821  3.0014  0.9571
 3578SOL     OW22195   0.792   1.101  12.808 -0.0562  0.0239 -1.1117
 3578SOL    HW122196   0.836   1.019  12.786  0.1002  0.2071 -1.4723
 3578SOL    HW222197   0.856   1.132  12.872  1.1660  0.3837 -2.5275
 3579SOL     OW22198   0.142   3.696   4.020 -0.1980 -0.5438  0.0999
 3579SOL    HW122199   0.131   3.603   4.037 -1.0695 -0.3039  0.8704
 3579SOL    HW222200   0.236   3.705   4.038 -0.3278 -1.3552  1.2116
 3580SOL     OW22201   0.110   3.779   6.602 -0.9691 -0.0558  0.5894
 3580SOL    HW122202   0.191   3.785   6.653 -0.3806 -1.9859 -0.1162
 3580SOL    HW222203   0.124   3.689   6.572 -0.5176 -0.5729  2.2898
 3581SOL     OW22204   0.929   3.813   6.164  0.2380 -0.0850  0.2532
 3581SOL    HW122205   0.979   3.867   6.226  0.9179 -0.0516 -0.3158
 3581SOL    HW222206   0.837   3.832   6.183 -0.1508 -2.0053  0.3002
 3582SOL     OW22207   2.977   0.246   3.005 -0.6084  0.2552 -0.4292
 3582SOL    HW122208   3.007   0.155   3.013 -1.4066  0.0158 -0.1207
 3582SOL    HW222209   2.900   0.252   3.061 -0.6844 -1.8065 -0.2906
 3583SOL     OW22210   0.880   3.935   3.236  0.3809  0.2255 -0.0727
 3583SOL    HW122211   0.957   3.952   3.291  0.9079  0.3185 -0.8399
 3583SOL    HW222212   0.886   3.839   3.236  0.0623  0.2012  1.1734
 3584SOL     OW22213   3.161   1.457   6.097  0.6228 -0.3378  0.7370
 3584SOL    HW122214   3.206   1.541   6.108  1.2581 -0.4162 -1.2758
 3584SOL    HW222215   3.077   1.491   6.066  0.0839  0.6597  3.2703
 3585SOL     OW22216   1.891   0.789   5.494 -0.1098  0.2065  0.5691
 3585SOL    HW122217   1.957   0.749   5.551 -0.4443  0.9833  1.5055
 3585SOL    HW222218   1.932   0.867   5.456  3.1089 -0.2200  3.1451
 3586SOL     OW22219   1.651   0.725   8.203 -0.7159 -0.9360 -0.2079
 3586SOL    HW122220   1.641   0.683   8.117  1.7394 -1.0382 -0.4384
 3586SOL    HW222221   1.619   0.814   8.186 -2.5655 -1.5711 -0.0721
 3587SOL     OW22222   3.171   1.252  13.715  0.1924 -0.2350 -0.4626
 3587SOL    HW122223   3.220   1.312  13.659  2.8350 -0.4486  1.5835
 3587SOL    HW222224   3.133   1.323  13.767  1.3344 -0.4839  0.7402
 3588SOL     OW22225   4.673   0.066   9.016  0.2938 -0.6330 -0.1362
 3588SOL    HW122226   4.719   4.715   9.051 -0.4833 -0.0750  2.0734
 3588SOL    HW222227   4.721   0.091   8.937  0.2679  0.5170  0.2096
 3589SOL     OW22228   0.646   0.681   6.038 -0.5482  0.4431  0.1774
 3589SOL    HW122229   0.567   0.731   6.020  0.4427  0.7070 -3.3338
 3589SOL    HW222230   0.715   0.747   6.038 -1.5084  1.4268 -0.3539
 3590SOL     OW22231   4.692   2.533  13.158  0.2766 -0.4774 -0.6009
 3590SOL    HW122232   4.617   2.564  13.209  0.4137 -0.2771 -0.5198
 3590SOL    HW222233   4.671   2.559  13.068  4.2785  1.2603 -1.0912
 3591SOL     OW22234   3.775   1.414  11.617 -0.1239  0.3855  0.5192
 3591SOL    HW122235   3.683   1.392  11.628 -0.2213  2.5427  3.9859
 3591SOL    HW222236   3.800   1.359  11.543  2.4395  1.0697  0.8732
 3592SOL     OW22237   0.338   3.435  13.723 -0.4077 -0.1565 -0.2789
 3592SOL    HW122238   0.406   3.376  13.754 -0.5155 -0.1265  0.0140
 3592SOL    HW222239   0.346   3.432  13.627 -3.0902  0.1271 -0.5268
 3593SOL     OW22240   2.346   0.146   8.923  0.0206 -0.7900  0.1474
 3593SOL    HW122241   2.292   0.135   9.002  1.0735 -0.3131  0.9320
 3593SOL    HW222242   2.324   0.237   8.903  3.0097 -0.7734 -2.9166
 3594SOL     OW22243   0.096   0.377   7.204 -0.0417 -0.1838  0.7194
 3594SOL    HW122244   0.172   0.432   7.184 -0.9894  1.1921  0.8529
 3594SOL    HW222245   0.039   0.442   7.247  0.6496  0.4034  0.7434
 3595SOL     OW22246   1.170   4.391  11.084 -0.3590 -0.5772 -0.5021
 3595SOL    HW122247   1.155   4.455  11.015  2.3882  0.0455 -0.5088
 3595SOL    HW222248   1.187   4.442  11.163  0.0110 -3.5924  1.3585
 3596SOL     OW22249   2.394   0.911   8.846  0.6355 -0.1050 -0.0600
 3596SOL    HW122250   2.374   0.996   8.809 -1.5779 -1.0476 -1.0264
 3596SOL    HW222251   2.480   0.933   8.884 -0.3571  0.6912  1.7154
 3597SOL     OW22252   0.392   3.399   8.930 -0.8587 -0.1974  0.1183
 3597SOL    HW122253   0.470   3.344   8.938 -1.4735 -1.3078 -1.7289
 3597SOL    HW222254   0.385   3.447   9.013  3.1444 -0.4382  0.5861
 3598SOL     OW22255   3.895   3.739  17.479 -0.1128  0.1561 -0.2610
 3598SOL    HW122256   3.957   3.809  17.460  1.1907 -0.9472 -0.0335
 3598SOL    HW222257   3.919   3.724  17.570  0.2100 -0.6346 -0.4762
 3599SOL     OW22258   3.277   2.654  12.913  0.1509  0.3199 -0.0291
 3599SOL    HW122259   3.333   2.579  12.890 -0.5468 -0.5124  0.9654
 3599SOL    HW222260   3.200   2.616  12.955 -1.5963  2.2224 -1.5284
 3600SOL     OW22261   3.315   1.611   5.547  0.4787  0.0711 -0.5743
 3600SOL    HW122262   3.347   1.566   5.469 -0.1236  1.7229 -1.7903
 3600SOL    HW222263   3.384   1.676   5.562  0.6205  0.0194 -0.9952
 3601SOL     OW22264   0.917   2.058  11.928  0.2184 -0.5382 -0.6041
 3601SOL    HW122265   0.915   2.021  11.839  0.9430 -1.0869 -0.3923
 3601SOL    HW222266   0.894   2.146  11.900 -1.6436  0.0042  2.6558
 3602SOL     OW22267   3.657   2.137   3.093 -0.4793  0.0561  0.6155
 3602SOL    HW122268   3.605   2.059   3.073  1.0819 -0.9603  0.5333
 3602SOL    HW222269   3.719   2.104   3.158  0.9825  0.1458 -0.7372
 3603SOL     OW22270   3.398   1.662  13.683 -0.0477 -0.3620 -0.3615
 3603SOL    HW122271   3.450   1.674  13.604  0.0002  0.8511 -0.1408
 3603SOL    HW222272   3.440   1.731  13.735  0.5635 -1.0283  0.0320
 3604SOL     OW22273   1.074   2.433  16.746 -0.1196  0.6828 -0.1299
 3604SOL    HW122274   1.046   2.422  16.656 -1.0405  0.1142  0.2260
 3604SOL    HW222275   1.157   2.473  16.721 -0.4917  0.8671 -1.0533
 3605SOL     OW22276   1.748   2.730   3.387  0.4818 -0.1103  0.4304
 3605SOL    HW122277   1.659   2.697   3.377  0.8546 -1.5750  1.9649
 3605SOL    HW222278   1.744   2.793   3.459 -1.3769  1.9182 -1.4516
 3606SOL     OW22279   2.313   0.182  12.280 -0.3161  0.6131  0.0339
 3606SOL    HW122280   2.241   0.176  12.343  2.0259  1.4287  2.7309
 3606SOL    HW222281   2.273   0.216  12.200 -3.2438 -0.7363  0.8954
 3607SOL     OW22282   3.391   0.761   7.150  0.3618  0.0134 -0.9112
 3607SOL    HW122283   3.350   0.687   7.195 -2.4548  1.4810 -1.0459
 3607SOL    HW222284   3.475   0.716   7.139 -1.3226 -3.2808 -0.3380
 3608SOL     OW22285   0.086   0.317   5.960 -0.0071  1.1306 -0.6493
 3608SOL    HW122286   0.056   0.248   6.019 -1.1317  1.0315 -1.3485
 3608SOL    HW222287   0.180   0.317   5.981 -0.4427  1.9740  1.3612
 3609SOL     OW22288   0.997   1.610   1.879 -0.3771  0.1818 -0.4975
 3609SOL    HW122289   0.930   1.544   1.857  0.1161 -0.0178 -1.4122
 3609SOL    HW222290   0.977   1.694   1.838  2.0381  1.1828  0.3774
 3610SOL     OW22291   3.456   3.518  15.734 -0.3162 -0.3224  0.0104
 3610SOL    HW122292   3.521   3.498  15.802  2.1698  1.9407 -1.7245
 3610SOL    HW222293   3.473   3.611  15.717  2.8959 -0.7144  1.1177
 3611SOL     OW22294   1.394   0.037  15.977 -0.5492 -0.1865  0.3078
 3611SOL    HW122295   1.429   0.037  15.888 -2.8502  1.4690 -0.6073
 3611SOL    HW222296   1.335   0.113  15.970 -1.0247 -0.4626  1.3583
 3612SOL     OW22297   1.493   0.350  10.231 -0.0792  0.1467  0.6185
 3612SOL    HW122298   1.476   0.363  10.324 -2.6166  0.4811  0.1094
 3612SOL    HW222299   1.567   0.408  10.216 -0.5021  1.1392  2.2900
 3613SOL     OW22300   2.284   0.009   5.092  0.6120  0.9824 -0.0753
 3613SOL    HW122301   2.323   4.654   5.055  0.3702  0.7415  0.1963
 3613SOL    HW222302   2.192   4.709   5.100  0.3884  1.7805 -0.1954
 3614SOL     OW22303   1.278   1.584  14.378 -0.6975 -0.3597 -1.1413
 3614SOL    HW122304   1.191   1.562  14.412 -0.0001 -0.8963  0.2833
 3614SOL    HW222305   1.310   1.495  14.392 -0.9724 -0.2462  0.2964
 3615SOL     OW22306   3.804   2.470  11.141 -0.3815 -0.3293 -0.0690
 3615SOL    HW122307   3.831   2.524  11.215  0.6967 -0.5495 -0.3100
 3615SOL    HW222308   3.810   2.382  11.177 -0.7930 -0.9435 -1.4813
 3616SOL     OW22309   1.693   3.606  10.886 -0.1779  0.4247  0.4460
 3616SOL    HW122310   1.771   3.571  10.928  0.5360 -0.0592 -1.2530
 3616SOL    HW222311   1.632   3.569  10.949  1.8048 -1.7051  1.1140
 3617SOL     OW22312   2.453   3.520   8.339 -0.2286 -0.3107  0.0310
 3617SOL    HW122313   2.438   3.607   8.303 -1.9874 -0.3448  0.6709
 3617SOL    HW222314   2.473   3.542   8.430  3.8906  1.2371 -1.2322
 3618SOL     OW22315   2.706   2.265   8.672  0.1696  0.1147  0.4937
 3618SOL    HW122316   2.710   2.292   8.763  1.3904 -0.2249  0.5527
 3618SOL    HW222317   2.685   2.174   8.689  1.1750  0.0613  1.4546
 3619SOL     OW22318   1.397   3.375   8.892 -0.3538  0.5876  0.0224
 3619SOL    HW122319   1.337   3.342   8.959 -0.4560  0.0744 -0.3171
 3619SOL    HW222320   1.410   3.298   8.836  0.4190  1.0611 -0.4559
 3620SOL     OW22321   1.653   3.027  10.109  0.5340 -0.7510 -0.3087
 3620SOL    HW122322   1.584   3.036  10.044 -0.6980  1.1135  1.2421
 3620SOL    HW222323   1.677   2.935  10.106 -0.7861 -1.0970 -0.2539
 3621SOL     OW22324   1.001   4.144   3.553 -0.6758 -0.7533 -0.0051
 3621SOL    HW122325   0.976   4.204   3.624  2.3360 -1.1297  1.3657
 3621SOL    HW222326   0.958   4.187   3.480  1.3538 -0.3641 -0.9524
 3622SOL     OW22327   4.037   0.460   1.607 -0.6767  0.1356  0.2478
 3622SOL    HW122328   4.072   0.432   1.522 -0.4585 -0.6014  0.5810
 3622SOL    HW222329   3.972   0.525   1.582 -2.5664 -1.8275  0.0317
 3623SOL     OW22330   1.475   2.514   2.903  0.7139 -0.5915 -0.2908
 3623SOL    HW122331   1.426   2.562   2.836  2.2374  0.8883 -0.3457
 3623SOL    HW222332   1.515   2.442   2.855  0.0103 -0.7108 -0.7035
 3624SOL     OW22333   4.456   2.923   8.376 -0.7412  0.2381 -0.2672
 3624SOL    HW122334   4.372   2.960   8.348 -0.0581  1.8192 -0.2095
 3624SOL    HW222335   4.423   2.834   8.390 -1.3671  0.4710 -0.2794
 3625SOL     OW22336   0.937   3.091   9.718 -0.0497  0.9799  0.6751
 3625SOL    HW122337   0.932   3.184   9.742  0.6187  1.0611  0.5056
 3625SOL    HW222338   0.888   3.051   9.789  0.0611 -3.3106 -1.7023
 3626SOL     OW22339   1.222   4.618   3.079  0.0587  0.3404 -0.5714
 3626SOL    HW122340   1.178   4.688   3.030  1.0021  1.3640  0.0560
 3626SOL    HW222341   1.153   4.589   3.139 -0.4036 -1.2712 -1.8696
 3627SOL     OW22342   2.747   3.104   5.860 -0.6181  0.3894  0.3503
 3627SOL    HW122343   2.677   3.170   5.856 -0.6036  0.3874  0.0105
 3627SOL    HW222344   2.785   3.132   5.943 -0.7853  0.4039  0.4222
 3628SOL     OW22345   4.487   1.238   8.994  0.2752  0.0379 -0.0004
 3628SOL    HW122346   4.445   1.276   8.917 -2.3672 -1.2736  0.8057
 3628SOL    HW222347   4.417   1.181   9.027  0.5972 -0.7000 -0.5807
 3629SOL     OW22348   1.633   3.389  13.654  1.0877 -0.1061  0.4085
 3629SOL    HW122349   1.716   3.400  13.608  0.0850 -1.6720 -1.8099
 3629SOL    HW222350   1.647   3.317  13.716 -1.7318 -1.9968 -1.1653
 3630SOL     OW22351   4.655   3.853   3.716  0.5906 -0.5866 -0.4045
 3630SOL    HW122352   4.725   3.846   3.782 -1.6253 -1.9031  1.7870
 3630SOL    HW222353   4.600   3.920   3.755  0.5476  0.8653 -3.0082
 3631SOL     OW22354   0.295   1.635   2.123 -0.1160  0.0864  0.2419
 3631SOL    HW122355   0.287   1.715   2.070 -2.9524 -1.1678 -1.2020
 3631SOL    HW222356   0.321   1.682   2.202 -1.1805 -2.0663  1.8589
 3632SOL     OW22357   0.266   3.231   4.352 -0.4743 -0.0434  0.1084
 3632SOL    HW122358   0.290   3.178   4.276 -2.0055  1.6633 -1.5645
 3632SOL    HW222359   0.324   3.306   4.341 -0.9188 -0.1284 -2.7254
 3633SOL     OW22360   0.166   4.577   8.564  0.3655  0.8933  0.1244
 3633SOL    HW122361   0.155   4.618   8.478  1.4617  0.3890 -0.2559
 3633SOL    HW222362   0.132   4.489   8.547 -0.3458  0.7585  2.2019
 3634SOL     OW22363   3.092   3.998  10.170  0.6108  0.2656  0.0023
 3634SOL    HW122364   3.087   3.955  10.084  0.2580  1.5156 -0.6079
 3634SOL    HW222365   3.072   3.918  10.218 -0.8165  0.9148  0.4788
 3635SOL     OW22366   0.978   1.789  14.476 -0.2317 -0.1158 -0.3803
 3635SOL    HW122367   0.973   1.728  14.403 -0.9425 -1.2301  0.6033
 3635SOL    HW222368   1.017   1.731  14.541  0.2074 -0.7779 -1.2432
 3636SOL     OW22369   3.774   3.937  16.829  0.0402  0.5503  0.2691
 3636SOL    HW122370   3.756   4.030  16.811 -2.9978  0.4403  2.7996
 3636SOL    HW222371   3.869   3.939  16.839 -0.0769 -2.8163  1.8886
 3637SOL     OW22372   0.400   2.302   4.021 -0.5335  0.3317 -0.4030
 3637SOL    HW122373   0.413   2.341   4.107 -0.9716  1.8558 -1.0414
 3637SOL    HW222374   0.470   2.335   3.965 -0.1725 -0.8382 -0.6487
 3638SOL     OW22375   3.533   0.274  11.400 -0.3335  0.0930 -0.5392
 3638SOL    HW122376   3.518   0.286  11.494  0.7500  0.8930 -0.4747
 3638SOL    HW222377   3.503   0.183  11.389  1.2168 -0.3608 -1.0358
 3639SOL     OW22378   2.689   1.958   5.007  0.3510 -0.3502 -0.2929
 3639SOL    HW122379   2.690   1.968   5.103 -0.3210 -0.1572 -0.3052
 3639SOL    HW222380   2.688   1.863   5.004  2.0820 -0.3039 -2.2186
 3640SOL     OW22381   3.842   0.000   8.889  0.7151 -0.8438  0.3873
 3640SOL    HW122382   3.906   0.030   8.954 -2.4921  1.2651  2.5726
 3640SOL    HW222383   3.900   4.675   8.832 -1.8433 -3.2659 -0.0798
 3641SOL     OW22384   2.874   2.508   7.069 -0.0737 -0.0224 -0.1936
 3641SOL    HW122385   2.895   2.508   6.976  0.7398 -0.9306 -0.0101
 3641SOL    HW222386   2.810   2.578   7.056 -1.7017 -1.4726 -0.0032
 3642SOL     OW22387   1.886   1.229   2.995  0.1671 -0.3180  0.1056
 3642SOL    HW122388   1.952   1.299   2.997 -1.4143  1.2128 -0.8950
 3642SOL    HW222389   1.905   1.186   2.911  0.3974 -0.7156  0.3594
 3643SOL     OW22390   0.070   4.073   5.316 -0.2385 -0.0662  0.2783
 3643SOL    HW122391   0.133   4.122   5.369 -0.6667 -1.3465  1.9800
 3643SOL    HW222392   0.012   4.144   5.288  1.0205  0.4573 -0.9693
 3644SOL     OW22393   1.871   1.196  16.527 -0.3191 -0.5095 -0.1278
 3644SOL    HW122394   1.843   1.261  16.463  1.1417  1.3698  1.1437
 3644SOL    HW222395   1.791   1.158  16.564 -0.4867  0.5124  0.5785
 3645SOL     OW22396   4.080   2.721   5.088 -0.4559 -0.6842  0.3930
 3645SOL    HW122397   4.071   2.698   5.180 -2.1917 -0.4257  0.2937
 3645SOL    HW222398   4.174   2.708   5.074 -0.7449 -1.9859 -0.3274
 3646SOL     OW22399   0.934   2.293   1.901 -0.0142  0.4037 -0.7552
 3646SOL    HW122400   0.877   2.231   1.946  0.9852 -0.4491 -0.6607
 3646SOL    HW222401   1.020   2.259   1.925  0.2388  1.2588 -0.4430
 3647SOL     OW22402   3.243   3.686   2.665  0.6451 -0.1342 -0.0547
 3647SOL    HW122403   3.264   3.637   2.586  1.6131 -1.0577  0.7717
 3647SOL    HW222404   3.325   3.663   2.710  1.7715  4.2913  0.0892
 3648SOL     OW22405   2.162   0.461   8.735  0.3113 -0.1300 -0.1332
 3648SOL    HW122406   2.202   0.540   8.771 -1.2179  0.6194 -0.0853
 3648SOL    HW222407   2.236   0.428   8.683  0.4041 -1.3501  0.7627
 3649SOL     OW22408   0.008   2.026  13.899  0.4979 -0.2531  0.6149
 3649SOL    HW122409   4.698   2.000  13.984  1.9152 -2.5739  0.4786
 3649SOL    HW222410   0.055   1.945  13.879  0.6862 -0.4468  1.8441
 3650SOL     OW22411   2.899   2.274   8.445  0.1180  0.3825  0.2049
 3650SOL    HW122412   2.826   2.287   8.385  0.3713  1.4388  0.1308
 3650SOL    HW222413   2.851   2.256   8.526 -0.1571 -1.1707 -0.3000
 3651SOL     OW22414   3.832   3.131   5.065  0.3012 -0.1748  0.0778
 3651SOL    HW122415   3.925   3.153   5.066 -0.2994  2.4176 -0.1890
 3651SOL    HW222416   3.831   3.039   5.038  0.1892 -1.1467  3.4257
 3652SOL     OW22417   1.449   1.558  14.151 -0.4603  0.3031 -0.8809
 3652SOL    HW122418   1.378   1.618  14.173 -0.5268 -0.0778 -0.0767
 3652SOL    HW222419   1.517   1.622  14.127  0.6215 -0.8235 -0.8121
 3653SOL     OW22420   2.339   2.401  14.449 -0.4811 -0.0206 -0.5236
 3653SOL    HW122421   2.269   2.337  14.452  0.4840 -1.0057  1.2007
 3653SOL    HW222422   2.419   2.348  14.444  0.4889  1.5251 -1.2375
 3654SOL     OW22423   1.849   2.606  16.710  0.2328  0.2176  0.2565
 3654SOL    HW122424   1.786   2.547  16.750 -0.3321  0.7305  0.1146
 3654SOL    HW222425   1.904   2.620  16.787 -1.0862  0.0418  1.2143
 3655SOL     OW22426   1.837   0.991   8.452  0.7416  0.6358 -0.4729
 3655SOL    HW122427   1.845   0.898   8.473 -0.4743  0.4879 -0.7044
 3655SOL    HW222428   1.782   1.018   8.525  1.6987  0.3505  0.3621
 3656SOL     OW22429   2.898   4.258   6.688  0.2834  0.0386  0.4771
 3656SOL    HW122430   2.911   4.340   6.639  0.0800 -0.1822  0.0527
 3656SOL    HW222431   2.984   4.224   6.662 -0.6375 -1.9042 -0.0457
 3657SOL     OW22432   4.182   1.864  15.536 -0.2979 -0.2601 -0.1807
 3657SOL    HW122433   4.236   1.943  15.532 -0.1464 -0.3698 -0.3014
 3657SOL    HW222434   4.219   1.816  15.463  0.6663 -1.6043  1.2011
 3658SOL     OW22435   0.674   3.477   2.343 -0.1358  0.3223  0.0772
 3658SOL    HW122436   0.638   3.512   2.424  0.8463 -0.2193  0.7481
 3658SOL    HW222437   0.742   3.418   2.375  0.6880  0.1894 -1.9206
 3659SOL     OW22438   4.722   4.259   0.569 -0.1198  0.3316  0.1248
 3659SOL    HW122439   0.090   4.236   0.565 -0.4091 -0.3430 -2.7932
 3659SOL    HW222440   4.715   4.350   0.599 -3.7085  0.7233 -1.8528
 3660SOL     OW22441   0.766   2.593   9.342  0.2788  0.1787  0.1642
 3660SOL    HW122442   0.757   2.685   9.367 -0.3174  0.6038 -1.6085
 3660SOL    HW222443   0.699   2.581   9.274 -1.7886 -0.2363  2.2513
 3661SOL     OW22444   3.025   0.872   8.757  0.1684 -0.3535  0.4164
 3661SOL    HW122445   3.010   0.808   8.827  0.5414  0.2913  1.0899
 3661SOL    HW222446   3.059   0.819   8.685  1.2859  0.8621  0.0509
 3662SOL     OW22447   3.516   2.778   2.856 -0.0591 -0.1208  0.2720
 3662SOL    HW122448   3.438   2.829   2.878 -0.1279  0.7549 -1.9753
 3662SOL    HW222449   3.482   2.739   2.775  2.4453  0.3593 -1.0179
 3663SOL     OW22450   3.674   2.181   6.452 -0.2281  0.1500 -0.0034
 3663SOL    HW122451   3.722   2.202   6.533 -0.8893  1.6532  0.0003
 3663SOL    HW222452   3.585   2.199   6.482 -0.0822  0.2879  0.3490
 3664SOL     OW22453   0.612   1.075   8.951 -0.8117  0.0238 -0.1526
 3664SOL    HW122454   0.628   0.980   8.952 -1.5046 -0.0909 -0.4348
 3664SOL    HW222455   0.701   1.112   8.951 -1.2767  1.1295 -1.1304
 3665SOL     OW22456   3.829   3.124   5.499  0.0362 -0.8837 -0.2911
 3665SOL    HW122457   3.807   3.042   5.454 -4.0118  0.0191  0.0206
 3665SOL    HW222458   3.923   3.109   5.499  0.2398  0.4717  0.8820
 3666SOL     OW22459   1.649   4.179   7.468  0.4633 -0.2817  0.5162
 3666SOL    HW122460   1.588   4.129   7.522  2.8262 -0.3902  3.0965
 3666SOL    HW222461   1.583   4.242   7.440  1.4370  0.0976 -0.9093
 3667SOL     OW22462   0.435   4.041   4.868 -0.0404 -0.3863  0.4329
 3667SOL    HW122463   0.362   4.036   4.930 -2.5373 -1.2484 -2.5760
 3667SOL    HW222464   0.457   4.134   4.879  2.3311 -0.7146 -1.5103
 3668SOL     OW22465   3.388   3.455   7.793 -0.6668 -0.1899 -0.3582
 3668SOL    HW122466   3.364   3.379   7.739  0.3619 -0.5491 -0.2992
 3668SOL    HW222467   3.349   3.432   7.877 -0.2353 -3.4667 -1.0418
 3669SOL     OW22468   2.250   0.075   2.678 -0.3748  0.5756  0.4975
 3669SOL    HW122469   2.322   0.136   2.663  0.1600 -0.4309 -1.1041
 3669SOL    HW222470   2.208   0.085   2.592 -2.9615 -0.8082  1.5884
 3670SOL     OW22471   0.729   3.795   8.866  0.4453  0.2996  0.1872
 3670SOL    HW122472   0.639   3.772   8.845 -0.0918  0.8706  1.8509
 3670SOL    HW222473   0.775   3.738   8.804  1.6719  0.4296  0.9888
 3671SOL     OW22474   0.570   2.186   2.762 -0.2358  0.1177  0.1847
 3671SOL    HW122475   0.613   2.147   2.686 -0.8635 -0.5453  0.1662
 3671SOL    HW222476   0.476   2.172   2.747 -0.5102  1.5351  0.5831
 3672SOL     OW22477   0.957   4.336   7.280 -0.1556  0.4386 -0.6637
 3672SOL    HW122478   0.918   4.267   7.335  0.9837  0.4522  0.1421
 3672SOL    HW222479   1.048   4.307   7.281 -0.1789  0.4528  2.0791
 3673SOL     OW22480   2.724   2.955  15.688  0.8898 -0.2713  0.3288
 3673SOL    HW122481   2.756   3.045  15.684  0.0503 -0.0876 -2.1204
 3673SOL    HW222482   2.690   2.961  15.777 -1.5042 -4.8420 -0.2641
 3674SOL     OW22483   3.628   2.003  15.980 -0.4006 -0.2247  0.2243
 3674SOL    HW122484   3.685   1.948  16.034  0.3338  1.4639  1.1435
 3674SOL    HW222485   3.549   1.996  16.034 -1.8562 -1.0698 -1.9841
 3675SOL     OW22486   2.446   2.249   8.935 -0.2755 -0.0889  0.0953
 3675SOL    HW122487   2.487   2.178   8.886  2.0139  0.2408  1.5470
 3675SOL    HW222488   2.525   2.299   8.955 -0.6061  0.7355 -0.6683
 3676SOL     OW22489   1.595   4.396  11.323  0.5279  0.4573 -0.4119
 3676SOL    HW122490   1.573   4.348  11.243  1.5647  0.8968 -0.9535
 3676SOL    HW222491   1.688   4.418  11.313  0.9104 -0.5495  0.8198
 3677SOL     OW22492   3.675   2.200   1.237 -0.1672  0.1470 -0.2852
 3677SOL    HW122493   3.766   2.227   1.252 -0.6032  0.7687  1.2299
 3677SOL    HW222494   3.680   2.153   1.154 -1.2340  0.0886 -0.3111
 3678SOL     OW22495   3.415   3.596   5.684  0.0196 -0.2853 -0.1423
 3678SOL    HW122496   3.464   3.532   5.735  1.2274 -0.3439 -1.4012
 3678SOL    HW222497   3.344   3.620   5.744 -0.1029 -0.5531 -0.1819
 3679SOL     OW22498   0.193   2.229   0.707  0.1747  0.0025  1.1169
 3679SOL    HW122499   0.147   2.276   0.776 -0.7520  0.2325  0.3560
 3679SOL    HW222500   0.159   2.260   0.623  2.7548 -1.0243 -0.2892
 3680SOL     OW22501   0.709   3.734   9.524 -0.2450  0.3914  0.2323
 3680SOL    HW122502   0.795   3.692   9.535 -0.3068 -0.6629 -3.0439
 3680SOL    HW222503   0.728   3.821   9.559  0.0798  0.4138  0.0016
 3681SOL     OW22504   0.641   0.338   6.958 -0.2202 -0.0267 -0.4319
 3681SOL    HW122505   0.714   0.395   6.984 -0.5035 -0.3844  1.1915
 3681SOL    HW222506   0.600   0.372   6.879 -0.4752 -1.4220 -0.9007
 3682SOL     OW22507   1.533   4.705   8.777  0.5483 -0.4672 -0.6563
 3682SOL    HW122508   1.445   4.667   8.772  0.7329 -0.8927 -0.7003
 3682SOL    HW222509   1.519   0.074   8.766  1.2786 -0.4989 -1.8828
 3683SOL     OW22510   4.249   0.757   7.899 -0.2403  0.2229  0.2167
 3683SOL    HW122511   4.158   0.744   7.874 -0.1101 -0.0151 -0.1486
 3683SOL    HW222512   4.244   0.852   7.902 -0.9427  0.1652  0.7557
 3684SOL     OW22513   1.083   2.928  14.268  0.6600  0.3443 -0.0484
 3684SOL    HW122514   1.051   3.008  14.226  0.3837  1.2219  1.8770
 3684SOL    HW222515   1.110   2.877  14.191  1.5674  1.1048 -0.2239
 3685SOL     OW22516   0.537   0.202   3.289 -0.3329 -0.1494  0.6656
 3685SOL    HW122517   0.566   0.289   3.316  3.4478 -0.4506 -2.3807
 3685SOL    HW222518   0.495   0.221   3.205 -0.4294 -1.8534  0.3242
 3686SOL     OW22519   3.184   2.787   5.779  0.0936 -0.6979  0.5994
 3686SOL    HW122520   3.267   2.829   5.761 -0.2675 -0.2919 -0.1032
 3686SOL    HW222521   3.124   2.856   5.808 -0.3771  0.4480 -3.1052
 3687SOL     OW22522   1.014   2.966   3.361  0.0714 -0.1736  0.2124
 3687SOL    HW122523   1.037   3.057   3.380  0.3521 -0.4558  1.2217
 3687SOL    HW222524   1.031   2.934   3.450 -2.0951  0.1912  0.7397
 3688SOL     OW22525   2.805   4.061   2.395  0.0561  0.3398 -0.4814
 3688SOL    HW122526   2.881   4.061   2.453 -0.5733  1.0923  0.3545
 3688SOL    HW222527   2.771   3.972   2.394  3.8226 -1.0812 -1.7210
 3689SOL     OW22528   3.866   2.128   3.526  0.4200 -0.1995  0.5900
 3689SOL    HW122529   3.815   2.204   3.555  0.8933 -0.2790  1.6074
 3689SOL    HW222530   3.954   2.163   3.513 -0.2475  0.4761 -2.1905
 3690SOL     OW22531   2.312   3.896  17.499  0.8215  0.1880 -0.5716
 3690SOL    HW122532   2.305   3.930  17.410  0.0928  0.2484 -0.4968
 3690SOL    HW222533   2.302   3.801  17.491  2.5564 -0.1764  1.7101
 3691SOL     OW22534   4.095   0.402   8.261 -0.3488 -0.0886  0.1480
 3691SOL    HW122535   4.042   0.335   8.304 -1.2746 -0.1505 -1.0662
 3691SOL    HW222536   4.122   0.450   8.339 -1.4732  1.0512 -0.1691
 3692SOL     OW22537   3.435   3.260  13.414  0.0686  0.2431  0.0446
 3692SOL    HW122538   3.507   3.206  13.381  0.2734  0.5796 -0.0614
 3692SOL    HW222539   3.391   3.202  13.476  2.3454 -0.7499  0.7256
 3693SOL     OW22540   1.214   1.153   4.612 -0.6782 -0.6290  0.7121
 3693SOL    HW122541   1.307   1.174   4.602 -1.2362  1.9768  0.8981
 3693SOL    HW222542   1.190   1.168   4.521 -1.1366  0.1147  0.9592
 3694SOL     OW22543   3.906   1.503  16.881  0.6869  0.7936  0.1153
 3694SOL    HW122544   3.917   1.414  16.845 -1.2881  1.2297 -1.5943
 3694SOL    HW222545   3.831   1.473  16.932 -2.1960  2.3101 -3.1714
 3695SOL     OW22546   1.313   2.529  13.287 -0.2026  0.2565 -0.0792
 3695SOL    HW122547   1.318   2.562  13.377  0.6405  3.1675 -1.1712
 3695SOL    HW222548   1.264   2.600  13.246 -0.9892  0.1503  0.6878
 3696SOL     OW22549   3.002   2.958   4.391 -0.1574  0.1982 -0.0124
 3696SOL    HW122550   3.040   2.950   4.303 -0.5091  0.3735 -0.1792
 3696SOL    HW222551   3.048   3.032   4.430  0.5587  0.0395 -0.5606
 3697SOL     OW22552   3.842   2.789   7.795  0.0093  0.2096  0.0188
 3697SOL    HW122553   3.785   2.831   7.859  1.1765  0.5626  0.8209
 3697SOL    HW222554   3.774   2.722   7.786 -0.7415  1.0135 -0.3220
 3698SOL     OW22555   4.132   3.802   6.931  0.3381  0.0600 -0.2389
 3698SOL    HW122556   4.149   3.805   6.837  0.0396  2.4522 -0.2197
 3698SOL    HW222557   4.218   3.829   6.965  1.1659 -3.9248  0.8525
 3699SOL     OW22558   4.724   0.464   4.004 -0.2519 -0.1709 -0.6123
 3699SOL    HW122559   0.043   0.460   4.089  0.2362  0.6266 -0.8231
 3699SOL    HW222560   0.081   0.457   3.954 -1.1752 -1.0659 -2.0137
 3700SOL     OW22561   3.075   2.159  10.571  0.1735  0.4551  0.9586
 3700SOL    HW122562   2.997   2.198  10.532  1.3178  0.7141 -1.0667
 3700SOL    HW222563   3.038   2.074  10.599  2.1721 -0.1830  1.6290
 3701SOL     OW22564   0.034   4.516   0.656 -0.2283 -0.3579  1.1298
 3701SOL    HW122565   0.021   4.595   0.604 -0.7179 -0.5511  0.9527
 3701SOL    HW222566   0.129   4.510   0.658 -0.2874 -2.6644 -1.9909
 3702SOL     OW22567   4.185   1.000   7.937  0.5787 -0.3961 -0.0232
 3702SOL    HW122568   4.121   1.028   8.003 -2.5480 -0.7784 -2.9139
 3702SOL    HW222569   4.129   1.005   7.860  1.4018  0.1340 -0.5941
 3703SOL     OW22570   0.966   3.625  17.535  0.1990  0.2148 -0.4527
 3703SOL    HW122571   1.015   3.552  17.498 -0.5760  0.1736 -1.4150
 3703SOL    HW222572   1.035   3.663  17.589 -1.1120  2.1159 -0.1068
 3704SOL     OW22573   4.223   0.335  16.733 -1.0034  0.2225 -0.2014
 3704SOL    HW122574   4.221   0.424  16.767 -0.0500  0.5250 -0.9125
 3704SOL    HW222575   4.181   0.280  16.798 -0.7521  0.2682 -0.0024
 3705SOL     OW22576   4.639   1.739   7.917  0.0414 -0.2348 -0.3014
 3705SOL    HW122577   4.640   1.826   7.877  0.8052 -0.1998 -0.2015
 3705SOL    HW222578   0.007   1.724   7.933  0.3565  1.1801 -0.8001
 3706SOL     OW22579   3.662   3.327   2.174 -0.0310  0.7041  0.7075
 3706SOL    HW122580   3.675   3.261   2.242  0.2987 -2.2140 -2.1941
 3706SOL    HW222581   3.666   3.402   2.233  0.0853 -1.3751  3.3734
 3707SOL     OW22582   3.862   3.782   1.937  0.0759 -0.5994 -0.4524
 3707SOL    HW122583   3.941   3.742   1.901 -0.5798 -0.2536 -2.2936
 3707SOL    HW222584   3.891   3.814   2.022 -0.5957 -1.4994  0.1209
 3708SOL     OW22585   0.176   2.730   3.819 -0.2695  0.0827 -0.3308
 3708SOL    HW122586   0.136   2.806   3.862  0.9873 -0.4186  1.7047
 3708SOL    HW222587   0.095   2.693   3.785 -1.0647  2.1418 -0.7225
 3709SOL     OW22588   0.517   1.838   8.378  0.6628  0.2597  0.3923
 3709SOL    HW122589   0.555   1.753   8.401 -4.5929 -2.0560  0.5336
 3709SOL    HW222590   0.555   1.847   8.291 -1.4927  2.0452 -0.3459
 3710SOL     OW22591   0.051   2.338   5.452 -0.2102 -0.3317  0.2338
 3710SOL    HW122592   0.115   2.403   5.480 -0.3771 -0.6937  1.4475
 3710SOL    HW222593   0.092   2.289   5.381  0.3755  0.4143  0.0485
 3711SOL     OW22594   0.084   4.110  17.127  0.0016 -0.0607  0.2452
 3711SOL    HW122595   0.131   4.035  17.165  1.1729  0.0148 -1.0626
 3711SOL    HW222596   0.040   4.148  17.203  1.9721  0.9930  0.8550
 3712SOL     OW22597   0.415   0.978   4.334 -0.1665  0.0142  0.1297
 3712SOL    HW122598   0.350   1.043   4.361  0.4848  0.6912  0.0541
 3712SOL    HW222599   0.429   0.930   4.416 -0.4305  2.0106  1.3418
 3713SOL     OW22600   3.072   3.701   9.153 -0.4203 -0.1513  0.1508
 3713SOL    HW122601   3.165   3.718   9.138 -0.1237  0.1574  2.4416
 3713SOL    HW222602   3.073   3.605   9.150  0.4923 -0.1773  1.4342
 3714SOL     OW22603   3.879   1.210   1.838  0.5551  0.1522  0.0025
 3714SOL    HW122604   3.787   1.187   1.829  0.5937 -1.3635  3.5301
 3714SOL    HW222605   3.880   1.299   1.872  0.9239 -0.3294  1.2589
 3715SOL     OW22606   1.963   2.981   9.692  0.0472  0.5095  0.3186
 3715SOL    HW122607   1.982   2.894   9.727  0.7539  0.2664 -0.6695
 3715SOL    HW222608   1.936   3.027   9.772 -2.6136  0.0973 -0.3459
 3716SOL     OW22609   1.233   0.409   4.305  0.0224  0.7781 -0.0391
 3716SOL    HW122610   1.261   0.365   4.386 -0.8919 -0.8405 -0.6055
 3716SOL    HW222611   1.138   0.401   4.312 -0.0940  2.4870  0.3024
 3717SOL     OW22612   2.811   3.320  15.335  0.5522  0.1709 -0.6582
 3717SOL    HW122613   2.864   3.274  15.400 -0.6303 -0.2142  0.0373
 3717SOL    HW222614   2.867   3.388  15.298  3.6815 -3.0165 -1.7369
 3718SOL     OW22615   1.055   0.493   8.877 -0.0702 -0.5767 -0.2197
 3718SOL    HW122616   1.075   0.428   8.810  1.5017 -0.1132 -0.1922
 3718SOL    HW222617   0.980   0.541   8.840 -1.3097 -1.5518  1.0406
 3719SOL     OW22618   2.459   3.231   2.081 -0.3307 -0.4391  0.5939
 3719SOL    HW122619   2.545   3.259   2.051 -0.6061  0.0672  0.2732
 3719SOL    HW222620   2.411   3.251   2.001  3.1040  2.7540 -0.6649
 3720SOL     OW22621   0.935   3.290   1.161 -0.1156 -0.1727 -0.0110
 3720SOL    HW122622   0.894   3.321   1.242  0.1507 -0.1444  0.1153
 3720SOL    HW222623   0.876   3.331   1.099 -2.9669 -2.9474  0.9031
 3721SOL     OW22624   2.963   2.746  15.281 -0.0140  0.4845 -0.0338
 3721SOL    HW122625   3.021   2.683  15.323  0.0872  0.0511 -0.8202
 3721SOL    HW222626   2.981   2.734  15.187  0.8898  1.6362 -0.0074
 3722SOL     OW22627   1.067   1.361   5.858 -0.6055 -0.1036  0.5255
 3722SOL    HW122628   0.997   1.421   5.885 -1.0446 -0.9772  1.3681
 3722SOL    HW222629   1.093   1.335   5.946 -1.4956 -0.6952  0.6146
 3723SOL     OW22630   1.594   1.376   5.914  0.1297  0.1226 -0.1770
 3723SOL    HW122631   1.622   1.398   5.825  0.1494  0.2463 -0.1405
 3723SOL    HW222632   1.660   1.425   5.963 -0.8070  0.7910  0.4247
 3724SOL     OW22633   0.924   1.657  13.532 -0.0864 -0.3745  0.1138
 3724SOL    HW122634   0.991   1.718  13.565  0.6850 -1.8019  1.1587
 3724SOL    HW222635   0.920   1.695  13.444  0.7506 -0.1555  0.1734
 3725SOL     OW22636   3.215   2.694   2.199  0.7991 -0.2143 -0.1219
 3725SOL    HW122637   3.132   2.669   2.158 -0.4771  0.9260  1.7225
 3725SOL    HW222638   3.211   2.789   2.195  0.4038 -0.2183  0.1011
 3726SOL     OW22639   4.448   4.343   6.058  0.1941  0.3761  0.0586
 3726SOL    HW122640   4.466   4.396   6.135 -1.8777  3.1580 -1.3463
 3726SOL    HW222641   4.403   4.269   6.099  0.9262  0.5632  1.1852
 3727SOL     OW22642   1.828   0.341   2.839 -0.3545  0.2816 -0.2887
 3727SOL    HW122643   1.892   0.314   2.905 -0.0354  0.0395 -0.6990
 3727SOL    HW222644   1.889   0.380   2.776  0.9879  0.4615  1.1166
 3728SOL     OW22645   3.476   0.781   5.922 -0.3550  0.5300  0.1911
 3728SOL    HW122646   3.419   0.718   5.965  0.0565  0.9938  1.4306
 3728SOL    HW222647   3.511   0.723   5.855 -0.1455  2.3670 -1.2977
 3729SOL     OW22648   3.396   4.384   3.667  0.2457  0.1138 -0.3092
 3729SOL    HW122649   3.348   4.428   3.596  0.6727  0.7510 -0.2043
 3729SOL    HW222650   3.355   4.297   3.661 -0.3670  0.3712  0.1162
 3730SOL     OW22651   2.183   3.443   7.096 -0.4281 -0.0801  0.4403
 3730SOL    HW122652   2.210   3.388   7.169 -1.5733  0.3667  1.2039
 3730SOL    HW222653   2.227   3.399   7.024 -0.8873 -1.2638  0.8824
 3731SOL     OW22654   1.865   0.238   7.656 -0.7128  0.0804 -0.2178
 3731SOL    HW122655   1.959   0.220   7.659 -0.8478 -0.3869  1.7375
 3731SOL    HW222656   1.826   0.151   7.659  1.0751 -0.8041 -3.0778
 3732SOL     OW22657   2.132   4.057  10.289 -0.2991  0.0537 -0.2875
 3732SOL    HW122658   2.213   4.102  10.268 -1.8503  2.7478 -0.5135
 3732SOL    HW222659   2.157   3.978  10.241  1.2796  0.5452 -0.2553
 3733SOL     OW22660   0.938   3.206   7.691  0.1388  0.1342 -0.1482
 3733SOL    HW122661   0.936   3.155   7.772 -0.4372  1.9918  1.0203
 3733SOL    HW222662   0.844   3.207   7.677  0.3747  1.7757 -1.5967
 3734SOL     OW22663   3.585   4.347  10.116 -0.1371 -0.5820 -0.0382
 3734SOL    HW122664   3.565   4.343  10.023 -0.6893  0.1255  0.0455
 3734SOL    HW222665   3.493   4.341  10.141  0.0834 -2.5821  0.3310
 3735SOL     OW22666   3.693   3.895   6.107 -0.5701 -0.9544 -0.0425
 3735SOL    HW122667   3.748   3.930   6.037  0.5072 -1.1983  0.6861
 3735SOL    HW222668   3.637   3.835   6.058  0.6242 -1.5120 -0.7301
 3736SOL     OW22669   4.438   1.340   8.727 -0.0958  0.1726 -0.2252
 3736SOL    HW122670   4.363   1.326   8.669 -1.3269 -0.9746  1.6526
 3736SOL    HW222671   4.487   1.403   8.674  0.7973 -0.2834  0.0694
 3737SOL     OW22672   1.540   2.057  10.067 -0.1225 -0.2493 -0.0676
 3737SOL    HW122673   1.588   2.006  10.132  1.8933  1.0601 -0.5170
 3737SOL    HW222674   1.542   2.003   9.987 -0.8345 -0.2369 -0.0945
 3738SOL     OW22675   1.010   0.785   4.815  0.8636  0.1983  0.5311
 3738SOL    HW122676   1.094   0.815   4.781 -0.6327  1.6587 -1.7851
 3738SOL    HW222677   0.949   0.855   4.794  0.8942 -0.1561 -0.7368
 3739SOL     OW22678   1.723   2.848   5.776  0.4162 -0.1696 -0.0011
 3739SOL    HW122679   1.745   2.839   5.684  0.2608 -1.2642  0.0776
 3739SOL    HW222680   1.778   2.782   5.819 -1.1151 -0.5422  1.3756
 3740SOL     OW22681   3.296   1.556   4.947 -0.0271 -0.3003  0.0456
 3740SOL    HW122682   3.248   1.480   4.980 -1.5951  0.4130 -0.5645
 3740SOL    HW222683   3.239   1.627   4.976 -0.4067 -0.6723  0.2056
 3741SOL     OW22684   3.067   1.211   5.664 -0.0191  0.1421  0.1072
 3741SOL    HW122685   3.096   1.229   5.753 -1.5487 -1.0716  0.8493
 3741SOL    HW222686   3.065   1.298   5.626 -1.1322 -0.4674 -1.2171
 3742SOL     OW22687   2.911   0.151  12.598 -0.4314 -0.2421  0.4455
 3742SOL    HW122688   2.921   0.114  12.510  1.8659 -0.2632  0.7139
 3742SOL    HW222689   2.984   0.109  12.643 -0.1782  0.9149  1.1125
 3743SOL     OW22690   2.453   2.061   7.846 -0.3162  0.2006 -0.6516
 3743SOL    HW122691   2.444   1.967   7.863  1.9754  0.1248  0.2444
 3743SOL    HW222692   2.490   2.053   7.758  0.6108 -0.9676 -0.1679
 3744SOL     OW22693   3.342   4.530   6.008 -0.2879 -0.2261 -0.0623
 3744SOL    HW122694   3.256   4.555   5.975 -0.3010 -1.0206 -0.6358
 3744SOL    HW222695   3.395   4.570   5.940 -1.0038 -0.4729 -0.7620
 3745SOL     OW22696   2.987   2.350   6.059 -0.4289  0.1779  0.1747
 3745SOL    HW122697   2.940   2.285   6.007 -0.9837  2.1635 -1.7613
 3745SOL    HW222698   3.051   2.393   6.003 -1.0307  0.4745 -0.2767
 3746SOL     OW22699   1.650   3.492   5.336 -0.1075 -0.3049 -0.2376
 3746SOL    HW122700   1.570   3.501   5.388 -0.1757 -1.0279 -0.2136
 3746SOL    HW222701   1.709   3.429   5.379 -0.5660 -0.4721  0.1489
 3747SOL     OW22702   2.251   0.468  17.623  0.4682 -0.0462  0.2688
 3747SOL    HW122703   2.227   0.521  17.699 -0.9138  0.6065 -0.6352
 3747SOL    HW222704   2.270   0.540  17.562 -2.4797  0.5944  0.1388
 3748SOL     OW22705   2.096   4.104  16.382 -0.6570  0.2877  0.7285
 3748SOL    HW122706   2.015   4.118  16.431 -1.5752 -0.9222 -0.4378
 3748SOL    HW222707   2.161   4.083  16.449 -0.6429 -0.1304  0.5864
 3749SOL     OW22708   3.876   0.807  14.762  0.0034  0.2045 -0.5235
 3749SOL    HW122709   3.876   0.841  14.851  1.0250 -1.1041 -0.0291
 3749SOL    HW222710   3.890   0.882  14.704  1.3335  1.1000  0.9702
 3750SOL     OW22711   2.305   3.331   6.894 -0.3076 -0.2113  0.0119
 3750SOL    HW122712   2.398   3.350   6.890  0.1174 -1.6620  2.9571
 3750SOL    HW222713   2.318   3.236   6.888 -1.8316 -0.4924  0.8896
 3751SOL     OW22714   2.923   0.834   2.316  0.1487 -0.0207  0.2482
 3751SOL    HW122715   2.929   0.850   2.410 -0.8911  0.3645  0.2469
 3751SOL    HW222716   2.927   0.926   2.290  0.4923 -0.1157 -0.0354
 3752SOL     OW22717   4.157   1.954   4.274 -0.0513  0.2310 -0.1493
 3752SOL    HW122718   4.064   1.942   4.257  0.7486 -1.2452 -3.4906
 3752SOL    HW222719   4.183   1.864   4.295  2.2403  1.5015  2.5863
 3753SOL     OW22720   4.005   1.039   5.629  0.0461 -0.0737 -0.1287
 3753SOL    HW122721   4.057   1.055   5.707  0.9497  0.7687 -0.9101
 3753SOL    HW222722   4.066   1.068   5.561  0.2118 -0.4699 -0.1544
 3754SOL     OW22723   0.481   1.236  11.363  0.0359 -0.0450 -0.1751
 3754SOL    HW122724   0.571   1.223  11.335  0.7350  2.7642  0.7024
 3754SOL    HW222725   0.496   1.318  11.412  1.5180 -1.1815  1.2802
 3755SOL     OW22726   2.760   0.876   8.213  0.2332 -0.0956 -0.0524
 3755SOL    HW122727   2.843   0.864   8.260  0.6587 -0.0580 -0.7807
 3755SOL    HW222728   2.721   0.932   8.279  2.3672  0.3499  0.8265
 3756SOL     OW22729   2.917   1.638   3.183  0.0595  0.4763  0.3644
 3756SOL    HW122730   2.901   1.553   3.223  0.5784  0.4094  0.4184
 3756SOL    HW222731   2.904   1.694   3.259  0.2607 -3.3632  3.2333
 3757SOL     OW22732   1.390   2.706  11.348  0.2553  0.1861  0.1545
 3757SOL    HW122733   1.450   2.634  11.366 -0.9872 -1.5076 -2.4194
 3757SOL    HW222734   1.382   2.707  11.252  0.1007 -2.8732  0.1406
 3758SOL     OW22735   1.795   2.548   2.326 -0.1955  0.4671  0.3703
 3758SOL    HW122736   1.876   2.598   2.319  0.4669 -0.8841 -1.6813
 3758SOL    HW222737   1.732   2.615   2.302  0.4694  0.6368 -0.8930
 3759SOL     OW22738   1.213   4.509   5.854 -0.1626  0.1937 -0.0226
 3759SOL    HW122739   1.259   4.427   5.838 -0.4936  0.0137 -0.0655
 3759SOL    HW222740   1.185   4.491   5.944 -1.6342 -0.9694 -0.7099
 3760SOL     OW22741   1.344   4.696   4.708 -0.3062  0.4426  0.0475
 3760SOL    HW122742   1.284   0.007   4.772  0.8470 -0.5873  1.6950
 3760SOL    HW222743   1.357   4.609   4.747 -1.8870  0.5000  0.7057
 3761SOL     OW22744   1.482   1.737  15.947  0.1222  0.2988  0.7566
 3761SOL    HW122745   1.541   1.812  15.955 -0.4083  0.7379  0.5218
 3761SOL    HW222746   1.395   1.775  15.937 -0.0460  0.1402  1.5844
 3762SOL     OW22747   2.180   1.619   6.794  0.1813  0.9070 -0.0463
 3762SOL    HW122748   2.245   1.675   6.750  0.7111  0.3526  0.0274
 3762SOL    HW222749   2.245   1.567   6.839  0.0044 -1.2688 -2.3193
 3763SOL     OW22750   0.897   3.141   0.289  0.3916  0.3992 -0.5674
 3763SOL    HW122751   0.975   3.095   0.259 -1.6253 -1.8847 -2.2588
 3763SOL    HW222752   0.882   3.187   0.207 -0.3546  0.6109 -0.3104
 3764SOL     OW22753   0.100   3.042  16.722 -0.5680  0.3943  0.3301
 3764SOL    HW122754   0.102   2.979  16.650  0.6590  1.5439 -0.6450
 3764SOL    HW222755   0.022   3.090  16.692 -0.3029 -0.1015 -1.1846
 3765SOL     OW22756   3.733   0.496   9.203 -0.2583  0.1823  0.2365
 3765SOL    HW122757   3.804   0.432   9.216 -2.1569 -2.0415 -0.2371
 3765SOL    HW222758   3.680   0.455   9.134 -0.0409 -1.0140  0.7844
 3766SOL     OW22759   0.418   0.850   1.936  0.4022  0.2527  0.1070
 3766SOL    HW122760   0.396   0.909   1.864  0.3979  1.1042  0.8008
 3766SOL    HW222761   0.398   0.772   1.885 -0.5310  1.3735 -1.2178
 3767SOL     OW22762   4.647   0.603   6.754  0.0975  0.4614  0.0093
 3767SOL    HW122763   4.573   0.543   6.755 -0.2583  0.9311  2.5610
 3767SOL    HW222764   4.720   0.543   6.737 -0.4217 -0.1843  0.0394
 3768SOL     OW22765   3.228   2.685  11.953  0.2609 -0.0983 -0.0829
 3768SOL    HW122766   3.233   2.763  12.009  1.6082 -0.6401  0.5458
 3768SOL    HW222767   3.202   2.731  11.874 -0.2147 -0.6004 -0.2198
 3769SOL     OW22768   1.244   4.700   4.982  0.2828 -0.3048 -0.1112
 3769SOL    HW122769   1.308   0.020   5.037  1.1769 -1.6520 -0.0318
 3769SOL    HW222770   1.229   4.620   5.032  0.3487 -1.6231 -2.1624
 3770SOL     OW22771   0.693   4.613   7.123  0.2823 -0.9359 -0.1770
 3770SOL    HW122772   0.681   4.626   7.029  1.6174 -1.0231 -0.3549
 3770SOL    HW222773   0.748   4.690   7.136  0.1856 -0.6377 -1.5451
 3771SOL     OW22774   4.280   4.494   3.719 -0.1257  0.0049  0.7193
 3771SOL    HW122775   4.242   4.407   3.709  3.1390 -1.2958 -0.2017
 3771SOL    HW222776   4.371   4.473   3.700 -0.1011 -0.0458  0.8972
 3772SOL     OW22777   2.621   0.787   0.430  0.3146  0.5447  0.2304
 3772SOL    HW122778   2.562   0.860   0.410  0.0004  0.8781  2.4407
 3772SOL    HW222779   2.566   0.750   0.499  2.1300  0.4402  1.6379
 3773SOL     OW22780   2.966   1.086   4.822 -0.4676  0.0022 -0.4051
 3773SOL    HW122781   2.993   1.021   4.886  0.7215  0.0984 -0.8107
 3773SOL    HW222782   3.000   1.068   4.734 -0.2790 -3.8646  0.4559
 3774SOL     OW22783   2.999   1.630   4.400 -0.0514 -0.1044  0.0865
 3774SOL    HW122784   3.033   1.703   4.348  1.4166  2.0195  3.9750
 3774SOL    HW222785   3.051   1.562   4.358  0.4493 -0.9844  2.0994
 3775SOL     OW22786   0.655   0.693   4.230 -0.2711 -0.5160 -0.9896
 3775SOL    HW122787   0.607   0.611   4.239 -1.4835  0.2192 -0.7018
 3775SOL    HW222788   0.644   0.696   4.135  0.7961  0.4332 -1.0904
 3776SOL     OW22789   4.533   0.164   6.836 -0.1460  0.2504 -0.0880
 3776SOL    HW122790   4.525   0.255   6.809  2.3105  0.2776 -0.7379
 3776SOL    HW222791   4.581   0.165   6.919 -0.7870 -0.4108  0.2991
 3777SOL     OW22792   4.200   0.616  13.577 -0.0680  0.1128  0.0815
 3777SOL    HW122793   4.201   0.679  13.505 -1.2526 -1.5194 -1.3587
 3777SOL    HW222794   4.287   0.630  13.612 -0.1297 -2.6825  1.3493
 3778SOL     OW22795   2.380   1.078   0.050  0.8891 -0.1702 -0.5708
 3778SOL    HW122796   2.331   1.074  17.668 -0.6162  2.6592  0.1952
 3778SOL    HW222797   2.313   1.127   0.097  0.4420 -0.3980 -0.9645
 3779SOL     OW22798   3.821   4.720  15.963  0.4440 -0.2251  0.3218
 3779SOL    HW122799   3.835   4.692  15.873 -1.8743  0.3132 -0.2117
 3779SOL    HW222800   3.738   4.679  15.988 -0.6081  1.4083 -0.4588
 3780SOL     OW22801   2.942   3.451   6.821 -0.3275  0.2731  0.5137
 3780SOL    HW122802   2.975   3.362   6.807  0.6375  0.3560  2.2217
 3780SOL    HW222803   3.004   3.473   6.892 -3.2291 -0.8224  3.3879
 3781SOL     OW22804   0.271   1.347   8.373 -0.3517 -0.2795 -0.2708
 3781SOL    HW122805   0.300   1.345   8.464  1.2557 -2.1356 -0.8263
 3781SOL    HW222806   0.336   1.281   8.349  0.0426  0.1275 -0.2940
 3782SOL     OW22807   4.402   3.684   4.283  0.8446 -0.3945  0.1044
 3782SOL    HW122808   4.481   3.703   4.233  1.8619 -1.7293  1.2074
 3782SOL    HW222809   4.411   3.740   4.360 -2.1178 -0.1450  0.2756
 3783SOL     OW22810   3.873   0.261  11.685 -0.3803  0.7823  0.4047
 3783SOL    HW122811   3.925   0.202  11.740 -0.2888  1.0909  0.6506
 3783SOL    HW222812   3.810   0.292  11.750 -0.6850  2.4848 -0.7136
 3784SOL     OW22813   1.002   3.577   9.556 -0.3606 -0.4878  0.4504
 3784SOL    HW122814   1.019   3.591   9.649 -1.3520 -0.3051  0.6012
 3784SOL    HW222815   0.945   3.500   9.563  0.2554 -0.9274  0.5754
 3785SOL     OW22816   4.084   1.081   5.234 -0.4602 -0.1890 -0.4623
 3785SOL    HW122817   4.155   1.110   5.292 -0.5147  1.7268 -1.3501
 3785SOL    HW222818   4.003   1.117   5.269  0.1729  2.7035 -1.8938
 3786SOL     OW22819   2.009   2.912   4.480  0.3241  0.5305  0.0213
 3786SOL    HW122820   1.964   2.828   4.470  3.6047 -1.0670 -1.4511
 3786SOL    HW222821   2.041   2.895   4.569 -1.1050  4.0336  1.1916
 3787SOL     OW22822   0.814   2.051   7.192 -0.8367 -0.2263  0.7323
 3787SOL    HW122823   0.752   1.988   7.228 -0.6772 -0.4064  0.6929
 3787SOL    HW222824   0.835   2.095   7.275 -1.2529 -0.2022  0.8238
 3788SOL     OW22825   0.995   2.349   3.076  0.2837 -0.6895 -0.0046
 3788SOL    HW122826   1.000   2.325   3.169  0.8724 -0.8791 -0.0836
 3788SOL    HW222827   1.056   2.423   3.078 -2.3824  1.4555  2.0128
 3789SOL     OW22828   2.994   3.873  13.241  0.5557  0.2757  0.0174
 3789SOL    HW122829   2.985   3.967  13.225 -2.8026 -0.1583 -0.6531
 3789SOL    HW222830   3.034   3.887  13.327 -0.2527  2.6996  0.0160
 3790SOL     OW22831   2.659   3.370   4.562  0.5386 -0.1766  0.2885
 3790SOL    HW122832   2.568   3.360   4.534 -0.6064  4.1188  2.4250
 3790SOL    HW222833   2.706   3.357   4.480 -0.8346 -0.7596 -0.4057
 3791SOL     OW22834   2.242   3.266   9.592 -0.0747  0.2331  0.1766
 3791SOL    HW122835   2.320   3.215   9.617 -0.9511  0.1196  2.6793
 3791SOL    HW222836   2.244   3.325   9.667  1.5700 -0.7091  0.8866
 3792SOL     OW22837   1.974   2.771   3.229  0.3039 -0.7418 -0.5546
 3792SOL    HW122838   2.017   2.841   3.279  0.8298 -0.6099 -1.1898
 3792SOL    HW222839   1.929   2.728   3.302  0.8161 -0.3272  0.0125
 3793SOL     OW22840   4.112   1.815   9.116  0.0189  0.0475  0.3338
 3793SOL    HW122841   4.178   1.747   9.102  1.0058  0.8471  1.1290
 3793SOL    HW222842   4.144   1.889   9.065  0.2710 -0.0995  0.2798
 3794SOL     OW22843   0.362   0.928  16.575 -0.5676 -0.1370 -0.0782
 3794SOL    HW122844   0.377   0.989  16.503  1.9780  1.5269  1.8508
 3794SOL    HW222845   0.429   0.948  16.641 -0.7330  1.9834 -0.5509
 3795SOL     OW22846   0.709   0.801  14.193  0.6020  0.2948  0.2457
 3795SOL    HW122847   0.691   0.786  14.286  2.7632  0.0219  0.6039
 3795SOL    HW222848   0.643   0.867  14.171  1.3117  1.4335  1.5728
 3796SOL     OW22849   3.093   2.719   7.300 -0.1312  0.2531  0.3349
 3796SOL    HW122850   3.031   2.737   7.370 -3.1249  0.5805 -2.3989
 3796SOL    HW222851   3.175   2.711   7.349 -0.6038 -2.1778  0.7449
 3797SOL     OW22852   0.337   2.489   7.001 -0.4694 -0.0002 -0.3727
 3797SOL    HW122853   0.285   2.568   7.014  1.5798  1.2632  0.1633
 3797SOL    HW222854   0.277   2.442   6.942  0.9463 -0.0911 -1.7259
 3798SOL     OW22855   2.994   3.928  17.241  0.1954  1.3874  0.1503
 3798SOL    HW122856   3.069   3.874  17.215 -1.4004 -0.3193 -0.9324
 3798SOL    HW222857   3.036   3.951  17.323  0.4860  0.3025  0.3075
 3799SOL     OW22858   0.083   0.814   5.287  0.1692  0.0193 -0.3461
 3799SOL    HW122859   0.086   0.909   5.283 -0.8042 -0.0228 -1.8922
 3799SOL    HW222860   0.098   0.789   5.196 -0.5705 -1.0612 -0.1712
 3800SOL     OW22861   1.710   4.505   4.905  0.1459  0.1432 -0.7063
 3800SOL    HW122862   1.642   4.488   4.969  2.1436 -1.9354  0.8709
 3800SOL    HW222863   1.773   4.435   4.923  0.5698  0.3323 -1.4599
 3801SOL     OW22864   0.115   3.799  10.324 -0.3249  0.7863 -0.3072
 3801SOL    HW122865   0.047   3.844  10.374 -0.2490 -1.3538  1.7354
 3801SOL    HW222866   0.158   3.778  10.407 -1.7865 -0.2910  0.1939
 3802SOL     OW22867   1.518   0.174   5.386  0.6003  0.3684 -0.2917
 3802SOL    HW122868   1.575   0.167   5.463  3.1274 -1.5012 -2.3513
 3802SOL    HW222869   1.431   0.164   5.425  1.0099  0.0966  0.5735
 3803SOL     OW22870   1.170   1.606   6.249  0.3092  0.6992 -0.1178
 3803SOL    HW122871   1.201   1.677   6.305 -1.5849  0.7766  0.8287
 3803SOL    HW222872   1.077   1.628   6.245  0.1672  0.2238  0.5829
 3804SOL     OW22873   2.982   1.039   7.937  0.5791  0.2538  0.0107
 3804SOL    HW122874   2.895   1.021   7.903  1.1741 -1.6564 -0.4793
 3804SOL    HW222875   2.961   1.083   8.019 -1.7364 -0.3241 -0.2709
 3805SOL     OW22876   2.127   0.826  12.972 -0.2372 -0.4149 -0.1938
 3805SOL    HW122877   2.112   0.905  12.919 -1.6489  0.0655  0.9189
 3805SOL    HW222878   2.201   0.853  13.025  1.0067 -1.6702 -1.2878
 3806SOL     OW22879   4.466   1.784   4.163  0.4902 -0.0799  0.4845
 3806SOL    HW122880   4.422   1.700   4.152 -0.2819  0.0697  2.5209
 3806SOL    HW222881   4.556   1.758   4.185  0.5627 -1.9275 -1.9628
 3807SOL     OW22882   1.525   4.046   8.693  0.1610 -0.5758  0.2664
 3807SOL    HW122883   1.516   3.955   8.665 -0.4043 -0.1269 -1.0181
 3807SOL    HW222884   1.580   4.041   8.771  3.8959 -2.1556 -2.4689
 3808SOL     OW22885   3.973   2.996   8.977 -0.2630  0.4027 -0.5529
 3808SOL    HW122886   4.059   3.037   8.974  0.6208 -1.5176 -1.9182
 3808SOL    HW222887   3.973   2.974   8.884 -0.8715  0.8834 -0.6649
 3809SOL     OW22888   3.370   0.807   6.245 -0.3529 -0.1765  0.0934
 3809SOL    HW122889   3.431   0.736   6.263 -1.3572 -1.5608 -2.0787
 3809SOL    HW222890   3.390   0.871   6.314  0.4977  1.3715 -1.5773
 3810SOL     OW22891   2.098   2.478   3.683  0.1628  0.1779 -0.0672
 3810SOL    HW122892   2.048   2.527   3.617  0.6863 -0.9292 -1.2984
 3810SOL    HW222893   2.088   2.392   3.643  1.6915  1.0885 -2.4441
 3811SOL     OW22894   2.474   1.577   0.004  0.0517  0.3543 -0.3750
 3811SOL    HW122895   2.512   1.493   0.029 -1.0088  0.2489  0.8686
 3811SOL    HW222896   2.381   1.552   0.010 -0.3337  1.5914 -1.3290
 3812SOL     OW22897   0.278   4.449   4.242 -0.2579  0.6614  0.1522
 3812SOL    HW122898   0.192   4.483   4.221 -0.5706  0.1942  0.6674
 3812SOL    HW222899   0.305   4.405   4.161 -1.6224 -1.3868  0.7977
 3813SOL     OW22900   1.461   3.912   2.509 -0.0374 -0.4991  0.0807
 3813SOL    HW122901   1.477   3.950   2.423  0.5071  1.5360  1.0861
 3813SOL    HW222902   1.507   3.829   2.497  0.8751 -0.1701  1.3401
 3814SOL     OW22903   1.527   3.907  15.231 -0.3239 -0.8840 -0.4283
 3814SOL    HW122904   1.456   3.864  15.279 -2.4421  1.3418 -1.5346
 3814SOL    HW222905   1.595   3.842  15.250 -0.3172 -0.2765  1.6261
 3815SOL     OW22906   2.133   3.339   3.636 -0.3580 -0.2845  0.6343
 3815SOL    HW122907   2.068   3.338   3.566  1.1116  2.6242 -0.7866
 3815SOL    HW222908   2.209   3.301   3.591 -0.8254  1.3933 -1.6296
 3816SOL     OW22909   1.073   1.466  13.649 -0.2441 -0.0365 -0.3489
 3816SOL    HW122910   1.026   1.535  13.602 -1.3026 -0.2300  0.4233
 3816SOL    HW222911   1.083   1.406  13.575  0.5025 -0.9464  0.4926
 3817SOL     OW22912   2.698   3.044   3.961 -0.6070 -0.5582 -0.8760
 3817SOL    HW122913   2.713   3.113   3.897  1.7930 -1.0759 -0.8650
 3817SOL    HW222914   2.778   3.058   4.011 -0.4259 -0.3060 -1.2419
 3818SOL     OW22915   4.215   3.469   4.211 -0.2758  0.7308 -0.2912
 3818SOL    HW122916   4.291   3.517   4.241  0.2235 -0.7847  0.8509
 3818SOL    HW222917   4.241   3.464   4.119  3.1322  0.5631  0.6991
 3819SOL     OW22918   3.957   2.996   8.707  0.0184 -0.1743 -0.2616
 3819SOL    HW122919   4.002   3.073   8.673 -1.3056  0.2373 -1.0499
 3819SOL    HW222920   3.877   3.007   8.655 -0.4330  1.2880  0.7683
 3820SOL     OW22921   3.810   0.042   3.076 -0.1622 -0.3291  0.0519
 3820SOL    HW122922   3.733   0.041   3.019 -0.8285  1.3662  0.9118
 3820SOL    HW222923   3.875   0.068   3.010  0.2559 -0.9495  0.2146
 3821SOL     OW22924   4.018   0.696   6.050  0.4449  0.0102 -0.2927
 3821SOL    HW122925   4.061   0.752   6.116 -1.0069 -0.0495  0.7022
 3821SOL    HW222926   4.013   0.611   6.093 -1.3941 -0.0783 -0.6962
 3822SOL     OW22927   4.572   3.522   9.423  0.5107  0.2638  0.0019
 3822SOL    HW122928   4.507   3.592   9.423  0.4105  0.1709  1.0564
 3822SOL    HW222929   4.649   3.567   9.388 -1.4614  2.9471 -0.8169
 3823SOL     OW22930   2.502   2.348   9.768 -0.4935  0.3908 -0.1643
 3823SOL    HW122931   2.556   2.411   9.719  0.4539 -0.5382 -0.3074
 3823SOL    HW222932   2.568   2.280   9.781  0.5630  2.1173  3.2971
 3824SOL     OW22933   2.773   1.687  11.045 -0.0557  0.6359  0.8133
 3824SOL    HW122934   2.796   1.751  10.978  0.3831 -1.9675 -1.5398
 3824SOL    HW222935   2.829   1.697  11.122 -0.2987 -2.0896  1.3568
 3825SOL     OW22936   1.810   4.684   9.095 -0.0399  0.3311  0.4720
 3825SOL    HW122937   1.856   4.606   9.126 -0.5001 -1.6324 -3.8705
 3825SOL    HW222938   1.817   4.671   9.001  0.7522  2.1377  0.2671
 3826SOL     OW22939   0.218   2.823  12.044  0.2456 -0.1400 -0.7682
 3826SOL    HW122940   0.161   2.752  12.014  2.0248 -1.8356 -0.0926
 3826SOL    HW222941   0.307   2.797  12.019 -0.2088 -0.5451 -1.9881
 3827SOL     OW22942   2.658   3.303  16.455 -0.1587  0.3209 -0.0405
 3827SOL    HW122943   2.609   3.292  16.374  1.0232  1.8867 -0.9710
 3827SOL    HW222944   2.721   3.368  16.424  1.3467 -1.4248 -0.6287
 3828SOL     OW22945   1.786   3.198   7.497 -0.7804  0.2646  0.1222
 3828SOL    HW122946   1.752   3.274   7.449 -0.0276  0.8710  0.5585
 3828SOL    HW222947   1.778   3.134   7.427  3.0495 -1.1170  0.9971
 3829SOL     OW22948   0.490   4.117   7.482 -0.2156 -0.2898  0.5078
 3829SOL    HW122949   0.544   4.179   7.530  2.1198 -1.4907 -0.5889
 3829SOL    HW222950   0.405   4.159   7.467 -0.6950 -0.9095  1.4709
 3830SOL     OW22951   3.324   3.331  15.549  0.1661  0.3734 -0.4373
 3830SOL    HW122952   3.261   3.361  15.614  0.7837  0.5851  0.0550
 3830SOL    HW222953   3.393   3.393  15.572  0.9494 -0.4073 -0.6468
 3831SOL     OW22954   3.933   4.268   6.783  0.4945 -0.0032  0.1059
 3831SOL    HW122955   4.008   4.321   6.756  0.7158 -1.1777 -1.6434
 3831SOL    HW222956   3.867   4.302   6.723 -0.0528 -1.1019  0.0697
 3832SOL     OW22957   1.322   2.077   5.841  0.1264 -0.3227 -0.2806
 3832SOL    HW122958   1.270   2.087   5.761 -1.0492 -0.8347  0.4249
 3832SOL    HW222959   1.272   2.113   5.914  1.4641  0.5968  0.1995
 3833SOL     OW22960   3.583   2.841   9.019  0.2490 -0.3642 -0.0771
 3833SOL    HW122961   3.493   2.837   9.052  0.4664 -1.5209  0.3532
 3833SOL    HW222962   3.571   2.773   8.953  0.2260  0.2847 -0.7483
 3834SOL     OW22963   1.212   1.916   6.736 -0.0866  0.0370  0.2798
 3834SOL    HW122964   1.210   2.007   6.765  0.0371  0.3028 -0.5324
 3834SOL    HW222965   1.121   1.886   6.746 -0.3025  0.5393 -0.1686
 3835SOL     OW22966   3.804   1.090  12.918 -0.3183  0.3550 -0.8865
 3835SOL    HW122967   3.731   1.057  12.866 -0.7930  0.4639 -0.2935
 3835SOL    HW222968   3.762   1.172  12.945 -3.0679 -1.0705 -0.7609
 3836SOL     OW22969   4.053   4.138   1.636 -0.3352 -0.3337  0.1658
 3836SOL    HW122970   4.040   4.091   1.554  1.8431 -1.4156  0.4455
 3836SOL    HW222971   4.148   4.142   1.632 -0.3179 -0.9899 -0.0491
 3837SOL     OW22972   2.435   2.426  13.469 -0.1019  0.6454 -0.4935
 3837SOL    HW122973   2.450   2.378  13.550  0.1525  0.1565 -0.8282
 3837SOL    HW222974   2.487   2.364  13.418 -0.1950  0.2268 -0.0776
 3838SOL     OW22975   2.660   4.241   4.806 -0.4483 -0.0783  0.5476
 3838SOL    HW122976   2.740   4.223   4.757  1.0792 -0.6596  3.2636
 3838SOL    HW222977   2.660   4.337   4.804  2.5809 -0.0778  0.9634
 3839SOL     OW22978   3.586   2.143   4.703 -0.1886  0.0988  0.6081
 3839SOL    HW122979   3.546   2.167   4.619  3.5406  4.8973  0.2190
 3839SOL    HW222980   3.580   2.047   4.700  1.7154  0.0694 -1.9749
 3840SOL     OW22981   0.773   2.806   9.066 -0.2468  0.7700  0.4622
 3840SOL    HW122982   0.802   2.868   9.132 -0.8744  2.0044 -0.4147
 3840SOL    HW222983   0.701   2.762   9.111  1.9440 -2.4353  0.8068
 3841SOL     OW22984   1.579   3.270  14.644 -0.0391 -0.0174 -0.2668
 3841SOL    HW122985   1.627   3.293  14.564 -0.4696 -0.7382 -0.7294
 3841SOL    HW222986   1.614   3.336  14.704 -0.1280  0.7639 -1.0707
 3842SOL     OW22987   2.862   1.903   0.531  0.0209  0.5891 -0.3445
 3842SOL    HW122988   2.770   1.896   0.505  0.1885 -0.7237 -0.5587
 3842SOL    HW222989   2.907   1.851   0.464 -0.9002 -0.8673  0.1584
 3843SOL     OW22990   2.859   2.003   0.131 -0.4237 -0.2779 -0.3256
 3843SOL    HW122991   2.772   2.041   0.119 -0.0143  0.7430 -0.0161
 3843SOL    HW222992   2.899   2.049   0.204  0.3769 -0.7560 -0.4603
 3844SOL     OW22993   2.543   0.937   5.412  0.4551 -0.5477  0.6269
 3844SOL    HW122994   2.609   0.885   5.367  1.0941  0.1646  0.7577
 3844SOL    HW222995   2.544   0.895   5.498 -0.4408 -2.7244 -0.4235
 3845SOL     OW22996   1.443   4.122   2.707 -0.2807 -0.3391 -0.5398
 3845SOL    HW122997   1.469   4.043   2.660  0.1578 -0.9628  0.7398
 3845SOL    HW222998   1.348   4.128   2.709 -0.2259  0.1482  0.7471
 3846SOL     OW22999   0.908   1.486  10.363  0.0776  0.5292  0.2662
 3846SOL    HW123000   0.824   1.444  10.377  0.8345 -0.7686  0.9232
 3846SOL    HW223001   0.945   1.485  10.451 -0.0072  1.0004  0.3090
 3847SOL     OW23002   0.646   1.808   5.882  0.2576  0.0409  0.4518
 3847SOL    HW123003   0.611   1.893   5.857 -0.0614 -0.1795  0.1615
 3847SOL    HW223004   0.714   1.784   5.819 -0.2258 -0.5443  0.1486
 3848SOL     OW23005   2.319   4.606   0.350 -0.0708 -0.3410  0.3377
 3848SOL    HW123006   2.386   4.548   0.315  0.1660 -0.0786  0.3542
 3848SOL    HW223007   2.235   4.564   0.333  0.0934  0.0859 -1.5199
 3849SOL     OW23008   4.502   2.029   6.267 -0.0818 -0.9838  0.3726
 3849SOL    HW123009   4.430   1.977   6.230 -0.5355 -0.6235  0.7349
 3849SOL    HW223010   4.528   1.986   6.348  0.5502 -0.6386  0.3538
 3850SOL     OW23011   1.027   2.933   5.858 -0.1892 -0.3267  0.3827
 3850SOL    HW123012   1.089   2.861   5.867  0.4202  0.2043  0.4252
 3850SOL    HW223013   1.084   3.009   5.869 -1.1207  0.4458 -0.0529
 3851SOL     OW23014   2.932   2.255  16.627  0.3691  0.0286  0.0908
 3851SOL    HW123015   2.967   2.283  16.712 -1.7434 -0.2900  1.0523
 3851SOL    HW223016   2.914   2.340  16.588 -1.4847 -0.2277  0.4156
 3852SOL     OW23017   4.100   2.778   7.447  0.7752  0.0856 -0.3580
 3852SOL    HW123018   4.159   2.810   7.516  0.5505 -0.0210 -0.1151
 3852SOL    HW223019   4.090   2.856   7.393 -0.2452  1.0780  1.2606
 3853SOL     OW23020   2.438   4.676  16.854  0.0242 -0.4021  0.4950
 3853SOL    HW123021   2.353   4.638  16.833  1.5418 -3.8749  0.6828
 3853SOL    HW223022   2.466   4.628  16.932 -2.2619 -0.5475  1.2208
 3854SOL     OW23023   3.024   2.624   5.345 -0.4652 -0.2220  0.1963
 3854SOL    HW123024   3.031   2.529   5.347  1.8739 -0.0514 -0.1700
 3854SOL    HW223025   3.098   2.650   5.290  1.5472 -1.7179  2.1981
 3855SOL     OW23026   2.595   4.284  14.640 -0.5082  0.0906 -0.5400
 3855SOL    HW123027   2.608   4.277  14.735  0.0170 -3.5487 -0.8588
 3855SOL    HW223028   2.562   4.374  14.636 -1.8958 -0.2752  2.7441
 3856SOL     OW23029   0.134   2.682   1.149 -0.4024 -0.0197  0.1174
 3856SOL    HW123030   0.052   2.650   1.110  0.4541 -0.8789 -0.9683
 3856SOL    HW223031   0.115   2.775   1.158  0.8557  0.2129  0.3515
 3857SOL     OW23032   1.751   0.793   4.943 -0.6559  0.8457  0.4108
 3857SOL    HW123033   1.734   0.857   4.873  0.8876 -0.1516 -0.8807
 3857SOL    HW223034   1.690   0.723   4.919 -0.7385  0.5659  1.4629
 3858SOL     OW23035   2.271   1.472  17.023  0.0887  0.0336 -0.1257
 3858SOL    HW123036   2.252   1.566  17.022 -0.8612 -0.2046 -4.5069
 3858SOL    HW223037   2.217   1.450  17.100  1.5210 -0.4877  0.7309
 3859SOL     OW23038   1.454   3.990   2.211  0.3852 -0.0975 -0.5651
 3859SOL    HW123039   1.463   4.069   2.157 -0.2518  1.6990  1.9629
 3859SOL    HW223040   1.359   3.988   2.223  0.4888  2.4241  0.5004
 3860SOL     OW23041   4.674   3.257   8.457 -0.0538 -0.7021 -0.3792
 3860SOL    HW123042   4.644   3.215   8.377 -0.2717 -0.0854 -0.6190
 3860SOL    HW223043   0.011   3.322   8.426 -0.3540 -0.5942 -0.7487
 3861SOL     OW23044   1.083   1.177   8.215  0.0581 -0.1398 -0.1787
 3861SOL    HW123045   0.996   1.203   8.247  0.4821  0.6601  0.3202
 3861SOL    HW223046   1.072   1.192   8.121 -1.9688  2.3074  0.4331
 3862SOL     OW23047   3.212   2.166   5.856  0.7130 -0.2365  0.6244
 3862SOL    HW123048   3.147   2.111   5.900 -0.2249 -0.0148 -0.4815
 3862SOL    HW223049   3.292   2.148   5.905 -0.1519 -0.5558  1.9046
 3863SOL     OW23050   1.331   2.514  17.218  0.5552 -0.2884 -0.5369
 3863SOL    HW123051   1.262   2.580  17.224  0.4607 -0.2013 -2.6390
 3863SOL    HW223052   1.341   2.479  17.307  0.9388 -0.2649 -0.5687
 3864SOL     OW23053   4.231   0.515   7.069  0.1076 -0.4810 -0.3609
 3864SOL    HW123054   4.272   0.430   7.053  0.3442 -0.1873 -1.3840
 3864SOL    HW223055   4.252   0.549   6.981  0.1056 -0.5939 -0.4053
 3865SOL     OW23056   4.052   3.360   4.925 -0.5317 -0.3051  0.0520
 3865SOL    HW123057   4.139   3.324   4.907 -0.1151  1.0144 -0.5876
 3865SOL    HW223058   4.059   3.382   5.017 -1.5082 -3.6302  0.9248
 3866SOL     OW23059   3.476   3.373   0.612  0.0674  0.1023 -0.5130
 3866SOL    HW123060   3.449   3.285   0.637  1.4081 -0.0098  0.5310
 3866SOL    HW223061   3.480   3.361   0.517  2.8401  1.2530 -0.5421
 3867SOL     OW23062   0.359   1.396   3.000  0.1862  0.5076 -0.1406
 3867SOL    HW123063   0.443   1.406   3.045  0.7989 -2.0765 -0.6898
 3867SOL    HW223064   0.376   1.347   2.919 -0.4799 -1.0134  0.6328
 3868SOL     OW23065   1.588   1.746  14.989  0.6112  0.6738 -0.4629
 3868SOL    HW123066   1.521   1.679  15.002  2.0121 -0.9318 -1.4553
 3868SOL    HW223067   1.557   1.811  15.053 -1.3429  0.6772 -1.4129
 3869SOL     OW23068   3.395   2.017   8.706 -0.4433  0.0887  0.6427
 3869SOL    HW123069   3.485   2.042   8.728 -1.4401  3.0049  1.5173
 3869SOL    HW223070   3.402   1.922   8.701  1.8256  0.3599 -0.9230
 3870SOL     OW23071   2.687   1.200   3.705  0.0504  0.2089  0.4338
 3870SOL    HW123072   2.714   1.291   3.722  1.6425 -0.2569  0.3990
 3870SOL    HW223073   2.724   1.193   3.617  1.2304 -1.1965  1.0581
 3871SOL     OW23074   1.792   2.904   8.217 -0.6282  0.1068 -0.0669
 3871SOL    HW123075   1.885   2.908   8.195 -0.9559 -0.7298 -1.5471
 3871SOL    HW223076   1.758   2.994   8.221  0.2285  0.4533 -0.7311
 3872SOL     OW23077   3.620   0.785  11.304  0.2609  0.5944 -0.5885
 3872SOL    HW123078   3.562   0.736  11.361  0.2210  0.5558 -0.6616
 3872SOL    HW223079   3.591   0.752  11.219 -1.4860  0.6000  0.0173
 3873SOL     OW23080   4.472   2.425   2.586  0.4953 -0.1049 -0.4000
 3873SOL    HW123081   4.519   2.509   2.579  0.1069  0.0596 -0.9896
 3873SOL    HW223082   4.525   2.382   2.653  0.3335 -2.2056 -1.6367
 3874SOL     OW23083   3.799   2.482   7.657  0.2569  0.8484  0.4437
 3874SOL    HW123084   3.894   2.473   7.671  0.6099  0.3501 -2.3920
 3874SOL    HW223085   3.790   2.434   7.575 -0.1463  3.0353 -0.7775
 3875SOL     OW23086   0.115   1.927   3.135 -0.0867 -0.3497  0.8408
 3875SOL    HW123087   0.048   1.873   3.177 -0.6747  0.8554  1.4660
 3875SOL    HW223088   0.195   1.883   3.162  1.6765  2.2228 -0.0992
 3876SOL     OW23089   3.944   0.166   4.471 -0.2747 -0.1006 -0.0464
 3876SOL    HW123090   3.959   0.250   4.513  1.0828  0.7794 -2.2908
 3876SOL    HW223091   3.989   0.175   4.387  0.0839  2.6831  0.4424
 3877SOL     OW23092   2.821   1.447   6.195  0.0121 -0.2607 -0.0414
 3877SOL    HW123093   2.816   1.525   6.138  1.1874  1.3509  2.0700
 3877SOL    HW223094   2.830   1.494   6.278 -0.2981  2.6752 -1.6610
 3878SOL     OW23095   2.436   4.625   8.187  0.4474 -0.2241  0.5454
 3878SOL    HW123096   2.363   4.564   8.177 -0.4854  0.5596  2.6495
 3878SOL    HW223097   2.390   4.708   8.179 -2.0915 -1.5246  1.6053
 3879SOL     OW23098   1.677   4.266  12.883 -0.6924 -0.1677 -0.2812
 3879SOL    HW123099   1.772   4.265  12.889 -0.4767 -3.0298 -4.0674
 3879SOL    HW223100   1.665   4.223  12.799  0.6492 -0.0980 -0.5101
 3880SOL     OW23101   1.402   1.873   2.391  0.3086  0.9337 -0.4176
 3880SOL    HW123102   1.342   1.947   2.396 -0.0990  0.5718  0.1058
 3880SOL    HW223103   1.480   1.922   2.364 -0.2405  0.4803 -2.8777
 3881SOL     OW23104   4.655   4.442   3.947 -0.6106 -0.3949 -0.2360
 3881SOL    HW123105   4.632   4.471   3.858  0.6152  2.9303  0.5277
 3881SOL    HW223106   4.564   4.420   3.967 -0.3290 -3.8842 -2.7079
 3882SOL     OW23107   0.714   0.610  14.803 -0.0943 -0.8210 -0.3104
 3882SOL    HW123108   0.642   0.671  14.785 -0.1999 -1.3638 -1.6822
 3882SOL    HW223109   0.725   0.573  14.715 -1.9887 -2.6355  0.2169
 3883SOL     OW23110   1.291   1.602  13.439  0.3201 -0.1356 -0.3391
 3883SOL    HW123111   1.356   1.629  13.374  0.9438  0.6078  0.6042
 3883SOL    HW223112   1.277   1.677  13.497  3.2164  0.3893 -0.3214
 3884SOL     OW23113   0.930   0.221   5.287  0.1312 -0.4654  0.2000
 3884SOL    HW123114   0.863   0.285   5.266  2.1435  2.1176  1.7084
 3884SOL    HW223115   0.920   0.218   5.382  1.8763 -0.4532  0.3784
 3885SOL     OW23116   2.379   3.196   5.406  0.5153  0.0361  0.2325
 3885SOL    HW123117   2.297   3.146   5.398  0.5880  0.0920 -0.9695
 3885SOL    HW223118   2.348   3.277   5.365 -0.0277  0.1525  0.8659
 3886SOL     OW23119   0.478   2.504   6.246  0.2208  0.4970  0.1029
 3886SOL    HW123120   0.520   2.547   6.172 -0.9583 -1.1113 -1.4976
 3886SOL    HW223121   0.403   2.459   6.207  2.0774 -2.7322  0.3173
 3887SOL     OW23122   2.258   0.280   4.961  0.1808 -0.4710  0.4313
 3887SOL    HW123123   2.242   0.188   4.981 -2.7213 -0.1325 -0.3663
 3887SOL    HW223124   2.216   0.329   5.032 -0.3936 -2.6297  1.5731
 3888SOL     OW23125   4.466   0.285   7.809 -0.6892 -0.1450  0.4921
 3888SOL    HW123126   4.498   0.252   7.893  0.7549  0.7345  0.2764
 3888SOL    HW223127   4.549   0.275   7.763 -1.5563  0.6548 -1.2417
 3889SOL     OW23128   1.203   0.659  14.118  0.1573  0.0130 -0.1035
 3889SOL    HW123129   1.122   0.682  14.164  0.9963  1.3397  0.7342
 3889SOL    HW223130   1.170   0.698  14.038 -1.3816  1.2133  1.1086
 3890SOL     OW23131   0.465   0.176   0.069 -0.0359 -0.1772 -0.2396
 3890SOL    HW123132   0.545   0.169   0.120  0.7158 -0.1908 -1.4428
 3890SOL    HW223133   0.399   0.136   0.127  0.9359  0.5021  1.3371
 3891SOL     OW23134   4.555   4.425   3.656  0.0279 -0.2863  0.4771
 3891SOL    HW123135   4.582   4.451   3.568  2.0651  0.4612  1.3224
 3891SOL    HW223136   4.567   4.330   3.654  0.3046 -0.1755 -3.0873
 3892SOL     OW23137   4.341   3.139   2.905 -0.1427 -0.8176  0.2451
 3892SOL    HW123138   4.393   3.085   2.846  1.9030 -0.5453  1.7619
 3892SOL    HW223139   4.257   3.101   2.883 -0.7732  1.1754 -0.8018
 3893SOL     OW23140   3.770   0.555   6.213  0.2346  0.4257 -0.4864
 3893SOL    HW123141   3.742   0.491   6.148  1.2703 -0.7535  0.2411
 3893SOL    HW223142   3.851   0.509   6.233 -0.5090 -0.0695  1.3986
 3894SOL     OW23143   2.678   4.642   7.225 -0.3412  0.3697  0.0060
 3894SOL    HW123144   2.744   4.708   7.202  0.4199 -1.1692 -2.1458
 3894SOL    HW223145   2.636   4.615   7.144  0.5949 -0.1487 -0.3115
 3895SOL     OW23146   1.567   1.126   6.426  0.0634 -0.3134 -0.0211
 3895SOL    HW123147   1.629   1.053   6.422 -0.8876 -1.0910 -0.6447
 3895SOL    HW223148   1.503   1.108   6.357 -2.0581 -2.0967  2.3849
 3896SOL     OW23149   4.634   2.642   8.156 -0.5586  0.8006  0.5987
 3896SOL    HW123150   4.681   2.605   8.231  1.5583  0.1758 -1.0436
 3896SOL    HW223151   4.585   2.565   8.127  0.7913  0.2379 -0.1729
 3897SOL     OW23152   3.482   0.374   5.558 -0.0871  0.3199 -0.7436
 3897SOL    HW123153   3.468   0.331   5.475 -3.0197 -1.5273  0.7332
 3897SOL    HW223154   3.404   0.430   5.555  0.4261  1.0815 -0.1332
 3898SOL     OW23155   0.179   3.652   2.969  0.4569  0.0659 -0.0088
 3898SOL    HW123156   0.102   3.698   3.003 -0.3815  0.1779 -2.0520
 3898SOL    HW223157   0.239   3.726   2.957 -1.3748  1.5734  0.1301
 3899SOL     OW23158   2.738   0.175   5.919 -0.2485 -0.1467  0.0327
 3899SOL    HW123159   2.775   0.239   5.858 -1.2640 -0.6170 -1.0738
 3899SOL    HW223160   2.756   0.222   6.001  2.2195  2.5402 -2.0320
 3900SOL     OW23161   3.150   0.874  12.510 -0.0296 -0.1902  0.0642
 3900SOL    HW123162   3.096   0.953  12.502 -0.3326 -0.2777  1.2737
 3900SOL    HW223163   3.176   0.877  12.602 -0.8007 -0.5667  0.2990
 3901SOL     OW23164   3.047   1.935   1.974 -0.4856 -0.2897 -0.1555
 3901SOL    HW123165   3.059   1.918   1.880 -0.8979 -1.5804  0.0273
 3901SOL    HW223166   3.045   2.030   1.965  0.4122 -0.3885 -1.3171
 3902SOL     OW23167   0.680   2.565  12.996  0.2137 -0.3702 -0.5878
 3902SOL    HW123168   0.610   2.568  12.931  0.5261 -1.8549 -0.9945
 3902SOL    HW223169   0.622   2.554  13.072  1.2171 -0.7951  0.1267
 3903SOL     OW23170   1.487   2.707   1.249  0.0496 -0.3379  0.1261
 3903SOL    HW123171   1.518   2.622   1.218 -0.1748 -0.9904  1.7027
 3903SOL    HW223172   1.516   2.767   1.180  0.2960 -0.8585 -0.2172
 3904SOL     OW23173   3.357   1.175   3.820 -0.3608 -0.3190  0.2962
 3904SOL    HW123174   3.327   1.098   3.868  0.9553 -2.6061 -2.6146
 3904SOL    HW223175   3.389   1.139   3.738  2.0140 -0.1650  1.1467
 3905SOL     OW23176   0.495   1.513  15.804  0.3589  0.1097  0.4748
 3905SOL    HW123177   0.473   1.597  15.764 -1.3638 -1.2148 -1.3654
 3905SOL    HW223178   0.565   1.533  15.866  0.2231  1.4619  0.1842
 3906SOL     OW23179   3.018   1.592   8.946  0.0917 -0.3927 -0.3596
 3906SOL    HW123180   3.014   1.688   8.955  0.0375 -0.6603  2.5492
 3906SOL    HW223181   2.930   1.567   8.974  0.8862  0.0068  2.5376
 3907SOL     OW23182   2.151   4.090   7.349  0.6551  0.2181  0.1549
 3907SOL    HW123183   2.076   4.034   7.369  2.0950 -1.0723  1.9343
 3907SOL    HW223184   2.099   4.155   7.301  0.5326 -0.8905 -1.2084
 3908SOL     OW23185   1.098   3.900  12.583 -0.2155  0.3258  0.5613
 3908SOL    HW123186   1.155   3.861  12.650  0.7349 -1.3524 -1.2359
 3908SOL    HW223187   1.050   3.824  12.551 -1.0195  1.1175 -0.0909
 3909SOL     OW23188   4.132   2.451  17.651  0.1252  0.3948  0.0138
 3909SOL    HW123189   4.100   2.393   0.019  1.1030 -0.0026  0.1317
 3909SOL    HW223190   4.220   2.473  17.683 -0.6557  0.7549  1.9362
 3910SOL     OW23191   4.626   2.096   0.719  0.1450 -0.0797 -0.2537
 3910SOL    HW123192   4.717   2.109   0.692 -0.3994  2.6822 -0.7576
 3910SOL    HW223193   4.623   2.096   0.814 -0.5703  1.2374 -0.2810
 3911SOL     OW23194   3.268   4.457   3.405  0.2060 -0.5612  0.5979
 3911SOL    HW123195   3.199   4.522   3.420 -0.5395 -1.0127 -0.8290
 3911SOL    HW223196   3.220   4.374   3.412  0.2634 -0.5404  1.1891
 3912SOL     OW23197   0.614   3.450   8.274  0.3678  0.5015  0.4792
 3912SOL    HW123198   0.613   3.356   8.255  0.7741  0.8584 -1.3368
 3912SOL    HW223199   0.636   3.450   8.367 -0.3132  1.3108  0.6316
 3913SOL     OW23200   2.965   1.216   2.994 -0.0467 -0.6549  0.4772
 3913SOL    HW123201   2.971   1.308   2.967  1.6352 -0.4435  1.5786
 3913SOL    HW223202   2.877   1.191   2.967  0.5372 -1.1900 -0.8994
 3914SOL     OW23203   3.417   3.248  17.483  0.2517 -0.0670 -0.5215
 3914SOL    HW123204   3.350   3.245  17.551  0.1891  0.9109 -0.5335
 3914SOL    HW223205   3.373   3.211  17.407 -0.8727 -1.0143  0.6035
 3915SOL     OW23206   0.289   4.459   2.852  0.3023  0.4771  0.5836
 3915SOL    HW123207   0.194   4.463   2.844  0.2074 -0.7628  1.0487
 3915SOL    HW223208   0.314   4.472   2.760 -0.1173 -1.4235  0.1857
 3916SOL     OW23209   0.344   3.644   2.071  0.8612  0.6137  0.2681
 3916SOL    HW123210   0.394   3.714   2.110  3.3795 -0.8315 -0.3774
 3916SOL    HW223211   0.403   3.570   2.088  2.1091  1.6302  0.2823
 3917SOL     OW23212   4.049   1.151   8.166 -0.0510 -0.3199  0.1710
 3917SOL    HW123213   4.118   1.211   8.138 -0.5913  0.4797  0.5428
 3917SOL    HW223214   3.992   1.207   8.219 -0.5487 -0.0804 -0.6153
 3918SOL     OW23215   3.146   3.297  11.809 -0.3945  0.0402  0.7851
 3918SOL    HW123216   3.050   3.295  11.814 -0.3637 -2.1441  0.7668
 3918SOL    HW223217   3.163   3.236  11.881  1.0873 -1.4069 -0.7988
 3919SOL     OW23218   0.104   1.080   5.270  0.5972 -0.2370 -0.0030
 3919SOL    HW123219   0.123   1.173   5.275 -0.1233 -0.0139 -1.5765
 3919SOL    HW223220   0.015   1.085   5.235  0.0726 -2.5956  0.9778
 3920SOL     OW23221   1.637   3.596   9.845 -0.0579 -0.3212  0.8273
 3920SOL    HW123222   1.647   3.582   9.940 -1.2284 -3.6371  0.4628
 3920SOL    HW223223   1.561   3.654   9.848 -1.6491 -2.3406  0.0556
 3921SOL     OW23224   3.448   2.535  14.646  0.1160 -0.1719 -0.2672
 3921SOL    HW123225   3.439   2.461  14.586 -2.0154 -1.2170  1.3343
 3921SOL    HW223226   3.479   2.497  14.729 -1.5190  0.5748  0.6845
 3922SOL     OW23227   4.639   1.680   2.512  0.3120 -0.0322  0.3400
 3922SOL    HW123228   4.596   1.762   2.535  1.0058  0.9468 -1.8128
 3922SOL    HW223229   4.620   1.621   2.585 -0.5625 -0.4715 -0.2422
 3923SOL     OW23230   1.385   2.031   1.041 -0.3351 -0.8604 -0.1883
 3923SOL    HW123231   1.419   2.010   0.954  1.3211  1.2094 -0.0254
 3923SOL    HW223232   1.403   2.124   1.034 -0.5230 -0.8540 -0.6022
 3924SOL     OW23233   2.434   3.843   5.065 -0.1264 -0.1951  0.1310
 3924SOL    HW123234   2.526   3.821   5.056  0.4201  1.3060  1.8924
 3924SOL    HW223235   2.401   3.755   5.081 -1.2405  0.1041 -0.4702
 3925SOL     OW23236   0.088   0.484   4.265  0.6248  0.5844  0.2426
 3925SOL    HW123237   0.024   0.514   4.329 -2.3372  0.2482 -2.5719
 3925SOL    HW223238   0.133   0.567   4.249 -0.2470  1.0855  0.4009
 3926SOL     OW23239   0.344   0.955   2.230  0.3552 -0.4698  0.3403
 3926SOL    HW123240   0.433   0.988   2.241  0.3803 -0.8202  1.2243
 3926SOL    HW223241   0.357   0.881   2.172 -0.0852  0.0753 -0.4463
 3927SOL     OW23242   2.055   2.991   7.317 -0.1094  0.2864 -0.3156
 3927SOL    HW123243   2.004   3.072   7.315  2.3094  1.7594 -2.2613
 3927SOL    HW223244   1.975   2.939   7.309  0.4367 -0.6491  0.3508
 3928SOL     OW23245   0.708   1.773  10.736 -0.4662  0.5718 -0.4503
 3928SOL    HW123246   0.636   1.745  10.678 -1.1274  1.5567 -0.1007
 3928SOL    HW223247   0.654   1.808  10.807 -1.3789 -1.2058 -0.2707
 3929SOL     OW23248   4.452   4.102  16.034  0.6810 -0.3070  0.5987
 3929SOL    HW123249   4.433   4.095  15.941 -2.1024 -2.1308  1.3013
 3929SOL    HW223250   4.380   4.053  16.075  1.0967 -2.0318 -0.7376
 3930SOL     OW23251   0.118   3.885  14.549 -0.4098  0.2597  0.6160
 3930SOL    HW123252   0.164   3.884  14.632  1.1135  1.6710 -0.2220
 3930SOL    HW223253   0.156   3.812  14.500 -2.3445 -0.1926 -0.2303
 3931SOL     OW23254   2.790   0.250   0.301 -0.5487 -0.5398 -0.0375
 3931SOL    HW123255   2.769   0.216   0.387  2.1038  0.0754  0.8667
 3931SOL    HW223256   2.702   0.268   0.267 -0.5270 -1.1396 -0.4083
 3932SOL     OW23257   1.646   0.536   4.858  0.2404 -0.4527  0.2945
 3932SOL    HW123258   1.682   0.462   4.809  1.3904  1.0402 -1.1652
 3932SOL    HW223259   1.555   0.510   4.859 -1.0447  3.9543 -0.8522
 3933SOL     OW23260   0.570   3.519   5.069  0.2106  0.2392 -0.0777
 3933SOL    HW123261   0.514   3.472   5.131 -0.3318  0.0659 -0.7004
 3933SOL    HW223262   0.510   3.535   4.996  0.0533  2.5243  0.5535
 3934SOL     OW23263   4.650   0.747   8.237 -0.1218 -0.9531 -0.3460
 3934SOL    HW123264   4.582   0.784   8.180  2.4183  0.1574 -2.6726
 3934SOL    HW223265   4.716   0.786   8.180  0.3810 -0.1256  0.8162
 3935SOL     OW23266   3.003   0.200  15.996 -0.8442 -0.4084 -0.1726
 3935SOL    HW123267   3.090   0.239  15.988 -1.4769  1.6046  2.7542
 3935SOL    HW223268   3.013   0.115  15.953 -1.1288  0.1239 -1.3021
 3936SOL     OW23269   0.839   4.428   6.669  0.2452  0.1192  0.4435
 3936SOL    HW123270   0.822   4.471   6.585 -1.7118 -2.8694 -0.6691
 3936SOL    HW223271   0.759   4.447   6.719 -0.1593  2.1109 -0.9514
 3937SOL     OW23272   1.576   2.305   5.001 -0.1893 -0.2259  0.3579
 3937SOL    HW123273   1.507   2.279   5.062  0.4066 -2.6091  0.0111
 3937SOL    HW223274   1.623   2.223   4.989  0.3056  0.0860  0.1657
 3938SOL     OW23275   3.521   0.622   0.428 -0.0931 -0.1438 -0.3708
 3938SOL    HW123276   3.594   0.683   0.436 -0.3125 -0.0869  1.1602
 3938SOL    HW223277   3.567   0.556   0.376 -3.7658 -3.0498  0.1016
 3939SOL     OW23278   1.435   1.778  10.162  0.0017  0.6480  0.2952
 3939SOL    HW123279   1.342   1.785  10.183 -0.1104 -0.5916  0.1733
 3939SOL    HW223280   1.474   1.759  10.248 -0.5352 -1.9474 -0.0604
 3940SOL     OW23281   2.038   1.953  12.115 -0.0975  0.4814  0.1914
 3940SOL    HW123282   1.986   1.964  12.195  0.1934  0.5674  0.3714
 3940SOL    HW223283   2.117   1.918  12.157 -0.1439  0.8604  0.6033
 3941SOL     OW23284   4.092   0.482   2.806  0.1980 -0.2929 -0.2016
 3941SOL    HW123285   4.138   0.421   2.864 -2.8400 -0.5745  1.8700
 3941SOL    HW223286   4.146   0.449   2.734  1.0391 -1.7889  1.1298
 3942SOL     OW23287   0.527   0.354  12.827 -0.2361 -0.0426 -0.2363
 3942SOL    HW123288   0.477   0.283  12.867  1.6166  0.0322  2.2489
 3942SOL    HW223289   0.468   0.425  12.851 -0.0819 -0.1464  0.4643
 3943SOL     OW23290   2.171   3.513   7.823 -0.0024 -0.1473 -0.6526
 3943SOL    HW123291   2.219   3.455   7.882 -1.6515  0.2043  1.0271
 3943SOL    HW223292   2.244   3.550   7.773 -0.9211  1.0431 -1.1095
 3944SOL     OW23293   1.852   1.583   3.234 -0.1035  0.1072  0.1652
 3944SOL    HW123294   1.805   1.503   3.214  0.0707  0.0897 -0.1768
 3944SOL    HW223295   1.807   1.652   3.186 -1.5354 -0.8536  0.1507
 3945SOL     OW23296   4.580   2.647   1.240 -0.6224  0.1556 -0.5179
 3945SOL    HW123297   4.633   2.701   1.299 -1.1875 -1.7590  1.7718
 3945SOL    HW223298   4.521   2.603   1.302 -2.1122  3.5079  0.4656
 3946SOL     OW23299   3.004   0.038  10.529 -0.3333  0.4151  0.0155
 3946SOL    HW123300   2.915   0.025  10.496 -0.2977  2.2660 -0.8074
 3946SOL    HW223301   3.003   0.101  10.601 -1.1063 -1.9952  2.0981
 3947SOL     OW23302   0.727   2.836   4.726  0.2086  0.2680 -0.3105
 3947SOL    HW123303   0.682   2.913   4.761 -0.8103 -1.5714  2.4025
 3947SOL    HW223304   0.708   2.774   4.797 -2.0743  0.5722 -0.6595
 3948SOL     OW23305   2.353   1.378   2.473  0.1923 -0.0922 -0.3558
 3948SOL    HW123306   2.299   1.443   2.428  1.0907  1.0872  0.2520
 3948SOL    HW223307   2.297   1.350   2.545  0.5912 -0.7999 -0.3273
 3949SOL     OW23308   2.956   3.566   5.332 -0.5354  0.3270 -0.5248
 3949SOL    HW123309   2.993   3.521   5.408 -2.0902  2.2848  1.3846
 3949SOL    HW223310   2.909   3.640   5.371  0.8806  0.6726  0.5184
 3950SOL     OW23311   0.030   2.406   5.751  0.0680  0.0162 -0.1952
 3950SOL    HW123312   0.001   2.494   5.775  0.0567  0.3602 -1.4714
 3950SOL    HW223313   4.671   2.359   5.749 -0.1971  0.4618  0.3904
 3951SOL     OW23314   4.304   2.151   4.733 -0.1487 -0.2928  0.8241
 3951SOL    HW123315   4.382   2.194   4.698  0.0385 -1.2440  0.0919
 3951SOL    HW223316   4.236   2.219   4.734 -1.8953 -2.0308  0.1938
 3952SOL     OW23317   1.987   3.850   2.487  0.0853  0.2459  0.5038
 3952SOL    HW123318   1.983   3.918   2.420 -0.4004  0.0968  0.3806
 3952SOL    HW223319   1.920   3.880   2.547 -0.3114 -0.6081  0.4985
 3953SOL     OW23320   2.085   0.584  14.173 -0.2309 -0.2419 -0.0644
 3953SOL    HW123321   2.065   0.669  14.132 -0.8418 -0.3636 -0.0243
 3953SOL    HW223322   2.034   0.598  14.253  0.3227 -1.8000  0.5703
 3954SOL     OW23323   4.291   2.085  12.330 -0.0980  0.0081  0.5637
 3954SOL    HW123324   4.233   2.048  12.263 -0.3618 -2.8167  2.3868
 3954SOL    HW223325   4.374   2.064  12.287 -0.8679  0.4864 -1.1999
 3955SOL     OW23326   0.211   0.942  17.175  0.3851 -0.2111  0.0820
 3955SOL    HW123327   0.181   0.932  17.265 -1.5452  1.6587 -0.3514
 3955SOL    HW223328   0.291   0.993  17.180  0.2864 -0.2055  1.5862
 3956SOL     OW23329   1.461   2.318   8.775  0.2200 -0.7326 -0.4828
 3956SOL    HW123330   1.430   2.408   8.768  0.3967 -0.5910  0.4860
 3956SOL    HW223331   1.553   2.341   8.761  0.5572  0.1536  3.1150
 3957SOL     OW23332   2.028   0.419  16.233  0.3114  0.2292 -0.2313
 3957SOL    HW123333   2.020   0.325  16.213  0.0818  0.1924  0.0380
 3957SOL    HW223334   1.943   0.426  16.276  1.7405 -0.3443  2.7073
 3958SOL     OW23335   4.576   0.845  13.576  0.3560  0.3794  0.1903
 3958SOL    HW123336   4.593   0.756  13.545 -2.1890 -0.2389  0.5582
 3958SOL    HW223337   4.563   0.838  13.671  0.2041  2.8572  0.3447
 3959SOL     OW23338   1.097   3.165   4.207  0.1626 -0.0347 -0.2948
 3959SOL    HW123339   1.032   3.153   4.137  1.3547 -1.8972 -1.0756
 3959SOL    HW223340   1.137   3.246   4.177  0.6587  0.5114  1.8570
 3960SOL     OW23341   0.398   2.534   2.936  0.0917 -1.4648  0.7590
 3960SOL    HW123342   0.380   2.523   2.842 -1.1754 -0.0230  0.8218
 3960SOL    HW223343   0.322   2.494   2.979 -0.0817 -1.7921  0.1543
 3961SOL     OW23344   4.433   1.739   6.330 -0.5112  0.2621  0.4270
 3961SOL    HW123345   4.489   1.715   6.256  0.3038  0.3253  1.0154
 3961SOL    HW223346   4.498   1.766   6.396 -0.2758 -0.5502  0.5377
 3962SOL     OW23347   0.429   1.574  16.911  0.1907 -0.3269 -0.2556
 3962SOL    HW123348   0.358   1.621  16.955  1.5252  2.3783 -1.0231
 3962SOL    HW223349   0.504   1.613  16.956 -0.8046 -1.3327  2.3016
 3963SOL     OW23350   4.237   3.507   6.937  0.0036  0.4784  0.9019
 3963SOL    HW123351   4.263   3.515   6.845  0.4986 -0.0712  0.9919
 3963SOL    HW223352   4.181   3.582   6.957 -1.6752 -0.9630  1.5952
 3964SOL     OW23353   3.270   0.550  13.025  0.3534 -0.9572 -0.2828
 3964SOL    HW123354   3.187   0.593  13.046  0.2213 -0.4848 -1.7550
 3964SOL    HW223355   3.271   0.481  13.092 -0.9175 -1.1717 -0.4863
 3965SOL     OW23356   1.259   0.351   9.107 -0.0116  0.0253  0.4127
 3965SOL    HW123357   1.231   0.440   9.086 -3.7907 -0.7141  2.3140
 3965SOL    HW223358   1.325   0.364   9.176 -0.1941  0.3607  0.5252
 3966SOL     OW23359   0.012   3.207   5.017 -0.1241  0.9421  0.4558
 3966SOL    HW123360   0.035   3.229   4.927 -0.0573  4.0972  1.2617
 3966SOL    HW223361   4.668   3.270   5.035 -2.2051 -1.0082 -0.5904
 3967SOL     OW23362   1.381   2.458   7.187 -0.8910  0.5688 -0.4316
 3967SOL    HW123363   1.332   2.424   7.262 -2.9060 -0.7857 -2.3654
 3967SOL    HW223364   1.402   2.373   7.148  0.0601  0.6071  0.0097
 3968SOL     OW23365   3.467   0.947   7.575  0.0759  0.0588  0.0586
 3968SOL    HW123366   3.531   1.017   7.564  2.0876 -1.8080 -0.1333
 3968SOL    HW223367   3.392   0.984   7.529  0.0503 -3.1168 -2.4696
 3969SOL     OW23368   2.689   2.476   7.708  0.1073 -0.1895  0.1101
 3969SOL    HW123369   2.696   2.410   7.778  0.8602 -0.2402 -0.0131
 3969SOL    HW223370   2.710   2.547   7.768  1.7076  0.3603 -1.1062
 3970SOL     OW23371   3.400   3.029   5.717 -0.5199 -0.0904 -0.2088
 3970SOL    HW123372   3.379   3.067   5.802 -0.5682 -1.2495  0.3105
 3970SOL    HW223373   3.424   3.108   5.669  1.0006 -0.4841 -0.0976
 3971SOL     OW23374   1.794   3.685   5.878  0.2398  0.1452  0.8205
 3971SOL    HW123375   1.865   3.679   5.943 -0.0085  0.9863  1.1747
 3971SOL    HW223376   1.832   3.631   5.809  3.1574  0.1374  2.4212
 3972SOL     OW23377   3.658   4.222   4.667  0.4448  0.3731  0.3511
 3972SOL    HW123378   3.647   4.309   4.628  0.0735 -0.1283 -0.6666
 3972SOL    HW223379   3.647   4.158   4.597 -1.4420  0.8882  0.1855
 3973SOL     OW23380   2.466   0.985  11.277 -0.2239  0.1067  0.2469
 3973SOL    HW123381   2.420   0.901  11.278 -0.6216  0.3341  0.9342
 3973SOL    HW223382   2.554   0.950  11.262 -0.1694  0.7318 -0.8379
 3974SOL     OW23383   2.141   0.368   4.745 -0.7418  0.0075  0.3590
 3974SOL    HW123384   2.214   0.318   4.707 -0.3693  0.2510  0.7455
 3974SOL    HW223385   2.157   0.349   4.838 -1.7107 -2.7664 -0.0246
 3975SOL     OW23386   1.255   0.270  12.894 -0.1418  0.4785  0.0942
 3975SOL    HW123387   1.166   0.244  12.870 -0.8563  0.5967  2.6865
 3975SOL    HW223388   1.256   0.364  12.875  0.9974  0.5931  0.6730
 3976SOL     OW23389   0.292   2.893   7.728  0.2801 -0.4095  0.1078
 3976SOL    HW123390   0.363   2.881   7.792 -1.7060 -1.0458  2.1696
 3976SOL    HW223391   0.223   2.854   7.781 -1.5643  1.7284 -0.7167
 3977SOL     OW23392   0.598   4.005  13.775 -0.1742  0.3870 -0.4414
 3977SOL    HW123393   0.632   3.922  13.808 -1.6725  0.0853  0.3315
 3977SOL    HW223394   0.610   4.063  13.851  0.1908 -0.0177 -0.1927
 3978SOL     OW23395   2.624   0.946   6.651 -0.0978 -0.0986 -0.3403
 3978SOL    HW123396   2.537   0.981   6.629 -0.9768 -1.4407  0.9856
 3978SOL    HW223397   2.638   0.983   6.738  1.4115 -1.0184 -0.2065
 3979SOL     OW23398   4.380   0.636   6.352 -0.5977  0.4696  0.1579
 3979SOL    HW123399   4.426   0.709   6.309  0.0742 -0.4960 -0.7752
 3979SOL    HW223400   4.333   0.603   6.276  0.5718 -1.6534  0.3475
 3980SOL     OW23401   2.031   3.950  11.151 -0.2984  0.3660 -0.0284
 3980SOL    HW123402   1.963   3.885  11.133 -1.1021  0.9664  0.8506
 3980SOL    HW223403   2.068   3.963  11.064 -0.9687 -0.7926 -0.4948
 3981SOL     OW23404   3.266   4.348  17.236  0.0067  0.5563  0.3409
 3981SOL    HW123405   3.229   4.403  17.305  0.9123 -0.0784  1.3363
 3981SOL    HW223406   3.350   4.388  17.217 -0.3022  0.9888 -0.1135
 3982SOL     OW23407   1.215   4.406   7.012 -0.7019 -0.1662  0.4431
 3982SOL    HW123408   1.147   4.466   7.042  0.0638  1.6691 -1.4309
 3982SOL    HW223409   1.291   4.463   6.996 -0.8354 -0.3472 -0.8978
 3983SOL     OW23410   1.641   1.520   4.123  0.4043  0.0760 -0.3246
 3983SOL    HW123411   1.654   1.611   4.151  3.1686 -0.5589  0.4337
 3983SOL    HW223412   1.708   1.517   4.055 -0.7006  0.8287 -1.4573
 3984SOL     OW23413   2.435   4.031   0.492 -0.3064 -0.2231  0.1564
 3984SOL    HW123414   2.508   3.981   0.455  0.9030  1.8285 -0.2358
 3984SOL    HW223415   2.359   3.980   0.463 -2.1948  1.4531  2.1929
 3985SOL     OW23416   0.307   0.735   3.939 -0.2331 -0.1263  0.5929
 3985SOL    HW123417   0.305   0.639   3.935  0.3620  0.0332 -4.0514
 3985SOL    HW223418   0.271   0.751   3.851  1.8845 -3.7631 -0.9239
 3986SOL     OW23419   0.776   3.135   6.499  0.0830 -0.1221  0.3761
 3986SOL    HW123420   0.781   3.186   6.580  0.0294  0.4923 -0.0105
 3986SOL    HW223421   0.688   3.155   6.468  1.4858  1.4226 -2.5383
 3987SOL     OW23422   2.732   0.138  13.718  0.5062 -0.6724  0.4358
 3987SOL    HW123423   2.738   0.042  13.714  2.2415 -0.5434  0.0241
 3987SOL    HW223424   2.639   0.159  13.716  0.7295  0.4803  1.8126
 3988SOL     OW23425   3.502   4.363   7.470  0.4342  0.4576 -0.0953
 3988SOL    HW123426   3.511   4.407   7.554  1.9279  2.0523 -1.1047
 3988SOL    HW223427   3.430   4.415   7.434 -0.0366  1.7560  2.7702
 3989SOL     OW23428   3.253   0.510   3.423 -0.6305 -0.1606  0.3465
 3989SOL    HW123429   3.240   0.573   3.353 -0.9033 -2.9905 -2.1218
 3989SOL    HW223430   3.266   0.559   3.505  2.4554  1.5060 -1.1083
 3990SOL     OW23431   2.873   4.073  11.894  0.1687 -0.2648  0.1514
 3990SOL    HW123432   2.960   4.109  11.876 -0.6481  1.4283 -0.5171
 3990SOL    HW223433   2.818   4.149  11.872 -0.7671 -1.1548 -0.5840
 3991SOL     OW23434   0.956   4.685   3.206  0.1234 -0.1425 -0.1592
 3991SOL    HW123435   0.986   4.598   3.232 -0.8134 -0.4865 -0.2242
 3991SOL    HW223436   0.864   4.661   3.194  0.4112 -1.1234 -0.4122
 3992SOL     OW23437   2.054   0.436   6.544 -0.8024  0.9636  0.5750
 3992SOL    HW123438   2.075   0.529   6.531 -1.1969  1.0104  0.2839
 3992SOL    HW223439   2.143   0.406   6.561 -0.7270  0.9414  0.1568
 3993SOL     OW23440   0.170   2.305   3.002  0.1232 -0.5230  0.3197
 3993SOL    HW123441   0.159   2.257   3.084 -0.8675 -1.6664 -0.4953
 3993SOL    HW223442   0.176   2.231   2.942 -0.5522 -1.2859  1.1986
 3994SOL     OW23443   1.807   3.880  15.505 -0.0250  0.7680  0.4355
 3994SOL    HW123444   1.761   3.829  15.438 -0.5996 -0.1690  1.5469
 3994SOL    HW223445   1.786   3.830  15.584 -0.7327 -0.3159 -0.4491
 3995SOL     OW23446   3.560   1.111   4.038  0.2750 -0.1447 -0.4014
 3995SOL    HW123447   3.519   1.025   4.024 -0.4356  0.1697 -0.2479
 3995SOL    HW223448   3.486   1.162   4.072 -0.4543 -1.5470  0.1712
 3996SOL     OW23449   2.506   2.672  15.157  0.0829 -0.4103 -0.7379
 3996SOL    HW123450   2.593   2.639  15.134  0.7016 -0.3729  1.5080
 3996SOL    HW223451   2.463   2.659  15.073 -4.2844  0.3675  1.3933
 3997SOL     OW23452   2.533   1.444   3.991 -0.2020  0.3585  0.4537
 3997SOL    HW123453   2.607   1.382   3.990  0.2105  0.8773 -1.5473
 3997SOL    HW223454   2.583   1.516   4.029  0.5206 -0.4340  1.0199
 3998SOL     OW23455   2.660   1.994  11.653  0.1132 -0.1796 -0.4778
 3998SOL    HW123456   2.648   2.051  11.729 -0.4039 -2.7619  1.3561
 3998SOL    HW223457   2.644   2.052  11.579 -0.9798  1.6405  1.1751
 3999SOL     OW23458   4.401   0.569  11.068  0.3642 -0.8601 -0.2974
 3999SOL    HW123459   4.422   0.502  11.002 -0.2045 -1.8365  0.5061
 3999SOL    HW223460   4.475   0.625  11.048  0.6463  0.0349  3.2718
 4000SOL     OW23461   0.865   0.961  11.597 -0.5292 -0.1489  0.4352
 4000SOL    HW123462   0.828   1.041  11.636  0.0995 -0.5292  1.8244
 4000SOL    HW223463   0.867   0.992  11.507  1.4863 -0.0242  0.5216
 4001SOL     OW23464   1.341   1.016   8.636  0.3550  0.1248  0.1745
 4001SOL    HW123465   1.368   0.947   8.575 -0.1779  1.6171 -1.7175
 4001SOL    HW223466   1.408   1.002   8.704  0.8529 -2.0316 -0.7598
 4002SOL     OW23467   3.735   1.152   3.691  0.6786  0.1371 -0.2646
 4002SOL    HW123468   3.782   1.069   3.681 -0.7550 -0.7391  0.3012
 4002SOL    HW223469   3.804   1.217   3.677  0.8840 -0.3133 -1.3202
 4003SOL     OW23470   3.493   1.210  11.777 -0.5231  0.4790 -0.0556
 4003SOL    HW123471   3.509   1.185  11.686  1.5443 -0.2664  0.5125
 4003SOL    HW223472   3.443   1.135  11.810 -0.2634  1.0201  1.6077
 4004SOL     OW23473   1.441   1.476   4.305  0.1382 -0.7296  0.2218
 4004SOL    HW123474   1.353   1.512   4.293  1.1009  1.2843 -0.9380
 4004SOL    HW223475   1.482   1.500   4.221 -1.6354  0.7480 -0.2281
 4005SOL     OW23476   4.680   2.973  10.698 -0.3578  0.2259 -0.4035
 4005SOL    HW123477   0.050   2.965  10.689  0.0705  3.2821  1.4731
 4005SOL    HW223478   4.657   2.897  10.753  0.7558 -1.2482 -1.9780
 4006SOL     OW23479   2.370   1.866  10.220  0.1836 -0.2892 -0.4889
 4006SOL    HW123480   2.452   1.820  10.203  0.6880  0.8653 -1.1909
 4006SOL    HW223481   2.409   1.943  10.262  2.0653 -0.5002 -1.8305
 4007SOL     OW23482   1.583   4.684   1.143 -0.0747  0.8790 -0.1429
 4007SOL    HW123483   1.493   4.667   1.116 -0.0518  0.5104  0.0112
 4007SOL    HW223484   1.565   0.012   1.221 -0.3529  3.0213 -1.6730
 4008SOL     OW23485   4.102   3.976   8.194  0.0531  0.8101 -0.5364
 4008SOL    HW123486   4.050   4.051   8.224  0.0511  0.5542  0.1015
 4008SOL    HW223487   4.038   3.940   8.133  1.5050 -1.3305 -0.7932
 4009SOL     OW23488   1.165   2.966   2.658 -0.3508 -0.1989  0.1763
 4009SOL    HW123489   1.091   2.907   2.676  0.8553 -1.8091 -0.2074
 4009SOL    HW223490   1.154   3.021   2.736  0.9317  1.3830 -0.7827
 4010SOL     OW23491   3.143   2.420  15.526 -0.6811  0.2334  0.9399
 4010SOL    HW123492   3.162   2.327  15.528 -0.5810  0.2816  2.2441
 4010SOL    HW223493   3.146   2.447  15.618  0.3346 -0.4714  1.1040
 4011SOL     OW23494   3.959   1.597   6.437 -0.2153  0.3886  0.0529
 4011SOL    HW123495   3.910   1.593   6.355 -2.8830  0.8925  1.6007
 4011SOL    HW223496   3.962   1.692   6.453  0.8870  0.5781 -1.3389
 4012SOL     OW23497   1.800   2.191   8.576 -0.7613  0.3299 -0.4801
 4012SOL    HW123498   1.806   2.157   8.486  0.4006 -0.0130 -0.2685
 4012SOL    HW223499   1.782   2.111   8.626 -2.5094  1.9636  1.4755
 4013SOL     OW23500   0.016   2.506   8.718 -0.5280 -0.1090  0.2222
 4013SOL    HW123501   0.011   2.418   8.680  1.8416 -0.5937  1.0195
 4013SOL    HW223502   4.694   2.498   8.802  1.5920  1.2719  1.5413
 4014SOL     OW23503   1.428   1.366  10.476  0.2238 -0.3570  0.8729
 4014SOL    HW123504   1.500   1.344  10.417 -0.7472 -1.3619  0.0423
 4014SOL    HW223505   1.465   1.315  10.547  1.9247  0.3561  0.4896
 4015SOL     OW23506   1.855   1.452  13.019  0.0268  0.1429  0.6268
 4015SOL    HW123507   1.796   1.467  12.944 -1.5373  0.0974  1.8475
 4015SOL    HW223508   1.937   1.448  12.971 -0.2136  1.0746  0.1212
 4016SOL     OW23509   2.341   2.713   7.329  0.5256  0.0190 -0.6564
 4016SOL    HW123510   2.358   2.713   7.235 -2.7786 -0.5911 -1.2250
 4016SOL    HW223511   2.417   2.756   7.369  0.4695  0.8349 -1.4150
 4017SOL     OW23512   1.152   2.228   0.736 -0.0419  0.3056 -0.0904
 4017SOL    HW123513   1.097   2.186   0.670 -0.6567 -0.6771  1.0416
 4017SOL    HW223514   1.126   2.320   0.725 -0.7232 -0.1404 -2.2271
 4018SOL     OW23515   1.624   0.432  17.538  0.3194  0.0818  0.3647
 4018SOL    HW123516   1.715   0.451  17.561  0.7467 -1.0819 -0.3692
 4018SOL    HW223517   1.612   0.501  17.473  0.9509  0.5176  0.7156
 4019SOL     OW23518   2.321   4.232   1.577  0.0796 -0.2865 -0.3165
 4019SOL    HW123519   2.377   4.166   1.618 -0.8094 -0.0386  1.2713
 4019SOL    HW223520   2.389   4.288   1.539  0.2808  0.1177  0.6582
 4020SOL     OW23521   0.266   3.921   8.463  0.1934 -0.0076 -0.4135
 4020SOL    HW123522   0.333   3.868   8.506 -0.2936 -0.8086 -0.6414
 4020SOL    HW223523   0.192   3.863   8.446  1.3096 -2.3644  2.7004
 4021SOL     OW23524   3.773   1.579  15.598 -0.0014  0.2899  0.2283
 4021SOL    HW123525   3.708   1.609  15.535 -0.1258  1.5163  0.9528
 4021SOL    HW223526   3.808   1.663  15.627 -0.6179  1.1111 -1.3860
 4022SOL     OW23527   2.072   4.619   9.218 -0.1478 -0.0358  0.0345
 4022SOL    HW123528   2.025   4.547   9.177 -0.0001  0.6167 -1.2837
 4022SOL    HW223529   2.094   4.599   9.309 -0.9322 -0.6332  0.0943
 4023SOL     OW23530   3.410   1.036   6.101 -0.2778 -0.4676  0.4667
 4023SOL    HW123531   3.407   0.943   6.121  0.4115 -0.2195  1.6899
 4023SOL    HW223532   3.380   1.035   6.010 -0.8958 -2.1805  0.6940
 4024SOL     OW23533   0.822   3.289  17.223 -0.2795 -0.5710  0.2041
 4024SOL    HW123534   0.865   3.215  17.266 -2.0932 -2.1189 -0.6250
 4024SOL    HW223535   0.729   3.270  17.238 -0.9355  2.3747 -0.1351
 4025SOL     OW23536   0.640   1.707   2.509  0.5436 -0.0938 -0.8841
 4025SOL    HW123537   0.581   1.682   2.580 -0.8783  1.1673 -1.6197
 4025SOL    HW223538   0.708   1.735   2.570  0.2448  0.9521 -1.0301
 4026SOL     OW23539   2.781   0.125   6.200  0.1728  0.1770 -0.0731
 4026SOL    HW123540   2.829   0.053   6.240  1.0716  1.4062  1.0604
 4026SOL    HW223541   2.736   0.081   6.128  0.9479 -0.2795 -0.2728
 4027SOL     OW23542   3.001   3.297  12.550 -0.1179  0.2347  0.0703
 4027SOL    HW123543   3.035   3.215  12.587  0.4639  0.3912 -0.1134
 4027SOL    HW223544   3.029   3.368  12.608 -0.4044 -0.5634  1.1995
 4028SOL     OW23545   1.320   0.488   6.577 -0.0230 -0.3852  0.7422
 4028SOL    HW123546   1.226   0.470   6.568  0.3547 -0.9730 -2.1627
 4028SOL    HW223547   1.342   0.528   6.493  0.1262 -1.7690  0.1389
 4029SOL     OW23548   1.324   3.286   4.488 -0.2276  0.1232  0.3302
 4029SOL    HW123549   1.248   3.309   4.434  2.1419 -0.3399 -3.1811
 4029SOL    HW223550   1.371   3.226   4.430 -0.5746 -0.5126  0.6999
 4030SOL     OW23551   0.842   4.490  10.237 -0.2040  0.2952 -0.3412
 4030SOL    HW123552   0.870   4.419  10.179  1.7481  0.7535  0.0389
 4030SOL    HW223553   0.864   4.449  10.321 -0.7573  2.0430  0.6593
 4031SOL     OW23554   2.462   3.746   1.222  0.1859 -0.0224 -0.1467
 4031SOL    HW123555   2.463   3.753   1.318 -2.1597 -1.8206  0.0183
 4031SOL    HW223556   2.384   3.800   1.207  1.9544  2.3118 -0.9075
 4032SOL     OW23557   4.532   3.701   8.327  0.9209  0.0140  0.2839
 4032SOL    HW123558   4.471   3.683   8.255  0.2965  0.0598  0.8081
 4032SOL    HW223559   4.511   3.783   8.372  1.0740  1.2451 -1.8477
 4033SOL     OW23560   3.947   2.226   1.727  0.2600 -0.5835  0.6430
 4033SOL    HW123561   4.033   2.185   1.721 -0.6478 -2.5403  1.2771
 4033SOL    HW223562   3.964   2.289   1.797 -0.5022  0.2011  0.1299
 4034SOL     OW23563   0.047   4.466   5.579 -0.1105  0.0352 -0.5615
 4034SOL    HW123564   0.021   4.482   5.670  0.7939  1.2883 -0.5213
 4034SOL    HW223565   0.120   4.527   5.568  0.1122 -0.2042 -0.4154
 4035SOL     OW23566   4.272   3.042   6.986 -0.3701  0.2884 -0.0806
 4035SOL    HW123567   4.233   3.127   7.002 -0.0946  0.5099 -0.6042
 4035SOL    HW223568   4.365   3.064   6.998  0.2153 -1.0343 -2.0967
 4036SOL     OW23569   0.247   4.576   9.044 -0.0487  0.3269 -0.2055
 4036SOL    HW123570   0.312   4.645   9.056 -0.9524  0.7701  2.2881
 4036SOL    HW223571   0.246   4.554   8.951  2.3455  2.1219 -0.6380
 4037SOL     OW23572   3.818   3.379   6.075 -0.0003  0.1251  0.6455
 4037SOL    HW123573   3.866   3.297   6.060  1.7294  0.9038  1.8608
 4037SOL    HW223574   3.786   3.371   6.165  0.3478  2.5638  0.9922
 4038SOL     OW23575   3.069   3.750  16.002  0.0924 -0.2145 -0.4325
 4038SOL    HW123576   3.068   3.671  15.947 -1.4743 -0.5691  0.0992
 4038SOL    HW223577   3.156   3.788  15.989 -0.0159 -0.2597 -1.2719
 4039SOL     OW23578   0.921   1.702  13.842  0.2524  0.6370 -0.7362
 4039SOL    HW123579   0.944   1.638  13.910 -0.3774  1.5848  0.3619
 4039SOL    HW223580   0.889   1.648  13.770  0.9830 -1.7041  0.7012
 4040SOL     OW23581   2.406   3.837   4.703 -0.1527 -0.6752 -0.0526
 4040SOL    HW123582   2.473   3.897   4.671  1.9848 -2.0617  1.8374
 4040SOL    HW223583   2.395   3.775   4.630  1.2200 -1.4496  0.3981
 4041SOL     OW23584   1.651   2.488   5.208 -0.6898  0.1237 -0.2208
 4041SOL    HW123585   1.665   2.405   5.253  2.7846  0.4775 -0.6928
 4041SOL    HW223586   1.611   2.448   5.131  0.1690  1.1261 -1.1934
 4042SOL     OW23587   2.389   1.082  12.835 -0.0834  0.4524 -0.5226
 4042SOL    HW123588   2.424   0.998  12.864 -1.2693  0.0783 -0.1646
 4042SOL    HW223589   2.365   1.116  12.922 -0.5041 -2.8453  0.6267
 4043SOL     OW23590   3.293   1.199   0.536  0.1109  0.4438 -0.6459
 4043SOL    HW123591   3.328   1.110   0.546 -1.5581  0.1320  2.3123
 4043SOL    HW223592   3.353   1.235   0.471 -1.5333  2.7102 -0.8867
 4044SOL     OW23593   2.712   4.168   2.780 -0.5963  0.1264  0.1513
 4044SOL    HW123594   2.802   4.155   2.749 -0.4034 -0.1631  0.8330
 4044SOL    HW223595   2.686   4.235   2.717  0.4167 -1.3176 -1.8050
 4045SOL     OW23596   3.133   4.371   3.051  0.1446 -0.1402  0.4936
 4045SOL    HW123597   3.147   4.302   2.986  0.0631 -0.9243  1.3030
 4045SOL    HW223598   3.040   4.359   3.067 -0.0589  1.8200  0.8043
 4046SOL     OW23599   1.208   1.013   5.149  0.2320 -0.3843 -0.5995
 4046SOL    HW123600   1.272   1.074   5.185 -0.2364  1.7041 -3.2820
 4046SOL    HW223601   1.178   0.986   5.236  0.8971 -2.8998 -1.1407
 4047SOL     OW23602   0.168   2.748   2.573 -0.2152 -0.3714  0.4304
 4047SOL    HW123603   0.105   2.752   2.501 -0.2583  1.9136  0.5875
 4047SOL    HW223604   0.108   2.730   2.645 -1.9352 -0.7761 -1.1008
 4048SOL     OW23605   0.688   2.350   2.354 -0.4114  0.1691 -0.5284
 4048SOL    HW123606   0.731   2.268   2.377  0.6180  1.2868  1.6044
 4048SOL    HW223607   0.768   2.391   2.321 -0.1782  0.8221  0.8230
 4049SOL     OW23608   2.025   0.015   0.204 -0.2585 -0.1307  0.3090
 4049SOL    HW123609   1.959   0.015   0.135 -2.6941  0.8483  2.6228
 4049SOL    HW223610   2.019   4.645   0.218 -0.2501 -0.1273  0.3369
 4050SOL     OW23611   4.316   2.561   6.514 -0.4618  0.3726  0.3385
 4050SOL    HW123612   4.273   2.645   6.530 -1.5127 -0.0599 -0.2489
 4050SOL    HW223613   4.329   2.531   6.604 -0.1042  1.1978  0.5568
 4051SOL     OW23614   2.637   1.668   4.139 -0.1634  0.0880 -0.0559
 4051SOL    HW123615   2.705   1.728   4.171 -0.6252  0.9949 -0.7824
 4051SOL    HW223616   2.631   1.728   4.065  1.6425 -1.4261 -1.4582
 4052SOL     OW23617   2.387   3.944   7.244 -0.1792 -0.2363  0.2265
 4052SOL    HW123618   2.317   3.982   7.297  2.6193  0.0557  3.7197
 4052SOL    HW223619   2.361   3.970   7.155  0.4078 -0.3197  0.0298
 4053SOL     OW23620   0.709   2.237  13.511 -0.0016  0.2963  0.3685
 4053SOL    HW123621   0.788   2.184  13.523 -1.1281 -1.8310 -1.5940
 4053SOL    HW223622   0.713   2.286  13.593  1.6854  1.2061 -0.2589
 4054SOL     OW23623   0.670   1.684  13.652  0.0707  0.0754 -0.2348
 4054SOL    HW123624   0.745   1.658  13.598  0.3579  1.6924 -0.5956
 4054SOL    HW223625   0.598   1.687  13.589 -0.3576 -0.7281  0.2052
 4055SOL     OW23626   1.261   2.129  14.289  0.0481  0.2110 -0.1528
 4055SOL    HW123627   1.303   2.044  14.300 -0.6425 -0.1331 -0.1919
 4055SOL    HW223628   1.340   2.181  14.306 -0.1900  1.5998 -3.3261
 4056SOL     OW23629   0.020   0.993   7.911 -0.2675 -0.6388  0.2840
 4056SOL    HW123630   4.674   1.053   7.891  0.0087 -0.0808  0.9938
 4056SOL    HW223631   0.037   0.954   7.825  2.2978 -2.9691  1.7990
 4057SOL     OW23632   3.832   2.167  13.660 -0.8521  0.5604 -0.4139
 4057SOL    HW123633   3.746   2.136  13.630  0.0940 -2.3330 -0.1426
 4057SOL    HW223634   3.861   2.087  13.704  0.5751  1.6244  0.5501
 4058SOL     OW23635   4.375   3.431   1.162  0.3387 -0.2013 -0.0356
 4058SOL    HW123636   4.430   3.499   1.201  1.1943  0.3171 -2.1634
 4058SOL    HW223637   4.305   3.415   1.226 -0.1505  0.5147 -0.3972
 4059SOL     OW23638   1.422   1.222  15.809  0.0893 -0.0337 -0.3230
 4059SOL    HW123639   1.466   1.288  15.755 -0.1104  2.1700  2.2171
 4059SOL    HW223640   1.384   1.163  15.744  2.8805  1.8163 -3.6802
 4060SOL     OW23641   1.867   3.484  13.864  0.0465 -0.0129 -0.3285
 4060SOL    HW123642   1.916   3.466  13.783  0.4163 -0.8656  0.0860
 4060SOL    HW223643   1.922   3.541  13.918  0.0455 -0.4436  0.1198
 4061SOL     OW23644   0.786   0.693   9.775  0.3420 -0.0627 -0.0695
 4061SOL    HW123645   0.847   0.667   9.706  2.8468 -2.7534  3.1647
 4061SOL    HW223646   0.806   0.787   9.777  1.2585 -0.2801  1.4581
 4062SOL     OW23647   4.600   0.460  16.919  0.3128 -0.3198  0.2992
 4062SOL    HW123648   4.688   0.437  16.948 -0.5887 -2.8997  0.9098
 4062SOL    HW223649   4.554   0.379  16.940  0.9170 -1.3654 -2.4391
 4063SOL     OW23650   0.991   2.121  10.306 -0.3259 -0.4786  0.0163
 4063SOL    HW123651   0.910   2.163  10.335 -0.0398 -0.7997  1.2645
 4063SOL    HW223652   0.975   2.118  10.212  0.0707  0.2186 -0.0731
 4064SOL     OW23653   3.136   1.602  10.736  0.0124 -0.2138  0.3484
 4064SOL    HW123654   3.139   1.644  10.650 -0.8883 -1.5002 -0.3061
 4064SOL    HW223655   3.093   1.521  10.709 -1.0167 -0.4039  2.5589
 4065SOL     OW23656   1.423   0.806   0.578  0.1314  0.0439  0.3665
 4065SOL    HW123657   1.511   0.780   0.605  0.0451 -0.1979  0.4175
 4065SOL    HW223658   1.429   0.821   0.483  0.2478 -0.3996  0.3012
 4066SOL     OW23659   2.756   1.652   8.177 -0.0446  0.0758  0.1456
 4066SOL    HW123660   2.664   1.627   8.169 -0.1052  0.3352  0.0090
 4066SOL    HW223661   2.750   1.725   8.239 -0.5348  1.9616 -2.1139
 4067SOL     OW23662   0.678   4.086  12.148 -0.3884  0.9222 -0.1305
 4067SOL    HW123663   0.771   4.095  12.167 -0.4769  1.5451 -0.0060
 4067SOL    HW223664   0.645   4.170  12.178 -2.1659  0.4623 -0.7721
 4068SOL     OW23665   4.444   3.597  17.607  0.3049  0.5509  0.0665
 4068SOL    HW123666   4.359   3.632  17.634  0.5242  0.0726  1.3548
 4068SOL    HW223667   4.479   3.609  17.696  2.3516  1.1523 -0.8075
 4069SOL     OW23668   4.210   1.671  13.617  0.3039  0.4235 -0.0286
 4069SOL    HW123669   4.255   1.684  13.701 -0.7512  2.9246  0.1421
 4069SOL    HW223670   4.117   1.682  13.635  0.3322  0.5322  0.0501
 4070SOL     OW23671   1.910   3.178   9.250  0.2469  0.1095  0.1217
 4070SOL    HW123672   1.906   3.264   9.207  1.6693  0.0989 -0.0268
 4070SOL    HW223673   1.951   3.204   9.332  0.2867  0.6831 -0.0748
 4071SOL     OW23674   0.705   3.935   6.268 -0.0833  0.4641  0.5648
 4071SOL    HW123675   0.745   3.926   6.354  0.6704 -0.8070  0.0896
 4071SOL    HW223676   0.711   4.028   6.247 -0.7173  0.5563  0.8182
 4072SOL     OW23677   1.686   2.786   2.309  0.1447 -0.1875 -0.1175
 4072SOL    HW123678   1.601   2.814   2.275 -0.2780 -0.3842  0.7812
 4072SOL    HW223679   1.673   2.825   2.396  0.1450 -2.0635  0.7324
 4073SOL     OW23680   1.857   2.603   7.568 -0.5216  0.0580 -0.1264
 4073SOL    HW123681   1.945   2.629   7.544  0.4551 -3.8049 -0.6301
 4073SOL    HW223682   1.813   2.688   7.581  0.8318  1.1327 -2.5582
 4074SOL     OW23683   4.322   4.375  13.763 -0.2601 -0.2041 -0.2773
 4074SOL    HW123684   4.388   4.306  13.763  0.3772  0.3779  2.5539
 4074SOL    HW223685   4.366   4.457  13.739  2.5467 -2.4156 -2.6266
 4075SOL     OW23686   2.508   3.045   1.184  0.5428  0.1194 -0.0361
 4075SOL    HW123687   2.482   2.962   1.224 -1.7332 -0.2190 -2.2257
 4075SOL    HW223688   2.424   3.075   1.150  0.4083 -2.0996 -1.7043
 4076SOL     OW23689   2.361   4.191   4.770 -0.4071  0.3227 -0.0881
 4076SOL    HW123690   2.329   4.111   4.813  0.0412 -0.9127 -2.0335
 4076SOL    HW223691   2.448   4.194   4.810 -0.7566 -0.5413  0.7464
 4077SOL     OW23692   1.558   1.226   7.033 -0.3086  0.2202 -0.0587
 4077SOL    HW123693   1.637   1.258   7.077  0.0123  0.4670 -0.8096
 4077SOL    HW223694   1.559   1.282   6.956  2.1935  2.4535  1.5941
 4078SOL     OW23695   1.024   4.545   4.523 -0.3592 -0.0607  0.2350
 4078SOL    HW123696   1.100   4.538   4.464 -0.8023  4.6113 -0.9622
 4078SOL    HW223697   1.024   4.641   4.517  0.1566 -0.2109 -2.3369
 4079SOL     OW23698   0.849   1.097   7.885  0.0015 -0.9936  0.1650
 4079SOL    HW123699   0.875   1.021   7.938  1.0798 -0.8292 -0.1361
 4079SOL    HW223700   0.754   1.090   7.875  0.0645 -2.2075  0.4690
 4080SOL     OW23701   4.126   2.080  11.822  0.1847  0.1942  0.5680
 4080SOL    HW123702   4.184   2.064  11.747 -0.0034 -0.1791  0.5007
 4080SOL    HW223703   4.089   2.165  11.798  1.0978  0.1172 -1.1269
 4081SOL     OW23704   4.248   3.442   0.927  0.5580 -0.0216 -0.3966
 4081SOL    HW123705   4.286   3.442   1.015 -0.5164  2.1462  0.0670
 4081SOL    HW223706   4.259   3.351   0.901 -0.2139  0.0021 -0.8292
 4082SOL     OW23707   1.329   0.014   8.527  0.8399 -0.1061  0.4658
 4082SOL    HW123708   1.326   4.669   8.593  2.3338 -1.4010 -0.8341
 4082SOL    HW223709   1.263   4.707   8.466 -0.7583  1.8146  1.1886
 4083SOL     OW23710   4.151   1.384   7.680 -0.3632  0.1586  0.3551
 4083SOL    HW123711   4.213   1.312   7.678 -1.8781 -1.2006  1.8872
 4083SOL    HW223712   4.147   1.394   7.775 -1.2987  0.1118  0.3283
 4084SOL     OW23713   2.118   1.878   4.527  0.2030  0.1081  0.2234
 4084SOL    HW123714   2.120   1.856   4.621 -0.5782 -1.4145 -0.1187
 4084SOL    HW223715   2.040   1.830   4.499 -1.2347  2.7669 -0.3273
 4085SOL     OW23716   4.629   0.337   9.143 -0.1561 -0.2975  0.2227
 4085SOL    HW123717   4.700   0.291   9.187 -0.7918 -1.2675  0.2272
 4085SOL    HW223718   4.586   0.268   9.092 -0.0501 -0.9771  1.0557
 4086SOL     OW23719   3.227   4.092   5.941 -0.2321  0.1792 -0.5458
 4086SOL    HW123720   3.294   4.138   5.991 -3.7918  2.5950  1.9964
 4086SOL    HW223721   3.224   4.018   6.002 -1.0669 -0.0690 -0.8900
 4087SOL     OW23722   0.286   2.188   1.898  0.2690 -0.3224 -0.9730
 4087SOL    HW123723   0.317   2.252   1.963 -1.3470  0.3736 -0.8970
 4087SOL    HW223724   0.368   2.138   1.889  2.6634  3.1019  1.6810
 4088SOL     OW23725   4.427   0.899   7.705  0.1290  0.2318 -0.0439
 4088SOL    HW123726   4.437   0.866   7.616 -0.0978  0.6193 -0.2130
 4088SOL    HW223727   4.376   0.829   7.743  0.9330 -0.2398  0.1660
 4089SOL     OW23728   1.655   1.105   9.157 -0.3445 -0.9832 -0.6432
 4089SOL    HW123729   1.617   1.069   9.237 -1.6228 -0.6186 -1.0844
 4089SOL    HW223730   1.747   1.112   9.183 -0.4282 -1.9611 -0.0988
 4090SOL     OW23731   1.387   3.604  15.395  0.1740  0.1593 -0.4929
 4090SOL    HW123732   1.321   3.540  15.421  0.9565 -0.0025  1.1008
 4090SOL    HW223733   1.334   3.676  15.360 -1.5404  0.2124  2.1217
 4091SOL     OW23734   1.870   0.942   3.079 -0.0834  0.7446 -0.3199
 4091SOL    HW123735   1.874   0.941   2.983  0.0883  0.5709 -0.3106
 4091SOL    HW223736   1.899   1.032   3.095 -0.5569  0.0929  4.1089
 4092SOL     OW23737   4.664   2.492   2.039 -0.3230  0.7786 -0.1252
 4092SOL    HW123738   4.603   2.464   1.970 -1.9687  0.5475  1.4282
 4092SOL    HW223739   4.630   2.580   2.052  1.4681  1.2861  1.0059
 4093SOL     OW23740   2.241   3.214   4.680 -0.3729  0.5709 -0.0749
 4093SOL    HW123741   2.261   3.250   4.766  2.6719  0.3746 -0.6891
 4093SOL    HW223742   2.257   3.121   4.697 -0.3599  0.6576  0.3948
 4094SOL     OW23743   0.034   0.827   9.524  0.1440  0.3060  0.3208
 4094SOL    HW123744   0.054   0.914   9.490 -0.8057  0.6276  0.5926
 4094SOL    HW223745   4.685   0.793   9.472 -1.5836  2.0993  1.6227
 4095SOL     OW23746   0.366   1.828   3.228 -0.2854  0.3889  0.4064
 4095SOL    HW123747   0.414   1.850   3.148 -0.0921  0.7381  0.6221
 4095SOL    HW223748   0.386   1.895   3.293 -0.4009  0.1714  0.6675
 4096SOL     OW23749   4.158   3.796   7.741 -0.2469 -0.2266 -0.0065
 4096SOL    HW123750   4.186   3.780   7.831  0.8030 -3.1111 -0.8524
 4096SOL    HW223751   4.102   3.871   7.762 -1.0968 -0.7465 -0.4374
 4097SOL     OW23752   4.391   2.173  17.296 -0.0519  0.4903 -0.3855
 4097SOL    HW123753   4.363   2.093  17.340  0.4080  0.5746  0.0547
 4097SOL    HW223754   4.328   2.233  17.335 -0.2315  0.4977 -0.6814
 4098SOL     OW23755   1.843   3.685   9.047 -0.0554  0.2339 -0.3531
 4098SOL    HW123756   1.756   3.718   9.026  0.3617  0.5026 -1.6358
 4098SOL    HW223757   1.867   3.650   8.962  0.8912 -0.2575  0.1090
 4099SOL     OW23758   3.175   4.241  10.177  0.3322 -0.1315  0.6002
 4099SOL    HW123759   3.140   4.153  10.166  2.5329 -0.8337 -0.5556
 4099SOL    HW223760   3.262   4.226  10.141 -0.4977  1.6263 -2.2246
 4100SOL     OW23761   3.074   3.256   8.916 -0.0047  0.1639  0.0159
 4100SOL    HW123762   3.118   3.240   8.833  1.0303  0.0401  0.5870
 4100SOL    HW223763   3.005   3.194   8.894 -1.5270  1.6357  0.6590
 4101SOL     OW23764   4.607   1.114   5.938  0.6047 -0.0340  0.5059
 4101SOL    HW123765   4.675   1.053   5.910 -0.7539 -0.8344 -1.0322
 4101SOL    HW223766   4.643   1.140   6.023  2.3766  1.6326 -0.7843
 4102SOL     OW23767   1.579   2.290   9.081 -0.2352 -0.3876 -0.0079
 4102SOL    HW123768   1.589   2.297   8.986  3.0386 -0.1138  0.3381
 4102SOL    HW223769   1.665   2.249   9.094  1.1488  1.8084 -2.0317
 4103SOL     OW23770   1.993   1.513   8.019  0.4018 -0.4792 -0.4525
 4103SOL    HW123771   2.033   1.558   7.944  1.5805  1.4420  1.3235
 4103SOL    HW223772   1.911   1.480   7.983 -0.4610  0.7343  0.3985
 4104SOL     OW23773   2.901   3.437   7.822  0.1249 -0.0002  0.5829
 4104SOL    HW123774   2.808   3.448   7.842  0.4204  0.6963  1.5933
 4104SOL    HW223775   2.901   3.459   7.728 -0.8091  0.1633  0.6204
 4105SOL     OW23776   3.157   2.135   5.292  0.1047  0.0864  0.3295
 4105SOL    HW123777   3.113   2.180   5.364  1.4534 -0.9571  1.7900
 4105SOL    HW223778   3.146   2.193   5.216  0.0778 -1.7956 -1.1159
 4106SOL     OW23779   2.176   3.060   1.900  0.0763  0.5013  0.1872
 4106SOL    HW123780   2.163   3.151   1.925 -0.6607 -0.3596  3.0337
 4106SOL    HW223781   2.264   3.055   1.862  0.0966 -1.9113  0.5017
 4107SOL     OW23782   0.808   4.072   9.278 -0.0262 -0.3639  0.4056
 4107SOL    HW123783   0.816   3.985   9.237  1.5003  0.1173 -0.3259
 4107SOL    HW223784   0.750   4.118   9.217 -1.5202 -1.4280  1.0095
 4108SOL     OW23785   1.686   4.287   8.193  0.4053  0.1753 -0.0147
 4108SOL    HW123786   1.617   4.293   8.126 -0.2061 -1.7880  0.4481
 4108SOL    HW223787   1.761   4.237   8.162  2.2424  1.8528  1.7537
 4109SOL     OW23788   0.623   0.627   8.646  0.3622  0.2504 -0.0740
 4109SOL    HW123789   0.625   0.534   8.665 -0.4918 -0.2353 -2.3779
 4109SOL    HW223790   0.546   0.657   8.694  0.2335 -1.1178  0.5565
 4110SOL     OW23791   3.301   1.497  16.860 -0.6143  0.1553  0.6385
 4110SOL    HW123792   3.344   1.560  16.917 -0.3524 -0.4301  1.0827
 4110SOL    HW223793   3.291   1.548  16.780  0.9055 -1.0952 -0.3531
 4111SOL     OW23794   2.449   3.648  10.048  0.0361 -0.7932 -0.3782
 4111SOL    HW123795   2.409   3.721  10.094  0.1835 -0.1350 -1.3089
 4111SOL    HW223796   2.417   3.579  10.107  0.0658 -0.5505 -0.0767
 4112SOL     OW23797   3.059   4.297   0.745  0.0463  0.4594  0.1200
 4112SOL    HW123798   3.128   4.254   0.795 -1.2803 -1.0373  0.6991
 4112SOL    HW223799   2.991   4.229   0.741  1.6548 -1.1899  0.8531
 4113SOL     OW23800   4.452   4.032  12.887  0.5332 -1.0180 -0.0302
 4113SOL    HW123801   4.530   3.978  12.883  0.4162 -1.1262 -1.0190
 4113SOL    HW223802   4.495   4.108  12.925  0.7054  0.3807 -2.9684
 4114SOL     OW23803   4.011   3.955   6.422  0.3974  0.6581  0.0791
 4114SOL    HW123804   3.992   4.012   6.347  0.0029 -1.3757 -1.3543
 4114SOL    HW223805   3.941   3.978   6.483  0.0692  0.8068 -0.3586
 4115SOL     OW23806   2.511   3.187   3.496 -0.3910 -0.1561  0.1505
 4115SOL    HW123807   2.509   3.210   3.589  1.0955  1.7891 -0.3112
 4115SOL    HW223808   2.558   3.104   3.483  2.6610  1.1048  3.1298
 4116SOL     OW23809   1.327   2.829  13.448 -0.1619  0.0779 -0.1135
 4116SOL    HW123810   1.325   2.913  13.493  2.2339 -0.0436  0.2244
 4116SOL    HW223811   1.288   2.778  13.520 -1.0056  2.6530  1.2409
 4117SOL     OW23812   1.006   1.403  17.154  0.1272 -0.2598 -0.8685
 4117SOL    HW123813   1.060   1.454  17.214  0.3406  0.2556 -1.5034
 4117SOL    HW223814   0.919   1.440  17.170 -0.1172 -1.3623  0.4321
 4118SOL     OW23815   3.384   4.555   5.089 -0.8081  0.3148  0.2459
 4118SOL    HW123816   3.291   4.532   5.086 -1.0792  1.4490  0.0805
 4118SOL    HW223817   3.428   4.490   5.034  0.1106  0.3440  0.9338
 4119SOL     OW23818   1.679   1.643   1.068 -0.8428  0.3212 -0.4201
 4119SOL    HW123819   1.661   1.550   1.079  0.6393  0.1006  0.0933
 4119SOL    HW223820   1.623   1.668   0.994  0.1834  2.0181 -0.6166
 4120SOL     OW23821   0.187   3.887  12.564  0.1595 -0.5853 -0.0351
 4120SOL    HW123822   0.261   3.945  12.547 -0.8348  0.2071 -1.6270
 4120SOL    HW223823   0.193   3.830  12.487  0.0555 -3.0260  1.7497
 4121SOL     OW23824   4.148   0.027   9.223 -0.2872  0.5395 -0.1156
 4121SOL    HW123825   4.171   4.717   9.309 -2.3807 -1.0752 -0.2358
 4121SOL    HW223826   4.209   4.702   9.167 -0.3129 -0.1006  0.4401
 4122SOL     OW23827   0.285   1.246  13.872 -0.0988 -0.8170  0.1739
 4122SOL    HW123828   0.303   1.155  13.850  2.0184 -0.4053  0.1667
 4122SOL    HW223829   0.213   1.265  13.813 -1.8185 -1.0577  2.1851
 4123SOL     OW23830   3.001   3.709   7.892 -0.0256 -0.2879 -0.0744
 4123SOL    HW123831   2.981   3.682   7.982 -0.7747 -1.5257 -0.6158
 4123SOL    HW223832   2.955   3.637   7.849  1.3343 -0.1438 -1.7909
 4124SOL     OW23833   1.624   0.041   0.215 -0.3704 -0.1723 -0.3918
 4124SOL    HW123834   1.646   4.677   0.188  3.1076  0.1044  1.5160
 4124SOL    HW223835   1.671   0.091   0.149 -1.7349  0.2778 -1.0277
 4125SOL     OW23836   3.172   2.933  14.599  0.1072  0.7913  0.4256
 4125SOL    HW123837   3.222   2.857  14.630 -0.7567 -0.0951 -0.3608
 4125SOL    HW223838   3.106   2.926  14.669 -0.5988  2.1025 -0.1299
 4126SOL     OW23839   1.236   3.093   3.057  0.0924  0.2120  0.5175
 4126SOL    HW123840   1.179   3.118   3.129  0.2429 -0.5154  0.8890
 4126SOL    HW223841   1.278   3.020   3.102 -3.4310 -2.5573 -0.6527
 4127SOL     OW23842   2.715   2.117   3.274 -0.0328  0.7195 -0.0596
 4127SOL    HW123843   2.661   2.182   3.318 -0.6414 -0.3159  0.7322
 4127SOL    HW223844   2.764   2.101   3.355 -0.2881 -2.4818 -0.5383
 4128SOL     OW23845   2.757   4.185   3.679  0.0931 -0.1887 -0.4522
 4128SOL    HW123846   2.682   4.213   3.732  0.8855 -0.4347  0.7836
 4128SOL    HW223847   2.741   4.095   3.652  0.6798 -0.6872  0.8824
 4129SOL     OW23848   4.269   0.321   6.194 -0.5637 -0.2373 -0.0655
 4129SOL    HW123849   4.294   0.401   6.148  0.1361  0.7041  1.9602
 4129SOL    HW223850   4.352   0.274   6.196  0.4922  1.5629 -0.7683
 4130SOL     OW23851   0.294   0.347  15.835 -0.7943  0.0362  0.0206
 4130SOL    HW123852   0.246   0.302  15.904  0.7655 -0.8189  0.5546
 4130SOL    HW223853   0.339   0.423  15.873  1.9180 -2.0270  0.9482
 4131SOL     OW23854   3.555   3.823   4.825 -0.1343 -0.0083 -0.3806
 4131SOL    HW123855   3.618   3.874   4.877  2.0217 -1.1061 -1.9148
 4131SOL    HW223856   3.616   3.771   4.773 -0.0191  1.0848 -1.3398
 4132SOL     OW23857   3.233   2.618   3.038  0.0688 -0.0415 -0.7436
 4132SOL    HW123858   3.295   2.618   2.966  0.1861  2.6853 -0.6490
 4132SOL    HW223859   3.212   2.711   3.050 -0.1301 -0.2220  0.3732
 4133SOL     OW23860   2.617   1.159  15.248  0.1617  0.5841 -0.0831
 4133SOL    HW123861   2.575   1.219  15.186 -1.6178  0.8990  1.4487
 4133SOL    HW223862   2.700   1.145  15.202  0.8232  0.0638  1.2965
 4134SOL     OW23863   2.254   0.653   7.651 -0.6004  0.3499 -0.0799
 4134SOL    HW123864   2.190   0.591   7.688  0.1196  0.4226  1.3209
 4134SOL    HW223865   2.211   0.738   7.651  1.7513  1.5267 -0.6308
 4135SOL     OW23866   0.828   1.521  10.826 -0.4304  0.3803  0.1649
 4135SOL    HW123867   0.794   1.610  10.838 -2.3945 -0.4616  1.0068
 4135SOL    HW223868   0.894   1.514  10.895 -0.2741  0.4348  0.0199
 4136SOL     OW23869   1.681   1.598   5.118  0.4188 -0.3326 -0.3724
 4136SOL    HW123870   1.617   1.540   5.077 -0.8356  0.9869 -0.3105
 4136SOL    HW223871   1.620   1.663   5.155  2.7116  2.0582 -0.8270
 4137SOL     OW23872   1.153   1.561   4.529  0.0147  0.3133  0.2716
 4137SOL    HW123873   1.105   1.623   4.474  0.5589 -0.1230 -0.6901
 4137SOL    HW223874   1.130   1.479   4.485 -3.2243  1.5236 -0.3078
 4138SOL     OW23875   2.824   1.425  10.937 -0.0908  0.0948 -0.0752
 4138SOL    HW123876   2.795   1.507  10.978 -0.8914 -0.0417 -0.3780
 4138SOL    HW223877   2.804   1.451  10.847  0.6555 -0.4634 -0.3934
 4139SOL     OW23878   0.481   2.929   7.919  0.3230  0.4357  0.3519
 4139SOL    HW123879   0.573   2.954   7.924  0.8625 -1.3051 -0.6843
 4139SOL    HW223880   0.442   2.999   7.970 -2.8821 -1.9553  1.1937
 4140SOL     OW23881   4.720   2.748   2.352 -0.1131 -0.3578  0.3539
 4140SOL    HW123882   4.673   2.810   2.296 -2.1246 -0.3588  2.0435
 4140SOL    HW223883   0.077   2.738   2.303  0.1286 -1.6228  1.0191
 4141SOL     OW23884   4.122   3.411   8.941 -0.3510 -0.4673  0.3199
 4141SOL    HW123885   4.211   3.387   8.913 -0.2557  0.3111 -0.0698
 4141SOL    HW223886   4.129   3.404   9.036 -1.6419  0.4437  0.4883
 4142SOL     OW23887   1.443   3.682   8.868  0.0904 -0.4538 -0.2400
 4142SOL    HW123888   1.450   3.632   8.949  3.4305 -0.9849 -0.8633
 4142SOL    HW223889   1.442   3.770   8.906 -1.5309 -1.1266  1.2302
 4143SOL     OW23890   3.213   4.237   0.969  0.3481  0.3789 -0.6890
 4143SOL    HW123891   3.242   4.266   1.056  0.1204  2.4757 -1.3193
 4143SOL    HW223892   3.208   4.145   0.992 -0.2707  0.7521  0.6959
 4144SOL     OW23893   2.138   1.349  13.146 -0.0249 -0.6100 -0.2718
 4144SOL    HW123894   2.078   1.329  13.074  0.7000 -1.1190 -0.7307
 4144SOL    HW223895   2.121   1.443  13.149 -0.9342 -0.7749 -0.1154
 4145SOL     OW23896   4.221   1.649  15.743 -0.4871 -0.1193  0.8060
 4145SOL    HW123897   4.293   1.673  15.801  0.0053 -0.3741  0.2998
 4145SOL    HW223898   4.226   1.710  15.669  0.8657 -1.6319 -0.3489
 4146SOL     OW23899   3.824   3.321   2.587 -0.0818 -0.5353 -0.5133
 4146SOL    HW123900   3.900   3.290   2.538  0.9401  3.2669 -1.3257
 4146SOL    HW223901   3.782   3.387   2.532 -1.1882  0.4720  1.5143
 4147SOL     OW23902   3.632   4.236   3.609 -0.0803 -0.7775 -0.1384
 4147SOL    HW123903   3.644   4.188   3.692 -1.9524 -0.3893  0.3522
 4147SOL    HW223904   3.552   4.281   3.633  0.9803  0.9604  0.1413
 4148SOL     OW23905   4.373   2.424  11.064  0.5321 -0.2285  0.3582
 4148SOL    HW123906   4.330   2.494  11.015 -0.5548  1.7310  4.1669
 4148SOL    HW223907   4.336   2.341  11.035 -1.1569 -0.6308  3.7256
 4149SOL     OW23908   0.438   3.781   2.514 -0.3420 -0.2431 -0.6324
 4149SOL    HW123909   0.444   3.786   2.419  2.7818  2.9393 -0.2893
 4149SOL    HW223910   0.346   3.801   2.528 -0.5563 -1.4100 -0.3863
 4150SOL     OW23911   2.190   3.394   6.055  0.0703 -0.1540 -0.3694
 4150SOL    HW123912   2.226   3.311   6.025 -1.4613 -1.2809  0.8886
 4150SOL    HW223913   2.117   3.408   5.994 -2.0952 -0.8031  2.0493
 4151SOL     OW23914   1.091   0.092  12.485  0.8443  0.3557  0.3855
 4151SOL    HW123915   1.041   0.154  12.538 -0.1330  2.6563 -3.2440
 4151SOL    HW223916   1.117   0.146  12.411  0.7676 -3.1545 -2.2055
 4152SOL     OW23917   2.787   1.797  11.412  0.6313  0.0591  0.1785
 4152SOL    HW123918   2.858   1.861  11.404 -0.5109  0.6714 -5.4301
 4152SOL    HW223919   2.837   1.722  11.380 -0.4915 -0.9349  0.7510
 4153SOL     OW23920   2.432   1.497  14.036 -0.3714  0.1688 -0.2035
 4153SOL    HW123921   2.354   1.465  13.991 -0.7859  0.3113  0.4132
 4153SOL    HW223922   2.491   1.424  14.017  0.0851  0.7645 -1.0796
 4154SOL     OW23923   1.023   0.225   7.044 -0.4525 -0.8050  0.2709
 4154SOL    HW123924   1.048   0.303   6.996  0.1671 -1.2302 -0.0988
 4154SOL    HW223925   1.111   0.191   7.061  0.4750  1.2359 -0.4685
 4155SOL     OW23926   2.256   0.655   5.266 -0.0420  0.0589  0.6150
 4155SOL    HW123927   2.308   0.711   5.208 -2.1613  1.4231  0.0406
 4155SOL    HW223928   2.304   0.667   5.348  1.7596 -0.5187 -0.3444
 4156SOL     OW23929   1.770   2.863   7.568 -0.5052  0.1990 -0.2439
 4156SOL    HW123930   1.760   2.903   7.481 -1.5770  1.3386  0.4064
 4156SOL    HW223931   1.739   2.932   7.626 -1.4391 -0.7973  0.4423
 4157SOL     OW23932   2.687   2.421  11.431 -0.3112  0.0101  0.0266
 4157SOL    HW123933   2.677   2.455  11.343  2.5837 -0.3377 -0.4240
 4157SOL    HW223934   2.649   2.334  11.440  1.2208 -0.8427 -2.1083
 4158SOL     OW23935   1.004   3.227   4.488 -0.0869 -0.0231  0.0969
 4158SOL    HW123936   0.932   3.279   4.454 -1.0356 -0.3398  1.6282
 4158SOL    HW223937   1.040   3.196   4.405 -0.4680 -0.1238 -0.0256
 4159SOL     OW23938   1.982   4.517   6.814  0.1975 -0.2705 -0.2317
 4159SOL    HW123939   1.947   4.543   6.729  2.3992  0.3875 -0.9479
 4159SOL    HW223940   1.914   4.539   6.877  0.4036 -0.5902  0.1005
 4160SOL     OW23941   2.287   3.699   9.356  0.3538  0.1222  0.0691
 4160SOL    HW123942   2.202   3.695   9.312 -0.0946 -0.9299  1.0383
 4160SOL    HW223943   2.317   3.789   9.340  1.0030 -0.2461 -0.7385
 4161SOL     OW23944   2.887   1.703   2.448  0.1157 -0.2144  0.7045
 4161SOL    HW123945   2.806   1.654   2.457  0.5858 -1.1449 -0.0699
 4161SOL    HW223946   2.868   1.786   2.404  1.2614 -1.2142 -1.7136
 4162SOL     OW23947   3.570   0.445   3.451  0.2170  0.5621 -0.1634
 4162SOL    HW123948   3.549   0.484   3.366 -0.2814 -0.5665 -0.5589
 4162SOL    HW223949   3.663   0.431   3.435 -0.2802 -0.1035 -2.4855
 4163SOL     OW23950   1.110   2.574   9.217 -0.0883 -0.1544  0.5322
 4163SOL    HW123951   1.197   2.586   9.255  1.1809  0.6324 -2.5964
 4163SOL    HW223952   1.079   2.662   9.238  1.0833  0.7751 -1.5846
 4164SOL     OW23953   0.324   0.834  14.389  0.0564 -0.3397 -0.2614
 4164SOL    HW123954   0.271   0.755  14.403  0.2103 -0.5725 -1.0424
 4164SOL    HW223955   0.255   0.893  14.359  0.0768 -0.1758  0.0075
 4165SOL     OW23956   1.760   0.926   6.416 -0.2530  0.8683  0.0497
 4165SOL    HW123957   1.727   0.883   6.495 -0.9111 -1.1818 -1.3444
 4165SOL    HW223958   1.752   0.855   6.352  2.1314  0.6579 -0.0326
 4166SOL     OW23959   2.429   3.737   7.483 -0.3046 -0.1346 -0.0544
 4166SOL    HW123960   2.436   3.832   7.490  1.3451 -0.1829 -0.9400
 4166SOL    HW223961   2.427   3.709   7.575  1.0093 -2.4597 -0.7346
 4167SOL     OW23962   1.896   1.286   6.229 -0.5034 -0.6507  0.4384
 4167SOL    HW123963   1.963   1.279   6.297 -0.3788  0.6214  0.4322
 4167SOL    HW223964   1.868   1.375   6.247  2.1452  0.4527 -1.0315
 4168SOL     OW23965   1.141   2.757   9.767 -0.5170  0.0978  0.0800
 4168SOL    HW123966   1.235   2.754   9.750 -0.4092 -1.9587  1.0986
 4168SOL    HW223967   1.146   2.706   9.847 -0.4163  1.6048  1.0301
 4169SOL     OW23968   2.478   2.663  11.603  0.5810 -0.6024 -0.1890
 4169SOL    HW123969   2.449   2.684  11.514  1.4256  0.2852 -0.2524
 4169SOL    HW223970   2.574   2.664  11.595  0.5045  0.6736 -0.8485
 4170SOL     OW23971   2.620   2.815  14.641  0.2452 -0.2084  0.0709
 4170SOL    HW123972   2.585   2.731  14.671 -2.3937  1.6360  2.1480
 4170SOL    HW223973   2.596   2.857  14.723  0.6160 -1.9445  1.0681
 4171SOL     OW23974   3.063   1.807  11.622 -0.3468 -0.3868  0.0084
 4171SOL    HW123975   3.032   1.835  11.536 -1.9702 -0.0297  0.7201
 4171SOL    HW223976   2.980   1.807  11.668 -0.5258 -1.1088 -0.2995
 4172SOL     OW23977   0.346   2.066   7.106 -0.4374 -0.8462 -0.0975
 4172SOL    HW123978   0.379   2.118   7.032  0.4988 -0.4528  0.6016
 4172SOL    HW223979   0.290   2.130   7.149  0.7819  0.8725 -1.0835
 4173SOL     OW23980   0.292   2.857   1.381  0.1981  0.4731  0.1509
 4173SOL    HW123981   0.303   2.790   1.448  0.6243  0.5945  0.2088
 4173SOL    HW223982   0.201   2.867   1.355  0.7714 -1.5760 -2.6183
 4174SOL     OW23983   0.330   2.365   9.042 -0.0110  0.2298  0.0150
 4174SOL    HW123984   0.399   2.341   9.104 -0.0860 -0.6376 -0.2456
 4174SOL    HW223985   0.252   2.377   9.097  0.7379  1.0565  0.9063
 4175SOL     OW23986   2.903   4.127  17.043  0.0304 -0.0238 -0.4139
 4175SOL    HW123987   2.919   4.083  17.126 -0.2467  0.0326 -0.3296
 4175SOL    HW223988   2.891   4.049  16.989 -0.0559  0.5774 -1.2624
 4176SOL     OW23989   0.599   0.037   9.267  0.4604  0.5055  0.0652
 4176SOL    HW123990   0.641   0.025   9.352 -0.0484  1.5449  0.4605
 4176SOL    HW223991   0.671   0.079   9.220  1.4601 -0.7014  0.5163
 4177SOL     OW23992   2.702   1.365   6.874 -0.1719 -0.1293  0.3546
 4177SOL    HW123993   2.629   1.407   6.829 -0.7073 -1.9661 -0.4775
 4177SOL    HW223994   2.693   1.399   6.964 -0.3212 -0.6446  0.5318
 4178SOL     OW23995   1.831   2.889   2.555  0.3847  0.1187  0.6002
 4178SOL    HW123996   1.863   2.976   2.580  0.1625  0.0426  1.1362
 4178SOL    HW223997   1.903   2.857   2.500 -0.1153 -2.9804  1.7834
 4179SOL     OW23998   2.965   0.013   8.749 -0.0669  0.8688  0.6497
 4179SOL    HW123999   2.969   0.005   8.654 -1.5020 -0.3661  0.6913
 4179SOL    HW224000   2.956   0.109   8.755  0.4049  0.9999 -0.8208
 4180SOL     OW24001   0.788   0.207   2.353 -0.3017 -0.4884  0.3079
 4180SOL    HW124002   0.880   0.196   2.329 -0.4662  1.2755 -1.1194
 4180SOL    HW224003   0.790   0.287   2.406  1.3263 -0.8195  0.7764
 4181SOL     OW24004   3.776   2.330   5.905 -0.4483  0.2412 -0.2860
 4181SOL    HW124005   3.746   2.295   5.988 -1.1744 -1.2710 -1.1852
 4181SOL    HW224006   3.867   2.307   5.919 -0.9534 -0.2152  2.1596
 4182SOL     OW24007   3.475   0.480   8.186 -0.3127 -0.6809  0.5074
 4182SOL    HW124008   3.561   0.456   8.221  0.9490  1.4158 -1.1517
 4182SOL    HW224009   3.420   0.405   8.210 -0.3303 -0.8399 -0.0144
 4183SOL     OW24010   2.602   4.703   9.495 -0.3477 -0.4163  0.0859
 4183SOL    HW124011   2.570   4.698   9.585  2.3679 -0.1486  1.0453
 4183SOL    HW224012   2.686   0.023   9.499  0.4524 -1.8100 -0.8835
 4184SOL     OW24013   0.464   4.354  15.400 -0.1901 -0.2179  0.1681
 4184SOL    HW124014   0.388   4.408  15.422 -0.7780 -1.2687  0.7234
 4184SOL    HW224015   0.494   4.327  15.487 -0.7350 -0.3839  0.3002
 4185SOL     OW24016   1.552   2.335   4.580 -0.1065  0.5381 -0.2009
 4185SOL    HW124017   1.565   2.242   4.599  2.9921  0.4945 -2.5395
 4185SOL    HW224018   1.458   2.343   4.594 -0.2257 -1.9263  0.3954
 4186SOL     OW24019   3.608   3.976   5.556 -0.3786 -0.7895 -0.0777
 4186SOL    HW124020   3.580   3.948   5.643  1.1150  0.9563  0.9671
 4186SOL    HW224021   3.695   4.006   5.584 -0.3162 -1.0351 -0.0166
 4187SOL     OW24022   2.069   1.438   6.538  0.3157  0.2953 -0.0480
 4187SOL    HW124023   2.075   1.447   6.633  0.0412 -2.0502  0.2127
 4187SOL    HW224024   2.040   1.346   6.536 -0.5168  0.5382  0.8807
 4188SOL     OW24025   1.334   3.240   5.001  0.1723 -0.7981  0.6198
 4188SOL    HW124026   1.241   3.236   4.981  0.4452  0.5665 -0.9883
 4188SOL    HW224027   1.345   3.190   5.081 -0.7189 -0.5755  0.8783
 4189SOL     OW24028   3.977   3.410   6.532  0.3907 -0.1350 -0.2019
 4189SOL    HW124029   3.883   3.401   6.550 -0.3379  2.0825 -2.9203
 4189SOL    HW224030   3.977   3.506   6.525  0.7413 -0.1797 -0.8315
 4190SOL     OW24031   2.585   0.545  17.203  0.2479  0.2700 -0.4327
 4190SOL    HW124032   2.636   0.536  17.284 -3.2230 -2.3360  1.4858
 4190SOL    HW224033   2.565   0.452  17.197  0.3551  0.3991 -2.5522
 4191SOL     OW24034   1.771   4.272  10.527 -0.0583  0.1456 -0.4773
 4191SOL    HW124035   1.834   4.255  10.456  1.8884  2.6939  0.6415
 4191SOL    HW224036   1.806   4.210  10.591 -0.8655  1.3559  1.1110
 4192SOL     OW24037   2.813   3.940   3.123  0.4131 -0.1787  0.9519
 4192SOL    HW124038   2.884   3.917   3.064 -0.0438 -1.1121  0.7656
 4192SOL    HW224039   2.849   3.992   3.195 -0.0659  0.6482  0.6056
 4193SOL     OW24040   4.086   2.988   5.027  0.4646  0.3944  0.5782
 4193SOL    HW124041   4.147   3.024   5.092  0.3780  0.3005  0.7122
 4193SOL    HW224042   4.076   2.899   5.058  1.2782 -0.1036 -0.5795
 4194SOL     OW24043   1.691   1.727   2.287 -0.3210 -0.3013 -0.4108
 4194SOL    HW124044   1.680   1.781   2.209  0.0584  2.1162  1.2066
 4194SOL    HW224045   1.757   1.784   2.327 -0.4626 -1.0650  0.8969
 4195SOL     OW24046   1.468   1.335   4.696  0.5173  1.2075  0.1196
 4195SOL    HW124047   1.513   1.377   4.623 -1.5435  1.8375 -0.7798
 4195SOL    HW224048   1.422   1.409   4.734  0.4283  1.2040  0.0182
 4196SOL     OW24049   1.664   1.367   1.138  0.3122 -0.1057  0.4388
 4196SOL    HW124050   1.620   1.329   1.214 -1.1453 -1.1528 -0.9225
 4196SOL    HW224051   1.648   1.301   1.071 -2.4368  1.7214 -0.7086
 4197SOL     OW24052   1.269   4.465   4.324  0.0144 -0.0070 -0.2698
 4197SOL    HW124053   1.317   4.427   4.398  1.0753 -0.1162 -1.0102
 4197SOL    HW224054   1.307   4.418   4.250 -1.3743  0.9262 -1.5609
 4198SOL     OW24055   2.072   1.523  13.402 -0.5609 -0.1914 -0.1074
 4198SOL    HW124056   2.082   1.561  13.315  1.0521  3.0745  1.4813
 4198SOL    HW224057   2.122   1.443  13.389  0.8512  0.6055  0.4140
 4199SOL     OW24058   3.614   2.712   5.832  0.6645  0.5713 -0.1889
 4199SOL    HW124059   3.625   2.720   5.737 -0.3005 -0.6820 -0.4070
 4199SOL    HW224060   3.667   2.786   5.861 -0.9521  2.0788 -1.0875
 4200SOL     OW24061   1.408   0.996   7.549  0.6418 -0.0421  0.8819
 4200SOL    HW124062   1.492   1.027   7.515  0.9741 -2.3603 -0.4075
 4200SOL    HW224063   1.401   0.908   7.511  2.9180  0.5648 -0.9390
 4201SOL     OW24064   0.022   0.222   3.580  0.3344 -0.5577 -0.3141
 4201SOL    HW124065   4.724   0.136   3.543 -1.0805 -0.2813 -0.1029
 4201SOL    HW224066   4.676   0.248   3.638  1.8848 -1.1879  1.8366
 4202SOL     OW24067   1.442   4.162   4.862  0.5165  0.3918  0.2357
 4202SOL    HW124068   1.433   4.120   4.947 -1.1967  0.3882  0.0511
 4202SOL    HW224069   1.485   4.093   4.812  1.3189 -0.2077  1.7793
 4203SOL     OW24070   2.260   4.468   3.310 -0.9865 -0.7461 -0.3048
 4203SOL    HW124071   2.251   4.531   3.239 -0.3991  0.7920  0.9846
 4203SOL    HW224072   2.301   4.522   3.378  0.7073 -2.5384  0.1154
 4204SOL     OW24073   1.915   0.729   5.894 -0.0821 -0.3337  0.2580
 4204SOL    HW124074   1.957   0.655   5.937 -0.7390 -0.6896  0.2820
 4204SOL    HW224075   1.849   0.760   5.955 -1.7978 -1.6106 -0.9493
 4205SOL     OW24076   1.174   4.419   2.843  0.0662  0.1524  0.3242
 4205SOL    HW124077   1.209   4.422   2.754 -0.3530  1.9212  0.2274
 4205SOL    HW224078   1.228   4.488   2.883 -0.9124  0.2225  1.5190
 4206SOL     OW24079   1.649   0.594   7.953 -0.3258  0.4955  0.2606
 4206SOL    HW124080   1.726   0.644   7.927  0.5064 -0.5357  0.7396
 4206SOL    HW224081   1.591   0.608   7.878 -0.0799 -1.0135 -0.2288
 4207SOL     OW24082   1.859   2.113   6.971  0.2707  0.3240  0.1503
 4207SOL    HW124083   1.799   2.042   6.948 -1.2479  1.3677  0.8481
 4207SOL    HW224084   1.850   2.124   7.066  0.6733 -1.1333  0.3522
 4208SOL     OW24085   2.091   0.704   8.237 -0.1201 -0.0180 -0.0683
 4208SOL    HW124086   2.029   0.635   8.214  0.3490 -1.0458  1.6667
 4208SOL    HW224087   2.114   0.684   8.328 -1.0076 -0.2193  0.1101
 4209SOL     OW24088   1.574   3.590   6.859  0.4621  0.2015 -0.4847
 4209SOL    HW124089   1.650   3.639   6.829  1.2807 -0.7203  0.0818
 4209SOL    HW224090   1.530   3.552   6.783 -1.2968 -0.1257  0.6939
 4210SOL     OW24091   2.006   2.855   8.798 -0.2098  0.1354 -0.1437
 4210SOL    HW124092   1.981   2.891   8.883  2.6878 -0.5757  1.0347
 4210SOL    HW224093   2.100   2.846   8.812 -0.1730 -0.8027 -0.9439
 4211SOL     OW24094   2.527   1.586   6.305  0.1515  0.4117 -0.2003
 4211SOL    HW124095   2.476   1.626   6.235 -1.1218  1.4342  1.3034
 4211SOL    HW224096   2.547   1.496   6.278 -1.4155  0.4163 -1.3668
 4212SOL     OW24097   2.628   3.227   6.702 -0.4151 -0.6347  0.1313
 4212SOL    HW124098   2.680   3.267   6.633 -0.4630  0.5996  0.8117
 4212SOL    HW224099   2.615   3.298   6.765  0.2212 -0.9590  0.6210
 4213SOL     OW24100   0.482   3.782   9.363  0.2511 -0.0140  0.0176
 4213SOL    HW124101   0.430   3.713   9.404  1.5602 -2.2031 -1.9659
 4213SOL    HW224102   0.566   3.775   9.408  0.0571  1.3346  0.5962
 4214SOL     OW24103   2.857   0.681   9.597  0.0346  0.0185 -0.4583
 4214SOL    HW124104   2.898   0.654   9.680 -0.3345 -1.3941 -0.7302
 4214SOL    HW224105   2.931   0.722   9.552  0.8873 -2.3334 -1.2287
 4215SOL     OW24106   3.994   1.813  15.909 -0.2076  0.0614 -0.1572
 4215SOL    HW124107   3.983   1.858  15.825  0.9917 -0.6361 -0.6869
 4215SOL    HW224108   4.053   1.744  15.877  0.3040 -0.1573  1.2886
 4216SOL     OW24109   4.144   2.847   6.852  0.0775  0.7191  0.7787
 4216SOL    HW124110   4.143   2.861   6.757  0.9260  0.1976  0.6912
 4216SOL    HW224111   4.168   2.931   6.890  1.8916  0.5262  0.0666
 4217SOL     OW24112   0.783   4.062   8.876 -0.5701 -0.1312 -0.4392
 4217SOL    HW124113   0.732   3.981   8.882 -2.0061  0.6959 -1.5642
 4217SOL    HW224114   0.737   4.117   8.940 -0.4614 -0.3890 -0.1424
 4218SOL     OW24115   2.420   2.001  14.997 -0.1333 -0.2066  0.6327
 4218SOL    HW124116   2.445   2.048  14.917  2.9341 -2.9977 -0.0313
 4218SOL    HW224117   2.505   1.991  15.039  0.9171  0.7426 -1.2641
 4219SOL     OW24118   0.973   0.850   2.580  0.2268 -0.4648  0.4156
 4219SOL    HW124119   0.981   0.945   2.581 -2.0607 -0.3088  1.9219
 4219SOL    HW224120   1.035   0.818   2.645  0.2911  0.3044  0.7301
 4220SOL     OW24121   0.403   0.519   4.886 -0.5037 -0.2063  0.2157
 4220SOL    HW124122   0.449   0.438   4.862 -0.2341 -0.6679  2.3122
 4220SOL    HW224123   0.314   0.488   4.868 -0.6054  0.9828 -1.3609
 4221SOL     OW24124   0.353   2.148   4.643  0.7981  0.2363  0.2302
 4221SOL    HW124125   0.319   2.059   4.658  0.9280 -0.0685 -1.1964
 4221SOL    HW224126   0.283   2.207   4.671  1.2024  0.4605  0.7593
 4222SOL     OW24127   3.004   1.283   3.822  0.4325 -0.0590  0.1841
 4222SOL    HW124128   3.012   1.285   3.726  1.8835 -1.1012  0.2734
 4222SOL    HW224129   3.028   1.190   3.828  1.8838  0.3224  0.3094
 4223SOL     OW24130   4.603   2.256   7.039  0.9172 -0.6681  0.1057
 4223SOL    HW124131   4.553   2.280   7.117 -0.1843  1.5005 -1.2764
 4223SOL    HW224132   4.644   2.341   7.023 -0.2200 -0.8951 -4.0344
 4224SOL     OW24133   3.275   2.398   2.097  0.1621  0.1317  0.1559
 4224SOL    HW124134   3.217   2.474   2.101  2.4257  1.8277  0.6118
 4224SOL    HW224135   3.289   2.383   2.190 -0.6576  1.1046  0.4309
 4225SOL     OW24136   3.779   3.384   4.971  0.4376  0.3469 -0.1623
 4225SOL    HW124137   3.872   3.368   4.956  0.6415  1.6372 -0.3575
 4225SOL    HW224138   3.767   3.295   5.003 -0.9477  0.3093 -0.7952
 4226SOL     OW24139   1.297   4.571   5.242  0.7501  0.2183 -0.3136
 4226SOL    HW124140   1.282   4.504   5.310 -0.9929  1.0192  0.0869
 4226SOL    HW224141   1.221   4.629   5.238  0.8766  0.4817  0.9322
 4227SOL     OW24142   0.721   2.451   2.711  0.3507  0.5163 -0.0322
 4227SOL    HW124143   0.717   2.446   2.615 -0.9234 -0.4722  0.0681
 4227SOL    HW224144   0.669   2.374   2.735 -2.6441  1.7483 -2.6323
 4228SOL     OW24145   3.234   1.138   8.192 -0.1650  0.4891 -0.1644
 4228SOL    HW124146   3.231   1.232   8.207  0.9193  0.5619 -0.3952
 4228SOL    HW224147   3.144   1.131   8.159 -0.2688  1.1196 -0.0069
 4229SOL     OW24148   1.238   2.721   0.447  0.2309  0.0684  0.0705
 4229SOL    HW124149   1.238   2.702   0.541  0.1490  1.9892  0.4636
 4229SOL    HW224150   1.332   2.731   0.436  0.2650 -0.1065  0.2246
 4230SOL     OW24151   2.813   1.507   7.378  0.0128  0.3205 -0.1329
 4230SOL    HW124152   2.851   1.504   7.290 -1.5842  1.4328 -0.8622
 4230SOL    HW224153   2.796   1.600   7.394  3.2801  0.3981  3.0430
 4231SOL     OW24154   3.793   0.758   9.178  0.5552  0.2487  0.6739
 4231SOL    HW124155   3.796   0.663   9.172  3.4662  0.3794  0.2636
 4231SOL    HW224156   3.804   0.780   9.270 -1.6565 -0.2572  1.0729
 4232SOL     OW24157   0.906   1.500   8.140 -0.1103  0.3570 -0.0466
 4232SOL    HW124158   0.838   1.506   8.072  0.4384  0.3233 -0.6007
 4232SOL    HW224159   0.900   1.411   8.174  0.3959  0.3312 -0.0237
 4233SOL     OW24160   2.526   4.358   1.409  0.4208  0.0088  0.0751
 4233SOL    HW124161   2.460   4.419   1.375  1.7973  3.5841  3.8587
 4233SOL    HW224162   2.540   4.302   1.332 -2.0509  1.2696 -1.2764
 4234SOL     OW24163   1.876   0.511   2.535  0.2176 -0.6335 -0.0900
 4234SOL    HW124164   1.849   0.537   2.624 -0.9010  2.7107 -1.4126
 4234SOL    HW224165   1.969   0.532   2.531  0.4304 -1.9039 -1.8709
 4235SOL     OW24166   2.424   0.629   5.471 -0.1641 -0.1856 -0.6080
 4235SOL    HW124167   2.485   0.683   5.521  0.6791 -0.1241 -1.7034
 4235SOL    HW224168   2.362   0.605   5.540 -1.8080 -2.7142 -2.9853
 4236SOL     OW24169   2.378   3.669   4.486 -0.1625 -0.1523  0.0715
 4236SOL    HW124170   2.428   3.667   4.405  0.9288 -2.6940  0.8110
 4236SOL    HW224171   2.383   3.575   4.502  2.5037  0.1547  1.0263
 4237SOL     OW24172   3.888   0.233   8.417  0.1327 -0.0281  0.8485
 4237SOL    HW124173   3.897   0.138   8.408  1.1151 -0.0742  2.4323
 4237SOL    HW224174   3.843   0.255   8.498 -1.5090  1.4034 -0.4408
 4238SOL     OW24175   3.376   3.078   2.318  0.0208  0.5653 -0.2751
 4238SOL    HW124176   3.453   3.024   2.331 -0.1344  0.2200 -0.7736
 4238SOL    HW224177   3.381   3.141   2.390 -0.1044 -1.8273  1.7942
 4239SOL     OW24178   4.608   0.899   7.280  0.2771 -0.1308 -0.1674
 4239SOL    HW124179   4.594   0.925   7.189 -1.8043  0.4600  0.3114
 4239SOL    HW224180   4.691   0.938   7.307  0.3964 -1.8593  1.9841
 4240SOL     OW24181   4.336   1.871   1.089  0.6115  0.5066  0.2035
 4240SOL    HW124182   4.280   1.887   1.165 -0.3539  0.6960 -0.5489
 4240SOL    HW224183   4.367   1.783   1.111 -1.6138 -0.9493 -2.6149
 4241SOL     OW24184   0.002   3.228   3.813 -0.2286 -0.0622  0.1238
 4241SOL    HW124185   0.064   3.176   3.864  0.2248 -0.3873 -0.7652
 4241SOL    HW224186   0.063   3.280   3.760 -0.6903 -1.3081 -1.6523
 4242SOL     OW24187   3.495   0.311  10.703 -0.1985  0.0125 -0.1761
 4242SOL    HW124188   3.508   0.345  10.792  1.1913 -0.9005 -0.0255
 4242SOL    HW224189   3.545   0.384  10.667  2.7049 -2.4784 -1.2350
 4243SOL     OW24190   2.218   4.662   6.873  0.1075  0.3444  0.1215
 4243SOL    HW124191   2.216   4.677   6.779  0.6308 -1.4905 -0.1944
 4243SOL    HW224192   2.124   4.654   6.889  0.0686  1.8379  0.6108
 4244SOL     OW24193   1.044   4.692   7.371 -0.0359 -0.6396  0.3010
 4244SOL    HW124194   1.043   4.659   7.461 -1.6368  0.1384  0.5768
 4244SOL    HW224195   1.123   0.022   7.372  1.8579 -3.3750 -1.4924
 4245SOL     OW24196   2.523   0.205   6.675 -0.0021  0.4281  0.1108
 4245SOL    HW124197   2.522   0.109   6.681 -0.0068  0.3389 -1.2578
 4245SOL    HW224198   2.612   0.222   6.704  0.8373  1.1196 -2.8310
 4246SOL     OW24199   2.955   4.564  17.268  0.4963 -0.4196 -0.2094
 4246SOL    HW124200   3.043   4.575  17.305  1.5318 -0.9735 -2.5231
 4246SOL    HW224201   2.972   4.534  17.179 -1.0582 -0.4880 -0.4751
 4247SOL     OW24202   1.372   3.898  14.825 -0.0794  0.9155  0.3067
 4247SOL    HW124203   1.329   3.944  14.752 -1.3765 -1.1366 -0.2236
 4247SOL    HW224204   1.405   3.824  14.774  0.8076  0.1225  2.0360
 4248SOL     OW24205   1.411   0.739   1.684 -0.3044  1.0939  0.1094
 4248SOL    HW124206   1.419   0.754   1.590  1.1516  0.9563  0.2045
 4248SOL    HW224207   1.496   0.696   1.699  0.0722  1.0916 -2.1229
 4249SOL     OW24208   0.378   0.704   5.126 -0.0184 -0.2567 -0.1403
 4249SOL    HW124209   0.425   0.684   5.044  1.0657  1.7682  0.0029
 4249SOL    HW224210   0.346   0.622   5.165 -1.7664  0.2819 -0.4358
 4250SOL     OW24211   3.291   2.519   8.895  0.0479 -0.4099  0.0866
 4250SOL    HW124212   3.281   2.429   8.863  0.9995 -0.3661 -0.3263
 4250SOL    HW224213   3.335   2.502   8.978  0.1564 -1.5633 -0.2000
 4251SOL     OW24214   4.065   1.474   2.012 -0.2926  0.2355  0.3865
 4251SOL    HW124215   4.101   1.435   2.091  1.2807  0.4992 -0.2086
 4251SOL    HW224216   4.128   1.456   1.942 -0.4368 -1.8742  0.8239
 4252SOL     OW24217   3.008   4.378  15.256  0.5451  0.5096  0.4769
 4252SOL    HW124218   2.959   4.302  15.286  0.4714  0.7300  0.9090
 4252SOL    HW224219   3.071   4.401  15.324  0.6323  0.8544  0.2798
 4253SOL     OW24220   0.458   0.607   8.041  0.4379  0.0636  0.0953
 4253SOL    HW124221   0.513   0.632   7.966 -1.4585  2.4545 -0.5151
 4253SOL    HW224222   0.508   0.644   8.115 -0.4592 -2.6011  1.9932
 4254SOL     OW24223   4.168   2.848   6.258 -0.5717  0.4760  0.0535
 4254SOL    HW124224   4.230   2.844   6.185 -0.0274  0.7337  0.5003
 4254SOL    HW224225   4.175   2.935   6.295  2.5469 -0.0514  0.6799
 4255SOL     OW24226   2.653   3.760  11.952 -0.6022  0.1693  0.1832
 4255SOL    HW124227   2.671   3.681  12.003 -0.3801  0.6242  0.8109
 4255SOL    HW224228   2.682   3.730  11.866  1.5242 -1.4090  1.4494
 4256SOL     OW24229   2.961   3.384   1.777  0.0600  0.0920  0.2637
 4256SOL    HW124230   2.978   3.442   1.703 -1.4187 -0.0920 -0.2156
 4256SOL    HW224231   2.887   3.342   1.735 -0.6714  0.9114  0.7167
 4257SOL     OW24232   2.333   1.878  16.274 -0.0573 -0.0337 -0.0336
 4257SOL    HW124233   2.424   1.852  16.285 -0.0691  0.2824  0.7863
 4257SOL    HW224234   2.313   1.848  16.185  1.2044  2.5905 -1.2189
 4258SOL     OW24235   0.809   0.714   8.475  0.0960  0.1881 -0.1059
 4258SOL    HW124236   0.747   0.723   8.547 -1.4542  0.2644 -1.4571
 4258SOL    HW224237   0.865   0.645   8.511 -0.5800 -1.1333 -1.5685
 4259SOL     OW24238   2.762   3.460   4.024  0.7019 -0.5846  0.3679
 4259SOL    HW124239   2.691   3.396   4.034  0.8833 -0.9906 -0.9887
 4259SOL    HW224240   2.798   3.457   4.113 -0.4628  1.3651  0.9062
 4260SOL     OW24241   4.438   4.122   7.186 -0.3544 -0.0846  0.6076
 4260SOL    HW124242   4.399   4.205   7.213  0.5975  0.4028  0.4840
 4260SOL    HW224243   4.489   4.098   7.263 -1.3787  1.2796  1.7001
 4261SOL     OW24244   0.130   2.744   7.900  0.0433  0.2472 -0.4459
 4261SOL    HW124245   0.080   2.667   7.925 -1.3378  1.5166  0.7038
 4261SOL    HW224246   0.189   2.745   7.976 -1.3291  0.8689  0.6169
 4262SOL     OW24247   4.427   0.256  16.924  0.1085  0.1417  0.7175
 4262SOL    HW124248   4.334   0.252  16.901  0.5503 -0.6793 -0.9141
 4262SOL    HW224249   4.453   0.177  16.877 -0.8240 -0.0221  0.4704
 4263SOL     OW24250   0.870   2.165   2.426 -0.6504  0.2016  0.1288
 4263SOL    HW124251   0.914   2.148   2.343  1.5773  1.7779  0.9890
 4263SOL    HW224252   0.946   2.158   2.484  0.8208 -0.0073 -1.8386
 4264SOL     OW24253   2.649   1.578  14.488  0.5441 -0.5535 -0.2133
 4264SOL    HW124254   2.567   1.548  14.450 -0.8519  1.7480  0.9681
 4264SOL    HW224255   2.698   1.614  14.414  0.4177 -0.5481 -0.2935
 4265SOL     OW24256   0.879   2.253   2.828 -0.5368  0.5453 -0.1919
 4265SOL    HW124257   0.928   2.256   2.910 -2.1932  3.4798  0.6738
 4265SOL    HW224258   0.801   2.301   2.856 -1.4120 -2.1728  2.1242
 4266SOL     OW24259   1.200   1.579  15.221 -0.3098  0.1205  0.3250
 4266SOL    HW124260   1.106   1.596  15.229 -0.2954  1.2790 -2.0147
 4266SOL    HW224261   1.226   1.661  15.263 -2.0905  0.2452  1.1659
 4267SOL     OW24262   3.765   3.001   4.414  0.1193 -0.3348  0.2591
 4267SOL    HW124263   3.715   3.004   4.495  0.0515 -1.5818  0.2603
 4267SOL    HW224264   3.764   3.089   4.378  0.8718 -0.7823 -0.8455
 4268SOL     OW24265   1.051   3.530  11.683  0.3676 -0.3293  0.5443
 4268SOL    HW124266   1.019   3.477  11.756  1.6048 -0.4987  0.9693
 4268SOL    HW224267   1.106   3.468  11.635  1.1380 -1.0622  2.3956
 4269SOL     OW24268   4.410   0.252  16.554  0.0780 -0.0877 -0.2760
 4269SOL    HW124269   4.425   0.179  16.615  2.7583  1.9422  1.5172
 4269SOL    HW224270   4.349   0.290  16.617  1.6455  0.9720  0.5930
 4270SOL     OW24271   0.731   3.798   6.808  0.2769  0.5937  0.1928
 4270SOL    HW124272   0.723   3.795   6.903  1.3741 -1.6735  0.2099
 4270SOL    HW224273   0.801   3.858   6.786  1.7815 -0.8583  1.0559
 4271SOL     OW24274   0.494   3.479   6.323 -0.4451 -0.1328  0.1491
 4271SOL    HW124275   0.472   3.552   6.264  0.1036 -0.1846 -0.1155
 4271SOL    HW224276   0.513   3.408   6.262  0.4510 -0.0140  0.3006
 4272SOL     OW24277   2.416   1.477   5.216 -0.2201 -0.7615 -0.1616
 4272SOL    HW124278   2.357   1.414   5.258 -1.5688 -1.2409 -2.6919
 4272SOL    HW224279   2.414   1.444   5.126 -0.8212  0.3388 -0.5628
 4273SOL     OW24280   0.800   1.070   3.484 -0.0006  0.7439  0.2808
 4273SOL    HW124281   0.822   1.059   3.576 -0.2084  0.1297  0.2588
 4273SOL    HW224282   0.796   0.980   3.451 -2.3367  0.3033  1.7532
 4274SOL     OW24283   4.147   4.188   5.736  0.2895 -0.1880 -0.0620
 4274SOL    HW124284   4.130   4.277   5.765  2.0089  1.0737 -2.9657
 4274SOL    HW224285   4.172   4.218   5.649 -1.0646  1.4519  0.0981
 4275SOL     OW24286   3.120   1.681  11.919  0.2626  0.7055 -0.3197
 4275SOL    HW124287   3.184   1.610  11.906  0.9401  1.3392 -0.4775
 4275SOL    HW224288   3.047   1.673  11.858  0.6654  2.7748 -1.0701
 4276SOL     OW24289   0.692   2.106  10.195  0.1321 -0.0003  0.0293
 4276SOL    HW124290   0.717   2.133  10.284 -2.2853 -0.2048  0.7795
 4276SOL    HW224291   0.657   2.018  10.210  2.5259 -1.0102 -0.2068
 4277SOL     OW24292   0.234   1.824   8.429 -0.4404 -0.3332  0.3865
 4277SOL    HW124293   0.176   1.887   8.387  0.4067  1.4552  1.9324
 4277SOL    HW224294   0.318   1.833   8.385  0.6340 -0.5317  2.3981
 4278SOL     OW24295   0.448   3.051   3.701 -0.4232 -0.0792 -0.1194
 4278SOL    HW124296   0.496   3.019   3.624 -2.0507 -0.0857 -1.1300
 4278SOL    HW224297   0.503   3.012   3.769 -1.5292  2.9003  2.4118
 4279SOL     OW24298   2.509   3.493   3.766  0.1840 -0.4055 -0.1961
 4279SOL    HW124299   2.466   3.556   3.708  0.7252  0.3249  0.2067
 4279SOL    HW224300   2.602   3.501   3.746 -0.0182  2.2444 -0.0735
 4280SOL     OW24301   1.442   1.452   6.124  0.8490 -0.2697  0.5847
 4280SOL    HW124302   1.531   1.448   6.157  0.3798 -1.7497  1.6305
 4280SOL    HW224303   1.455   1.409   6.039  0.7554  0.5008  0.1772
 4281SOL     OW24304   2.701   0.770  11.957 -0.0870 -0.3448 -0.0281
 4281SOL    HW124305   2.704   0.814  12.042  2.4664 -1.2668  0.3433
 4281SOL    HW224306   2.739   0.684  11.973 -1.9304 -1.0270  0.7767
 4282SOL     OW24307   3.204   0.281  17.461  0.6142  0.3174 -0.3159
 4282SOL    HW124308   3.284   0.229  17.466  0.9450  0.9579  1.0015
 4282SOL    HW224309   3.162   0.250  17.541  0.5339  0.1807 -0.4108
 4283SOL     OW24310   3.866   3.586   9.508  0.0041  0.0243  0.0349
 4283SOL    HW124311   3.845   3.507   9.559 -0.2909  1.5015  2.1863
 4283SOL    HW224312   3.781   3.609   9.471 -0.1885 -0.4354  0.1825
 4284SOL     OW24313   4.298   2.015   5.624  0.0629  0.2398 -0.2959
 4284SOL    HW124314   4.284   2.025   5.718 -1.8775  1.4881 -0.7287
 4284SOL    HW224315   4.355   1.938   5.614  0.2244 -0.0358  2.6167
 4285SOL     OW24316   3.895   3.234   6.934  0.1615 -0.5587  1.1385
 4285SOL    HW124317   3.866   3.204   7.020 -0.2940  2.3500  2.0055
 4285SOL    HW224318   3.988   3.251   6.951  1.0206 -1.4487 -2.5689
 4286SOL     OW24319   2.122   4.319  16.810 -0.5744  0.0111  0.3492
 4286SOL    HW124320   2.182   4.302  16.882 -0.7695  0.6468  0.6576
 4286SOL    HW224321   2.153   4.256  16.744 -0.8434  0.4995 -0.2427
 4287SOL     OW24322   0.278   1.619   6.798  0.2295  0.1457 -0.1813
 4287SOL    HW124323   0.251   1.571   6.719 -0.2364 -0.1165  0.1420
 4287SOL    HW224324   0.318   1.551   6.853 -1.0815 -1.5934 -1.3818
 4288SOL     OW24325   0.645   0.812   3.987  0.1650 -0.1669 -0.5108
 4288SOL    HW124326   0.576   0.847   3.931  1.9141  3.9322 -0.1102
 4288SOL    HW224327   0.678   0.890   4.032 -1.2573  0.9988 -1.5179
 4289SOL     OW24328   2.266   2.061   8.690 -0.6775  0.1274 -0.0338
 4289SOL    HW124329   2.245   2.134   8.748 -0.8177  0.7180 -0.8365
 4289SOL    HW224330   2.360   2.050   8.703 -0.9304 -1.1072  0.7745
 4290SOL     OW24331   3.698   3.313   8.790 -0.0606 -0.6478 -0.2798
 4290SOL    HW124332   3.673   3.245   8.852  2.4287 -0.7306  0.6450
 4290SOL    HW224333   3.755   3.252   8.742 -0.4740  0.2367 -1.8888
 4291SOL     OW24334   0.554   1.127   7.843 -0.4809 -0.1058 -0.1078
 4291SOL    HW124335   0.480   1.066   7.848 -0.2545 -0.2755  0.9991
 4291SOL    HW224336   0.504   1.208   7.855  1.4082  1.4952 -3.1043
 4292SOL     OW24337   2.221   1.724  11.304 -0.2354  0.1560 -0.0208
 4292SOL    HW124338   2.260   1.775  11.232 -0.1894  0.0454 -0.0743
 4292SOL    HW224339   2.275   1.758  11.375  1.2364 -2.2205  0.0040
 4293SOL     OW24340   0.185   2.991  17.136  0.1370 -0.9232  0.1011
 4293SOL    HW124341   0.254   2.934  17.101  0.5044 -1.8175  2.3137
 4293SOL    HW224342   0.193   2.976  17.230 -0.1997  0.4729  0.3551
 4294SOL     OW24343   4.650   4.105   7.800 -0.1291 -0.5106  0.0011
 4294SOL    HW124344   4.706   4.178   7.827  0.1538 -0.7156 -0.0400
 4294SOL    HW224345   4.692   4.087   7.716  1.6505 -0.5201  0.9042
 4295SOL     OW24346   1.461   3.110   3.372  0.1423 -0.8236  0.6849
 4295SOL    HW124347   1.458   3.029   3.320 -0.3458 -0.4161  0.0781
 4295SOL    HW224348   1.422   3.076   3.452 -2.2525  0.6194  0.1175
 4296SOL     OW24349   0.886   4.188   8.633  0.4058 -0.2570  0.1828
 4296SOL    HW124350   0.849   4.158   8.716  3.0437  1.2212  1.9080
 4296SOL    HW224351   0.931   4.265   8.669  1.8584 -0.3246 -1.4859
 4297SOL     OW24352   1.685   3.187   3.227  0.5213 -0.4336 -0.2113
 4297SOL    HW124353   1.620   3.191   3.298  1.9724  2.2216  0.9775
 4297SOL    HW224354   1.620   3.217   3.163 -0.8860 -0.0991  1.3811
 4298SOL     OW24355   4.126   0.656  13.070 -0.1615  0.0531 -0.5327
 4298SOL    HW124356   4.164   0.572  13.096  0.3065  0.7211  0.9567
 4298SOL    HW224357   4.196   0.701  13.022  0.6339 -0.3055  0.3017
 4299SOL     OW24358   1.653   0.815   2.831  0.1236 -0.8507 -0.5767
 4299SOL    HW124359   1.739   0.853   2.843 -0.0981 -1.2234  2.3512
 4299SOL    HW224360   1.669   0.738   2.777 -0.7100  0.2199 -2.3285
 4300SOL     OW24361   1.840   3.830   3.682  0.0903  0.8673  0.2671
 4300SOL    HW124362   1.860   3.769   3.611  0.8829  2.3872 -0.8090
 4300SOL    HW224363   1.881   3.777   3.750  1.3025  0.3066 -0.9031
 4301SOL     OW24364   1.931   1.398   9.400  0.3825 -0.4737 -0.3534
 4301SOL    HW124365   2.019   1.432   9.413  0.1776 -0.1140  0.0718
 4301SOL    HW224366   1.926   1.405   9.304 -0.3256  1.2844 -0.1831
 4302SOL     OW24367   1.205   2.206   6.753  0.6317  0.2504 -0.2510
 4302SOL    HW124368   1.178   2.288   6.793  1.7833  0.2500  0.5411
 4302SOL    HW224369   1.187   2.232   6.663  0.8295 -2.5788 -1.1076
 4303SOL     OW24370   1.083   0.733   4.324  0.5272  0.1241 -0.7689
 4303SOL    HW124371   1.030   0.708   4.399  0.8122 -2.3731 -1.4031
 4303SOL    HW224372   1.080   0.653   4.272  1.3016 -0.6939  0.4238
 4304SOL     OW24373   0.028   2.926   6.616 -0.1538  0.5494 -0.0144
 4304SOL    HW124374   0.018   2.887   6.703  1.0898  0.2448 -0.0007
 4304SOL    HW224375   4.690   2.882   6.559  0.3663 -0.0509 -0.1369
 4305SOL     OW24376   0.001   1.209   3.056 -0.2398  0.1464  0.4394
 4305SOL    HW124377   0.041   1.290   3.023  0.5671 -0.0056  1.0298
 4305SOL    HW224378   4.664   1.182   2.988  1.5648  0.0264 -1.1511
 4306SOL     OW24379   3.087   4.724   4.075  0.4013 -0.0071  0.4044
 4306SOL    HW124380   3.153   0.003   4.144  0.0283  0.0251  0.7573
 4306SOL    HW224381   3.132   4.672   4.008  0.4104  0.5106  0.0092
 4307SOL     OW24382   3.120   1.242   7.377  0.3536  0.1289  0.0696
 4307SOL    HW124383   3.137   1.251   7.471  1.8683 -0.1383 -0.1811
 4307SOL    HW224384   3.175   1.169   7.348 -1.7958 -2.4343  2.4068
 4308SOL     OW24385   4.596   4.168   6.824  0.0613 -0.0472 -0.6886
 4308SOL    HW124386   4.688   4.164   6.850 -0.0361 -2.0389 -0.7155
 4308SOL    HW224387   4.578   4.248   6.875 -1.3645 -0.9722  0.2700
 4309SOL     OW24388   3.379   1.410  14.779 -0.6543  0.3393  0.8670
 4309SOL    HW124389   3.329   1.368  14.709 -1.0719 -0.0780  1.4168
 4309SOL    HW224390   3.366   1.501  14.752  0.5193  0.4607  0.7449
 4310SOL     OW24391   0.089   3.449   4.077 -0.1173  0.6625 -0.1376
 4310SOL    HW124392   0.027   3.421   4.010 -0.9421  1.7575  0.1771
 4310SOL    HW224393   0.052   3.424   4.162 -0.3570 -2.0066 -1.0160
 4311SOL     OW24394   4.479   2.190   9.561  0.0445  0.0802  0.5753
 4311SOL    HW124395   4.474   2.164   9.653 -1.3518 -0.7169  0.2765
 4311SOL    HW224396   4.490   2.107   9.517 -0.2983  0.3582 -0.0313
 4312SOL     OW24397   0.009   0.060   9.763  0.5132 -0.4797 -0.1764
 4312SOL    HW124398   4.691   0.078   9.847  0.0490  0.5597 -0.6324
 4312SOL    HW224399   0.028   0.149   9.733  1.2050 -0.6147 -0.1361
 4313SOL     OW24400   3.711   0.437   3.705 -0.4738  0.0114  0.4025
 4313SOL    HW124401   3.720   0.420   3.612 -0.4297  0.0307  0.4033
 4313SOL    HW224402   3.718   0.532   3.704 -1.5056  0.0620 -1.4372
 4314SOL     OW24403   1.271   3.740   6.520  0.0558 -0.0957  0.1276
 4314SOL    HW124404   1.209   3.697   6.461 -0.6498  0.2453  0.6200
 4314SOL    HW224405   1.290   3.671   6.583 -0.8264  0.1591  0.6738
 4315SOL     OW24406   0.585   4.329   5.526 -0.1077 -0.1436 -0.2092
 4315SOL    HW124407   0.536   4.389   5.582 -1.8503 -1.8836  0.1522
 4315SOL    HW224408   0.598   4.260   5.591  2.3904  0.8112  0.2829
 4316SOL     OW24409   3.156   3.459   2.829  0.6235  0.3644 -0.1392
 4316SOL    HW124410   3.180   3.551   2.829 -0.0241  0.5302 -0.3488
 4316SOL    HW224411   3.086   3.469   2.893  1.5541 -0.4047  0.9962
 4317SOL     OW24412   0.491   3.122   9.622  0.1844 -0.0704  0.5675
 4317SOL    HW124413   0.453   3.209   9.610 -1.5133 -0.9934 -0.7300
 4317SOL    HW224414   0.533   3.129   9.708  1.3296 -1.7903  0.1499
 4318SOL     OW24415   3.042   4.642  17.681  0.4630 -0.2836  0.0602
 4318SOL    HW124416   3.104   4.714  17.693 -1.0890  0.5542  3.0824
 4318SOL    HW224417   2.975   4.667   0.044  2.0982 -1.1036  2.1155
 4319SOL     OW24418   2.161   0.893   5.871  0.4886 -0.3322 -0.1951
 4319SOL    HW124419   2.066   0.898   5.882  0.5287  0.9074 -0.4859
 4319SOL    HW224420   2.163   0.836   5.794 -1.4502  1.0106 -1.2240
 4320SOL     OW24421   3.733   3.185  12.541  0.5596 -0.3372 -0.1181
 4320SOL    HW124422   3.749   3.226  12.626 -2.1434  0.9096 -0.1790
 4320SOL    HW224423   3.638   3.172  12.544  0.5381 -0.7287 -2.3129
 4321SOL     OW24424   1.743   0.162   9.258 -0.6468 -0.0058  0.1838
 4321SOL    HW124425   1.774   0.113   9.334  3.5872  2.1473 -0.1125
 4321SOL    HW224426   1.771   0.101   9.190  0.9873  0.9291 -0.0011
 4322SOL     OW24427   2.072   0.817   0.359 -0.5718 -0.5900  0.4488
 4322SOL    HW124428   2.092   0.762   0.284  0.3277 -1.0159  1.0061
 4322SOL    HW224429   2.122   0.895   0.336 -2.6224  0.5678 -0.1010
 4323SOL     OW24430   0.031   2.196   7.959  0.4766  0.5730 -0.6858
 4323SOL    HW124431   0.052   2.282   7.994 -0.1436  0.2806  0.4137
 4323SOL    HW224432   0.116   2.153   7.949  0.0962 -0.7529  1.7474
 4324SOL     OW24433   1.579   4.667   8.435 -0.0433  0.4770 -0.3008
 4324SOL    HW124434   1.602   4.695   8.523  1.4256 -1.4700 -0.0756
 4324SOL    HW224435   1.485   4.682   8.442 -0.5955 -2.5778 -0.9853
 4325SOL     OW24436   4.242   0.732   9.140 -0.0617 -0.3946 -0.8006
 4325SOL    HW124437   4.331   0.732   9.176 -0.6841  0.3012  0.7610
 4325SOL    HW224438   4.253   0.778   9.057 -1.5237 -1.4912 -1.6008
 4326SOL     OW24439   2.104   3.648  10.897 -0.3887  0.4684  0.0201
 4326SOL    HW124440   2.189   3.691  10.905  0.0564  0.1445 -2.8993
 4326SOL    HW224441   2.122   3.574  10.955  2.2438  1.0355 -0.0900
 4327SOL     OW24442   0.501   2.806   1.220 -0.3556  0.5910  0.8428
 4327SOL    HW124443   0.560   2.824   1.293  0.7205  1.8224 -0.3254
 4327SOL    HW224444   0.418   2.830   1.262 -1.3057 -1.5019  0.1839
 4328SOL     OW24445   1.447   1.741   8.449  0.5904 -0.0328  0.4707
 4328SOL    HW124446   1.488   1.668   8.495  0.9762  1.0885  1.9200
 4328SOL    HW224447   1.474   1.807   8.513  0.7716 -0.8813  1.2691
 4329SOL     OW24448   3.459   4.280   5.979 -0.5054 -0.6726 -0.3145
 4329SOL    HW124449   3.403   4.355   5.999  0.1014 -0.6038  1.1549
 4329SOL    HW224450   3.524   4.304   5.912 -0.2386  0.1856  0.2503
 4330SOL     OW24451   2.377   1.381   7.370  0.0137 -0.0298  0.0182
 4330SOL    HW124452   2.395   1.411   7.459  1.4401  1.1187 -0.6521
 4330SOL    HW224453   2.379   1.288   7.392 -0.3323 -0.3563 -1.3083
 4331SOL     OW24454   3.719   1.200  10.618 -0.6914 -0.4195 -0.0211
 4331SOL    HW124455   3.789   1.248  10.574  1.2512 -2.0718  1.2086
 4331SOL    HW224456   3.771   1.142  10.674 -1.2997 -0.5963  0.3611
 4332SOL     OW24457   0.685   2.503   4.674  0.2991 -0.0346  0.3401
 4332SOL    HW124458   0.641   2.426   4.711 -1.5428  1.1326  0.5914
 4332SOL    HW224459   0.699   2.564   4.746  0.4910 -2.1221  2.0904
 4333SOL     OW24460   4.150   2.108   9.337 -0.2627  0.0193  0.3682
 4333SOL    HW124461   4.182   2.159   9.412  0.8376  0.2900 -0.2782
 4333SOL    HW224462   4.138   2.022   9.377  2.0252  0.7940  2.7536
 4334SOL     OW24463   0.675   1.428   7.555  0.2690 -0.4343  0.1437
 4334SOL    HW124464   0.745   1.494   7.548  0.6656 -0.9346 -0.6666
 4334SOL    HW224465   0.695   1.372   7.480  1.0268 -1.5839  1.2188
 4335SOL     OW24466   2.441   0.728   0.061  0.8525  0.3767  0.0704
 4335SOL    HW124467   2.356   0.771   0.065 -0.5170 -2.6915  4.2404
 4335SOL    HW224468   2.500   0.801   0.079  1.4268  0.2946 -1.4779
 4336SOL     OW24469   4.214   1.207  16.532 -0.3132  0.2902  0.7069
 4336SOL    HW124470   4.203   1.301  16.522 -0.6885  0.4766  2.9061
 4336SOL    HW224471   4.296   1.202  16.581 -0.3681  0.2370  0.7931
 4337SOL     OW24472   1.267   1.212   1.624 -0.2226 -0.0126  0.0419
 4337SOL    HW124473   1.319   1.264   1.563 -1.9037  1.8671  0.2232
 4337SOL    HW224474   1.338   1.154   1.654 -1.4514 -0.0523  2.9487
 4338SOL     OW24475   3.623   3.636   7.778  0.4690 -0.1508 -0.0902
 4338SOL    HW124476   3.628   3.679   7.693  0.9667  0.5958  0.3123
 4338SOL    HW224477   3.548   3.576   7.772  0.8194 -0.8691  2.6614
 4339SOL     OW24478   2.110   2.856  11.255 -0.5587 -0.5713 -0.0986
 4339SOL    HW124479   2.148   2.784  11.306  0.0278  0.7917  1.4021
 4339SOL    HW224480   2.179   2.890  11.197  0.2472 -0.3875  0.9654
 4340SOL     OW24481   3.415   0.273   3.613  0.7239 -0.0055 -0.5226
 4340SOL    HW124482   3.358   0.233   3.548 -0.9866 -0.0900  1.0355
 4340SOL    HW224483   3.464   0.332   3.556  1.2799 -0.1969 -0.2471
 4341SOL     OW24484   4.279   4.601   1.106  0.0984 -0.2656 -0.3645
 4341SOL    HW124485   4.303   4.589   1.014  3.0990  0.2197  0.3362
 4341SOL    HW224486   4.237   4.521   1.135  1.5018 -0.7141  0.4245
 4342SOL     OW24487   2.307   0.366   2.812  0.3393  0.2796 -0.0707
 4342SOL    HW124488   2.231   0.342   2.759  0.3504 -0.3792  0.2223
 4342SOL    HW224489   2.265   0.438   2.859  0.5805  0.9730 -0.9185
 4343SOL     OW24490   1.047   4.673   5.735  0.0366 -0.0152 -0.2816
 4343SOL    HW124491   1.104   4.683   5.659 -1.4494  0.9741 -1.2744
 4343SOL    HW224492   1.097   4.606   5.781  0.3416 -0.1378 -0.7981
 4344SOL     OW24493   0.135   3.405   8.305 -0.6860 -0.0561  0.0285
 4344SOL    HW124494   0.218   3.428   8.263  0.2600  1.4475  2.7359
 4344SOL    HW224495   0.082   3.474   8.266  0.5751 -1.4312 -4.1624
 4345SOL     OW24496   2.837   4.596   3.128 -0.2271  0.4225  0.5037
 4345SOL    HW124497   2.784   4.573   3.052  0.5125 -3.1044  1.0278
 4345SOL    HW224498   2.815   4.525   3.188 -1.1469 -0.7072 -1.1625
 4346SOL     OW24499   4.201   2.601   8.056 -0.2382  0.3665 -0.3436
 4346SOL    HW124500   4.107   2.597   8.072 -0.3205  3.6185 -0.0416
 4346SOL    HW224501   4.212   2.512   8.022  1.5669 -0.0321  1.2789
 4347SOL     OW24502   4.343   2.099   2.836  0.3328 -0.0323 -0.2241
 4347SOL    HW124503   4.302   2.128   2.918 -3.2499  3.3117 -3.1922
 4347SOL    HW224504   4.321   2.006   2.841 -0.2338  0.2127  2.0489
 4348SOL     OW24505   1.950   1.075   6.061 -0.0456 -0.2968 -0.3529
 4348SOL    HW124506   1.883   1.119   6.113 -0.4092  0.8288 -1.7467
 4348SOL    HW224507   2.020   1.092   6.123  1.4077 -2.1089 -1.4936
 4349SOL     OW24508   1.218   0.708  11.718  0.7104  0.0312 -0.1266
 4349SOL    HW124509   1.234   0.741  11.629 -0.5393  0.3876 -0.2163
 4349SOL    HW224510   1.133   0.745  11.740 -0.6152 -0.8927 -3.6264
 4350SOL     OW24511   2.496   3.093   7.531  0.3654  0.0301 -0.1389
 4350SOL    HW124512   2.413   3.047   7.527  0.3101  0.2935 -2.1566
 4350SOL    HW224513   2.504   3.110   7.437 -0.4498 -1.2979 -0.4416
 4351SOL     OW24514   4.090   1.648   9.628 -0.5396 -0.0059 -0.5816
 4351SOL    HW124515   4.091   1.622   9.536 -0.1021 -0.4306 -0.4593
 4351SOL    HW224516   4.010   1.605   9.657 -0.8730  1.4516  0.6657
 4352SOL     OW24517   3.582   2.124   6.896  0.9695  0.1298 -0.4423
 4352SOL    HW124518   3.538   2.152   6.816  1.2105  0.0094 -0.6168
 4352SOL    HW224519   3.497   2.114   6.939  0.6004  0.0716 -1.1982
 4353SOL     OW24520   4.702   2.291   6.290 -0.2512  0.0934 -0.6350
 4353SOL    HW124521   4.715   2.225   6.358 -0.7562 -0.6066 -1.2205
 4353SOL    HW224522   4.691   2.242   6.209  1.9997  0.5657 -1.2292
 4354SOL     OW24523   1.946   4.698   6.581 -0.3434  0.4263  0.3619
 4354SOL    HW124524   1.896   0.037   6.530  0.6759  1.2440  0.3836
 4354SOL    HW224525   1.996   0.027   6.643  0.4958  0.9870 -0.8048
 4355SOL     OW24526   1.681   0.072   7.352 -0.2421 -0.7300  0.6484
 4355SOL    HW124527   1.670   0.084   7.446  0.5179 -0.6265  0.7253
 4355SOL    HW224528   1.765   0.026   7.353 -0.6040 -1.4390 -0.8964
 4356SOL     OW24529   2.656   4.407   7.830 -0.7378 -0.1415  0.2336
 4356SOL    HW124530   2.722   4.472   7.852 -0.6419 -0.2870  0.3758
 4356SOL    HW224531   2.665   4.334   7.892  0.6684 -0.9870 -0.9518
 4357SOL     OW24532   2.744   1.914   7.811 -0.3644  0.0625 -0.3987
 4357SOL    HW124533   2.779   1.951   7.892 -0.9624 -2.3854  0.9647
 4357SOL    HW224534   2.693   1.840   7.842 -1.4676  2.0135  2.5261
 4358SOL     OW24535   2.528   0.899   6.962 -0.2957  0.1682 -0.3251
 4358SOL    HW124536   2.525   0.976   6.905 -2.9409  1.7970  1.9742
 4358SOL    HW224537   2.618   0.866   6.962 -0.5791 -0.6016  0.6198
 4359SOL     OW24538   4.444   0.191   8.888  0.2094  0.0431  0.6787
 4359SOL    HW124539   4.386   0.212   8.961  0.7728 -2.2987  1.8239
 4359SOL    HW224540   4.482   0.112   8.927 -0.8351 -1.4650 -1.3266
 4360SOL     OW24541   2.870   3.292  11.812  0.0202  0.2205 -0.7514
 4360SOL    HW124542   2.820   3.373  11.798 -1.8687 -1.0599 -1.2966
 4360SOL    HW224543   2.812   3.220  11.789 -0.2554  0.5755 -1.1663
 4361SOL     OW24544   3.544   1.894   3.053  0.0078 -0.7368  1.0144
 4361SOL    HW124545   3.458   1.855   3.037  0.0642 -0.9132  1.1414
 4361SOL    HW224546   3.595   1.849   2.985 -0.5521 -1.9524  1.3901
 4362SOL     OW24547   3.032   0.677   0.590 -0.0915 -0.1687 -0.0644
 4362SOL    HW124548   2.990   0.700   0.507 -0.2531 -0.2888 -0.0141
 4362SOL    HW224549   3.123   0.688   0.562 -0.2771  0.2235 -0.5159
 4363SOL     OW24550   2.556   0.459   0.726 -0.1393 -0.3875 -0.2899
 4363SOL    HW124551   2.640   0.487   0.689 -0.5146  3.0617  1.4584
 4363SOL    HW224552   2.500   0.530   0.696 -1.8266 -2.4039 -1.8769
 4364SOL     OW24553   3.912   4.705  13.439  0.2453 -0.2427 -0.1124
 4364SOL    HW124554   3.966   4.635  13.478 -0.2163 -0.2400  0.5371
 4364SOL    HW224555   3.853   4.650  13.388 -2.3477  0.3677  2.2225
 4365SOL     OW24556   2.268   2.187   9.162 -0.0417 -0.3842  0.5551
 4365SOL    HW124557   2.328   2.220   9.095 -3.2312  0.1898 -2.0674
 4365SOL    HW224558   2.232   2.270   9.193 -0.6001 -0.7440  0.8781
 4366SOL     OW24559   1.489   0.639   7.070 -0.2349  0.1419 -0.0022
 4366SOL    HW124560   1.427   0.599   7.008 -0.9556  0.1941  0.6749
 4366SOL    HW224561   1.457   0.591   7.147 -1.2696  1.2957  0.2959
 4367SOL     OW24562   1.546   1.073   5.960  0.1957 -0.2586  0.2607
 4367SOL    HW124563   1.538   1.168   5.957 -2.9490 -0.5207 -0.1352
 4367SOL    HW224564   1.627   1.056   5.913  1.8165  1.9558  2.2815
 4368SOL     OW24565   1.361   0.547   5.999  0.4231 -0.1633 -0.4284
 4368SOL    HW124566   1.431   0.494   5.961 -0.3756 -0.6294 -1.2441
 4368SOL    HW224567   1.309   0.563   5.920 -1.6969  1.2472  1.2780
 4369SOL     OW24568   2.609   1.930   9.939  0.0826  0.0886 -0.3316
 4369SOL    HW124569   2.612   1.867   9.866  1.8824  1.6459 -1.6065
 4369SOL    HW224570   2.627   1.877  10.016 -0.8145  0.8306  0.3847
 4370SOL     OW24571   0.273   3.528   5.448  0.0587 -0.2075 -0.2822
 4370SOL    HW124572   0.243   3.613   5.481  2.2470 -0.4580  2.3626
 4370SOL    HW224573   0.212   3.474   5.498  0.9094 -0.9241 -0.0079
 4371SOL     OW24574   3.307   1.957   9.356 -0.2185 -0.3815  0.0134
 4371SOL    HW124575   3.399   1.936   9.338 -0.0264  1.8426 -1.5158
 4371SOL    HW224576   3.261   1.874   9.371 -0.8296 -0.0772 -0.2118
 4372SOL     OW24577   3.609   2.922   0.968 -0.3387  0.0767 -0.6935
 4372SOL    HW124578   3.520   2.943   0.939 -1.3030 -2.3962  0.5167
 4372SOL    HW224579   3.578   2.840   1.005 -1.5090  1.5499  1.6662
 4373SOL     OW24580   1.993   0.280   0.338  0.0247 -0.6961 -0.7420
 4373SOL    HW124581   2.005   0.219   0.266  1.6054 -1.4277  0.1462
 4373SOL    HW224582   1.904   0.263   0.368  0.8335 -1.2244  1.4245
 4374SOL     OW24583   2.997   0.295   2.694  0.0210  0.7484 -0.2041
 4374SOL    HW124584   2.927   0.332   2.747 -2.0128 -0.6068 -1.9708
 4374SOL    HW224585   3.078   0.334   2.728  0.4718 -1.2966  1.1257
 4375SOL     OW24586   2.264   3.048   7.089  0.1285  0.2508 -0.1077
 4375SOL    HW124587   2.235   3.020   7.176  1.5530 -3.5452 -0.8576
 4375SOL    HW224588   2.217   3.129   7.071  0.1377 -0.1866 -2.0636
 4376SOL     OW24589   2.754   2.722  11.517 -0.2905 -0.5768  0.0907
 4376SOL    HW124590   2.732   2.652  11.456 -1.0381 -1.1027  0.9700
 4376SOL    HW224591   2.803   2.785  11.464  0.2253 -2.3329 -1.4973
 4377SOL     OW24592   1.899   4.495  12.484 -0.3689 -0.3612 -0.5359
 4377SOL    HW124593   1.909   4.448  12.402  4.0981  1.8020 -1.2364
 4377SOL    HW224594   1.907   4.582  12.444 -2.4196 -0.0558 -0.2988
 4378SOL     OW24595   0.243   0.107   6.821  0.2493  0.2138  0.5652
 4378SOL    HW124596   0.283   0.151   6.746 -0.5958 -0.9313 -0.5635
 4378SOL    HW224597   0.273   0.166   6.890 -0.6371  0.0191  1.1185
 4379SOL     OW24598   2.724   2.639   4.642 -0.4860 -0.1225 -0.1616
 4379SOL    HW124599   2.779   2.714   4.620  2.4057 -2.5212 -0.9917
 4379SOL    HW224600   2.681   2.630   4.557 -1.7772  1.7316  0.2786
 4380SOL     OW24601   3.132   1.536   8.665 -0.4139 -0.0724  0.2495
 4380SOL    HW124602   3.079   1.487   8.601  0.9144  2.0636 -2.4664
 4380SOL    HW224603   3.108   1.626   8.646 -1.4006 -0.3748  0.0304
 4381SOL     OW24604   0.201   1.808   9.548 -0.2749 -0.5745  0.3880
 4381SOL    HW124605   0.192   1.714   9.530 -3.3302  0.2555 -2.3975
 4381SOL    HW224606   0.166   1.823   9.635 -1.6401  2.2206 -0.6290
 4382SOL     OW24607   0.145   1.239  13.653  0.1158 -0.0612 -0.7913
 4382SOL    HW124608   0.066   1.293  13.649 -1.4753 -2.1970  2.3227
 4382SOL    HW224609   0.140   1.190  13.571 -1.1307 -0.6540 -0.3458
 4383SOL     OW24610   0.453   1.915   1.451  0.6301 -0.4284 -0.0779
 4383SOL    HW124611   0.496   1.984   1.502 -0.0330  0.7691 -1.1542
 4383SOL    HW224612   0.393   1.956   1.390  0.8490 -0.6935 -0.4684
 4384SOL     OW24613   2.870   0.371  16.969  0.2755  0.4583  0.4919
 4384SOL    HW124614   2.954   0.415  16.959 -0.3016  1.1561 -1.4038
 4384SOL    HW224615   2.815   0.448  16.982 -1.4833 -0.6927 -0.0640
 4385SOL     OW24616   2.551   0.211   5.604 -0.3475  0.2665 -0.2915
 4385SOL    HW124617   2.643   0.197   5.624 -0.3814 -0.4109 -0.6072
 4385SOL    HW224618   2.532   0.137   5.546 -0.3276  0.6298 -0.7588
 4386SOL     OW24619   0.643   2.029   3.550 -0.6166 -0.5171 -0.5771
 4386SOL    HW124620   0.716   1.969   3.565 -0.5365 -0.9539 -2.7410
 4386SOL    HW224621   0.598   2.010   3.632  0.5698  2.9626  0.8808
 4387SOL     OW24622   4.530   2.210  13.148 -0.1847 -0.6045  0.0366
 4387SOL    HW124623   4.526   2.279  13.214 -2.3367 -0.5499 -0.1527
 4387SOL    HW224624   4.585   2.140  13.183  0.9014 -0.2187 -0.8894
 4388SOL     OW24625   0.183   4.627   7.578  0.1375 -0.4134 -0.1307
 4388SOL    HW124626   0.231   4.548   7.552 -0.5439 -0.4443 -1.2997
 4388SOL    HW224627   0.256   4.689   7.577 -0.0016 -0.2932 -1.9526
 4389SOL     OW24628   2.747   1.491  16.306  0.6784 -0.5877  0.1405
 4389SOL    HW124629   2.772   1.401  16.281  1.5821 -0.2693 -0.0959
 4389SOL    HW224630   2.659   1.500  16.271  1.0960 -1.4365 -1.1455
 4390SOL     OW24631   0.612   4.469   9.571 -0.1276  0.4900 -0.0323
 4390SOL    HW124632   0.611   4.560   9.598 -1.6321  0.0742  1.3232
 4390SOL    HW224633   0.624   4.430   9.658 -0.6101 -2.6730 -1.3759
 4391SOL     OW24634   3.002   1.367  10.096  0.2493 -0.6021 -0.3424
 4391SOL    HW124635   2.933   1.300  10.100 -0.9881  0.7386  0.5469
 4391SOL    HW224636   3.003   1.380  10.001  0.6401 -2.6355 -0.6299
 4392SOL     OW24637   2.400   3.720  13.282  0.5272 -0.1844  0.0622
 4392SOL    HW124638   2.421   3.780  13.354 -0.6264  0.1477  0.1206
 4392SOL    HW224639   2.334   3.778  13.244  2.1521 -0.5414 -3.3258
 4393SOL     OW24640   1.084   2.048  13.855  0.0369  0.5679  0.0745
 4393SOL    HW124641   1.046   2.059  13.768 -1.7801  0.3566  0.8502
 4393SOL    HW224642   0.998   2.055  13.895  0.0629  1.0725  0.0416
 4394SOL     OW24643   3.537   1.862   8.327 -0.2683 -0.1390  0.0215
 4394SOL    HW124644   3.479   1.937   8.336 -1.3029 -0.8611 -0.6660
 4394SOL    HW224645   3.475   1.793   8.351  0.3618 -1.4370 -2.0801
 4395SOL     OW24646   3.905   3.263   7.653 -0.1695 -0.0512 -0.2368
 4395SOL    HW124647   3.913   3.264   7.557 -0.3380 -2.1454 -0.2779
 4395SOL    HW224648   3.912   3.168   7.662 -0.1517  0.0833  1.1439
 4396SOL     OW24649   1.249   1.700   6.998  0.0455 -0.0962 -0.4480
 4396SOL    HW124650   1.193   1.626   6.975 -0.6906  0.2866  0.1155
 4396SOL    HW224651   1.230   1.750   6.919 -3.0799 -0.8249 -0.1491
 4397SOL     OW24652   1.072   4.201   2.213  0.0105 -0.1055  0.4125
 4397SOL    HW124653   1.109   4.258   2.280  1.0716  0.2854 -0.5034
 4397SOL    HW224654   1.127   4.128   2.242 -1.2803 -1.3973 -0.3669
 4398SOL     OW24655   2.803   1.463   5.116 -0.3354  0.4683 -0.1540
 4398SOL    HW124656   2.789   1.553   5.089 -2.6442 -0.0716 -0.7506
 4398SOL    HW224657   2.821   1.414   5.035 -0.4382 -1.2450  0.8470
 4399SOL     OW24658   0.970   2.402   5.017  0.1799  0.0210 -0.1707
 4399SOL    HW124659   0.907   2.443   5.076  0.4166  1.5366 -0.9591
 4399SOL    HW224660   0.974   2.467   4.946  3.0654 -0.4013 -0.3859
 4400SOL     OW24661   0.232   3.520   6.512 -0.0427  0.0897  0.1858
 4400SOL    HW124662   0.315   3.515   6.465 -1.1555  3.3906 -2.1880
 4400SOL    HW224663   0.237   3.456   6.582  0.9149  0.6795  0.6575
 4401SOL     OW24664   1.686   3.434   1.282  0.0122  0.3458 -0.2104
 4401SOL    HW124665   1.769   3.387   1.286  1.0003  2.1720  0.9910
 4401SOL    HW224666   1.693   3.507   1.344 -0.2130  0.7972 -0.7180
 4402SOL     OW24667   2.906   4.405   6.955 -0.9713 -0.2026  0.3500
 4402SOL    HW124668   2.902   4.379   6.863  3.1018 -2.5032  0.8155
 4402SOL    HW224669   2.901   4.500   6.946  1.1615 -0.0882  0.4283
 4403SOL     OW24670   3.873   1.826   3.110 -0.3480  0.6585  0.6133
 4403SOL    HW124671   3.922   1.751   3.077  1.1853  1.2518  1.5394
 4403SOL    HW224672   3.795   1.808   3.057  0.8726 -0.4448 -0.8033
 4404SOL     OW24673   3.014   0.854   5.947 -0.0873  0.1488  0.0143
 4404SOL    HW124674   3.092   0.909   5.950 -0.5505  0.7724  0.6204
 4404SOL    HW224675   2.945   0.918   5.964 -0.0944  0.5740 -1.6032
 4405SOL     OW24676   1.974   3.542   5.083  0.3727  0.3648 -0.0176
 4405SOL    HW124677   1.999   3.515   5.172  0.4399 -0.6690 -0.3500
 4405SOL    HW224678   1.955   3.634   5.105  0.3067  0.0382  1.2921
 4406SOL     OW24679   4.383   0.869   8.549 -0.4612 -0.1963 -0.2513
 4406SOL    HW124680   4.431   0.943   8.513 -0.4882  0.7902  1.7279
 4406SOL    HW224681   4.455   0.806   8.547 -0.0786  0.2230  0.2646
 4407SOL     OW24682   3.029   0.533  15.830  0.2457 -0.2771 -0.0616
 4407SOL    HW124683   3.105   0.482  15.856  0.8565  1.9521  2.4227
 4407SOL    HW224684   2.973   0.514  15.905  2.5039 -1.6888  1.2612
 4408SOL     OW24685   4.229   2.485   3.631  0.1105  0.5558 -0.0957
 4408SOL    HW124686   4.196   2.573   3.646  2.3557  1.2808  0.5322
 4408SOL    HW224687   4.247   2.483   3.537  0.3974  0.2609 -0.0351
 4409SOL     OW24688   1.065   2.497   1.604  0.1726 -0.1373  0.3981
 4409SOL    HW124689   1.104   2.512   1.690  1.0627 -0.6060  0.0789
 4409SOL    HW224690   1.100   2.408   1.599  1.7741  0.4987  0.2150
 4410SOL     OW24691   0.350   3.828   6.707 -0.1319 -0.6602 -0.2257
 4410SOL    HW124692   0.418   3.761   6.697 -0.1108 -0.4123 -1.8364
 4410SOL    HW224693   0.378   3.886   6.636 -0.3397 -1.0370 -0.6228
 4411SOL     OW24694   2.497   3.058   4.985 -0.3137  0.0236 -0.2726
 4411SOL    HW124695   2.444   2.985   4.952 -0.9014  0.2869  0.1002
 4411SOL    HW224696   2.583   3.019   5.003  0.4078  1.8473  0.1595
 4412SOL     OW24697   1.164   4.489  11.810  0.0622  0.1866 -0.2848
 4412SOL    HW124698   1.095   4.554  11.828 -2.0049 -1.8953 -0.6877
 4412SOL    HW224699   1.142   4.462  11.721 -0.2932 -0.8688  0.1231
 4413SOL     OW24700   0.404   1.695   5.929  0.0636  0.6473  0.2575
 4413SOL    HW124701   0.491   1.734   5.937 -0.4226  1.8538 -0.3736
 4413SOL    HW224702   0.378   1.693   6.021  1.9156  0.1166  0.7805
 4414SOL     OW24703   3.644   1.895  14.579  0.2687 -0.2576 -0.0099
 4414SOL    HW124704   3.672   1.908  14.669  0.7254 -0.8693 -0.0609
 4414SOL    HW224705   3.721   1.853  14.540  0.2777  1.5556 -1.9918
 4415SOL     OW24706   2.953   2.311   1.765 -0.0103  0.0666 -0.2618
 4415SOL    HW124707   2.954   2.324   1.670 -2.8731 -0.9205 -0.4331
 4415SOL    HW224708   2.904   2.387   1.797 -0.2168 -0.6357  1.0437
 4416SOL     OW24709   4.226   4.019  13.474 -0.3132  0.4663  0.1785
 4416SOL    HW124710   4.194   4.097  13.521 -2.9749  0.4683 -1.6032
 4416SOL    HW224711   4.303   4.009  13.529  0.9974 -2.0739 -2.1384
 4417SOL     OW24712   2.406   1.362   4.991 -0.6229 -0.0728 -0.2197
 4417SOL    HW124713   2.478   1.335   4.935 -0.5889  0.4192 -0.4132
 4417SOL    HW224714   2.355   1.282   4.999 -1.8260  0.6847 -0.2717
 4418SOL     OW24715   0.589   1.640   2.937 -0.5198 -0.1977  0.0927
 4418SOL    HW124716   0.590   1.571   3.003 -0.7810 -0.4380 -0.1528
 4418SOL    HW224717   0.684   1.644   2.925 -0.4010  0.0677  1.1015
 4419SOL     OW24718   3.041   0.348   0.227 -0.0255 -0.3768 -0.2483
 4419SOL    HW124719   2.976   0.407   0.189  0.6718  0.5174 -0.0587
 4419SOL    HW224720   2.978   0.303   0.283 -1.5330  0.9269 -0.8886
 4420SOL     OW24721   4.109   3.583   0.276  0.0490 -0.0292 -0.0958
 4420SOL    HW124722   4.143   3.496   0.295  1.8799  0.5847 -0.5620
 4420SOL    HW224723   4.024   3.577   0.319  0.8890 -2.9756  1.1775
 4421SOL     OW24724   1.724   1.753   3.101  0.0858  0.1203  0.8109
 4421SOL    HW124725   1.653   1.732   3.040  1.0802 -0.7904 -0.0182
 4421SOL    HW224726   1.688   1.821   3.157  2.2087  1.5166  0.4897
 4422SOL     OW24727   0.717   4.546   7.394  0.4285  0.0702 -0.3951
 4422SOL    HW124728   0.813   4.539   7.395  0.4675  0.1228 -2.3032
 4422SOL    HW224729   0.704   4.566   7.301 -2.9905  0.2767  0.1291
 4423SOL     OW24730   4.456   1.308   4.675 -0.2907  0.0773 -0.1338
 4423SOL    HW124731   4.549   1.289   4.679  0.0925  1.8184 -1.0947
 4423SOL    HW224732   4.449   1.356   4.593 -1.2337  1.8875  0.9965
 4424SOL     OW24733   4.091   4.193   7.399 -0.0353  0.1393  0.0063
 4424SOL    HW124734   4.080   4.116   7.344 -1.8153 -0.2803  0.9631
 4424SOL    HW224735   4.161   4.153   7.451 -0.8796 -1.1033  0.1923
 4425SOL     OW24736   4.263   3.135   6.227 -1.1578 -0.0002 -0.0372
 4425SOL    HW124737   4.263   3.197   6.300  2.9309 -1.1478  0.9803
 4425SOL    HW224738   4.184   3.155   6.178  0.1198  1.3090 -1.5665
 4426SOL     OW24739   0.180   0.674   7.396 -0.2104  0.3467  0.2781
 4426SOL    HW124740   0.274   0.677   7.379 -0.4672  2.1761 -0.8775
 4426SOL    HW224741   0.146   0.736   7.331 -0.9798 -0.9889 -0.5861
 4427SOL     OW24742   4.285   2.521   7.784  0.1877  0.4329  0.3461
 4427SOL    HW124743   4.201   2.563   7.764  0.1530 -0.8135 -2.0774
 4427SOL    HW224744   4.273   2.428   7.768 -0.8695  0.2779  1.9450
 4428SOL     OW24745   4.614   1.286   3.437  0.1520 -0.1784 -0.5013
 4428SOL    HW124746   4.615   1.195   3.408 -0.6584 -0.5114  0.5001
 4428SOL    HW224747   4.706   1.308   3.423 -0.0272  1.0905  0.3304
 4429SOL     OW24748   0.927   3.348   9.855 -0.1192  0.0358  0.2344
 4429SOL    HW124749   0.837   3.349   9.886 -0.6497 -0.4961 -1.2798
 4429SOL    HW224750   0.941   3.442   9.849  0.0938 -0.1225 -1.9836
 4430SOL     OW24751   2.034   2.608   4.136 -0.6349  0.1694  0.4241
 4430SOL    HW124752   2.036   2.694   4.178 -0.0363  0.0014  0.7284
 4430SOL    HW224753   2.032   2.626   4.042  0.6582 -1.3052  0.1208
 4431SOL     OW24754   2.935   1.602   8.374 -0.0117  0.2736 -0.0331
 4431SOL    HW124755   2.944   1.511   8.404  1.5438  0.7097  0.7831
 4431SOL    HW224756   2.874   1.602   8.300 -1.2892 -0.1036  1.0201
 4432SOL     OW24757   1.122   0.060   3.414  0.0666 -0.5718 -0.7033
 4432SOL    HW124758   1.183   0.134   3.405 -0.2671 -0.1690  0.3542
 4432SOL    HW224759   1.059   0.063   3.342  1.4226  0.5117 -1.8527
 4433SOL     OW24760   3.210   2.362   0.011 -0.3947  0.1816 -0.1368
 4433SOL    HW124761   3.178   2.274   0.031  0.7010 -0.2933 -0.4378
 4433SOL    HW224762   3.194   2.411   0.091 -0.7453 -0.6235  0.2847
 4434SOL     OW24763   0.231   1.427   6.582 -0.0606 -0.2783  1.0689
 4434SOL    HW124764   0.232   1.333   6.561 -0.2008 -0.1196  0.3697
 4434SOL    HW224765   0.277   1.452   6.502  0.0443 -1.1870  0.8393
 4435SOL     OW24766   4.550   2.798  16.497 -0.5117  1.0119  0.0849
 4435SOL    HW124767   4.508   2.832  16.418 -1.0132  0.3849  0.0816
 4435SOL    HW224768   4.600   2.868  16.539  2.1094  0.0213 -1.3905
 4436SOL     OW24769   3.870   0.771   4.948  0.2188  0.4712 -0.0641
 4436SOL    HW124770   3.964   0.776   4.968  0.1234  3.1195 -0.3356
 4436SOL    HW224771   3.825   0.724   5.018 -1.1984  1.1864 -0.5145
 4437SOL     OW24772   4.214   2.289   7.665 -0.0471  0.3883 -0.6785
 4437SOL    HW124773   4.213   2.219   7.600 -0.4505  1.3722 -1.7275
 4437SOL    HW224774   4.197   2.360   7.604 -2.3073  0.3650 -0.0857
 4438SOL     OW24775   1.907   3.281  14.591  0.3298  0.2757 -0.4290
 4438SOL    HW124776   1.901   3.188  14.615 -1.5917 -0.2612 -2.9619
 4438SOL    HW224777   1.934   3.257  14.503  0.0745  0.9433 -0.6869
 4439SOL     OW24778   2.911   4.039   5.487  0.2452  0.1455  0.2655
 4439SOL    HW124779   2.887   4.105   5.421  2.5553 -1.2512 -1.9697
 4439SOL    HW224780   3.003   4.028   5.463  0.5165  0.2084  1.2802
 4440SOL     OW24781   4.451   0.627   5.338  0.0189 -0.1930  0.1481
 4440SOL    HW124782   4.374   0.665   5.380 -0.3868 -1.8497  0.9080
 4440SOL    HW224783   4.404   0.562   5.287 -0.4460  0.5081 -0.3182
 4441SOL     OW24784   0.481   1.293   4.740  0.2196 -0.2075  0.5649
 4441SOL    HW124785   0.544   1.349   4.786 -0.6791  0.1786  1.3043
 4441SOL    HW224786   0.536   1.220   4.713  1.8670  0.8379  1.0781
 4442SOL     OW24787   3.627   1.092  12.078 -0.4230  0.3231  0.9802
 4442SOL    HW124788   3.679   1.071  12.000  1.8838 -0.4232  2.7072
 4442SOL    HW224789   3.678   1.165  12.114  0.4478  0.9952 -1.6235
 4443SOL     OW24790   3.075   4.659   5.121 -0.0678 -0.3047 -0.1722
 4443SOL    HW124791   3.112   0.022   5.107 -0.5749 -0.2775 -1.3021
 4443SOL    HW224792   3.095   4.653   5.215  1.4997  0.4891 -0.4437
 4444SOL     OW24793   1.781   4.571   8.835 -0.3908  0.2332 -0.2125
 4444SOL    HW124794   1.772   4.476   8.845  0.3853  0.0088 -1.6852
 4444SOL    HW224795   1.692   4.596   8.811 -0.1460 -0.2934 -1.6915
 4445SOL     OW24796   0.987   0.195  12.809  0.0578  0.5065 -0.4344
 4445SOL    HW124797   0.931   0.271  12.798 -1.6143 -0.7072 -0.2881
 4445SOL    HW224798   0.920   0.126  12.811 -0.6857  1.2615  0.5661
 4446SOL     OW24799   0.447   4.484   7.457 -0.7560  1.3550  0.7191
 4446SOL    HW124800   0.529   4.488   7.408 -1.0326  1.1771  0.2466
 4446SOL    HW224801   0.468   4.421   7.526  0.4082  0.6017 -0.3381
 4447SOL     OW24802   1.517   4.496   5.079 -0.0761 -0.2324 -0.8032
 4447SOL    HW124803   1.568   4.538   5.148 -0.7331 -0.9787  0.1371
 4447SOL    HW224804   1.430   4.526   5.105  0.5599  0.9591 -0.0115
 4448SOL     OW24805   3.577   1.725   5.614  0.5472  0.4077 -0.3611
 4448SOL    HW124806   3.624   1.706   5.695 -0.8738  1.1165  0.6314
 4448SOL    HW224807   3.513   1.789   5.646 -0.0886 -0.6519  0.4881
 4449SOL     OW24808   4.593   1.722   3.253 -0.1128 -0.2392 -0.4189
 4449SOL    HW124809   4.523   1.769   3.208 -0.3854 -0.5151 -0.2890
 4449SOL    HW224810   4.549   1.640   3.278 -1.5662  0.3113 -1.2013
 4450SOL     OW24811   0.549   2.547   8.416 -0.4437 -0.4948 -0.0370
 4450SOL    HW124812   0.563   2.563   8.510  1.2214 -0.4590 -0.2894
 4450SOL    HW224813   0.540   2.452   8.408 -2.5002 -0.1949 -1.1814
 4451SOL     OW24814   3.526   0.456   0.637  0.4406 -0.2468  0.5521
 4451SOL    HW124815   3.609   0.486   0.675 -0.5694  1.9663  1.0184
 4451SOL    HW224816   3.515   0.528   0.575 -0.3589 -0.4398  0.4739
 4452SOL     OW24817   1.052   1.315   2.015  0.0866 -0.8394  0.5439
 4452SOL    HW124818   1.062   1.237   1.960 -1.8380 -1.3635  0.9652
 4452SOL    HW224819   1.081   1.387   1.958 -0.3543  1.0411  2.7279
 4453SOL     OW24820   1.953   0.464   8.222  0.0841  0.0223  0.1792
 4453SOL    HW124821   1.919   0.493   8.306  1.2077 -1.1124  1.0282
 4453SOL    HW224822   1.986   0.377   8.246  3.6598  1.1759 -0.6218
 4454SOL     OW24823   4.034   3.116  15.466  0.2635 -0.3778 -0.1247
 4454SOL    HW124824   4.021   3.156  15.380  0.9997 -3.5017 -1.6656
 4454SOL    HW224825   4.085   3.178  15.518 -0.8884  0.3916  0.0919
 4455SOL     OW24826   2.995   1.279   7.111  0.2725  0.2111 -0.2266
 4455SOL    HW124827   2.941   1.348   7.150  1.4374  0.4831  0.9069
 4455SOL    HW224828   3.032   1.235   7.188  1.6220  0.7880 -0.5305
 4456SOL     OW24829   2.142   4.668  12.097  0.0897  0.1614  0.0178
 4456SOL    HW124830   2.181   4.652  12.183  1.2620  1.7380 -0.2273
 4456SOL    HW224831   2.124   4.576  12.076 -0.8581  0.3715 -0.1059
 4457SOL     OW24832   0.361   2.634   1.001 -0.1270  0.1764  0.3758
 4457SOL    HW124833   0.303   2.636   1.077 -0.0423 -2.6109  0.4970
 4457SOL    HW224834   0.302   2.635   0.926 -1.4051  1.7279  1.3743
 4458SOL     OW24835   3.018   3.177  13.773  0.5231 -0.7180  0.1915
 4458SOL    HW124836   3.109   3.205  13.785  0.7607 -0.6166 -1.9578
 4458SOL    HW224837   2.989   3.147  13.860  2.0737  0.1567  1.0128
 4459SOL     OW24838   4.109   4.324   6.273  0.3469 -0.2636 -0.0045
 4459SOL    HW124839   4.185   4.355   6.322  0.5940 -2.8767  1.2530
 4459SOL    HW224840   4.107   4.387   6.201  3.4854  1.2502  1.2600
 4460SOL     OW24841   1.383   0.284   6.790  0.1049  0.0926 -0.4790
 4460SOL    HW124842   1.384   0.334   6.708 -2.5531  0.4354 -0.3082
 4460SOL    HW224843   1.477   0.271   6.794 -0.0485 -1.7920 -3.2432
 4461SOL     OW24844   1.757   0.547   8.377  0.0006  0.0006 -0.2345
 4461SOL    HW124845   1.681   0.499   8.412  1.5508  0.4310  3.7829
 4461SOL    HW224846   1.707   0.606   8.321  1.3230  1.7770  0.4722
 4462SOL     OW24847   1.166   2.283   9.842  0.2722 -0.5590  0.1883
 4462SOL    HW124848   1.180   2.263   9.935 -2.5709 -0.2230  0.7118
 4462SOL    HW224849   1.210   2.213   9.794  1.9418 -0.5149  1.6713
 4463SOL     OW24850   3.782   3.555  13.160  0.2554  0.0909 -0.3955
 4463SOL    HW124851   3.714   3.619  13.181  0.5516  0.9968 -2.1267
 4463SOL    HW224852   3.750   3.479  13.208  1.2978  0.2827  0.5911
 4464SOL     OW24853   0.710   1.962  13.735  0.4569  0.6066  0.2795
 4464SOL    HW124854   0.793   1.991  13.696 -0.2536  1.5725 -0.5008
 4464SOL    HW224855   0.711   1.867  13.743  0.3173  0.5367 -0.5321
 4465SOL     OW24856   3.367   2.077  16.356 -0.3470 -0.3603 -0.7976
 4465SOL    HW124857   3.274   2.099  16.359 -0.0675  0.8505 -1.0805
 4465SOL    HW224858   3.401   2.157  16.395  1.4890 -1.9631  0.9329
 4466SOL     OW24859   1.330   3.122  11.534  0.8003 -0.3016 -0.2515
 4466SOL    HW124860   1.396   3.095  11.471 -0.3582 -0.6958 -1.3009
 4466SOL    HW224861   1.306   3.033  11.560  0.3860 -0.4428 -1.1115
 4467SOL     OW24862   4.344   3.446   5.277 -0.2445  0.4601  0.3430
 4467SOL    HW124863   4.367   3.391   5.351  1.8404  1.3126  0.3438
 4467SOL    HW224864   4.419   3.506   5.266 -0.5499  0.7392 -0.2163
 4468SOL     OW24865   2.424   2.704   0.615  0.0661  0.8147  0.6122
 4468SOL    HW124866   2.367   2.780   0.605  0.8634  1.5149  1.3997
 4468SOL    HW224867   2.359   2.633   0.611  2.1597 -1.0000 -1.1926
 4469SOL     OW24868   3.390   2.176   1.148  0.1921 -0.2144  0.5661
 4469SOL    HW124869   3.327   2.248   1.142  0.1598  0.0595  3.8957
 4469SOL    HW224870   3.474   2.221   1.160  2.3221 -3.7086 -1.5197
 4470SOL     OW24871   2.955   3.381  14.051 -0.4460 -0.2878 -0.1034
 4470SOL    HW124872   3.045   3.389  14.081 -0.9212  1.6747  0.8157
 4470SOL    HW224873   2.919   3.310  14.105  2.4316 -1.1549  0.6631
 4471SOL     OW24874   4.163   1.983  11.509  0.1801 -0.7831 -0.5472
 4471SOL    HW124875   4.093   1.990  11.444 -1.5271 -0.1018  1.3294
 4471SOL    HW224876   4.164   1.889  11.527 -2.8642 -1.0998 -2.0325
 4472SOL     OW24877   1.492   2.617  10.017 -0.3961 -0.5054 -0.1961
 4472SOL    HW124878   1.574   2.652  10.054 -0.7723 -1.1103  1.1948
 4472SOL    HW224879   1.508   2.524  10.033  2.5807 -0.3906 -2.4566
 4473SOL     OW24880   0.535   3.839   7.488  0.3371  0.1436 -0.3373
 4473SOL    HW124881   0.623   3.853   7.455  0.4631  0.2961  0.0685
 4473SOL    HW224882   0.511   3.932   7.487 -0.0041  0.0607  0.2325
 4474SOL     OW24883   2.032   2.333   4.240 -0.5091 -0.3355  0.0947
 4474SOL    HW124884   2.071   2.321   4.154  1.5244  2.5477  0.6009
 4474SOL    HW224885   2.022   2.428   4.233 -0.3754 -0.3496 -0.3013
 4475SOL     OW24886   3.880   2.201   5.468 -0.4416  0.2061  0.4459
 4475SOL    HW124887   3.888   2.258   5.544  1.6695 -0.0771  0.4249
 4475SOL    HW224888   3.785   2.189   5.471 -0.3959  0.1670  1.9375
 4476SOL     OW24889   0.388   0.259   7.014 -0.0754 -0.4154 -0.2760
 4476SOL    HW124890   0.363   0.207   7.091 -0.3178 -0.4429 -0.3750
 4476SOL    HW224891   0.483   0.255   7.004 -0.1311 -0.4188 -0.8158
 4477SOL     OW24892   2.191   1.386   9.380  0.1957 -0.3474  0.4645
 4477SOL    HW124893   2.274   1.390   9.334 -0.2852  0.0042 -0.3640
 4477SOL    HW224894   2.159   1.297   9.363 -0.8875  0.5320 -2.0837
 4478SOL     OW24895   1.210   3.221   3.821 -0.0973 -0.0133  0.3741
 4478SOL    HW124896   1.223   3.130   3.848 -3.3115 -0.0967  1.5650
 4478SOL    HW224897   1.195   3.225   3.726  1.5461 -1.4835  0.0580
 4479SOL     OW24898   3.802   1.538   5.364 -0.1776  0.1470  0.1498
 4479SOL    HW124899   3.810   1.466   5.302  1.9265 -2.0928  3.0069
 4479SOL    HW224900   3.714   1.571   5.343 -0.0938  0.1450 -0.1999
 4480SOL     OW24901   4.007   0.317   5.090  0.9243 -0.0944 -0.1401
 4480SOL    HW124902   4.030   0.250   5.155  2.4869 -0.1068 -0.7112
 4480SOL    HW224903   3.934   0.277   5.043  1.7100 -2.1887  0.3846
 4481SOL     OW24904   1.086   0.253   7.755  0.5565 -0.8737  0.0896
 4481SOL    HW124905   1.163   0.222   7.804  0.1145  0.3138  1.5619
 4481SOL    HW224906   1.025   0.181   7.770 -0.3720 -0.2046 -0.5196
 4482SOL     OW24907   2.120   0.222  12.060  0.2390 -0.0976  0.1609
 4482SOL    HW124908   2.028   0.198  12.052 -0.0387  0.4371  1.8673
 4482SOL    HW224909   2.166   0.138  12.053  0.7757  0.1141  1.1077
 4483SOL     OW24910   2.062   0.995   2.094 -0.2554  0.0078  0.0566
 4483SOL    HW124911   2.088   1.052   2.021  0.8582  0.0643  0.5040
 4483SOL    HW224912   1.997   1.049   2.140 -2.6428 -2.8321  0.0306
 4484SOL     OW24913   0.703   2.761  16.353  0.2051 -0.1542 -0.4705
 4484SOL    HW124914   0.770   2.820  16.318  1.4944 -1.0395  0.4754
 4484SOL    HW224915   0.747   2.724  16.430 -2.7386  0.3541  1.4470
 4485SOL     OW24916   0.158   0.552   2.022 -0.1089 -0.1759 -0.1764
 4485SOL    HW124917   0.251   0.531   2.010 -0.1829  0.0200 -1.0806
 4485SOL    HW224918   0.172   0.606   2.100  0.3381 -1.1318  0.4177
 4486SOL     OW24919   3.770   2.182  11.129 -0.2151  0.3225 -0.2268
 4486SOL    HW124920   3.845   2.190  11.070  1.3598  2.6222  2.1224
 4486SOL    HW224921   3.701   2.144  11.073 -0.9158  3.4730 -1.4877
 4487SOL     OW24922   3.191   1.084   5.396  0.0673 -0.1057 -0.5403
 4487SOL    HW124923   3.212   1.155   5.456  1.0607 -0.1814 -0.7920
 4487SOL    HW224924   3.139   1.030   5.455  0.4866  0.1311  0.0444
 4488SOL     OW24925   2.345   0.308   4.070  0.0887  0.3936  0.0731
 4488SOL    HW124926   2.287   0.381   4.050  0.8097  0.9101 -0.1305
 4488SOL    HW224927   2.367   0.267   3.986 -1.5225 -1.8164  0.7312
 4489SOL     OW24928   1.647   3.970   8.125 -0.2149  0.0067 -0.4236
 4489SOL    HW124929   1.687   3.889   8.095 -1.1265 -1.6948  3.0742
 4489SOL    HW224930   1.729   4.017   8.142  0.7885 -0.6615 -3.4277
 4490SOL     OW24931   1.713   4.152  17.307 -0.2038  0.0451 -0.1565
 4490SOL    HW124932   1.623   4.123  17.322 -0.5205  0.8130 -0.5419
 4490SOL    HW224933   1.711   4.153  17.211 -2.5904 -0.1747 -0.1060
 4491SOL     OW24934   0.305   0.496   7.076 -0.0229 -0.3392 -0.4331
 4491SOL    HW124935   0.313   0.538   6.990  1.1611 -1.9056 -1.0905
 4491SOL    HW224936   0.354   0.417   7.052 -0.2680 -0.6899  0.2246
 4492SOL     OW24937   1.271   0.177   8.826  0.3795 -0.4463 -0.6945
 4492SOL    HW124938   1.284   0.196   8.919  1.0812  0.2321 -0.9408
 4492SOL    HW224939   1.239   0.086   8.829 -1.3159  0.1062 -2.0439
 4493SOL     OW24940   3.775   3.244   4.308  0.3297 -0.4640 -0.1470
 4493SOL    HW124941   3.741   3.331   4.331  3.4903  0.1305  2.2497
 4493SOL    HW224942   3.868   3.264   4.295  0.3111  2.1093  3.5507
 4494SOL     OW24943   4.324   0.049  13.006 -0.2392 -0.4496  0.4020
 4494SOL    HW124944   4.268   0.125  13.023 -1.0991 -0.8593 -0.5986
 4494SOL    HW224945   4.287   4.699  13.053  0.4552 -0.9756  0.1050
 4495SOL     OW24946   0.215   0.169  16.061  0.4196 -0.0199 -0.0249
 4495SOL    HW124947   0.267   0.218  16.125  0.5682  0.4054 -0.4721
 4495SOL    HW224948   0.125   0.181  16.093  1.4258  3.1588  1.5730
 4496SOL     OW24949   2.923   4.333   3.520  0.3480  0.4113 -0.4524
 4496SOL    HW124950   2.973   4.274   3.464  0.4905  0.3634 -0.2768
 4496SOL    HW224951   2.867   4.279   3.576  0.8237 -0.5349 -0.8925
 4497SOL     OW24952   0.801   2.635  15.261 -0.3316 -0.0590 -0.9056
 4497SOL    HW124953   0.765   2.708  15.210  0.4087 -0.9214 -2.6511
 4497SOL    HW224954   0.716   2.598  15.288 -0.1436  2.3553  2.9880
 4498SOL     OW24955   0.029   4.514   7.027 -0.5059 -0.0476  0.1031
 4498SOL    HW124956   0.083   4.563   6.964 -0.4485  1.1392  1.0802
 4498SOL    HW224957   4.718   4.445   6.971  0.4282  1.5172 -2.4582
 4499SOL     OW24958   4.204   4.429   7.445 -0.2697  0.5667  0.5282
 4499SOL    HW124959   4.203   4.447   7.539  1.5540 -1.9645  1.0416
 4499SOL    HW224960   4.146   4.353   7.437 -0.0962  0.4561  0.3261
 4500SOL     OW24961   0.626   4.415   3.601  0.5962  0.3378  0.2626
 4500SOL    HW124962   0.561   4.481   3.579 -0.3202 -0.8803 -0.6604
 4500SOL    HW224963   0.596   4.344   3.544 -0.8107  1.3873 -0.2983
 4501SOL     OW24964   1.846   2.181  10.075  0.1726  0.0359  0.1063
 4501SOL    HW124965   1.938   2.155  10.088  0.0175 -0.0084  1.0990
 4501SOL    HW224966   1.811   2.167  10.163 -0.7098 -0.1206 -0.2754
 4502SOL     OW24967   1.428   4.211   2.042 -0.5153  0.3710  0.3954
 4502SOL    HW124968   1.485   4.288   2.040  0.6940 -0.5066  1.1900
 4502SOL    HW224969   1.442   4.182   1.952  1.7231  1.5664  0.3624
 4503SOL     OW24970   2.835   4.600  13.688 -0.0830  0.0110  0.0841
 4503SOL    HW124971   2.917   4.626  13.647  0.1927  0.9673  1.2084
 4503SOL    HW224972   2.878   4.569  13.767 -0.2960  1.2685  0.7043
 4504SOL     OW24973   2.619   3.868   0.369  0.2345  0.4249 -0.2382
 4504SOL    HW124974   2.692   3.868   0.431  0.0386  2.0219 -0.0004
 4504SOL    HW224975   2.663   3.824   0.297 -0.2593  0.6426 -0.6653
 4505SOL     OW24976   2.810   2.217  10.505  0.4202 -0.4541 -0.0906
 4505SOL    HW124977   2.851   2.243  10.423 -3.2064 -1.2306 -2.1343
 4505SOL    HW224978   2.756   2.295  10.517  0.1536 -0.4813 -1.1480
 4506SOL     OW24979   0.829   1.418   1.794 -0.0562  1.5687 -0.1321
 4506SOL    HW124980   0.815   1.330   1.830  1.8614  0.4741 -2.1010
 4506SOL    HW224981   0.777   1.414   1.714 -1.5097 -1.9463  0.9719
 4507SOL     OW24982   4.284   0.396   4.806 -0.1453  0.4042  0.0000
 4507SOL    HW124983   4.349   0.351   4.860 -1.1241  1.1954  1.8257
 4507SOL    HW224984   4.333   0.416   4.726 -0.0981 -1.3559 -0.4164
 4508SOL     OW24985   4.090   0.889   8.591 -0.3868 -0.3006 -0.0583
 4508SOL    HW124986   4.073   0.904   8.498 -1.0312 -0.6844 -0.0011
 4508SOL    HW224987   4.181   0.916   8.587  0.7400 -3.6779  3.1006
 4509SOL     OW24988   3.918   2.819   3.139  0.0183 -0.1041 -0.1609
 4509SOL    HW124989   3.920   2.724   3.153  0.4314 -0.1826 -0.7565
 4509SOL    HW224990   3.842   2.841   3.085  0.2694 -0.2135 -0.5562
 4510SOL     OW24991   3.897   0.298  13.965  0.1656  0.9162  0.3263
 4510SOL    HW124992   3.859   0.386  13.967 -0.1945  0.8351 -2.2277
 4510SOL    HW224993   3.834   0.241  14.009 -0.2590  2.3518  1.5595
 4511SOL     OW24994   2.537   2.989   5.498 -0.6677 -1.0433 -0.1979
 4511SOL    HW124995   2.499   2.944   5.422 -0.0142 -0.8446 -0.6434
 4511SOL    HW224996   2.480   3.066   5.490  2.4794  1.1532 -1.7848
 4512SOL     OW24997   3.717   3.655   4.663 -0.0474 -0.5789  0.4044
 4512SOL    HW124998   3.797   3.612   4.693  0.8143 -0.5461 -1.8753
 4512SOL    HW224999   3.687   3.584   4.607  0.0227 -0.3227  0.0447
 4513SOL     OW25000   0.375   4.043   5.248  0.1461 -0.3149 -0.3248
 4513SOL    HW125001   0.441   4.111   5.265 -0.5199  0.4116 -0.6193
 4513SOL    HW225002   0.351   4.006   5.333 -0.9328  1.0084 -0.0454
 4514SOL     OW25003   4.273   2.991  15.833  0.0901 -0.0432 -0.5214
 4514SOL    HW125004   4.221   2.918  15.867 -0.4780  0.8345  0.4922
 4514SOL    HW225005   4.242   2.979  15.743 -0.7432  1.0992 -0.3808
 4515SOL     OW25006   3.898   1.792   4.554  0.1428 -0.0391  0.4958
 4515SOL    HW125007   3.986   1.771   4.585  0.2490  1.4454  1.1997
 4515SOL    HW225008   3.908   1.814   4.461 -1.3490 -0.1009  0.3165
 4516SOL     OW25009   0.570   1.117   8.379 -0.3192 -0.0832  0.3225
 4516SOL    HW125010   0.529   1.092   8.462 -0.4819  1.2554  0.6461
 4516SOL    HW225011   0.612   1.198   8.407  1.2097 -0.2855 -1.3993
 4517SOL     OW25012   1.341   0.674  11.951  0.2733  0.3831 -0.1608
 4517SOL    HW125013   1.423   0.635  11.920  0.4856 -0.1608  1.0878
 4517SOL    HW225014   1.291   0.687  11.870  1.4386  3.2335 -0.4333
 4518SOL     OW25015   3.012   0.414   4.468 -0.5675  0.6511 -0.2107
 4518SOL    HW125016   2.940   0.414   4.405  0.1920 -0.7062 -1.0752
 4518SOL    HW225017   3.007   0.336   4.523  0.4700 -0.0142 -1.0541
 4519SOL     OW25018   2.602   3.417   7.206  0.3126 -0.4817 -0.2619
 4519SOL    HW125019   2.646   3.427   7.291 -0.1931  1.0172 -0.1834
 4519SOL    HW225020   2.538   3.487   7.200  0.8842  0.1459  0.8726
 4520SOL     OW25021   4.083   3.258   7.939  0.1789  0.5707 -0.0029
 4520SOL    HW125022   4.001   3.305   7.927 -0.9689 -1.8074 -1.4487
 4520SOL    HW225023   4.051   3.189   7.998  1.2582 -1.3768 -1.6817
 4521SOL     OW25024   0.985   2.138   4.562  0.8310  0.3417 -0.5350
 4521SOL    HW125025   1.038   2.151   4.640  2.2137 -0.7222 -1.3022
 4521SOL    HW225026   0.906   2.183   4.593  0.2159 -1.3703  0.3870
 4522SOL     OW25027   3.930   1.965   4.811  0.2188 -0.2095 -0.4045
 4522SOL    HW125028   3.846   1.922   4.792 -0.4925  0.6647  0.6821
 4522SOL    HW225029   3.939   2.014   4.730 -0.4373 -0.2545 -0.5107
 4523SOL     OW25030   4.028   1.067  16.104 -0.0084 -0.1050 -0.1838
 4523SOL    HW125031   4.066   1.124  16.037 -0.8906  0.6699 -0.0240
 4523SOL    HW225032   4.101   1.048  16.164  0.0501  1.3742  0.1970
 4524SOL     OW25033   4.406   3.627  14.134  0.3218 -0.5614  0.2633
 4524SOL    HW125034   4.499   3.643  14.148 -0.1968 -0.0544  3.3682
 4524SOL    HW225035   4.376   3.714  14.163  0.1994 -0.3201 -0.6044
 4525SOL     OW25036   1.328   1.167   2.066  0.5080  0.2587 -0.1651
 4525SOL    HW125037   1.421   1.143   2.061 -0.2007 -2.4748  0.1574
 4525SOL    HW225038   1.321   1.254   2.026  2.1899 -0.0118 -1.0734
 4526SOL     OW25039   1.310   1.041  15.623  0.1155 -0.2658  0.3117
 4526SOL    HW125040   1.321   0.946  15.620  0.3343 -0.1274 -2.8779
 4526SOL    HW225041   1.215   1.050  15.616  0.3924  2.8181  0.3724
 4527SOL     OW25042   3.474   1.656   2.367  0.0380  0.1633 -0.3167
 4527SOL    HW125043   3.494   1.594   2.437  0.0173  0.7608  0.2239
 4527SOL    HW225044   3.415   1.715   2.414 -0.9106  0.0553 -1.3655
 4528SOL     OW25045   3.871   3.816   7.589 -0.1822  0.1872  0.0715
 4528SOL    HW125046   3.891   3.744   7.530 -1.4462 -0.7431  0.7864
 4528SOL    HW225047   3.959   3.844   7.614  0.0811 -0.0439 -0.6011
 4529SOL     OW25048   2.725   2.963   7.627 -0.1758 -0.0509  0.3279
 4529SOL    HW125049   2.716   2.980   7.721 -0.4051  3.0627 -0.2657
 4529SOL    HW225050   2.654   3.014   7.588  0.8009  1.1819  0.1828
 4530SOL     OW25051   3.803   2.810   5.023 -0.0913  0.2807 -0.1528
 4530SOL    HW125052   3.741   2.762   5.077  0.5932 -0.1105  0.2735
 4530SOL    HW225053   3.884   2.766   5.046 -0.3840  0.0871  0.5119
 4531SOL     OW25054   2.819   3.688  17.661 -0.3296  0.4868 -0.0917
 4531SOL    HW125055   2.751   3.660  17.600 -0.7650 -0.0465  0.6393
 4531SOL    HW225056   2.884   3.619  17.647 -0.4197  0.0119  1.7899
 4532SOL     OW25057   2.411   0.985   0.696  0.2832 -0.0201  0.3273
 4532SOL    HW125058   2.340   1.048   0.702  0.2550  0.3552 -4.0392
 4532SOL    HW225059   2.411   0.960   0.604  1.3923 -0.3945  0.4221
 4533SOL     OW25060   2.843   1.052   7.072  0.6973  0.7714 -0.0285
 4533SOL    HW125061   2.887   1.106   7.006 -2.7823  0.5365 -2.5371
 4533SOL    HW225062   2.901   0.977   7.083  1.7314  1.3312 -1.6456
 4534SOL     OW25063   4.344   1.018   3.592 -0.0418 -0.3035  0.1133
 4534SOL    HW125064   4.318   1.056   3.508 -1.6897  0.0733  0.7837
 4534SOL    HW225065   4.316   1.099   3.635 -0.4025  0.0675 -0.8176
 4535SOL     OW25066   0.684   2.529   8.683  0.3417  0.1314  0.5802
 4535SOL    HW125067   0.751   2.597   8.692 -0.8048  1.2889  0.2672
 4535SOL    HW225068   0.727   2.445   8.667 -0.7921 -0.0778 -1.3482
 4536SOL     OW25069   0.098   2.899  15.958 -0.1730  0.1130  0.0666
 4536SOL    HW125070   0.064   2.835  15.896  0.2783  0.5564 -0.6451
 4536SOL    HW225071   0.110   2.858  16.044 -0.7436  1.3974  0.7622
 4537SOL     OW25072   4.401   3.983   8.867 -0.4259  0.3502  0.4107
 4537SOL    HW125073   4.471   4.020   8.814  0.4069 -0.8856  0.6531
 4537SOL    HW225074   4.379   4.058   8.921 -0.2195 -0.1626  1.2091
 4538SOL     OW25075   0.350   0.573   7.665  0.1353 -0.4380 -0.1015
 4538SOL    HW125076   0.282   0.508   7.647  0.5469 -1.0890  0.7013
 4538SOL    HW225077   0.432   0.528   7.643  0.6145 -0.0538  0.9026
 4539SOL     OW25078   3.789   2.693   5.503  0.2176 -0.0458  0.0420
 4539SOL    HW125079   3.730   2.761   5.534 -1.4532 -1.0574 -0.9072
 4539SOL    HW225080   3.736   2.663   5.429  0.2936 -1.3729  0.5253
 4540SOL     OW25081   1.364   3.852   6.198 -0.1808 -0.1158  0.3505
 4540SOL    HW125082   1.449   3.885   6.171 -0.1372 -0.3590  0.1878
 4540SOL    HW225083   1.382   3.772   6.248 -0.3798 -0.4415 -0.0937
 4541SOL     OW25084   2.107   2.661   7.453 -0.1380  0.1498 -0.1221
 4541SOL    HW125085   2.157   2.607   7.515  1.7956  0.5435 -1.3235
 4541SOL    HW225086   2.169   2.709   7.398 -1.4892  0.0123 -1.7536
 4542SOL     OW25087   1.898   0.752   3.935 -0.6338  0.3582 -0.6418
 4542SOL    HW125088   1.938   0.690   3.875 -1.3301 -0.6693 -0.0439
 4542SOL    HW225089   1.828   0.789   3.882 -1.2808  0.7797  0.4925
 4543SOL     OW25090   2.031   0.925   6.387 -0.4460 -0.5355 -0.0599
 4543SOL    HW125091   2.025   0.835   6.356  4.5941 -0.3512 -1.6430
 4543SOL    HW225092   1.936   0.937   6.389 -0.2054  1.3410  0.7248
 4544SOL     OW25093   4.559   2.589   3.475 -0.0262  0.0515 -0.4606
 4544SOL    HW125094   4.593   2.657   3.416 -0.5850  1.1220  0.4374
 4544SOL    HW225095   4.631   2.560   3.530 -0.8873 -2.4266 -0.6454
 4545SOL     OW25096   0.462   2.751   1.887  0.3250 -0.3841 -0.2062
 4545SOL    HW125097   0.465   2.825   1.948  0.0547 -0.6679  0.1538
 4545SOL    HW225098   0.539   2.762   1.831 -0.0445 -0.3551 -0.7035
 4546SOL     OW25099   4.450   3.998   5.275 -0.4635 -0.4843 -0.2116
 4546SOL    HW125100   4.508   3.979   5.349  1.9052  0.8774 -1.7244
 4546SOL    HW225101   4.371   4.025   5.322 -0.6158  0.8350 -1.2203
 4547SOL     OW25102   3.907   2.061   3.199  0.2498  0.5899 -0.2916
 4547SOL    HW125103   3.954   2.040   3.280  0.0574 -0.3864 -0.4293
 4547SOL    HW225104   3.884   1.980   3.154  2.4504 -0.8563  1.1254
 4548SOL     OW25105   3.335   3.774   9.762  0.3494 -0.0224 -0.4107
 4548SOL    HW125106   3.387   3.694   9.771  0.0790 -0.1248  0.1951
 4548SOL    HW225107   3.304   3.758   9.673  1.8083 -0.3568 -0.8602
 4549SOL     OW25108   1.699   3.855   2.669 -0.0540  0.0837 -0.1587
 4549SOL    HW125109   1.723   3.924   2.607  0.4168  1.2646  1.3319
 4549SOL    HW225110   1.695   3.779   2.611 -2.5921 -0.1506  0.3496
 4550SOL     OW25111   4.495   0.640   0.217  0.2183  0.0905  0.2758
 4550SOL    HW125112   4.494   0.652   0.311  2.0980  1.0525  0.1703
 4550SOL    HW225113   4.561   0.571   0.208  1.2133  1.0297  0.3297
 4551SOL     OW25114   2.441   2.997  11.588 -0.2491 -0.3086 -0.3275
 4551SOL    HW125115   2.530   3.029  11.607  0.5057 -2.9467  0.5675
 4551SOL    HW225116   2.394   3.070  11.548 -1.0273 -0.6804 -0.0971
 4552SOL     OW25117   4.046   4.605   2.683  0.2960  0.1122  0.1375
 4552SOL    HW125118   3.960   4.585   2.646  1.3225 -0.2376 -2.0044
 4552SOL    HW225119   4.076   4.670   2.620  0.8329 -0.5003 -0.2464
 4553SOL     OW25120   1.330   3.437   6.308 -0.0549  0.0372 -0.0053
 4553SOL    HW125121   1.246   3.483   6.306  0.1788  0.3632 -2.7608
 4553SOL    HW225122   1.318   3.408   6.217  3.3470 -0.4620 -0.2833
 4554SOL     OW25123   0.308   0.050  12.629 -0.2702 -0.1199  0.4835
 4554SOL    HW125124   0.250   0.119  12.595  1.7684  1.6453  0.5950
 4554SOL    HW225125   0.264   4.700  12.588  0.9823  0.2346 -1.4848
 4555SOL     OW25126   0.808   2.110   2.101 -0.5441  0.3012 -0.6829
 4555SOL    HW125127   0.844   2.194   2.129 -0.7446 -0.0108  0.5180
 4555SOL    HW225128   0.862   2.044   2.145  1.4715  1.8127 -0.8886
 4556SOL     OW25129   1.834   2.396   6.822 -0.3848 -0.3029  0.3825
 4556SOL    HW125130   1.893   2.336   6.867  1.4341  1.8261  0.8254
 4556SOL    HW225131   1.884   2.477   6.825  2.7152 -2.1766 -1.4724
 4557SOL     OW25132   4.279   1.517   8.423 -0.8452  0.1886  0.0969
 4557SOL    HW125133   4.296   1.475   8.339  3.1680 -0.4889  1.2458
 4557SOL    HW225134   4.349   1.480   8.476 -0.5555  0.1366 -0.3185
 4558SOL     OW25135   3.686   3.515   6.327 -0.2828  0.1250 -0.0793
 4558SOL    HW125136   3.615   3.475   6.377 -0.9041 -0.2811 -1.3087
 4558SOL    HW225137   3.665   3.606   6.348  0.8530  0.3779 -0.0184
 4559SOL     OW25138   0.746   1.639  16.848 -0.3573  0.2568 -0.2022
 4559SOL    HW125139   0.840   1.623  16.841 -0.3207 -1.7790  4.8538
 4559SOL    HW225140   0.735   1.652  16.942  2.4422  0.5449  0.0777
 4560SOL     OW25141   4.704   4.703  14.538  0.0210  0.7018  0.0926
 4560SOL    HW125142   4.699   0.047  14.471 -0.0195  0.8827  0.2826
 4560SOL    HW225143   4.613   4.696  14.565 -0.1973  0.6836 -0.6597
 4561SOL     OW25144   0.297   0.297   1.198  0.6294  0.0672 -0.3820
 4561SOL    HW125145   0.321   0.358   1.268  1.3256 -0.6572  0.0187
 4561SOL    HW225146   0.334   0.211   1.220 -0.4304 -0.0230  1.0520
 4562SOL     OW25147   0.934   4.688   0.079  0.2110  1.0835  0.0535
 4562SOL    HW125148   0.986   4.621   0.123 -1.7463 -0.7890 -0.4917
 4562SOL    HW225149   0.960   0.046   0.119  2.2649 -0.0693  1.1544
 4563SOL     OW25150   0.097   1.411   5.507 -0.7828 -0.0035 -0.0433
 4563SOL    HW125151   0.068   1.500   5.489  1.0732  0.8570  1.1454
 4563SOL    HW225152   0.127   1.373   5.425 -1.5279  0.3285 -0.4649
 4564SOL     OW25153   0.054   3.730   8.479  0.1152 -0.0330  0.5533
 4564SOL    HW125154   0.108   3.650   8.487 -1.5136 -1.1515  0.2445
 4564SOL    HW225155   4.714   3.714   8.411  0.7224  0.4442 -0.1361
 4565SOL     OW25156   4.501   4.347  14.268 -0.2103 -0.4771 -0.3758
 4565SOL    HW125157   4.551   4.354  14.187  0.2883  0.3807  0.0102
 4565SOL    HW225158   4.563   4.392  14.325  1.2976 -1.7809 -0.9757
 4566SOL     OW25159   4.693   3.564  12.808  0.2016  0.2204 -0.0649
 4566SOL    HW125160   4.609   3.519  12.817  1.0572 -0.8053  2.8388
 4566SOL    HW225161   0.035   3.502  12.838  1.2071 -0.9067 -4.5132
 4567SOL     OW25162   2.602   3.606   0.158 -0.2145 -0.6897 -0.5772
 4567SOL    HW125163   2.561   3.687   0.126 -1.2676 -2.3763 -3.5101
 4567SOL    HW225164   2.547   3.547   0.107 -0.5549 -1.1176  0.3055
 4568SOL     OW25165   0.383   1.002   4.073 -0.1086  0.2884 -0.1390
 4568SOL    HW125166   0.347   0.920   4.041  0.7039  0.1068 -0.5870
 4568SOL    HW225167   0.404   0.982   4.164  0.3269  2.4505  0.2465
 4569SOL     OW25168   3.722   4.125   3.860  0.1426 -0.3625 -0.2062
 4569SOL    HW125169   3.735   4.037   3.826  4.0462 -0.6461  2.0107
 4569SOL    HW225170   3.796   4.125   3.921 -0.8313 -1.0031  0.9766
 4570SOL     OW25171   0.467   1.904   2.993  0.4026 -0.0779 -0.0653
 4570SOL    HW125172   0.528   1.832   2.979  0.4475 -0.1729  0.6620
 4570SOL    HW225173   0.471   1.939   2.904  0.6871 -1.4276 -0.5853
 4571SOL     OW25174   1.982   0.443  12.356 -0.4455 -1.1167 -0.2333
 4571SOL    HW125175   1.891   0.431  12.328  0.2389 -2.2493 -1.9684
 4571SOL    HW225176   1.964   0.486  12.439 -1.4682 -0.5049 -0.7728
 4572SOL     OW25177   2.583   2.070  10.553 -0.2519  1.0822  0.4846
 4572SOL    HW125178   2.657   2.124  10.527  1.0233 -1.9361 -2.2030
 4572SOL    HW225179   2.537   2.052  10.471 -0.6195  0.5296  0.8095
 4573SOL     OW25180   4.089   3.445   5.170 -0.1209  0.6119 -0.2777
 4573SOL    HW125181   4.054   3.457   5.258  0.0099  1.3552 -0.3259
 4573SOL    HW225182   4.182   3.429   5.186  0.6179  2.8871 -2.1803
 4574SOL     OW25183   3.979   4.402   7.791 -0.2137  0.0718  0.5270
 4574SOL    HW125184   3.938   4.339   7.732 -0.0072 -0.0682  0.5340
 4574SOL    HW225185   4.067   4.365   7.788 -0.2886 -0.2468  2.0965
 4575SOL     OW25186   0.592   1.224   3.471 -0.4296  0.5132  0.1382
 4575SOL    HW125187   0.520   1.162   3.468  0.5383 -0.7940  3.9465
 4575SOL    HW225188   0.670   1.168   3.465  1.1189  2.4875  1.5919
 4576SOL     OW25189   1.002   3.364   0.431 -0.2873 -0.3515  0.5149
 4576SOL    HW125190   0.968   3.296   0.373  0.9748 -0.4711 -0.0792
 4576SOL    HW225191   1.065   3.323   0.490 -0.4348 -0.5866  0.5088
 4577SOL     OW25192   0.096   2.145   8.893 -0.1119 -0.6231  0.0759
 4577SOL    HW125193   0.083   2.215   8.957 -3.0253 -1.7022  0.6675
 4577SOL    HW225194   0.176   2.100   8.923 -0.1249 -1.6208 -1.3770
 4578SOL     OW25195   0.674   1.778  12.522 -0.0571 -0.0794  0.5472
 4578SOL    HW125196   0.693   1.781  12.429 -3.3337 -1.6541 -0.1887
 4578SOL    HW225197   0.757   1.810  12.556  0.5884 -0.0581 -1.0630
 4579SOL     OW25198   1.865   2.598   0.474 -0.3209  0.0029 -0.3602
 4579SOL    HW125199   1.943   2.542   0.479 -0.5052 -0.2396 -0.2403
 4579SOL    HW225200   1.806   2.557   0.537  0.5501 -1.5727 -0.5708
 4580SOL     OW25201   4.613   3.931   6.565 -0.1050  0.0284  0.8416
 4580SOL    HW125202   4.559   3.899   6.638 -0.0297 -0.4219  0.7004
 4580SOL    HW225203   4.683   3.866   6.573 -0.7438 -0.5487  1.7025
 4581SOL     OW25204   2.468   2.072  15.566  0.8637 -0.6500  0.4371
 4581SOL    HW125205   2.491   2.110  15.481 -0.7619 -0.2453  0.1779
 4581SOL    HW225206   2.447   2.153  15.612 -2.6830  0.0788 -2.4288
 4582SOL     OW25207   2.333   0.232  16.928  0.2760 -0.8176 -0.0859
 4582SOL    HW125208   2.240   0.255  16.923  1.2287  3.4243  1.7950
 4582SOL    HW225209   2.350   0.231  17.022 -0.6563 -2.2360  0.0759
 4583SOL     OW25210   1.020   0.644   5.337  0.0725  0.2916  0.2081
 4583SOL    HW125211   1.077   0.571   5.313 -3.2549 -2.1484 -0.2083
 4583SOL    HW225212   0.948   0.636   5.274 -1.1471  0.9909  1.5340
 4584SOL     OW25213   0.131   4.182   3.912 -0.2396 -0.3176  0.3210
 4584SOL    HW125214   0.047   4.225   3.930  0.5400  1.7058 -0.7858
 4584SOL    HW225215   0.105   4.126   3.839 -1.5547  0.2478  0.3500
 4585SOL     OW25216   1.660   0.471   7.244 -0.2580 -0.1803  0.6985
 4585SOL    HW125217   1.579   0.454   7.293 -0.5635 -1.3483 -0.2241
 4585SOL    HW225218   1.679   0.560   7.276  0.7362  0.0636 -0.5813
 4586SOL     OW25219   0.498   0.018   9.625  0.6237  0.5611 -0.1023
 4586SOL    HW125220   0.512   0.095   9.569  1.7029 -0.2249 -0.9224
 4586SOL    HW225221   0.470   0.053   9.709  3.7924  1.6341  0.5227
 4587SOL     OW25222   3.308   2.026   0.530 -0.0507 -0.2701 -0.0856
 4587SOL    HW125223   3.236   2.077   0.492 -0.3176 -2.6697 -2.7894
 4587SOL    HW225224   3.364   2.011   0.454 -1.8786  0.1529 -1.5292
 4588SOL     OW25225   2.665   2.950   3.431  0.0867 -0.3201 -0.2809
 4588SOL    HW125226   2.585   2.898   3.428  0.5752 -1.1410  0.9774
 4588SOL    HW225227   2.693   2.920   3.518  2.8533  1.9214 -0.3928
 4589SOL     OW25228   0.243   4.136   3.363  0.5508  0.4837  0.2211
 4589SOL    HW125229   0.301   4.106   3.293  0.1280  0.5786 -0.1693
 4589SOL    HW225230   0.154   4.105   3.345  2.0176 -2.2859 -2.2335
 4590SOL     OW25231   1.257   2.192  14.015  0.1457  0.3376 -0.5204
 4590SOL    HW125232   1.255   2.158  14.105  1.7219 -0.4324 -0.7793
 4590SOL    HW225233   1.195   2.137  13.968 -1.9127  1.3876  0.9442
 4591SOL     OW25234   3.862   3.770   4.056  0.8661  0.5370 -0.5209
 4591SOL    HW125235   3.785   3.714   4.047  0.6830  0.8523 -0.9536
 4591SOL    HW225236   3.903   3.723   3.983 -2.4722 -0.9737 -1.3996
 4592SOL     OW25237   2.867   2.087   7.455 -0.3124  0.1738  0.5019
 4592SOL    HW125238   2.879   2.143   7.379 -0.4911  1.4960  1.4502
 4592SOL    HW225239   2.933   2.020   7.439 -1.3820 -0.3796 -1.5112
 4593SOL     OW25240   2.935   3.188   2.619 -0.3741 -0.1901 -0.2449
 4593SOL    HW125241   2.982   3.225   2.545 -1.1345  2.2787  0.4932
 4593SOL    HW225242   2.889   3.109   2.590 -0.4217  0.1263 -1.0104
 4594SOL     OW25243   4.149   3.533  12.900 -0.1823  0.3993  0.4862
 4594SOL    HW125244   4.125   3.626  12.908 -1.6246  0.1175 -0.4991
 4594SOL    HW225245   4.100   3.496  12.973  1.0101 -1.2496  0.4552
 4595SOL     OW25246   3.534   1.909   9.233  0.0615 -0.1140  0.0249
 4595SOL    HW125247   3.627   1.897   9.212 -0.5506  0.5881 -3.0059
 4595SOL    HW225248   3.511   1.973   9.166  2.0508  0.5012 -0.0724
 4596SOL     OW25249   1.125   4.682   8.905  0.0931  1.0603 -0.4504
 4596SOL    HW125250   1.038   4.718   8.883 -0.4209 -0.1121 -0.3426
 4596SOL    HW225251   1.126   4.655   8.996 -1.4867  0.5401 -0.5815
 4597SOL     OW25252   0.697   3.693  10.572  0.6400 -0.8170 -0.3807
 4597SOL    HW125253   0.690   3.644  10.655 -1.5922 -0.0247 -0.0993
 4597SOL    HW225254   0.678   3.617  10.517  1.5284  0.1257 -1.9567
 4598SOL     OW25255   3.159   0.448   6.469  0.1427  0.3493  0.4394
 4598SOL    HW125256   3.152   0.537   6.435 -0.2977 -0.0857 -0.5957
 4598SOL    HW225257   3.157   0.477   6.560 -1.1259 -0.2839  0.5999
 4599SOL     OW25258   1.154   0.603   1.098 -0.0214 -0.2654 -0.0380
 4599SOL    HW125259   1.135   0.645   1.015  1.3349 -2.5094 -1.4845
 4599SOL    HW225260   1.069   0.569   1.128 -1.2127  0.6204 -2.4402
 4600SOL     OW25261   4.305   4.216   3.231 -0.5103  0.3416 -0.1523
 4600SOL    HW125262   4.321   4.205   3.325  1.3142 -0.0751 -0.5062
 4600SOL    HW225263   4.237   4.283   3.223 -2.1590 -1.3774 -0.6868
 4601SOL     OW25264   1.180   2.714   8.005  0.2950 -0.0971 -0.0416
 4601SOL    HW125265   1.141   2.642   8.054 -1.5405  0.7215 -0.3166
 4601SOL    HW225266   1.144   2.794   8.044 -0.4659  0.8188 -2.5945
 4602SOL     OW25267   3.655   4.297   3.340 -0.1881 -0.1608 -0.7101
 4602SOL    HW125268   3.678   4.297   3.433 -2.0026  0.1674 -0.2670
 4602SOL    HW225269   3.596   4.371   3.326 -1.3701 -0.5760  2.2035
 4603SOL     OW25270   2.565   2.447   2.421 -0.2902 -0.5407  0.0304
 4603SOL    HW125271   2.548   2.408   2.507 -0.1951  1.6013  1.0104
 4603SOL    HW225272   2.661   2.442   2.418 -0.3515 -1.3262 -0.5017
 4604SOL     OW25273   2.155   4.065   5.849 -0.4470 -0.5554  0.4721
 4604SOL    HW125274   2.124   4.099   5.933  0.2739  1.5840 -0.1047
 4604SOL    HW225275   2.099   3.990   5.833  0.0002 -0.8395  0.2548
 4605SOL     OW25276   0.256   3.929   8.773  0.1135  0.0706  0.1594
 4605SOL    HW125277   0.302   3.894   8.696  2.0881  1.0864  0.8795
 4605SOL    HW225278   0.218   4.006   8.731  0.7583  0.1138 -0.3565
 4606SOL     OW25279   0.462   0.611   6.470 -0.1108 -0.0047  0.5780
 4606SOL    HW125280   0.372   0.626   6.441 -0.2558 -0.0023  1.0322
 4606SOL    HW225281   0.494   0.551   6.402 -0.1403 -1.6259  1.9966
 4607SOL     OW25282   2.994   2.950  14.076 -0.1606 -0.0185 -0.0382
 4607SOL    HW125283   2.924   2.968  14.013 -1.5316 -0.1717  1.4393
 4607SOL    HW225284   2.969   3.017  14.140 -1.3737 -1.4387  0.9710
 4608SOL     OW25285   3.272   4.003   3.267 -0.5811 -0.5041  0.2447
 4608SOL    HW125286   3.355   4.005   3.220  1.3309  1.9278  3.7197
 4608SOL    HW225287   3.215   3.951   3.210 -0.3203 -0.5810  0.0529
 4609SOL     OW25288   2.276   0.193   7.116  0.2561  0.0464  0.0318
 4609SOL    HW125289   2.251   0.252   7.187 -0.7927 -0.2971 -0.0471
 4609SOL    HW225290   2.263   0.245   7.038  0.3006  1.2620  0.8390
 4610SOL     OW25291   1.061   2.233   8.834  0.3253  0.1176  0.2501
 4610SOL    HW125292   1.138   2.176   8.823  1.3273  1.1311  2.0622
 4610SOL    HW225293   1.105   2.309   8.873 -0.3163 -0.7335  2.6044
 4611SOL     OW25294   2.492   2.640   8.694 -0.3639  0.7905 -0.0116
 4611SOL    HW125295   2.520   2.634   8.785  0.5884  0.1746 -0.3423
 4611SOL    HW225296   2.401   2.618   8.712 -0.9833  2.7589 -0.6921
 4612SOL     OW25297   2.728   2.442   5.807 -0.1037 -0.2347  0.0811
 4612SOL    HW125298   2.780   2.499   5.749  2.7299 -2.1071  0.7713
 4612SOL    HW225299   2.727   2.359   5.759 -0.7120 -0.4101  0.4026
 4613SOL     OW25300   4.678   3.763  14.871  0.0952  0.5734 -0.2823
 4613SOL    HW125301   4.720   3.685  14.906  0.3970  1.0630  0.4587
 4613SOL    HW225302   4.716   3.839  14.916  0.6984  0.0782  0.0483
 4614SOL     OW25303   1.634   4.001   7.075 -0.7521 -0.8600  0.4521
 4614SOL    HW125304   1.597   4.089   7.082 -0.3841 -0.5298 -1.6100
 4614SOL    HW225305   1.681   3.989   7.157 -0.1866  0.3157  0.2982
 4615SOL     OW25306   1.127   1.552   8.677  0.3827 -0.1467 -0.3199
 4615SOL    HW125307   1.175   1.488   8.729 -1.0926 -0.3779  0.7346
 4615SOL    HW225308   1.054   1.498   8.648 -0.3103  2.1742 -2.9723
 4616SOL     OW25309   0.031   2.934   3.947 -0.4353 -0.3746  0.2008
 4616SOL    HW125310   0.018   2.970   4.034 -1.6863 -1.0595  0.2876
 4616SOL    HW225311   4.669   2.898   3.933 -1.1061  1.2865  0.1373
 4617SOL     OW25312   3.039   1.155   5.151  0.2555  0.3668  0.1252
 4617SOL    HW125313   2.949   1.138   5.180  0.6705  0.9510  1.7388
 4617SOL    HW225314   3.085   1.099   5.213  0.5152  0.4415 -0.0022
 4618SOL     OW25315   1.329   1.681   5.961 -0.0091  0.6536  0.1791
 4618SOL    HW125316   1.340   1.620   6.034 -1.0572 -2.4669 -2.2415
 4618SOL    HW225317   1.236   1.701   5.969 -0.8344 -2.6898 -0.8996
 4619SOL     OW25318   4.586   2.137   4.172  0.0930 -0.9666 -0.6644
 4619SOL    HW125319   4.648   2.117   4.242 -0.1410 -1.7864 -0.6925
 4619SOL    HW225320   4.619   2.225   4.155  0.9410 -0.6847  2.4068
 4620SOL     OW25321   0.772   2.866   5.289  0.5739  0.1728  0.1054
 4620SOL    HW125322   0.781   2.839   5.381  0.4150  0.0367  0.0825
 4620SOL    HW225323   0.766   2.961   5.293 -2.0101  0.1080 -2.0288
 4621SOL     OW25324   1.923   0.186   3.293 -0.0995  0.0493 -0.2399
 4621SOL    HW125325   1.882   0.176   3.379  1.2868  0.6426  0.4821
 4621SOL    HW225326   1.849   0.231   3.251  1.1658  0.4195 -2.0735
 4622SOL     OW25327   0.775   1.954  14.576  0.1698  0.3547 -0.2518
 4622SOL    HW125328   0.800   1.868  14.542 -0.7713 -0.2688  0.6531
 4622SOL    HW225329   0.689   1.951  14.618 -0.5351  0.4786 -1.7087
 4623SOL     OW25330   0.515   4.129  11.396  0.3746 -0.3711 -0.5565
 4623SOL    HW125331   0.562   4.079  11.463 -0.6866 -0.4002  0.1747
 4623SOL    HW225332   0.432   4.140  11.443  1.1705 -0.7305  0.9302
 4624SOL     OW25333   1.874   3.021  10.960 -0.2453 -0.1312  0.8854
 4624SOL    HW125334   1.805   2.956  10.945 -0.9542  0.9474 -0.5514
 4624SOL    HW225335   1.847   3.064  11.041  2.4990 -0.7626  2.1515
 4625SOL     OW25336   2.830   0.417   8.551 -0.1479 -0.6797  0.2832
 4625SOL    HW125337   2.739   0.433   8.525  0.0417 -1.2294 -0.7308
 4625SOL    HW225338   2.824   0.338   8.604  0.4546 -1.8856 -1.4574
 4626SOL     OW25339   1.566   0.067   2.460  0.0767  0.3080  0.0131
 4626SOL    HW125340   1.571   0.099   2.550  0.5515 -1.7991  0.7251
 4626SOL    HW225341   1.629   0.130   2.423  0.2281  0.5429  0.6668
 4627SOL     OW25342   0.804   3.428  11.871  0.0609 -0.3578  0.0211
 4627SOL    HW125343   0.843   3.345  11.841 -0.8743 -0.0782 -1.9727
 4627SOL    HW225344   0.881   3.472  11.907  0.5178 -0.7219 -0.5066
 4628SOL     OW25345   0.696   1.530   9.827 -0.2990 -0.1052  0.1362
 4628SOL    HW125346   0.648   1.613   9.829  1.0168  0.7037 -1.4435
 4628SOL    HW225347   0.729   1.526   9.917 -0.0969 -2.0209 -0.0359
 4629SOL     OW25348   0.574   4.486   6.792 -0.1056  0.3163 -0.1932
 4629SOL    HW125349   0.604   4.568   6.832  1.6440  0.5835 -2.0393
 4629SOL    HW225350   0.532   4.511   6.709  1.6344 -2.2067 -1.8186
 4630SOL     OW25351   1.451   2.295  13.857  0.0489  0.4542 -0.4423
 4630SOL    HW125352   1.377   2.254  13.903  0.4992  0.5722  0.3940
 4630SOL    HW225353   1.409   2.295  13.771 -1.0134  0.1144  0.0669
 4631SOL     OW25354   3.221   0.725   8.016  0.5054 -0.1728 -0.1124
 4631SOL    HW125355   3.158   0.797   8.013 -1.2703 -1.6363  2.2763
 4631SOL    HW225356   3.217   0.707   7.923  2.4774  1.3051 -0.4946
 4632SOL     OW25357   3.387   2.261   1.807 -0.4362  0.2759 -0.1270
 4632SOL    HW125358   3.481   2.272   1.798 -0.6533 -0.9204 -3.8604
 4632SOL    HW225359   3.386   2.181   1.859  1.4121 -0.2435 -0.8846
 4633SOL     OW25360   2.213   0.760   1.877 -0.0727 -0.2672  0.7738
 4633SOL    HW125361   2.258   0.789   1.957  2.1763 -1.4081 -0.0893
 4633SOL    HW225362   2.283   0.731   1.820 -1.0405 -2.1838  0.5760
 4634SOL     OW25363   1.671   3.108   5.885  0.0103  0.0108  0.7209
 4634SOL    HW125364   1.694   3.026   5.841  0.4045  1.2540 -1.4068
 4634SOL    HW225365   1.710   3.112   5.972  0.6031  0.3066  0.4397
 4635SOL     OW25366   2.952   4.061   7.781  0.0874 -0.2096 -0.3938
 4635SOL    HW125367   2.915   3.994   7.723 -0.8818  0.1444 -0.1675
 4635SOL    HW225368   2.880   4.075   7.842  1.2719  1.2381  0.6747
 4636SOL     OW25369   2.385   2.109   8.117 -0.1094 -0.7519  0.7507
 4636SOL    HW125370   2.326   2.034   8.121 -1.0071 -0.0782 -0.0650
 4636SOL    HW225371   2.401   2.105   8.023 -2.6610 -1.6166  0.3776
 4637SOL     OW25372   1.194   1.925   3.897  0.2708  0.0653 -0.0064
 4637SOL    HW125373   1.264   1.967   3.847 -0.2680 -1.2484 -1.8415
 4637SOL    HW225374   1.160   2.004   3.939  2.6464  1.4726 -0.7027
 4638SOL     OW25375   3.331   1.485  12.815 -0.0705 -0.2568  0.0345
 4638SOL    HW125376   3.293   1.488  12.903  2.7175  1.8462  1.1900
 4638SOL    HW225377   3.272   1.419  12.778  1.8641 -1.3743 -1.0692
 4639SOL     OW25378   3.860   3.882   3.704  0.1414  0.2448 -0.4745
 4639SOL    HW125379   3.789   3.852   3.761 -0.5392  1.7103 -0.5470
 4639SOL    HW225380   3.852   3.821   3.631  0.2212  0.0944 -0.3588
 4640SOL     OW25381   2.717   1.966   6.266 -0.0609  0.2454  0.0322
 4640SOL    HW125382   2.723   1.952   6.172 -0.0602 -0.2752  0.1071
 4640SOL    HW225383   2.657   2.038   6.281  0.9153  1.0453  0.0954
 4641SOL     OW25384   4.545   0.719  11.444  0.0742  0.2997  0.1646
 4641SOL    HW125385   4.522   0.787  11.507  0.0816  0.7068 -0.2737
 4641SOL    HW225386   4.607   0.662  11.490  1.5569  3.1425  1.7045
 4642SOL     OW25387   3.451   1.398   3.947 -0.4562 -0.6028 -0.1549
 4642SOL    HW125388   3.431   1.313   3.908 -0.9902 -0.9478  0.8749
 4642SOL    HW225389   3.366   1.424   3.982 -0.1469 -1.3417  1.1685
 4643SOL     OW25390   1.456   0.792   5.073  0.3101 -0.3450  0.2101
 4643SOL    HW125391   1.406   0.822   4.998  0.5133  0.3554  0.3588
 4643SOL    HW225392   1.421   0.703   5.076  2.1402 -1.1358 -1.9321
 4644SOL     OW25393   1.238   2.365   9.057 -0.1050 -0.2789 -0.0333
 4644SOL    HW125394   1.288   2.445   9.044 -0.0189  0.2283  3.4148
 4644SOL    HW225395   1.288   2.297   9.011  1.1067 -1.8274  3.4879
 4645SOL     OW25396   1.697   2.864   2.923 -0.0557  0.3683 -0.2831
 4645SOL    HW125397   1.694   2.834   2.833 -1.8138  1.4586 -0.5755
 4645SOL    HW225398   1.674   2.956   2.919  0.7931  0.5272 -1.6073
 4646SOL     OW25399   2.482   4.720  15.634 -0.0585 -0.0618  0.6238
 4646SOL    HW125400   2.416   4.719  15.564 -1.0897 -0.0592  1.6049
 4646SOL    HW225401   2.514   0.085  15.628 -1.1360  0.2467 -0.6638
 4647SOL     OW25402   2.370   0.650   7.131 -0.3835  0.3270 -0.4763
 4647SOL    HW125403   2.349   0.613   7.217 -0.4133  2.5453  0.4618
 4647SOL    HW225404   2.408   0.734   7.157 -2.5051  0.8123  1.0565
 4648SOL     OW25405   3.841   1.277   7.901  0.0931 -0.0277  0.8367
 4648SOL    HW125406   3.908   1.324   7.853 -1.7661  1.0471 -0.7096
 4648SOL    HW225407   3.839   1.329   7.981  0.5610 -0.6971  1.2808
 4649SOL     OW25408   1.639   3.366  12.616  0.0078 -0.2666  0.5584
 4649SOL    HW125409   1.700   3.359  12.543  0.2069  2.9117  0.4011
 4649SOL    HW225410   1.697   3.358  12.692 -0.3508 -0.2621  0.8353
 4650SOL     OW25411   4.449   4.637   6.950  0.7507 -0.4780 -0.1617
 4650SOL    HW125412   4.507   4.674   7.016  0.2191  2.2595 -1.2471
 4650SOL    HW225413   4.490   4.673   6.872  1.5767 -2.9446 -0.8844
 4651SOL     OW25414   3.233   1.807   2.140  0.6276 -0.4248  0.0607
 4651SOL    HW125415   3.163   1.856   2.098  0.7276 -1.6976 -1.5823
 4651SOL    HW225416   3.238   1.842   2.229 -1.4026 -0.5658  0.2294
 4652SOL     OW25417   2.393   4.040   6.211  0.1566  0.7944  0.3335
 4652SOL    HW125418   2.429   3.952   6.224  0.4969  1.0270  0.9487
 4652SOL    HW225419   2.402   4.070   6.301 -0.7757 -0.6264  0.9019
 4653SOL     OW25420   0.244   2.482   6.098  0.3382  0.1489 -0.3532
 4653SOL    HW125421   0.187   2.501   6.173  0.9711  1.7366 -0.2744
 4653SOL    HW225422   0.225   2.552   6.036 -0.7038  0.5385  0.4153
 4654SOL     OW25423   3.708   1.811   2.870  0.1116 -0.2963 -0.0452
 4654SOL    HW125424   3.760   1.869   2.815 -1.6408  0.7713 -0.5468
 4654SOL    HW225425   3.706   1.733   2.814 -0.5131 -0.7587  0.6168
 4655SOL     OW25426   0.077   0.407   4.918 -0.4384 -0.0200 -0.6120
 4655SOL    HW125427   0.004   0.406   4.856 -0.1911 -0.6670 -0.8841
 4655SOL    HW225428   0.047   0.464   4.989  1.3086  1.3002 -0.9273
 4656SOL     OW25429   4.373   3.152  15.632  0.5460  0.5218 -0.0626
 4656SOL    HW125430   4.295   3.207  15.626 -0.8697 -1.1494  3.3158
 4656SOL    HW225431   4.361   3.110  15.717  1.9370  0.6706  0.2196
 4657SOL     OW25432   1.340   3.483   9.316 -0.0427  0.7415  0.0850
 4657SOL    HW125433   1.357   3.482   9.410  0.3007  0.1349  0.0174
 4657SOL    HW225434   1.262   3.431   9.295  0.5151 -0.9491  2.1384
 4658SOL     OW25435   0.451   3.743   8.571  0.0608 -0.0762  0.5534
 4658SOL    HW125436   0.539   3.749   8.534 -0.4757 -0.0172 -0.6913
 4658SOL    HW225437   0.445   3.647   8.567 -2.2687  0.0379  1.2817
 4659SOL     OW25438   0.455   4.286  11.719 -0.2409 -0.2072 -0.4328
 4659SOL    HW125439   0.479   4.232  11.794  0.4568 -1.8267 -1.8291
 4659SOL    HW225440   0.405   4.362  11.750  0.2165 -0.3938  0.7543
 4660SOL     OW25441   4.408   0.733   4.185 -0.2329 -0.0478  0.7990
 4660SOL    HW125442   4.329   0.707   4.138  0.0391 -0.3886  0.5332
 4660SOL    HW225443   4.462   0.741   4.107  1.7778 -1.0466  2.0707
 4661SOL     OW25444   0.429   2.591   3.742 -0.4174  0.2120  0.2374
 4661SOL    HW125445   0.453   2.642   3.664 -0.4200  0.6832  0.5461
 4661SOL    HW225446   0.357   2.645   3.775  0.2663  0.4841  1.2877
 4662SOL     OW25447   4.720   0.545   3.113  0.3093 -0.0013  0.0531
 4662SOL    HW125448   0.035   0.464   3.144  0.4751  0.5400  1.2586
 4662SOL    HW225449   0.061   0.587   3.058 -0.0130  1.2032  0.5661
 4663SOL     OW25450   4.227   3.794   3.678 -0.1162 -0.3343 -0.4319
 4663SOL    HW125451   4.187   3.746   3.751  0.6578  1.4976  1.1973
 4663SOL    HW225452   4.219   3.723   3.615 -1.7126  0.2195 -0.8491
 4664SOL     OW25453   1.503   1.637   5.498 -0.1839  0.6703  0.1374
 4664SOL    HW125454   1.438   1.605   5.436 -0.5289 -0.0057  0.8477
 4664SOL    HW225455   1.584   1.610   5.455 -1.1837 -0.1820 -1.2246
 4665SOL     OW25456   4.170   2.843  15.296 -0.3242  0.3857 -0.2336
 4665SOL    HW125457   4.219   2.909  15.246  0.9041 -0.3180  0.0219
 4665SOL    HW225458   4.172   2.893  15.377 -0.1753 -3.3814  2.0782
 4666SOL     OW25459   1.244   2.480   7.634  0.3290  0.1703  0.3468
 4666SOL    HW125460   1.308   2.487   7.705 -1.8730  1.9352  2.1776
 4666SOL    HW225461   1.172   2.454   7.693 -0.5822  1.5339 -0.1654
 4667SOL     OW25462   3.776   1.845   3.787 -0.3168 -0.0896  0.6402
 4667SOL    HW125463   3.800   1.936   3.808  1.0941  0.2291 -2.2734
 4667SOL    HW225464   3.743   1.845   3.697  0.9726  1.1356  0.1545
 4668SOL     OW25465   4.414   0.550  16.590 -0.1038  0.1074  0.1556
 4668SOL    HW125466   4.503   0.586  16.586 -0.0914 -0.0360 -0.7766
 4668SOL    HW225467   4.433   0.459  16.567  0.0039  0.3704 -0.7942
 4669SOL     OW25468   0.652   3.713  12.650  0.0322 -0.2160  0.5335
 4669SOL    HW125469   0.621   3.763  12.725  0.1968  0.3998  0.1968
 4669SOL    HW225470   0.629   3.629  12.689 -0.8092  0.9992  2.6561
 4670SOL     OW25471   3.460   1.353   4.400  0.2028  0.4359  0.5471
 4670SOL    HW125472   3.520   1.412   4.355 -0.7713  2.1967  1.5639
 4670SOL    HW225473   3.504   1.268   4.402 -0.1426  0.2615  0.6821
 4671SOL     OW25474   1.612   0.586  17.310 -0.0228 -0.1101 -0.0401
 4671SOL    HW125475   1.623   0.679  17.330 -0.3482  0.4457 -2.4066
 4671SOL    HW225476   1.521   0.580  17.281 -0.6436  0.1922  1.8427
 4672SOL     OW25477   0.836   0.952   4.583  0.1482 -0.1522  0.4518
 4672SOL    HW125478   0.774   0.967   4.512  1.1497 -1.1034 -0.6371
 4672SOL    HW225479   0.914   0.956   4.528 -0.3686  0.4205 -0.2220
 4673SOL     OW25480   0.345   0.406  14.016 -0.1164 -0.2475  0.1598
 4673SOL    HW125481   0.415   0.427  14.077 -0.5372  2.5919 -0.3400
 4673SOL    HW225482   0.283   0.466  14.057 -0.6817 -0.4333 -0.4231
 4674SOL     OW25483   3.045   4.291   5.831  0.0403 -0.3550 -0.2101
 4674SOL    HW125484   3.096   4.223   5.876  1.6116  0.5622 -0.5992
 4674SOL    HW225485   3.103   4.309   5.757 -1.7401  0.7221 -1.3475
 4675SOL     OW25486   4.422   1.944   9.505  0.3249 -0.1126  0.2250
 4675SOL    HW125487   4.424   1.856   9.542  1.1642  0.0543  0.5691
 4675SOL    HW225488   4.361   1.915   9.438  1.5298 -0.9141 -0.5322
 4676SOL     OW25489   0.171   0.761  16.486  0.0495 -0.0606  0.4029
 4676SOL    HW125490   0.206   0.701  16.552  2.1227 -0.8335 -1.3909
 4676SOL    HW225491   0.222   0.832  16.525 -0.5953 -0.2297  1.5503
 4677SOL     OW25492   0.840   2.296   8.665  0.4969  0.2202  0.5659
 4677SOL    HW125493   0.914   2.269   8.718 -0.4434 -2.7115  0.3986
 4677SOL    HW225494   0.858   2.266   8.576  2.0694  0.0233  0.9661
 4678SOL     OW25495   1.883   4.699   3.080  0.1069  0.5599  0.1863
 4678SOL    HW125496   1.870   0.002   3.171  4.3845  0.9367  0.6943
 4678SOL    HW225497   1.933   0.053   3.056  1.0946 -0.0871  0.0882
 4679SOL     OW25498   4.282   3.485   2.465  0.2231 -0.3193  0.1759
 4679SOL    HW125499   4.326   3.539   2.531 -2.4065  1.3169  0.6117
 4679SOL    HW225500   4.309   3.396   2.486  1.1337 -0.1874 -0.4213
 4680SOL     OW25501   1.179   2.258   1.632  0.5625 -0.1145  0.7285
 4680SOL    HW125502   1.238   2.285   1.702 -0.0740 -0.3774  1.3741
 4680SOL    HW225503   1.236   2.266   1.556 -1.3550  1.1545 -0.5973
 4681SOL     OW25504   2.450   3.331   1.080 -0.4951 -0.0265 -0.1839
 4681SOL    HW125505   2.504   3.253   1.064  0.5927  0.3342  1.6779
 4681SOL    HW225506   2.509   3.406   1.072  1.7093 -1.9283 -1.9853
 4682SOL     OW25507   1.399   4.017   5.719 -0.0516 -0.5414 -0.2922
 4682SOL    HW125508   1.483   4.062   5.730 -0.9358  0.2177  3.2270
 4682SOL    HW225509   1.433   3.940   5.672  1.8428 -1.5806  2.7817
 4683SOL     OW25510   2.727   2.757   2.729 -0.2217 -0.4056  0.7319
 4683SOL    HW125511   2.652   2.708   2.694  0.3211 -0.8265  0.1570
 4683SOL    HW225512   2.721   2.739   2.823  1.1862 -0.2623  0.8478
 4684SOL     OW25513   0.889   1.870  10.530  0.2046 -0.4858 -0.8872
 4684SOL    HW125514   0.838   1.843  10.606 -1.6667  1.4747 -1.4484
 4684SOL    HW225515   0.822   1.857  10.462  1.1204  1.5589 -2.1732
 4685SOL     OW25516   4.255   4.532   5.300 -0.0277  0.3108  0.2861
 4685SOL    HW125517   4.279   4.535   5.207 -0.2055  0.9313  0.2634
 4685SOL    HW225518   4.327   4.480   5.335 -0.9727 -1.8317 -0.8881
 4686SOL     OW25519   0.589   0.708  17.219 -0.2578 -0.4140  0.7363
 4686SOL    HW125520   0.583   0.753  17.303 -0.4071  0.2441  0.3734
 4686SOL    HW225521   0.504   0.664  17.216 -0.3647 -0.0830 -1.7916
 4687SOL     OW25522   0.276   1.837   2.630  0.4775 -0.0074 -0.5977
 4687SOL    HW125523   0.203   1.897   2.617  0.7260  0.5559  0.6565
 4687SOL    HW225524   0.237   1.786   2.701  1.1406 -0.6445 -0.6852
 4688SOL     OW25525   2.531   1.121   6.849 -0.4493  0.1951  0.1511
 4688SOL    HW125526   2.459   1.180   6.828 -0.2191  0.1960 -0.6511
 4688SOL    HW225527   2.589   1.178   6.898  0.7146 -0.8654  0.0220
 4689SOL     OW25528   0.542   3.009   6.190  0.3480  0.4106 -0.3746
 4689SOL    HW125529   0.623   2.981   6.147  1.1744  0.4892  1.1311
 4689SOL    HW225530   0.526   2.927   6.236  0.6865 -0.1991 -1.3398
 4690SOL     OW25531   0.356   3.104   4.123 -0.2714 -0.0390  0.6369
 4690SOL    HW125532   0.332   3.147   4.041  0.2958 -1.2578 -0.1617
 4690SOL    HW225533   0.378   3.015   4.097 -0.1217  0.4907 -1.0281
 4691SOL     OW25534   2.682   2.269   6.163 -0.4413 -0.3104 -0.1577
 4691SOL    HW125535   2.740   2.334   6.201 -0.7740 -0.3023  0.3261
 4691SOL    HW225536   2.741   2.233   6.096 -0.6961  1.2082 -1.1835
 4692SOL     OW25537   2.092   2.363   6.486  0.5638  0.1393  0.0294
 4692SOL    HW125538   2.039   2.404   6.417 -2.0422  0.6487  2.3060
 4692SOL    HW225539   2.155   2.432   6.504  0.8698  0.5151 -2.4230
 4693SOL     OW25540   0.815   3.730   2.346  0.1512  0.1431 -0.8901
 4693SOL    HW125541   0.789   3.640   2.326 -1.5640  0.8011 -1.6925
 4693SOL    HW225542   0.898   3.749   2.303  1.0615 -1.4088  0.1743
 4694SOL     OW25543   1.020   3.467   3.906 -0.8180 -0.3093  0.7537
 4694SOL    HW125544   1.059   3.380   3.903 -0.6369 -0.2947  3.1646
 4694SOL    HW225545   1.012   3.490   3.813 -4.1175  0.6383  1.2569
 4695SOL     OW25546   3.548   2.869   4.826  0.5939 -1.0182  0.2904
 4695SOL    HW125547   3.625   2.826   4.863  0.8825  0.3082  1.2668
 4695SOL    HW225548   3.580   2.933   4.762 -0.3968  0.4755  1.2743
 4696SOL     OW25549   2.509   0.998   6.132 -0.2917 -0.0033 -0.3927
 4696SOL    HW125550   2.524   0.933   6.201  1.7453 -0.4212 -1.2439
 4696SOL    HW225551   2.539   1.083   6.165 -1.5414  1.0581 -1.9542
 4697SOL     OW25552   4.143   0.195  13.130  0.2488  0.1132 -0.5851
 4697SOL    HW125553   4.072   0.148  13.085 -0.1860 -0.1201  0.3623
 4697SOL    HW225554   4.109   0.202  13.219 -0.3777  0.1857 -0.8300
 4698SOL     OW25555   3.743   3.014   2.056  0.1813 -0.2579  0.0481
 4698SOL    HW125556   3.773   3.103   2.037  1.6090 -1.0280 -1.3289
 4698SOL    HW225557   3.725   3.037   2.147  3.6470  2.1082  0.1385
 4699SOL     OW25558   4.431   0.687  16.948  0.6428  0.1125  0.4003
 4699SOL    HW125559   4.395   0.710  16.862 -2.2793  2.9150  2.4136
 4699SOL    HW225560   4.498   0.626  16.917  0.7495  0.5424 -0.2187
 4700SOL     OW25561   1.288   0.853  10.663 -0.2595 -0.6218  0.2475
 4700SOL    HW125562   1.204   0.807  10.674 -1.4276  1.3629 -0.4899
 4700SOL    HW225563   1.313   0.867  10.755 -1.3735  0.0680  0.4527
 4701SOL     OW25564   4.000   2.566   3.189  0.0759  0.5593 -0.6619
 4701SOL    HW125565   4.087   2.579   3.151  0.5608 -0.8391 -0.0303
 4701SOL    HW225566   3.980   2.477   3.161 -0.9433  0.4136  0.5389
 4702SOL     OW25567   2.085   3.757   8.165 -0.1925 -0.0761 -0.0645
 4702SOL    HW125568   2.166   3.728   8.206  0.2776  0.7595 -0.3990
 4702SOL    HW225569   2.118   3.840   8.131 -0.6708 -0.4516 -1.4899
 4703SOL     OW25570   1.430   4.587   6.116  0.4744  0.2571 -0.0599
 4703SOL    HW125571   1.507   4.548   6.077  1.0156  2.2445 -0.9921
 4703SOL    HW225572   1.450   4.640   6.193  1.3992 -0.3930  0.1406
 4704SOL     OW25573   1.347   2.334   8.131  0.4275 -0.0190 -0.2217
 4704SOL    HW125574   1.438   2.352   8.106 -0.0026  0.7170 -1.2729
 4704SOL    HW225575   1.360   2.240   8.120  1.2777  0.4182 -2.9155
 4705SOL     OW25576   4.519   2.631   4.864 -0.0531 -0.4551  0.2504
 4705SOL    HW125577   4.429   2.637   4.833  0.7988  1.2113 -1.9297
 4705SOL    HW225578   4.509   2.540   4.892 -1.9985  0.0878  1.3189
 4706SOL     OW25579   2.172   1.696   3.812 -0.1627 -0.0380 -0.3481
 4706SOL    HW125580   2.240   1.631   3.828  0.7736  1.2337  0.7911
 4706SOL    HW225581   2.167   1.691   3.717  3.4717 -0.5634 -0.4962
 4707SOL     OW25582   2.755   3.668  10.086 -0.3965  0.5006  0.0308
 4707SOL    HW125583   2.775   3.651  10.178  1.3235 -0.1444 -0.4517
 4707SOL    HW225584   2.662   3.655  10.101 -0.6455  0.8054 -1.2571
 4708SOL     OW25585   2.256   4.159  12.926  0.3729 -1.0196 -0.0437
 4708SOL    HW125586   2.217   4.084  12.882 -1.3238  0.2207 -0.6446
 4708SOL    HW225587   2.183   4.197  12.975 -0.3416 -1.1889 -0.9888
 4709SOL     OW25588   4.614   0.222   7.296 -0.0940  0.7361  0.4187
 4709SOL    HW125589   4.661   0.300   7.268  1.4675 -0.0090  0.9586
 4709SOL    HW225590   4.598   0.172   7.216  0.9661 -0.2061  0.7814
 4710SOL     OW25591   2.325   4.488  12.800  0.0140 -0.4390  0.1256
 4710SOL    HW125592   2.280   4.525  12.876 -2.7874 -0.7389 -1.3800
 4710SOL    HW225593   2.286   4.401  12.789  0.3191 -0.5012 -0.5053
 4711SOL     OW25594   0.995   3.682   3.700  0.1912  0.0960 -0.1066
 4711SOL    HW125595   1.064   3.628   3.660 -0.1806 -0.4735  0.0188
 4711SOL    HW225596   0.958   3.708   3.616  0.2355  0.1020 -0.1243
 4712SOL     OW25597   4.269   1.311   3.192  0.4142 -0.8226 -1.2391
 4712SOL    HW125598   4.318   1.244   3.239 -0.0079 -0.7007 -0.6303
 4712SOL    HW225599   4.180   1.279   3.208  0.5115 -0.5561 -0.1398
 4713SOL     OW25600   1.206   4.238  11.901 -0.0699  0.3322  0.0908
 4713SOL    HW125601   1.234   4.245  11.993 -2.3698  0.5847  0.7677
 4713SOL    HW225602   1.176   4.327  11.882 -1.3569 -0.2881 -0.7438
 4714SOL     OW25603   4.528   1.668   3.811  0.4426 -0.0977 -0.2202
 4714SOL    HW125604   4.471   1.644   3.738  2.3086 -0.4932 -1.5429
 4714SOL    HW225605   4.518   1.584   3.856  2.6890  0.4696  1.3197
 4715SOL     OW25606   3.279   3.117  13.553 -0.2950 -0.0601 -0.2168
 4715SOL    HW125607   3.208   3.054  13.559  0.9809 -1.2783  2.4826
 4715SOL    HW225608   3.263   3.171  13.630  1.2070  2.8155 -1.9264
 4716SOL     OW25609   3.862   0.942   5.977 -0.1546 -0.1572  0.3957
 4716SOL    HW125610   3.918   0.864   5.975  0.3125  0.1912 -0.1000
 4716SOL    HW225611   3.814   0.925   6.058  2.7755  0.0035  2.1714
 4717SOL     OW25612   1.374   2.402  16.947  0.5414 -0.3279 -0.1719
 4717SOL    HW125613   1.450   2.393  17.004  0.2820 -0.5968  0.1278
 4717SOL    HW225614   1.312   2.422  17.017  1.3535 -1.1953  0.7829
 4718SOL     OW25615   4.094   3.066   5.468 -0.0728 -0.1327  0.0173
 4718SOL    HW125616   4.141   3.141   5.502  0.8219 -0.2819 -0.9104
 4718SOL    HW225617   4.148   3.054   5.389  0.8657  2.2091  0.3282
 4719SOL     OW25618   3.047   0.566   8.216  0.0208 -0.3847 -0.0204
 4719SOL    HW125619   2.974   0.589   8.159  0.4351 -1.8580 -1.1492
 4719SOL    HW225620   3.116   0.552   8.151  0.4833  0.7114  0.2351
 4720SOL     OW25621   4.448   1.864  17.213 -0.0613  0.2050  0.2072
 4720SOL    HW125622   4.499   1.945  17.214  1.2154 -0.6020  0.4764
 4720SOL    HW225623   4.503   1.805  17.265  1.1234  0.6753 -0.4936
 4721SOL     OW25624   3.703   1.922   5.419 -0.3648 -0.1374  0.4044
 4721SOL    HW125625   3.676   2.009   5.450  1.4455  1.1869 -1.6810
 4721SOL    HW225626   3.672   1.860   5.484 -1.0527 -0.9830 -0.7249
 4722SOL     OW25627   4.310   1.259   7.188  0.6000 -0.1587  0.0099
 4722SOL    HW125628   4.254   1.311   7.245  0.7639 -0.2359  0.2408
 4722SOL    HW225629   4.244   1.211   7.139  1.0327 -0.1610 -0.5846
 4723SOL     OW25630   3.043   3.572   9.718  0.8010 -0.0843 -0.3153
 4723SOL    HW125631   3.079   3.587   9.631 -1.7192 -0.2955 -1.3851
 4723SOL    HW225632   2.956   3.613   9.716  0.7721 -0.0941  1.0299
 4724SOL     OW25633   1.374   3.006   7.904 -0.2029 -0.3306  0.2652
 4724SOL    HW125634   1.341   3.032   7.818  1.3583 -0.7913 -0.4744
 4724SOL    HW225635   1.396   2.914   7.886 -0.2750 -0.4760  0.9082
 4725SOL     OW25636   1.424   1.627   8.080 -0.3077  1.0485 -0.0566
 4725SOL    HW125637   1.366   1.700   8.059 -0.2618  0.5020 -2.0747
 4725SOL    HW225638   1.364   1.576   8.135 -0.8328 -0.7766 -2.3382
 4726SOL     OW25639   0.618   3.865  12.337 -0.3474  0.4511  0.2669
 4726SOL    HW125640   0.647   3.893  12.423  0.1449  0.3226  0.1409
 4726SOL    HW225641   0.639   3.936  12.276  0.7029 -0.8855 -0.9368
 4727SOL     OW25642   3.964   4.013   3.245 -0.3761 -0.4740 -0.0233
 4727SOL    HW125643   3.926   4.097   3.219 -1.5146 -1.1935 -0.6884
 4727SOL    HW225644   3.931   4.015   3.335  2.6291  1.1296  1.0258
 4728SOL     OW25645   1.772   4.052   2.491  0.7493  0.2681 -0.0151
 4728SOL    HW125646   1.706   4.118   2.469 -0.3429 -0.3168  1.5507
 4728SOL    HW225647   1.812   4.061   2.404 -0.7477 -1.5089 -0.9134
 4729SOL     OW25648   2.755   0.649  17.005 -0.4961 -0.1974 -0.3858
 4729SOL    HW125649   2.686   0.644  17.071  0.7591  0.5270  0.9973
 4729SOL    HW225650   2.754   0.743  16.986 -2.6311  0.1666  1.5332
 4730SOL     OW25651   4.324   0.495   5.158 -0.1131 -0.0773 -0.5440
 4730SOL    HW125652   4.377   0.507   5.079 -0.6677 -3.5671 -1.4426
 4730SOL    HW225653   4.235   0.503   5.123 -0.9757 -1.3847  1.3671
 4731SOL     OW25654   3.523   1.583   7.672 -0.2503  0.1800  0.3497
 4731SOL    HW125655   3.593   1.557   7.732  0.3451  0.6928 -0.1283
 4731SOL    HW225656   3.449   1.592   7.732  0.2773  1.8225  0.7558
 4732SOL     OW25657   4.313   2.669   9.530  0.1879 -0.0412  0.6595
 4732SOL    HW125658   4.291   2.762   9.534  0.2242  0.0836 -1.7934
 4732SOL    HW225659   4.351   2.643   9.613 -0.1567 -1.4789  0.3769
 4733SOL     OW25660   2.649   3.317   9.898  0.0143  0.6148 -0.1451
 4733SOL    HW125661   2.725   3.372   9.915  1.2085 -0.3505 -2.3209
 4733SOL    HW225662   2.599   3.382   9.849 -1.1232  1.2676  1.9126
 4734SOL     OW25663   4.635   2.408  11.165  0.2251  0.0769 -0.3272
 4734SOL    HW125664   4.601   2.369  11.246  0.1848  0.7035 -0.0498
 4734SOL    HW225665   4.553   2.409  11.115  0.9519  1.1800 -1.4947
 4735SOL     OW25666   1.879   0.227   6.476  0.2703  0.0912  0.1864
 4735SOL    HW125667   1.947   0.284   6.511  1.6913 -0.8803 -1.0185
 4735SOL    HW225668   1.832   0.280   6.412  0.1263  0.7882  0.8586
 4736SOL     OW25669   1.966   0.896   4.691  0.4889 -0.1638  0.1031
 4736SOL    HW125670   2.024   0.962   4.729 -1.0139  1.2148  0.0245
 4736SOL    HW225671   1.949   0.948   4.612  2.1421  0.8912  0.4354
 4737SOL     OW25672   3.187   4.197   3.428 -0.3138  0.1808 -0.2795
 4737SOL    HW125673   3.236   4.131   3.379  2.2377  1.0263  1.1478
 4737SOL    HW225674   3.207   4.167   3.517 -0.4723 -0.7260 -0.5489
 4738SOL     OW25675   1.936   1.922   7.334  0.6478 -0.5932 -0.1215
 4738SOL    HW125676   2.018   1.969   7.350  1.9430 -2.4026 -1.3958
 4738SOL    HW225677   1.870   1.984   7.303  2.0428  0.5180 -0.8890
 4739SOL     OW25678   0.612   2.580   7.113  0.4466  0.4405 -0.0262
 4739SOL    HW125679   0.560   2.597   7.192  3.6313 -1.6434  2.5081
 4739SOL    HW225680   0.554   2.514   7.076 -1.2194  1.5438  0.6085
 4740SOL     OW25681   4.681   4.078  11.775  0.0373  0.3853 -0.3428
 4740SOL    HW125682   4.600   4.033  11.800 -0.5983 -0.0247 -3.0957
 4740SOL    HW225683   4.717   4.093  11.862  1.5555 -0.5301 -0.7970
 4741SOL     OW25684   1.446   3.772   9.332  0.0195 -0.6532 -0.3585
 4741SOL    HW125685   1.414   3.683   9.316  0.0026 -1.0904  2.1603
 4741SOL    HW225686   1.440   3.771   9.428  0.5156  0.4801 -0.3209
 4742SOL     OW25687   0.816   3.461   3.494 -0.5373  0.1982 -0.1374
 4742SOL    HW125688   0.723   3.470   3.517 -0.9798  0.1493 -1.8951
 4742SOL    HW225689   0.814   3.534   3.433  1.3295  0.6033  0.3049
 4743SOL     OW25690   3.017   4.377   6.119  0.0152  0.2050 -0.1818
 4743SOL    HW125691   3.033   4.298   6.172  1.3284  0.6220  0.0394
 4743SOL    HW225692   3.019   4.334   6.033 -2.5489 -1.8916  0.8190
 4744SOL     OW25693   4.108   3.649   8.279  0.2296  0.0653  0.4834
 4744SOL    HW125694   4.108   3.744   8.293  0.0876  0.4944 -2.4164
 4744SOL    HW225695   4.049   3.630   8.206  0.6170  3.0481 -0.6279
 4745SOL     OW25696   3.620   2.775   1.950 -0.1645 -0.1114 -0.5462
 4745SOL    HW125697   3.527   2.797   1.946 -0.2598 -0.6498 -1.2584
 4745SOL    HW225698   3.651   2.861   1.980 -0.8539  0.4530 -1.4264
 4746SOL     OW25699   3.956   2.991   7.624 -0.0878  0.2029  0.0321
 4746SOL    HW125700   4.049   2.976   7.640 -0.1329 -0.6534 -0.5483
 4746SOL    HW225701   3.923   2.916   7.674  1.9665  0.8083  2.3253
 4747SOL     OW25702   1.662   1.193   2.360  0.3165  0.1752 -0.0640
 4747SOL    HW125703   1.619   1.268   2.319  0.1812 -0.0459 -0.3272
 4747SOL    HW225704   1.657   1.221   2.451 -0.1218 -0.0694 -0.0124
 4748SOL     OW25705   0.205   2.234   2.290  0.0779  0.3112 -0.5940
 4748SOL    HW125706   0.163   2.318   2.272  0.0696  0.4298 -0.0389
 4748SOL    HW225707   0.282   2.237   2.232 -1.3175 -0.4583 -2.4777
 4749SOL     OW25708   3.355   2.716  17.086  0.1668  0.0708 -0.0062
 4749SOL    HW125709   3.423   2.681  17.029  0.5242 -1.5592  1.3885
 4749SOL    HW225710   3.404   2.721  17.168  2.3583 -0.4983 -1.2807
 4750SOL     OW25711   0.469   0.884  10.990  0.0714 -0.0218 -0.1298
 4750SOL    HW125712   0.545   0.863  10.936 -0.0045  0.1159 -0.2910
 4750SOL    HW225713   0.507   0.909  11.074  0.1206  0.2872 -0.2444
 4751SOL     OW25714   3.419   4.296   2.749  0.3275  0.1417 -0.0808
 4751SOL    HW125715   3.428   4.246   2.830  1.0684 -0.3945 -0.4994
 4751SOL    HW225716   3.408   4.386   2.780  0.1228 -0.4119  1.4528
 4752SOL     OW25717   0.779   3.631   6.469 -0.5057 -0.2424 -0.3274
 4752SOL    HW125718   0.777   3.633   6.373  1.4226  0.4507 -0.3363
 4752SOL    HW225719   0.709   3.567   6.485 -1.9544  1.1329 -1.0724
 4753SOL     OW25720   3.534   3.468   4.859  0.2903  0.0910  0.2205
 4753SOL    HW125721   3.529   3.562   4.875 -3.7977 -0.5250  2.5776
 4753SOL    HW225722   3.624   3.449   4.884 -0.1511 -0.4480  1.4190
 4754SOL     OW25723   4.714   0.131  10.435  0.0199 -0.1229  0.0029
 4754SOL    HW125724   4.640   0.166  10.386 -0.2306 -1.1809 -0.3790
 4754SOL    HW225725   4.691   0.038  10.428  1.1046 -0.2885 -1.3062
 4755SOL     OW25726   3.445   2.688  14.125 -0.1488 -0.7329 -0.2509
 4755SOL    HW125727   3.379   2.627  14.091 -0.6752 -1.6613  2.4267
 4755SOL    HW225728   3.378   2.756  14.128 -0.1121 -0.6716 -0.8363
 4756SOL     OW25729   3.243   4.092   4.953  0.2755  0.3923  0.9061
 4756SOL    HW125730   3.314   4.097   4.889  0.6740  2.8783  1.5485
 4756SOL    HW225731   3.225   3.999   4.967  0.5276 -0.0892 -1.9264
 4757SOL     OW25732   1.457   2.247   4.205  0.1083 -0.1198 -0.1351
 4757SOL    HW125733   1.376   2.203   4.231 -0.9595  1.1594 -1.3181
 4757SOL    HW225734   1.437   2.339   4.220  0.6567  0.2745 -1.8650
 4758SOL     OW25735   4.722   2.835  12.871 -0.5337  1.0223 -0.0436
 4758SOL    HW125736   0.006   2.855  12.964  1.5257 -0.5758  0.1209
 4758SOL    HW225737   4.704   2.743  12.892  2.8029 -0.1579 -2.3292
 4759SOL     OW25738   2.563   2.188  11.488  0.0644 -0.1637  0.6744
 4759SOL    HW125739   2.528   2.240  11.561  2.2470  0.0996  1.5375
 4759SOL    HW225740   2.490   2.138  11.451  0.2515  0.7488 -0.9369
 4760SOL     OW25741   1.417   0.385   2.531 -0.5426  0.2954  0.2080
 4760SOL    HW125742   1.362   0.331   2.587 -1.9173  2.0820  0.5426
 4760SOL    HW225743   1.403   0.346   2.444 -0.2895  0.7216 -0.0239
 4761SOL     OW25744   1.859   2.495   7.814  0.6584 -0.6109  0.1600
 4761SOL    HW125745   1.838   2.534   7.729 -0.9269  0.9028  1.2412
 4761SOL    HW225746   1.875   2.571   7.871 -3.4545  1.8221 -1.9627
 4762SOL     OW25747   3.996   0.095  17.449 -0.5342 -0.2719 -0.0470
 4762SOL    HW125748   4.029   0.049  17.372 -0.7222  0.9766 -0.8630
 4762SOL    HW225749   4.065   0.081  17.513 -0.2493 -1.6654 -0.6448
 4763SOL     OW25750   1.349   0.280   8.572 -0.1550  0.1210 -0.1683
 4763SOL    HW125751   1.338   0.187   8.555 -2.0702  0.6817 -1.8855
 4763SOL    HW225752   1.299   0.301   8.651  4.4337  1.0957  2.4671
 4764SOL     OW25753   0.446   2.866   4.039  0.6188  0.2336 -0.4462
 4764SOL    HW125754   0.482   2.843   3.953  1.6206 -0.3722  0.1233
 4764SOL    HW225755   0.482   2.802   4.100  1.2347  1.1561  0.1649
 4765SOL     OW25756   0.178   1.919   6.175 -0.2432 -0.1551  0.7931
 4765SOL    HW125757   0.159   2.002   6.219 -0.1079 -0.0998  0.7455
 4765SOL    HW225758   0.223   1.943   6.094 -1.3889  1.6626  0.6959
 4766SOL     OW25759   4.133   1.833  12.661 -0.0418 -0.3906 -0.8844
 4766SOL    HW125760   4.095   1.921  12.667 -0.3576 -0.6592  0.8872
 4766SOL    HW225761   4.214   1.867  12.622  0.1713 -0.9616 -0.9343
 4767SOL     OW25762   0.974   0.680   2.981 -0.3380 -0.0116 -0.0137
 4767SOL    HW125763   0.975   0.598   3.031  1.0355 -0.6206 -1.0370
 4767SOL    HW225764   0.882   0.705   2.984 -1.2239 -3.5435  1.3691
 4768SOL     OW25765   4.406   0.433   8.742 -0.4195 -0.0233  0.6611
 4768SOL    HW125766   4.420   0.352   8.790 -0.0783  1.6160  3.3274
 4768SOL    HW225767   4.438   0.417   8.653  0.9950  3.1495  0.5998
 4769SOL     OW25768   3.467   0.751  13.245 -0.4964 -0.6098  0.3697
 4769SOL    HW125769   3.552   0.785  13.217 -1.8896  2.5439 -0.0271
 4769SOL    HW225770   3.491   0.659  13.250 -1.7729 -0.8670  1.8449
 4770SOL     OW25771   0.287   0.164   8.582  0.0779  0.3490  0.4389
 4770SOL    HW125772   0.339   0.244   8.568 -0.4246  0.3511 -1.4817
 4770SOL    HW225773   0.350   0.096   8.605 -1.1603 -1.0502 -0.2913
 4771SOL     OW25774   4.452   4.506   2.379  0.2187  0.7344  0.0537
 4771SOL    HW125775   4.392   4.574   2.409  0.5257  1.3413 -0.7018
 4771SOL    HW225776   4.467   4.525   2.286 -2.0807  2.3943  0.0229
 4772SOL     OW25777   2.771   0.230   2.538 -0.2778  0.6477  0.1017
 4772SOL    HW125778   2.852   0.204   2.494  0.3197  1.8238  0.5056
 4772SOL    HW225779   2.731   0.280   2.467 -0.4256 -1.0804 -1.0360
 4773SOL     OW25780   3.780   3.976   2.946 -0.0422  0.0455 -0.3458
 4773SOL    HW125781   3.834   4.047   2.982  1.0025 -0.0067 -1.8056
 4773SOL    HW225782   3.701   3.978   3.001 -0.0352 -0.6495 -0.3123
 4774SOL     OW25783   2.262   4.601  11.765  0.0888  0.1681  0.4718
 4774SOL    HW125784   2.241   4.520  11.719  3.4278 -1.2249  1.3371
 4774SOL    HW225785   2.224   4.668  11.710  1.0188 -0.3369 -0.7916
 4775SOL     OW25786   3.211   1.908   7.631  0.0580 -0.1670 -0.3044
 4775SOL    HW125787   3.117   1.893   7.623 -0.2245  0.6703  1.3879
 4775SOL    HW225788   3.244   1.877   7.547  1.4529 -0.9292  0.5309
 4776SOL     OW25789   4.585   1.462   1.833  0.2773 -0.2154  0.0400
 4776SOL    HW125790   4.666   1.412   1.837  0.0503 -0.5467  0.5393
 4776SOL    HW225791   4.529   1.400   1.786 -0.2825 -0.4759  1.0440
 4777SOL     OW25792   3.889   4.289   5.105  0.1455  0.2315  0.2386
 4777SOL    HW125793   3.966   4.303   5.051  0.3157 -0.8562  0.2097
 4777SOL    HW225794   3.865   4.381   5.118 -2.7507 -0.3904 -0.6034
 4778SOL     OW25795   2.064   1.123   9.343  0.6705  0.0838  0.1442
 4778SOL    HW125796   1.978   1.089   9.369 -0.2676  1.4339 -1.2189
 4778SOL    HW225797   2.094   1.082   9.262 -1.9071  2.1043 -1.8721
 4779SOL     OW25798   0.255   0.933   6.202 -0.1941  0.0251 -0.1469
 4779SOL    HW125799   0.317   0.999   6.235 -0.5594 -0.6090  1.7916
 4779SOL    HW225800   0.202   0.995   6.152  1.9455 -0.7836 -3.3898
 4780SOL     OW25801   1.616   0.999   8.158 -0.2018 -0.1801 -0.1018
 4780SOL    HW125802   1.592   0.985   8.066  1.9809  2.4650 -1.0569
 4780SOL    HW225803   1.547   1.055   8.192 -0.3570 -0.5542  0.2096
 4781SOL     OW25804   3.504   0.659   4.291  0.7894 -0.0463 -0.6262
 4781SOL    HW125805   3.424   0.617   4.322  1.9149 -1.4457  0.3883
 4781SOL    HW225806   3.502   0.733   4.353  1.2618  0.3115 -1.0352
 4782SOL     OW25807   2.479   0.926  17.429 -0.2356  0.1410 -0.5572
 4782SOL    HW125808   2.524   0.936  17.346  0.2158 -0.8590 -0.4307
 4782SOL    HW225809   2.418   1.000  17.422  0.1577  0.4558 -0.6679
 4783SOL     OW25810   1.886   1.343  14.226 -0.4730 -0.5512 -0.3910
 4783SOL    HW125811   1.889   1.250  14.202  0.6992 -0.4953 -0.4870
 4783SOL    HW225812   1.791   1.352  14.221 -0.8280 -3.8327 -0.0900
 4784SOL     OW25813   0.671   1.171   0.127 -0.2432  0.3516  0.2049
 4784SOL    HW125814   0.689   1.233   0.198 -0.6559  0.8012 -0.0791
 4784SOL    HW225815   0.673   1.085   0.169 -1.8743 -0.5486 -1.5524
 4785SOL     OW25816   0.317   0.633  16.940 -0.1198 -0.1090  0.1078
 4785SOL    HW125817   0.307   0.539  16.925 -0.0071 -0.2461  0.9076
 4785SOL    HW225818   0.333   0.640  17.034 -0.8248  0.6095  0.1777
 4786SOL     OW25819   2.874   1.463   5.748  0.5557 -0.3294 -0.0441
 4786SOL    HW125820   2.832   1.392   5.699 -0.2415 -0.2181  0.4847
 4786SOL    HW225821   2.956   1.473   5.700  0.0497 -1.8113 -1.2092
 4787SOL     OW25822   0.005   3.984   9.110 -0.8465 -0.2992 -0.2490
 4787SOL    HW125823   0.024   3.925   9.037  1.1678  0.6171 -0.4607
 4787SOL    HW225824   0.032   4.066   9.069 -1.2201 -0.7256 -1.3470
 4788SOL     OW25825   1.538   0.082   1.383 -0.2069  0.1694 -0.5807
 4788SOL    HW125826   1.504   0.138   1.453  0.7328 -0.7647  0.6317
 4788SOL    HW225827   1.499   4.723   1.408 -0.1173  0.3603  0.1997
 4789SOL     OW25828   0.429   1.438   7.013 -0.3762  0.1080 -0.4499
 4789SOL    HW125829   0.495   1.390   7.064 -1.8627 -0.5842  0.8353
 4789SOL    HW225830   0.361   1.371   7.011  1.0949 -1.4745  1.9574
 4790SOL     OW25831   3.069   3.192   2.122  0.1815 -0.8111  0.3454
 4790SOL    HW125832   3.138   3.246   2.084  1.9209 -3.7231 -0.6625
 4790SOL    HW225833   3.033   3.167   2.037  0.3629 -1.4963  0.4695
 4791SOL     OW25834   4.405   0.927   6.393  0.7048  0.2887 -0.0921
 4791SOL    HW125835   4.407   1.020   6.417  2.0289  0.3168 -0.3448
 4791SOL    HW225836   4.494   0.903   6.417  1.5483  2.2933 -1.2116
 4792SOL     OW25837   0.637   3.506   5.758 -0.4946 -0.3273 -0.0912
 4792SOL    HW125838   0.580   3.572   5.797 -1.0404 -0.5903 -0.4372
 4792SOL    HW225839   0.614   3.487   5.667 -2.1116  0.1234  0.2074
 4793SOL     OW25840   4.375   1.673  15.996  0.2135  0.4573 -0.4515
 4793SOL    HW125841   4.322   1.628  16.061  0.8609 -0.0669 -0.2817
 4793SOL    HW225842   4.396   1.750  16.048 -0.9352  1.3564 -1.3094
 4794SOL     OW25843   4.600   3.050   4.161 -0.3123 -0.3912  0.5498
 4794SOL    HW125844   4.538   2.991   4.118  1.2950  0.5549 -3.0297
 4794SOL    HW225845   4.544   3.117   4.201  1.4254  2.5132 -1.8753
 4795SOL     OW25846   1.657   4.326   6.856 -0.2966  0.8143  0.3050
 4795SOL    HW125847   1.599   4.314   6.780 -0.2702 -0.5020  0.4987
 4795SOL    HW225848   1.612   4.403   6.892  0.2648  1.5377 -0.5405
 4796SOL     OW25849   4.527   2.518   1.784  0.7430 -0.0696  0.3781
 4796SOL    HW125850   4.437   2.494   1.807  0.0596  0.8421 -1.3667
 4796SOL    HW225851   4.509   2.608   1.756 -3.3015 -1.3858 -1.2717
 4797SOL     OW25852   2.128   0.140   7.672 -0.2763  0.3317  0.1997
 4797SOL    HW125853   2.182   0.073   7.714 -1.0198  0.7091  1.7157
 4797SOL    HW225854   2.188   0.178   7.607 -0.5483 -0.7253 -0.6663
 4798SOL     OW25855   1.804   3.182  13.855  0.4510 -0.1508  0.0961
 4798SOL    HW125856   1.811   3.275  13.876  1.2080 -0.1173 -0.3015
 4798SOL    HW225857   1.859   3.142  13.923  1.1874  0.1449 -0.3291
 4799SOL     OW25858   4.623   1.595   8.951 -0.0466  0.0160 -0.6557
 4799SOL    HW125859   4.700   1.587   8.894 -1.4140 -2.9959 -2.0473
 4799SOL    HW225860   4.643   1.556   9.036  2.7619  0.6350 -1.0224
 4800SOL     OW25861   1.083   3.187   7.439 -0.2801 -0.1544 -0.6660
 4800SOL    HW125862   1.051   3.193   7.529  0.6430  0.3729 -0.3714
 4800SOL    HW225863   1.060   3.095   7.430 -0.8310  0.0627 -1.4573
 4801SOL     OW25864   3.074   2.447   4.288 -1.0364  0.8937 -0.1818
 4801SOL    HW125865   3.029   2.476   4.208 -1.7027 -1.2544 -0.5925
 4801SOL    HW225866   3.117   2.530   4.311 -3.5560  2.4265 -0.9570
 4802SOL     OW25867   3.729   2.645   2.923 -0.1033 -0.0755 -0.5206
 4802SOL    HW125868   3.803   2.684   2.875  0.8010  1.0137  1.7786
 4802SOL    HW225869   3.655   2.698   2.895 -0.3348  0.5837  1.3515
 4803SOL     OW25870   1.573   1.834  14.204  0.4615  0.0573 -0.4383
 4803SOL    HW125871   1.562   1.881  14.122 -0.2692  0.4231 -0.1349
 4803SOL    HW225872   1.668   1.830  14.199  0.3504  0.6206 -3.0690
 4804SOL     OW25873   0.201   3.543   6.914  0.6233 -0.6937  0.3155
 4804SOL    HW125874   0.237   3.463   6.877 -0.4176 -0.3005 -1.5667
 4804SOL    HW225875   0.279   3.598   6.909  1.5948 -2.2356 -1.4816
 4805SOL     OW25876   1.409   3.021   1.772  0.2770 -0.0810  0.7595
 4805SOL    HW125877   1.504   3.011   1.764  0.2587  0.8350 -0.6887
 4805SOL    HW225878   1.402   3.106   1.817 -2.5954  0.0661  0.0684
 4806SOL     OW25879   0.295   2.932   6.076 -0.2158 -0.3638 -0.1684
 4806SOL    HW125880   0.377   2.979   6.088  0.3581 -1.4338  0.1241
 4806SOL    HW225881   0.242   2.949   6.154  0.6044  0.5269  0.1932
 4807SOL     OW25882   0.471   3.977   4.570 -0.4821 -0.3823 -0.5127
 4807SOL    HW125883   0.494   4.070   4.563  0.3333 -0.4717  0.8982
 4807SOL    HW225884   0.383   3.997   4.600  0.6876  0.3015  2.3873
 4808SOL     OW25885   2.341   4.039   4.358 -0.5394  0.4909  0.2985
 4808SOL    HW125886   2.330   3.948   4.330  1.2229 -0.1786  1.7839
 4808SOL    HW225887   2.388   4.031   4.441 -1.3699  1.5664  0.8746
 4809SOL     OW25888   1.668   0.640   5.170 -0.5069  0.2257 -0.2330
 4809SOL    HW125889   1.608   0.708   5.138 -1.0943 -0.3847 -0.4093
 4809SOL    HW225890   1.735   0.694   5.214 -0.6129  2.6410 -3.0627
 4810SOL     OW25891   0.061   3.782   5.302 -0.3225  0.0030  0.5734
 4810SOL    HW125892   0.120   3.750   5.235  0.4320  0.3118  1.0893
 4810SOL    HW225893   0.089   3.874   5.302 -0.6021  0.0931  1.7847
 4811SOL     OW25894   0.328   0.038   0.555 -0.1349  0.5385  0.0006
 4811SOL    HW125895   0.311   0.052   0.648  0.1622 -1.0712  0.2944
 4811SOL    HW225896   0.319   0.131   0.534 -1.2235  0.3181 -0.5275
 4812SOL     OW25897   3.682   2.343   5.330  0.1817  0.0521 -0.0065
 4812SOL    HW125898   3.694   2.392   5.248  0.7808  1.3051  0.8411
 4812SOL    HW225899   3.771   2.311   5.342 -0.2089 -0.6448  1.0166
 4813SOL     OW25900   1.656   3.699  15.346  0.2348  0.2110 -0.3030
 4813SOL    HW125901   1.564   3.680  15.363  0.3612  0.1770  0.3445
 4813SOL    HW225902   1.690   3.610  15.332 -2.2607 -0.8528  0.3944
 4814SOL     OW25903   1.158   4.485   3.911 -0.4343  0.0226  0.3528
 4814SOL    HW125904   1.231   4.429   3.889 -1.3707 -1.3999  0.8879
 4814SOL    HW225905   1.204   4.568   3.899 -1.4529  0.5568  0.1087
 4815SOL     OW25906   4.591   2.089  11.680 -0.0399  0.0813  0.2777
 4815SOL    HW125907   4.628   2.117  11.596 -2.7277  2.0437 -0.2637
 4815SOL    HW225908   4.595   2.173  11.726 -1.0234 -0.0789  0.6421
 4816SOL     OW25909   2.191   1.309   5.290  0.1444 -0.7672 -0.5645
 4816SOL    HW125910   2.202   1.247   5.363  1.3566  2.0964  1.7252
 4816SOL    HW225911   2.133   1.262   5.231  0.6577 -0.0009 -1.6654
 4817SOL     OW25912   4.507   3.260  12.723 -0.2879 -0.7960 -0.3840
 4817SOL    HW125913   4.512   3.189  12.787  1.9980  0.5903  0.9680
 4817SOL    HW225914   4.465   3.331  12.771 -1.5377 -0.5878 -1.7952
 4818SOL     OW25915   3.521   1.439   7.209  0.4534 -0.3545  0.1549
 4818SOL    HW125916   3.475   1.453   7.292 -0.5960 -3.4540  0.0822
 4818SOL    HW225917   3.586   1.510   7.206 -1.0140  1.0213  0.9413
 4819SOL     OW25918   3.091   3.045  11.632 -0.8101  0.0805  0.0047
 4819SOL    HW125919   3.096   3.136  11.662 -1.6340  0.7640 -1.9143
 4819SOL    HW225920   3.002   3.033  11.600 -0.7691  0.0871 -0.1130
 4820SOL     OW25921   3.131   2.748   5.111  0.6184 -0.0051  0.0262
 4820SOL    HW125922   3.174   2.687   5.051  2.5408  0.2218  1.1609
 4820SOL    HW225923   3.097   2.818   5.054  0.8595 -1.4451 -1.9020
 4821SOL     OW25924   1.105   3.691  13.457 -0.1676 -0.1995 -0.0391
 4821SOL    HW125925   1.108   3.638  13.377 -0.7037 -0.3464  0.0389
 4821SOL    HW225926   1.120   3.780  13.426  0.7906  0.2302  1.6789
 4822SOL     OW25927   4.598   1.459   7.787  0.1665 -0.2745  0.2852
 4822SOL    HW125928   4.639   1.488   7.868  0.6198 -0.2150  0.0340
 4822SOL    HW225929   4.582   1.546   7.749  2.9287  0.2469  0.3076
 4823SOL     OW25930   0.608   3.857   0.462  0.0844 -0.1687  0.8220
 4823SOL    HW125931   0.617   3.803   0.541 -0.0817  2.4576  2.6373
 4823SOL    HW225932   0.679   3.838   0.400  1.9860  1.5358  2.4792
 4824SOL     OW25933   1.578   1.453   7.404 -0.0431 -0.2838 -0.0251
 4824SOL    HW125934   1.530   1.501   7.472 -1.9145 -0.5963 -1.1292
 4824SOL    HW225935   1.519   1.380   7.384  1.5596 -1.6676  0.3026
 4825SOL     OW25936   1.966   2.034   2.906  0.2485  0.3328  0.1900
 4825SOL    HW125937   1.991   1.942   2.910 -2.1348 -0.3943 -2.1998
 4825SOL    HW225938   2.020   2.066   2.979 -1.6732  0.7928  1.3930
 4826SOL     OW25939   4.625   4.030  16.677  0.2579 -0.1502 -0.5048
 4826SOL    HW125940   4.669   4.023  16.762  0.4515 -0.3539 -0.6215
 4826SOL    HW225941   4.538   3.997  16.698  0.3796 -1.3579 -1.9319
 4827SOL     OW25942   2.884   4.614   6.280  0.0322 -0.1730  0.5048
 4827SOL    HW125943   2.948   4.618   6.351  2.0648  0.0894 -1.3398
 4827SOL    HW225944   2.871   4.523   6.254  2.8558 -0.9448  1.7441
 4828SOL     OW25945   0.587   1.830   9.246  0.0121 -0.2097  0.0738
 4828SOL    HW125946   0.504   1.863   9.279  0.6865  1.7278 -0.1259
 4828SOL    HW225947   0.568   1.807   9.155 -0.3484 -0.1799  0.1424
 4829SOL     OW25948   2.164   0.233  15.939  0.0677  0.3474  0.1674
 4829SOL    HW125949   2.228   0.164  15.957 -0.3462  0.4553  1.9850
 4829SOL    HW225950   2.097   0.210  16.002 -1.0865 -2.1225 -1.9761
 4830SOL     OW25951   2.603   1.805  15.391 -0.3291  0.5374 -0.5593
 4830SOL    HW125952   2.679   1.862  15.398  0.9196 -1.3467  1.3468
 4830SOL    HW225953   2.570   1.815  15.480 -2.4141 -1.6086 -1.0992
 4831SOL     OW25954   1.077   0.687  12.058 -0.3050 -0.2537 -0.2546
 4831SOL    HW125955   1.096   0.774  12.021  0.4367  0.2787  1.4151
 4831SOL    HW225956   1.161   0.642  12.051 -0.2000 -0.2377  0.9897
 4832SOL     OW25957   2.652   1.410   5.320 -0.3068  0.4262  0.4332
 4832SOL    HW125958   2.714   1.440   5.254  0.3295  1.3203  1.4337
 4832SOL    HW225959   2.571   1.440   5.279  1.2702  2.3797 -1.2046
 4833SOL     OW25960   1.975   1.943   5.907 -0.4857 -0.5662 -0.0660
 4833SOL    HW125961   1.966   1.991   5.825  0.2848 -0.1020  0.1274
 4833SOL    HW225962   2.054   1.979   5.947 -1.5852  0.2616  1.3920
 4834SOL     OW25963   0.579   1.677   7.813 -0.3019  0.1836  0.2589
 4834SOL    HW125964   0.530   1.661   7.894 -4.0535 -2.7280 -2.5675
 4834SOL    HW225965   0.511   1.699   7.749  1.1622  1.9237 -0.6767
 4835SOL     OW25966   2.443   2.289   5.165  0.0956  0.2993  0.0379
 4835SOL    HW125967   2.371   2.300   5.227 -0.6490  4.2513 -1.5833
 4835SOL    HW225968   2.509   2.240   5.216 -0.8522 -0.6726  0.3393
 4836SOL     OW25969   2.144   2.299   2.945 -0.0325  0.2094 -0.5660
 4836SOL    HW125970   2.112   2.272   3.031 -3.3442  0.6967 -1.6663
 4836SOL    HW225971   2.133   2.394   2.953 -0.4287  0.1379 -0.2976
 4837SOL     OW25972   2.857   2.212   6.774 -0.1895  0.4162 -0.1478
 4837SOL    HW125973   2.827   2.271   6.705 -0.8860 -1.0025 -1.0456
 4837SOL    HW225974   2.946   2.242   6.790  0.1122 -0.4025 -0.3138
 4838SOL     OW25975   4.104   2.335   4.685 -0.6126 -0.3682  0.3157
 4838SOL    HW125976   4.095   2.401   4.616 -0.6073  0.4495  1.0901
 4838SOL    HW225977   4.083   2.382   4.766 -2.1470 -2.4871  1.1682
 4839SOL     OW25978   2.074   2.018   2.600 -0.2087  0.1209  0.0627
 4839SOL    HW125979   2.068   2.111   2.622 -0.1581  0.6437 -2.1104
 4839SOL    HW225980   2.059   2.024   2.505  0.1262  1.9216  0.1316
 4840SOL     OW25981   4.263   2.991   5.233 -0.1127  0.1612 -0.2661
 4840SOL    HW125982   4.302   2.904   5.223 -0.3746 -0.0734  0.7657
 4840SOL    HW225983   4.345   3.038   5.213 -1.0914  1.5105 -1.1404
 4841SOL     OW25984   2.631   2.668   8.928  0.0698  0.1860 -0.0154
 4841SOL    HW125985   2.683   2.698   9.003 -0.7789  2.3489 -0.3167
 4841SOL    HW225986   2.649   2.574   8.927  1.6361  0.4467  2.0069
 4842SOL     OW25987   0.899   1.249   6.881 -0.0144  0.2663 -0.3457
 4842SOL    HW125988   0.895   1.156   6.855 -2.0943 -0.0065  0.9693
 4842SOL    HW225989   0.855   1.245   6.966  0.4326 -1.1040 -0.1761
 4843SOL     OW25990   1.216   3.254   2.608  0.3571 -0.1799 -0.3101
 4843SOL    HW125991   1.132   3.223   2.644 -0.6639  2.2380 -0.6317
 4843SOL    HW225992   1.275   3.251   2.684  1.0177  3.1634 -0.6817
 4844SOL     OW25993   2.071   3.330   3.894  0.0803  0.1216 -0.1028
 4844SOL    HW125994   2.093   3.339   3.801 -0.4150 -1.6491 -0.3885
 4844SOL    HW225995   2.042   3.239   3.897 -1.4947  0.6466  0.9542
 4845SOL     OW25996   0.534   3.646   6.718  0.3456  0.4436 -0.6268
 4845SOL    HW125997   0.619   3.675   6.752 -0.8619  1.6914  1.3367
 4845SOL    HW225998   0.557   3.566   6.671  1.8943  0.0614  0.7709
 4846SOL     OW25999   1.975   0.605   5.269 -0.1787 -0.4299  0.0134
 4846SOL    HW126000   2.066   0.631   5.263 -0.4346 -0.0636 -2.6891
 4846SOL    HW226001   1.955   0.648   5.352  2.4969  2.7965 -1.0277
 4847SOL     OW26002   1.242   1.881  15.912 -0.0734 -0.1052  0.2278
 4847SOL    HW126003   1.207   1.864  16.000 -0.8756  0.1544 -0.0411
 4847SOL    HW226004   1.168   1.931  15.878  0.7913  0.9683 -0.0685
 4848SOL     OW26005   2.639   3.552   9.049 -0.5679 -0.2599 -0.0688
 4848SOL    HW126006   2.588   3.570   9.128  0.8151  1.3363  0.4561
 4848SOL    HW226007   2.684   3.473   9.078 -0.7989  0.6510  2.7423
 4849SOL     OW26008   2.666   0.125   2.796 -0.0625  0.1128  0.0659
 4849SOL    HW126009   2.733   0.193   2.792 -1.0663  1.0307 -1.2147
 4849SOL    HW226010   2.665   0.099   2.704 -0.9932 -1.6404  0.5685
 4850SOL     OW26011   2.417   0.552   7.454  0.3229  0.3921 -0.6563
 4850SOL    HW126012   2.369   0.602   7.520 -0.5910 -0.3822 -0.7369
 4850SOL    HW226013   2.502   0.596   7.452  1.0347 -0.8290  2.2858
 4851SOL     OW26014   3.285   4.391   1.921 -0.2448  0.6554 -0.4434
 4851SOL    HW126015   3.303   4.469   1.974 -1.1122  0.3417  0.3300
 4851SOL    HW226016   3.192   4.385   1.943 -0.4482  1.2833 -1.1360
 4852SOL     OW26017   3.973   3.463   8.542 -0.3126 -0.2878 -0.4653
 4852SOL    HW126018   3.886   3.432   8.566 -1.2014  1.6043 -1.2109
 4852SOL    HW226019   3.956   3.531   8.476  0.3376 -0.3345 -0.6767
 4853SOL     OW26020   0.798   3.817   2.969  0.1094 -0.3218  0.3249
 4853SOL    HW126021   0.731   3.762   3.009 -0.3338  0.8555  1.1928
 4853SOL    HW226022   0.764   3.905   2.985 -1.7697 -0.8602 -0.6439
 4854SOL     OW26023   1.009   1.477   3.822 -0.2181 -0.2309 -0.0854
 4854SOL    HW126024   1.027   1.413   3.891 -0.8156 -0.4129 -0.0957
 4854SOL    HW226025   0.965   1.543   3.874  2.0994  1.6847 -0.5767
 4855SOL     OW26026   2.913   2.858  14.789  0.0040 -0.2151 -0.1082
 4855SOL    HW126027   2.948   2.822  14.870 -0.5166 -0.0222  0.2047
 4855SOL    HW226028   2.830   2.812  14.780 -0.3618  0.1164  1.6594
 4856SOL     OW26029   1.229   0.783   3.142 -0.2427 -0.2253 -0.1247
 4856SOL    HW126030   1.280   0.704   3.157 -1.4547 -1.3738 -2.0265
 4856SOL    HW226031   1.164   0.740   3.087 -1.0070 -0.6032  1.0997
 4857SOL     OW26032   0.731   0.562   6.274 -0.4192 -0.1163  0.2300
 4857SOL    HW126033   0.681   0.601   6.202  2.7529  0.2960 -1.7648
 4857SOL    HW226034   0.685   0.480   6.293 -3.4128  1.4024 -0.5395
 4858SOL     OW26035   3.917   4.077   8.457  0.2940 -0.4112 -0.6394
 4858SOL    HW126036   3.960   3.992   8.469 -0.6421 -0.5844  1.3492
 4858SOL    HW226037   3.985   4.143   8.442 -0.6289  0.8463  0.6792
 4859SOL     OW26038   4.430   3.193  10.764  0.2457  0.0538 -1.0091
 4859SOL    HW126039   4.525   3.195  10.774 -0.0292  0.9452  1.4510
 4859SOL    HW226040   4.397   3.239  10.841  3.5605  0.1049  0.3787
 4860SOL     OW26041   3.125   4.564   1.529  0.2518 -0.1484  0.4336
 4860SOL    HW126042   3.097   4.528   1.444  1.9944  1.6569 -0.8900
 4860SOL    HW226043   3.138   4.490   1.588 -1.7299 -0.9139 -0.0791
 4861SOL     OW26044   1.919   2.689   5.552  0.3651  0.3004 -0.1821
 4861SOL    HW126045   1.930   2.720   5.642 -2.0000  0.5016  0.0612
 4861SOL    HW226046   1.852   2.754   5.531  0.8452  0.4312 -1.2736
 4862SOL     OW26047   4.414   1.769   1.486  0.1989  0.4259  0.2553
 4862SOL    HW126048   4.361   1.691   1.468 -0.2316  1.6425 -3.8178
 4862SOL    HW226049   4.473   1.739   1.556  0.3967  1.1775  0.4119
 4863SOL     OW26050   1.608   0.453   2.914 -0.2266  0.4745  0.0263
 4863SOL    HW126051   1.577   0.486   2.830 -0.4067 -2.5943 -1.1140
 4863SOL    HW226052   1.687   0.407   2.886  0.1426  0.0260  1.8221
 4864SOL     OW26053   3.200   0.417   5.860  0.1743  0.3337 -0.1817
 4864SOL    HW126054   3.215   0.503   5.899 -0.0538  0.4656 -0.3849
 4864SOL    HW226055   3.206   0.451   5.771 -1.2114 -1.3383 -0.9184
 4865SOL     OW26056   4.083   2.269   6.386  0.3027 -0.1333  0.3849
 4865SOL    HW126057   4.102   2.220   6.465  0.5836 -1.8009 -0.7195
 4865SOL    HW226058   4.080   2.195   6.326  0.5355  0.7721 -0.7511
 4866SOL     OW26059   2.322   1.158  13.069 -0.4534  0.7365  0.6598
 4866SOL    HW126060   2.370   1.115  13.140  0.9161  1.6061  0.2647
 4866SOL    HW226061   2.264   1.208  13.126 -1.0763  0.0215  0.6503
 4867SOL     OW26062   2.769   0.168   7.422 -0.0516 -0.1922 -0.1712
 4867SOL    HW126063   2.690   0.210   7.389 -1.1694 -1.7194  0.5914
 4867SOL    HW226064   2.841   0.213   7.378  0.6869 -2.8620 -1.6940
 4868SOL     OW26065   3.601   0.616   9.436  0.3336 -1.2069  0.9159
 4868SOL    HW126066   3.652   0.556   9.382 -0.0624 -1.2001  0.5320
 4868SOL    HW226067   3.618   0.579   9.523  1.7021  3.3293  2.5682
 4869SOL     OW26068   0.290   0.004   2.844  0.7799 -0.4891  0.5373
 4869SOL    HW126069   0.196   4.712   2.834  0.6440  1.1963 -0.9317
 4869SOL    HW226070   0.333   4.644   2.839 -1.1058 -1.3248 -1.3385
 4870SOL     OW26071   4.136   1.909  17.360 -0.1639  0.3624 -0.3335
 4870SOL    HW126072   4.162   1.925  17.269  1.3367 -3.3646 -0.5514
 4870SOL    HW226073   4.211   1.868  17.403 -0.8585 -0.2718  0.2818
 4871SOL     OW26074   2.265   3.280   7.290 -0.5043 -0.2563 -0.1729
 4871SOL    HW126075   2.317   3.204   7.316  0.9301  0.6961 -0.2833
 4871SOL    HW226076   2.219   3.298   7.372  1.4006 -1.8245  1.2423
 4872SOL     OW26077   2.819   0.145  14.656 -0.1058 -0.8538 -0.1134
 4872SOL    HW126078   2.904   0.116  14.690  0.1142 -0.8816 -0.6945
 4872SOL    HW226079   2.757   0.119  14.724  0.6733  0.0755  0.9657
 4873SOL     OW26080   2.354   0.838   8.505 -0.2344  0.4940 -0.1012
 4873SOL    HW126081   2.286   0.770   8.509 -0.1761  0.2424 -3.1770
 4873SOL    HW226082   2.304   0.913   8.472  0.4463  2.9694  4.6294
 4874SOL     OW26083   3.201   3.341   4.335  0.2514 -0.2419 -0.2777
 4874SOL    HW126084   3.223   3.253   4.306  1.3781 -0.0063 -0.1534
 4874SOL    HW226085   3.214   3.339   4.430 -1.8569 -1.3466 -0.0257
 4875SOL     OW26086   0.948   4.164   4.923 -0.5190 -0.1379 -0.3676
 4875SOL    HW126087   1.024   4.106   4.916 -1.0449 -1.0890  2.1034
 4875SOL    HW226088   0.903   4.129   4.999 -1.0909 -1.7680 -1.4456
 4876SOL     OW26089   1.037   1.757   9.981 -0.2941 -0.3815 -0.2373
 4876SOL    HW126090   0.987   1.678  10.003  0.6815 -0.7605  0.5877
 4876SOL    HW226091   1.072   1.784  10.065 -1.5571 -0.0945  0.1981
 4877SOL     OW26092   3.160   2.510   5.903 -0.1558  1.3112 -0.6929
 4877SOL    HW126093   3.252   2.486   5.895  0.4794  3.2759  1.0456
 4877SOL    HW226094   3.153   2.590   5.851  0.7135  1.7185 -0.1775
 4878SOL     OW26095   0.281   3.872   5.823  0.2045 -0.4005  0.5168
 4878SOL    HW126096   0.249   3.883   5.912  0.4546 -0.1206  0.5740
 4878SOL    HW226097   0.201   3.884   5.773 -0.1130 -1.9256  0.6544
 4879SOL     OW26098   3.316   3.620  15.997 -0.8013 -0.2461 -0.2509
 4879SOL    HW126099   3.302   3.547  16.058 -3.3716  0.8831  0.5205
 4879SOL    HW226100   3.248   3.598  15.933 -0.9912 -0.9689  0.1905
 4880SOL     OW26101   3.789   0.023   8.115  0.0828  0.2835 -0.0566
 4880SOL    HW126102   3.854   0.087   8.086  1.1871 -0.8108  0.0281
 4880SOL    HW226103   3.809   4.665   8.073  0.1246  0.4220 -0.3080
 4881SOL     OW26104   1.687   1.316   4.353 -0.1912  0.0804  0.5338
 4881SOL    HW126105   1.659   1.248   4.293  1.5509 -0.5311  0.4146
 4881SOL    HW226106   1.643   1.391   4.313  0.9023 -0.5830 -1.8999
 4882SOL     OW26107   3.476   4.607   7.089 -0.2478 -0.1705 -0.0975
 4882SOL    HW126108   3.479   4.564   7.003 -0.8730 -1.3864  0.4897
 4882SOL    HW226109   3.408   4.559   7.136  0.0281  0.7502  1.2428
 4883SOL     OW26110   4.012   3.429  13.144 -0.3219 -0.4363 -0.5243
 4883SOL    HW126111   3.991   3.339  13.118  0.1102 -0.4843 -0.7063
 4883SOL    HW226112   3.928   3.470  13.162 -0.9415 -1.6017 -0.7379
 4884SOL     OW26113   2.669   0.343   3.865  0.5326  0.2229  0.0993
 4884SOL    HW126114   2.575   0.330   3.856  0.4897  0.1182  0.6773
 4884SOL    HW226115   2.698   0.323   3.776 -0.6763  0.9263 -0.4455
 4885SOL     OW26116   2.965   3.094  10.811 -0.9468 -0.1079 -0.2685
 4885SOL    HW126117   3.036   3.037  10.780 -0.7814 -1.0315  1.7639
 4885SOL    HW226118   3.008   3.170  10.851 -0.6534  1.4099 -3.4800
 4886SOL     OW26119   2.106   4.366  16.234  0.5627  0.1911  0.7200
 4886SOL    HW126120   2.078   4.393  16.322 -3.0271  0.5790 -0.5510
 4886SOL    HW226121   2.134   4.279  16.264 -0.1594 -0.7384 -1.3086
 4887SOL     OW26122   1.417   4.310   9.308 -0.0561 -0.4835 -0.1336
 4887SOL    HW126123   1.354   4.320   9.379  0.9009  0.8938  0.5162
 4887SOL    HW226124   1.358   4.338   9.237 -1.9406 -0.4560  1.4435
 4888SOL     OW26125   0.785   4.666   8.292 -0.1985 -0.1123 -0.0290
 4888SOL    HW126126   0.834   4.724   8.350 -1.9935  1.6460 -0.2844
 4888SOL    HW226127   0.704   4.669   8.342  0.9044  0.4497  1.7258
 4889SOL     OW26128   4.175   0.125   7.602 -0.3892  0.0780  0.4752
 4889SOL    HW126129   4.242   0.073   7.648  0.4526 -0.0193 -0.8784
 4889SOL    HW226130   4.234   0.182   7.554 -1.9344 -0.0611 -1.5530
 4890SOL     OW26131   4.594   0.062   3.779 -0.5869 -0.3935  0.2676
 4890SOL    HW126132   4.572   0.155   3.772  1.5891 -0.1022 -2.5932
 4890SOL    HW226133   4.536   0.040   3.707 -4.3729  1.9907  2.5889
 4891SOL     OW26134   1.861   2.863   9.442 -0.1833  0.1872  0.0393
 4891SOL    HW126135   1.804   2.936   9.464 -1.0016 -0.4545  0.0337
 4891SOL    HW226136   1.922   2.874   9.515 -0.1971  1.2772 -0.1077
 4892SOL     OW26137   4.724   3.758   7.491 -0.6544  0.3746  0.0572
 4892SOL    HW126138   0.035   3.733   7.407 -2.1858  1.4308 -0.9186
 4892SOL    HW226139   0.033   3.845   7.509 -0.0897  0.3436 -0.8783
 4893SOL     OW26140   1.713   1.233   3.469  0.2411 -0.1316  0.1478
 4893SOL    HW126141   1.678   1.281   3.394 -0.2913 -0.7590 -0.0141
 4893SOL    HW226142   1.687   1.286   3.544 -0.2923  1.6143 -1.2755
 4894SOL     OW26143   1.821   1.022   5.824 -0.2484  0.2967  0.2001
 4894SOL    HW126144   1.814   0.927   5.815  1.6582  0.1263  0.4673
 4894SOL    HW226145   1.857   1.028   5.913  0.0400 -2.8238  0.2973
 4895SOL     OW26146   3.782   1.254  12.219  0.0527 -0.0105 -0.3287
 4895SOL    HW126147   3.859   1.304  12.191  0.4210  0.3066  1.2715
 4895SOL    HW226148   3.827   1.211  12.292  0.8002 -0.8633 -1.2814
 4896SOL     OW26149   0.796   0.244   9.208  0.7734  0.1414  0.7466
 4896SOL    HW126150   0.787   0.278   9.297 -0.8727 -1.0704  1.0514
 4896SOL    HW226151   0.890   0.230   9.203  0.5591 -0.9260 -0.2234
 4897SOL     OW26152   2.824   0.474  16.311 -0.1023  0.0178 -1.1147
 4897SOL    HW126153   2.785   0.562  16.312 -0.8929 -0.3309 -3.8402
 4897SOL    HW226154   2.808   0.451  16.403  2.9691  0.9469 -0.3602
 4898SOL     OW26155   3.434   4.480   1.573  0.6309  0.0120 -0.4586
 4898SOL    HW126156   3.338   4.482   1.570  0.5488 -1.0973  1.6526
 4898SOL    HW226157   3.449   4.457   1.664  0.7306 -0.6946 -0.6539
 4899SOL     OW26158   1.160   0.265   4.928  0.3183 -0.1470  0.1283
 4899SOL    HW126159   1.082   0.212   4.911 -1.3533  2.0232  1.0690
 4899SOL    HW226160   1.219   0.196   4.958  0.5252 -0.8355 -1.8833
 4900SOL     OW26161   1.208   1.844  15.299  0.4990  0.0904  0.0482
 4900SOL    HW126162   1.245   1.866  15.384 -0.2128  2.0913 -0.1553
 4900SOL    HW226163   1.121   1.815  15.326  0.4934  1.8561  1.8876
 4901SOL     OW26164   0.786   1.680   7.036  0.1794 -0.8256 -1.1130
 4901SOL    HW126165   0.693   1.670   7.017 -0.2248  1.9574 -0.5072
 4901SOL    HW226166   0.788   1.775   7.042 -1.0862 -0.9634  1.2654
 4902SOL     OW26167   2.292   2.818   6.161  0.3169  0.1367  0.1325
 4902SOL    HW126168   2.351   2.886   6.127 -0.0930  0.3324 -0.1998
 4902SOL    HW226169   2.344   2.742   6.185 -2.5154 -1.9780 -0.5057
 4903SOL     OW26170   3.356   0.108   1.448  0.1910  0.1445 -0.0715
 4903SOL    HW126171   3.291   0.073   1.386  0.2168  1.7467 -0.9942
 4903SOL    HW226172   3.336   0.055   1.525 -0.6756  3.9001  2.2934
 4904SOL     OW26173   0.178   2.920  11.539 -0.0490 -0.4167 -0.6638
 4904SOL    HW126174   0.270   2.944  11.547 -1.0426  3.5732 -1.2390
 4904SOL    HW226175   0.131   2.997  11.570 -0.9793 -0.3379 -2.2237
 4905SOL     OW26176   3.613   4.200   5.201 -0.2359 -0.0857 -0.5002
 4905SOL    HW126177   3.659   4.234   5.278  0.9792  0.1668 -1.3333
 4905SOL    HW226178   3.619   4.265   5.132 -0.3725  0.0557 -0.3781
 4906SOL     OW26179   3.925   2.564   6.666  0.3068  0.5363 -0.3362
 4906SOL    HW126180   3.969   2.624   6.607 -0.1504  1.1840 -0.0241
 4906SOL    HW226181   3.833   2.592   6.668  0.8259  2.2202 -0.3667
 4907SOL     OW26182   4.313   1.488   6.041  0.1624  0.2891  0.6641
 4907SOL    HW126183   4.262   1.539   6.104 -1.4217  0.0563 -0.4288
 4907SOL    HW226184   4.366   1.435   6.100  3.6335  1.4131 -1.5059
 4908SOL     OW26185   2.185   1.904   8.107  0.1947 -0.1260 -0.2555
 4908SOL    HW126186   2.130   1.961   8.053  1.2991  0.1671 -1.0896
 4908SOL    HW226187   2.128   1.833   8.134 -0.3517  0.0487 -0.9361
 4909SOL     OW26188   2.274   1.878   9.379 -0.0437  0.3345  0.6063
 4909SOL    HW126189   2.234   1.799   9.342  1.0543  0.1564 -0.2400
 4909SOL    HW226190   2.365   1.849   9.372 -0.5600 -0.8472 -1.5266
 4910SOL     OW26191   2.928   1.677  10.515  0.0461 -0.1094  0.3820
 4910SOL    HW126192   2.881   1.745  10.468  0.5110  1.7674  2.6631
 4910SOL    HW226193   2.946   1.625  10.436  0.9669 -0.0289  0.5336
 4911SOL     OW26194   0.049   4.646   6.741  0.0240  0.4120 -0.1859
 4911SOL    HW126195   4.718   4.722   6.757  2.6896  2.3837 -0.2136
 4911SOL    HW226196   0.133   4.676   6.775  0.0163 -0.9818  1.0463
 4912SOL     OW26197   2.612   1.525   2.524 -0.2565  0.4957  0.1145
 4912SOL    HW126198   2.566   1.595   2.477 -0.8081  0.3030  0.3604
 4912SOL    HW226199   2.543   1.459   2.536 -0.6079  1.1364  1.5692
 4913SOL     OW26200   1.989   2.754   6.516  0.5438  0.3650  0.2860
 4913SOL    HW126201   1.989   2.809   6.438  1.5488  1.5659  1.1293
 4913SOL    HW226202   1.933   2.681   6.489 -0.2740  0.5582  1.4379
 4914SOL     OW26203   0.769   2.934   5.809  0.6265 -0.1422 -0.0916
 4914SOL    HW126204   0.860   2.919   5.835  0.9217  0.2602 -0.9106
 4914SOL    HW226205   0.750   2.937   5.903  0.0326 -2.3039 -0.1484
 4915SOL     OW26206   0.254   4.149   6.690  0.5829 -0.1637  0.0768
 4915SOL    HW126207   0.203   4.227   6.712  1.5378 -0.0185  1.8225
 4915SOL    HW226208   0.336   4.192   6.665 -0.4675  1.9266  0.2599
 4916SOL     OW26209   1.023   2.485   4.378  0.6165 -0.0295  0.4318
 4916SOL    HW126210   1.068   2.439   4.307  0.9059  1.1658 -0.1604
 4916SOL    HW226211   1.039   2.571   4.339 -0.2146 -0.0618  0.0092
 4917SOL     OW26212   0.350   3.099  10.204 -0.0953  0.3178 -0.7535
 4917SOL    HW126213   0.420   3.104  10.138  1.4020 -1.3784  0.7129
 4917SOL    HW226214   0.351   3.008  10.233 -0.8597  0.4856 -0.2146
 4918SOL     OW26215   2.038   1.589   3.436 -0.0443 -0.0868 -0.3879
 4918SOL    HW126216   2.039   1.494   3.445 -4.1523 -0.0121  0.8659
 4918SOL    HW226217   1.959   1.607   3.386  0.3481 -1.0809 -1.3606
 4919SOL     OW26218   3.853   2.882   6.146  0.1280  0.0886 -0.0275
 4919SOL    HW126219   3.814   2.798   6.121  1.2041 -0.5325  0.3878
 4919SOL    HW226220   3.943   2.854   6.160 -0.0373 -0.2869  0.3076
 4920SOL     OW26221   4.711   4.311   5.183  0.5468  0.3404  0.4634
 4920SOL    HW126222   0.045   4.382   5.156  0.5771 -0.1727 -0.8329
 4920SOL    HW226223   4.641   4.364   5.222  0.6505  0.5822  0.3223
 4921SOL     OW26224   4.007   4.721   6.789  0.2312  0.3722 -0.1552
 4921SOL    HW126225   4.062   4.696   6.863  2.7426  1.5027 -1.6162
 4921SOL    HW226226   4.031   4.660   6.719 -0.2370 -0.0105  0.0225
 4922SOL     OW26227   2.586   4.648   0.385  0.1562 -0.3908  0.0547
 4922SOL    HW126228   2.503   4.655   0.432 -0.6776 -2.5998 -1.0670
 4922SOL    HW226229   2.640   4.707   0.437  4.9333 -2.5283 -2.4464
 4923SOL     OW26230   1.327   1.222   5.344  0.9314  0.3101 -0.0658
 4923SOL    HW126231   1.400   1.250   5.399  0.2284 -0.3456  1.1723
 4923SOL    HW226232   1.265   1.293   5.362 -0.9486 -1.2754 -0.2511
 4924SOL     OW26233   1.579   0.605   3.239  0.5866  0.0263 -0.2618
 4924SOL    HW126234   1.538   0.659   3.172 -0.2495  1.4361  1.3995
 4924SOL    HW226235   1.655   0.660   3.259  0.6741 -0.3716  0.4998
 4925SOL     OW26236   3.443   3.532   9.770  0.1216  0.2169  0.6946
 4925SOL    HW126237   3.458   3.506   9.679 -1.9333  0.5431  0.2656
 4925SOL    HW226238   3.433   3.447   9.813 -1.4438 -0.4251 -0.8983
 4926SOL     OW26239   1.239   2.105   2.446  0.0301 -0.0708 -0.4286
 4926SOL    HW126240   1.164   2.128   2.501  0.0205  0.2953 -0.5988
 4926SOL    HW226241   1.225   2.155   2.367 -1.2253  0.1103 -0.0945
 4927SOL     OW26242   3.269   0.494   4.400 -0.6811 -0.2640  0.5209
 4927SOL    HW126243   3.192   0.456   4.442 -3.4029  2.1717 -2.2185
 4927SOL    HW226244   3.292   0.419   4.345  0.4591 -0.3042  1.0410
 4928SOL     OW26245   3.966   1.450   8.142  0.7852  0.5829  0.7575
 4928SOL    HW126246   3.984   1.544   8.142 -0.0692  0.7421  2.5411
 4928SOL    HW226247   3.871   1.441   8.153  1.0203 -3.1814 -0.0089
 4929SOL     OW26248   4.421   1.906   0.674 -0.2134 -0.2078 -0.2449
 4929SOL    HW126249   4.343   1.940   0.718 -0.2372  0.6868 -0.9737
 4929SOL    HW226250   4.484   1.974   0.698  0.6430 -1.3590  0.7963
 4930SOL     OW26251   0.259   0.100  10.001  0.1566  0.1997  0.3765
 4930SOL    HW126252   0.258   0.165   9.931  0.5339  0.9460  1.0682
 4930SOL    HW226253   0.297   0.158  10.066  0.1318 -1.1203  1.5709
 4931SOL     OW26254   3.876   0.599   1.806 -0.4575 -0.5596  0.5530
 4931SOL    HW126255   3.907   0.681   1.844 -0.5074 -0.4313  0.3157
 4931SOL    HW226256   3.883   0.620   1.713  1.3608 -3.4519  0.0443
 4932SOL     OW26257   0.066   2.389   1.776 -0.4177  0.2748  0.0080
 4932SOL    HW126258   4.703   2.416   1.804 -1.9007 -1.7164 -2.6767
 4932SOL    HW226259   0.122   2.435   1.838 -0.8701  2.3291 -1.1147
 4933SOL     OW26260   3.911   4.012   5.070 -0.2490  0.0960 -0.3470
 4933SOL    HW126261   3.906   4.108   5.078 -1.9516 -0.1854  1.7317
 4933SOL    HW226262   3.939   3.991   5.159 -2.2507  1.4516  0.6134
 4934SOL     OW26263   2.119   0.147   6.357  0.0703 -0.1626 -1.0060
 4934SOL    HW126264   2.035   0.117   6.389  0.0337 -1.5127 -2.3345
 4934SOL    HW226265   2.102   0.241   6.358 -0.7408 -0.3474  1.8660
 4935SOL     OW26266   0.366   3.488   8.508 -0.3880  0.0073  0.3247
 4935SOL    HW126267   0.388   3.403   8.469  1.3228  0.9498 -0.7733
 4935SOL    HW226268   0.273   3.475   8.524 -0.3578 -1.4831 -0.6811
 4936SOL     OW26269   1.597   2.299   2.797 -0.4389 -0.2166 -0.0964
 4936SOL    HW126270   1.680   2.264   2.765  0.4767  0.6561  1.3778
 4936SOL    HW226271   1.538   2.254   2.736 -0.0891 -0.8917  0.0639
 4937SOL     OW26272   0.041   4.571   4.150 -0.0129 -0.1473  1.0309
 4937SOL    HW126273   4.718   4.528   4.220  0.9891 -0.4398  1.5387
 4937SOL    HW226274   0.005   4.521   4.077  1.5027  0.5666 -0.2206
 4938SOL     OW26275   0.700   1.017   1.581  0.0534  0.0449 -0.6528
 4938SOL    HW126276   0.725   0.996   1.672 -2.0761  0.4389  0.0065
 4938SOL    HW226277   0.676   0.932   1.545  0.9673  0.4502 -2.2054
 4939SOL     OW26278   2.659   2.596   0.732 -0.0119  0.4398  0.0940
 4939SOL    HW126279   2.568   2.618   0.712 -0.6320 -0.6893  1.6029
 4939SOL    HW226280   2.644   2.533   0.803  1.8429  0.6890  0.7229
 4940SOL     OW26281   1.908   2.607   8.659 -0.6238  0.0971 -0.0841
 4940SOL    HW126282   1.904   2.574   8.749 -0.3513 -0.7319 -0.3770
 4940SOL    HW226283   1.940   2.526   8.620 -0.5752 -0.0022  0.1569
 4941SOL     OW26284   3.808   3.325  14.732  0.0847 -0.5258 -0.0243
 4941SOL    HW126285   3.731   3.359  14.778  0.0962 -0.9500  0.3034
 4941SOL    HW226286   3.874   3.332  14.802 -1.5413  3.4201  1.1285
 4942SOL     OW26287   4.338   1.954  12.557 -0.2553  0.1412  0.0424
 4942SOL    HW126288   4.302   2.006  12.485  1.5408  2.6565  0.9561
 4942SOL    HW226289   4.420   1.925  12.518 -1.2414  0.8288 -2.5216
 4943SOL     OW26290   2.571   0.174   7.036  0.1100  0.7548 -0.8153
 4943SOL    HW126291   2.585   0.105   6.972  0.3403 -0.7420  0.8573
 4943SOL    HW226292   2.477   0.193   7.028 -0.3639 -0.9032  0.9381
 4944SOL     OW26293   0.568   0.303   9.578  0.3834  0.0863 -0.0281
 4944SOL    HW126294   0.534   0.392   9.578  0.3240  0.0665  2.1706
 4944SOL    HW226295   0.663   0.314   9.576  0.1795  1.8144  0.5903
 4945SOL     OW26296   1.365   3.079   9.211  0.4376 -0.5306 -0.0881
 4945SOL    HW126297   1.357   3.065   9.305 -1.6979 -0.6159 -0.2686
 4945SOL    HW226298   1.442   3.135   9.207 -1.2628  1.9706  1.4406
 4946SOL     OW26299   4.644   4.307   4.725 -0.0779 -0.5210 -0.0439
 4946SOL    HW126300   4.614   4.257   4.801 -0.0203 -0.8695 -0.2472
 4946SOL    HW226301   0.013   4.289   4.717  0.3133  2.2527 -1.5290
 4947SOL     OW26302   3.171   2.887   7.917  0.0727  0.0767  0.1342
 4947SOL    HW126303   3.139   2.966   7.873 -0.3452 -0.5238 -0.6566
 4947SOL    HW226304   3.177   2.820   7.848 -1.0251  0.4794 -0.3463
 4948SOL     OW26305   2.600   4.349   4.430 -0.3222 -0.0970  0.0127
 4948SOL    HW126306   2.632   4.431   4.470  1.3710 -0.3323 -0.8636
 4948SOL    HW226307   2.583   4.292   4.505 -0.1210 -1.1984 -0.7788
 4949SOL     OW26308   2.949   1.110   2.260  0.7148 -0.0329 -0.3390
 4949SOL    HW126309   2.898   1.175   2.308 -0.8618  0.3572 -2.5315
 4949SOL    HW226310   3.029   1.155   2.232  0.1426  1.0373 -0.2591
 4950SOL     OW26311   2.985   0.011  14.044  0.8151 -0.0295 -0.4881
 4950SOL    HW126312   3.066   4.707  14.087 -1.1356 -1.5993  2.1318
 4950SOL    HW226313   2.955   0.072  14.111  0.0064 -0.9177 -0.0482
 4951SOL     OW26314   2.896   3.917   3.679 -0.3640 -0.2475  0.2814
 4951SOL    HW126315   2.904   3.976   3.604 -0.8183  0.7671  1.0264
 4951SOL    HW226316   2.805   3.887   3.672 -1.5683  3.2268  0.8300
 4952SOL     OW26317   3.438   2.187   9.937  0.9924  0.2836  1.0615
 4952SOL    HW126318   3.520   2.236   9.929 -0.7482  3.0654  0.4006
 4952SOL    HW226319   3.386   2.236  10.001 -0.4452 -1.7329  1.4416
 4953SOL     OW26320   4.156   2.232   3.720 -0.2569  0.0148  0.2417
 4953SOL    HW126321   4.166   2.212   3.627  1.4629  1.8703  0.0280
 4953SOL    HW226322   4.172   2.325   3.705  1.9086 -0.7035 -2.0750
 4954SOL     OW26323   3.676   0.843   0.193 -0.0317 -0.2177 -0.0755
 4954SOL    HW126324   3.713   0.804   0.272 -0.2844  0.7701  0.5181
 4954SOL    HW226325   3.738   0.911   0.169 -1.0051  0.9110  0.6123
 4955SOL     OW26326   2.408   3.464  16.712  0.1953 -0.2059  0.4799
 4955SOL    HW126327   2.359   3.386  16.683 -0.1116 -0.6878  2.2955
 4955SOL    HW226328   2.338   3.510  16.757 -1.3315 -0.3314 -1.7538
 4956SOL     OW26329   2.754   0.698   4.816  0.4280 -0.5994  0.3097
 4956SOL    HW126330   2.670   0.659   4.793 -0.0380  0.0573  0.9004
 4956SOL    HW226331   2.807   0.668   4.742  0.0620  1.9881 -0.9880
 4957SOL     OW26332   1.403   1.004   3.048  0.3129 -0.0508 -0.1161
 4957SOL    HW126333   1.383   0.915   3.020 -0.8869 -0.0582  0.7382
 4957SOL    HW226334   1.460   0.994   3.125 -2.2591  0.2182  1.8263
 4958SOL     OW26335   4.403   0.202  14.521  0.0072  0.4891 -0.3638
 4958SOL    HW126336   4.378   0.179  14.610 -0.6442  1.3589 -0.3198
 4958SOL    HW226337   4.396   0.298  14.518 -1.0278  0.3972 -0.9644
 4959SOL     OW26338   4.324   1.434   1.029  0.4767  0.0645  0.3559
 4959SOL    HW126339   4.368   1.460   1.110 -0.2067 -0.5714  0.9188
 4959SOL    HW226340   4.269   1.513   1.031  3.3766  2.0055  3.3861
 4960SOL     OW26341   4.288   3.996   3.023  0.1402 -0.0234  0.4102
 4960SOL    HW126342   4.378   3.966   3.009 -0.0422 -0.7948  0.8938
 4960SOL    HW226343   4.301   4.061   3.092  0.7757 -0.5805  0.8152
 4961SOL     OW26344   3.812   4.464   4.802  0.2738 -0.1175 -0.1157
 4961SOL    HW126345   3.867   4.387   4.787  1.1905 -0.2385  3.9592
 4961SOL    HW226346   3.873   4.533   4.774  0.4151  0.0293  0.5647
 4962SOL     OW26347   0.576   3.566   2.578 -0.3314 -0.8108 -0.1988
 4962SOL    HW126348   0.660   3.609   2.594 -0.7577  0.6877 -1.9581
 4962SOL    HW226349   0.521   3.644   2.586  1.7221  0.1884  3.9097
 4963SOL     OW26350   0.719   2.344   1.416 -0.9104  0.6454  0.0023
 4963SOL    HW126351   0.730   2.424   1.469  1.0979 -0.4090  1.1586
 4963SOL    HW226352   0.790   2.286   1.442  0.2239  1.3400 -1.5906
 4964SOL     OW26353   0.325   1.804   6.482  0.2886  0.4392 -0.0184
 4964SOL    HW126354   0.244   1.758   6.459  1.5507 -1.4336 -0.7173
 4964SOL    HW226355   0.319   1.825   6.575 -0.4635  1.4086 -0.2858
 4965SOL     OW26356   2.310   4.456   7.039 -0.4785 -0.3455 -0.0644
 4965SOL    HW126357   2.275   4.513   6.971  0.0742 -0.8113 -0.7414
 4965SOL    HW226358   2.257   4.476   7.116 -0.6727 -1.4548  0.0995
 4966SOL     OW26359   4.676   0.218  13.638  0.1268  0.1520  0.3895
 4966SOL    HW126360   4.604   0.206  13.700 -1.7208  2.0947 -1.3712
 4966SOL    HW226361   4.708   0.130  13.620 -0.0834  0.2238 -0.3320
 4967SOL     OW26362   3.222   3.185   2.767 -0.1724  0.3701 -0.0814
 4967SOL    HW126363   3.242   3.183   2.861 -2.3010  0.9391  0.3640
 4967SOL    HW226364   3.170   3.264   2.755  1.9484  1.8938  0.6881
 4968SOL     OW26365   2.123   4.059   1.546  0.1624  0.1194 -0.2965
 4968SOL    HW126366   2.188   4.127   1.525  0.1677  0.0325 -0.5547
 4968SOL    HW226367   2.118   4.022   1.458 -3.0153  1.9646 -0.9196
 4969SOL     OW26368   4.103   3.771  12.722 -0.2225 -0.3678  0.2060
 4969SOL    HW126369   4.107   3.705  12.654  0.1410 -1.3669  1.1914
 4969SOL    HW226370   4.196   3.795  12.724 -0.1466 -0.7181  0.9957
 4970SOL     OW26371   0.459   2.225   0.619  0.3412 -0.3579 -0.3604
 4970SOL    HW126372   0.374   2.212   0.662  0.3838  0.9115  0.0973
 4970SOL    HW226373   0.513   2.271   0.683 -0.6463  0.4419 -0.1011
 4971SOL     OW26374   4.180   2.434   9.191 -0.2182  0.2310 -0.1742
 4971SOL    HW126375   4.202   2.411   9.281 -1.1834 -0.2232 -0.0576
 4971SOL    HW226376   4.252   2.493   9.167  0.0862 -0.3057 -0.5682
 4972SOL     OW26377   1.073   1.506   6.920 -0.0856 -0.2240  0.1642
 4972SOL    HW126378   1.074   1.448   6.844  0.0185  1.0562 -0.8071
 4972SOL    HW226379   1.060   1.447   6.995 -1.0395  0.2793  0.3951
 4973SOL     OW26380   3.968   2.769   1.667 -0.1952 -0.7315 -0.1879
 4973SOL    HW126381   3.911   2.845   1.682 -0.6575 -1.0314 -0.4329
 4973SOL    HW226382   3.908   2.700   1.639  0.2178 -0.5805 -1.4312
 4974SOL     OW26383   4.679   4.144  14.637  0.1220 -0.2829 -0.2917
 4974SOL    HW126384   0.009   4.222  14.650  0.2395 -0.6594  1.4181
 4974SOL    HW226385   4.680   4.115  14.728 -3.1019  1.2667  0.2191
 4975SOL     OW26386   1.982   0.533  15.951  0.2030  0.2000  0.0246
 4975SOL    HW126387   1.894   0.494  15.954  0.1685  0.0859 -2.6264
 4975SOL    HW226388   1.993   0.545  16.046 -0.4224  0.6357  0.0421
 4976SOL     OW26389   1.457   3.351   6.537 -0.2343  0.5480 -0.1426
 4976SOL    HW126390   1.544   3.340   6.500  0.3041 -2.5476  2.0387
 4976SOL    HW226391   1.411   3.372   6.456 -2.6607  1.1526  1.3616
 4977SOL     OW26392   4.207   0.016   3.278 -0.0195  0.0906  0.0088
 4977SOL    HW126393   4.137   4.695   3.325  1.6844 -0.1095  2.3521
 4977SOL    HW226394   4.171   0.104   3.266  0.3386  0.0292 -1.5477
 4978SOL     OW26395   0.420   3.834   4.316 -0.2806  0.6151 -0.1986
 4978SOL    HW126396   0.451   3.871   4.399  4.9634 -0.9419 -1.4877
 4978SOL    HW226397   0.500   3.831   4.264  0.6500 -0.6898  1.3147
 4979SOL     OW26398   4.149   0.480   1.329  0.1122 -0.6981 -0.3581
 4979SOL    HW126399   4.147   0.511   1.239 -1.1735 -0.1660 -0.1418
 4979SOL    HW226400   4.234   0.518   1.352  0.1721 -1.0659  0.0375
 4980SOL     OW26401   1.805   2.571  15.202  0.9236  0.5843 -0.5790
 4980SOL    HW126402   1.714   2.567  15.232  0.6484  0.1840 -1.4488
 4980SOL    HW226403   1.841   2.639  15.259 -0.0936 -0.9798  1.9251
 4981SOL     OW26404   0.565   3.697   3.076 -0.0591 -0.6960 -0.6171
 4981SOL    HW126405   0.500   3.759   3.041  1.2327 -0.2681 -2.2702
 4981SOL    HW226406   0.520   3.613   3.066 -2.0308  0.5563 -2.6022
 4982SOL     OW26407   2.811   0.790   0.080  0.1307 -0.0731  0.1389
 4982SOL    HW126408   2.754   0.865   0.095 -0.9202 -0.8163 -0.1552
 4982SOL    HW226409   2.830   0.802  17.687 -1.2032 -1.2696 -0.2942
 4983SOL     OW26410   1.597   4.700   5.822 -0.9150  0.3656  0.3768
 4983SOL    HW126411   1.601   4.604   5.820  0.8873  0.4476  0.4066
 4983SOL    HW226412   1.627   4.713   5.733  1.6492  0.0929  1.2151
 4984SOL     OW26413   2.888   3.894  16.470  0.1611 -0.2099  0.8455
 4984SOL    HW126414   2.913   3.830  16.403  0.4219 -1.4701  2.1587
 4984SOL    HW226415   2.795   3.902  16.446  0.0410  0.3661  1.5117
 4985SOL     OW26416   3.042   3.527   8.768 -0.6739 -0.4033  0.1367
 4985SOL    HW126417   3.030   3.472   8.845 -0.8019 -1.4537 -0.6344
 4985SOL    HW226418   3.115   3.578   8.803 -3.2299  2.2252  1.7450
 4986SOL     OW26419   1.446   1.909  13.221 -0.2988 -0.2446 -0.7104
 4986SOL    HW126420   1.513   1.936  13.284 -0.5350 -0.0620 -0.5373
 4986SOL    HW226421   1.411   1.994  13.193  1.0864  0.8145  0.7551
 4987SOL     OW26422   4.233   2.133   2.313  0.0995  0.2092  0.3555
 4987SOL    HW126423   4.165   2.200   2.312  0.5266  0.6475  0.9565
 4987SOL    HW226424   4.271   2.145   2.399  0.6996 -2.9660  0.5464
 4988SOL     OW26425   2.734   1.603   8.971  0.4773 -0.4102  0.3164
 4988SOL    HW126426   2.678   1.555   9.032 -1.9402  0.6112 -1.1147
 4988SOL    HW226427   2.696   1.689   8.955 -0.1738 -0.9329 -1.0203
 4989SOL     OW26428   3.624   2.219   8.708  0.0715 -0.0735 -0.3116
 4989SOL    HW126429   3.610   2.292   8.768 -0.2449 -0.3326 -0.0751
 4989SOL    HW226430   3.676   2.165   8.768  0.2868 -1.4721 -1.7499
 4990SOL     OW26431   3.060   3.119   8.426  0.8070 -0.8615  0.6071
 4990SOL    HW126432   2.983   3.064   8.414  0.1526  0.1875  0.0599
 4990SOL    HW226433   3.028   3.193   8.476  1.6730  0.4520 -0.7798
 4991SOL     OW26434   0.142   4.654   5.084 -0.3646  0.8408  0.1901
 4991SOL    HW126435   0.094   0.010   5.101  2.4020  2.4255  0.4474
 4991SOL    HW226436   0.180   4.678   4.999  0.7026  0.0207  0.4285
 4992SOL     OW26437   3.508   0.333   6.449  0.4274  0.1807  0.5422
 4992SOL    HW126438   3.424   0.287   6.451 -0.2119  1.3145 -0.2650
 4992SOL    HW226439   3.569   0.260   6.438 -0.2334 -0.0011 -1.8637
 4993SOL     OW26440   2.680   4.660   5.792  0.4769 -0.5059 -0.7085
 4993SOL    HW126441   2.724   0.010   5.831 -0.5474 -0.1531 -0.2388
 4993SOL    HW226442   2.750   4.595   5.798  1.2206  0.2426 -1.2642
 4994SOL     OW26443   1.670   0.513   0.231  0.5310  0.2385 -0.2810
 4994SOL    HW126444   1.700   0.604   0.219 -0.0501  0.3377 -0.9925
 4994SOL    HW226445   1.694   0.497   0.323 -0.7250 -1.2187 -0.2155
 4995SOL     OW26446   0.342   1.685   6.203 -0.5210 -0.4032  0.2384
 4995SOL    HW126447   0.316   1.767   6.244  2.4396  1.2512 -1.2135
 4995SOL    HW226448   0.428   1.676   6.245  0.8084 -0.1079 -2.3572
 4996SOL     OW26449   2.758   2.657   9.403 -0.3943  0.4275  0.2386
 4996SOL    HW126450   2.689   2.722   9.396 -0.8866 -0.3080 -1.5153
 4996SOL    HW226451   2.845   2.698   9.396 -0.5452  0.3386 -2.1983
 4997SOL     OW26452   0.142   3.351   9.108 -0.2992  0.1946 -0.3616
 4997SOL    HW126453   0.164   3.356   9.015 -1.1406 -0.0927 -0.5759
 4997SOL    HW226454   0.057   3.308   9.115  0.3478 -0.6847  2.2408
 4998SOL     OW26455   4.448   3.807  15.224 -0.2678  0.1012  0.3751
 4998SOL    HW126456   4.518   3.827  15.286  0.1815  0.5012 -0.2527
 4998SOL    HW226457   4.405   3.733  15.266  0.3508 -0.3969  0.1225
 4999SOL     OW26458   2.149   3.960   7.975  0.4286  0.6011  0.2003
 4999SOL    HW126459   2.210   3.940   7.903 -2.4885  1.2355 -2.4455
 4999SOL    HW226460   2.088   4.018   7.930 -0.0266 -0.1656 -0.1777
 5000SOL     OW26461   2.870   3.965  17.693 -0.0649  0.3119  1.1673
 5000SOL    HW126462   2.793   3.988   0.045 -1.2566  1.1996 -0.9563
 5000SOL    HW226463   2.855   3.872  17.682  0.7059  0.4397 -0.9560
 5001SOL     OW26464   0.593   0.120   5.663  0.1016  0.3601  0.0041
 5001SOL    HW126465   0.511   0.167   5.648 -1.8236 -2.2423  2.2973
 5001SOL    HW226466   0.584   0.124   5.758  2.3609  0.2095  0.2232
 5002SOL     OW26467   3.287   3.656   3.206 -0.0845 -0.6413 -0.1798
 5002SOL    HW126468   3.377   3.678   3.184 -0.3519 -0.6475 -1.2496
 5002SOL    HW226469   3.250   3.718   3.144  0.3258 -0.5620 -0.3415
 5003SOL     OW26470   3.133   1.914   8.775  0.1878 -0.3047  0.0326
 5003SOL    HW126471   3.225   1.933   8.760  0.5547 -1.3864  0.9268
 5003SOL    HW226472   3.094   1.897   8.689 -3.2133  1.5816  1.1883
 5004SOL     OW26473   2.153   0.543   2.942  0.0382 -0.7278 -0.4702
 5004SOL    HW126474   2.060   0.546   2.922  0.3082  0.4663 -1.5116
 5004SOL    HW226475   2.160   0.630   2.980  2.1270 -0.2507 -1.9776
 5005SOL     OW26476   4.685   1.378  15.258  0.2646 -0.4243 -0.5435
 5005SOL    HW126477   4.639   1.416  15.333  1.1684  0.4379 -0.4213
 5005SOL    HW226478   4.656   1.287  15.268  0.1445 -0.1127  1.9507
 5006SOL     OW26479   4.654   1.383   4.277 -0.4955 -0.4385  0.2262
 5006SOL    HW126480   0.016   1.386   4.235 -1.3648  3.2045 -1.3817
 5006SOL    HW226481   4.607   1.334   4.209  0.1073  0.5816 -0.9463
 5007SOL     OW26482   4.507   0.208   8.060 -0.1176 -0.0280  0.1549
 5007SOL    HW126483   4.546   0.136   8.110  0.4316  0.1644  0.0092
 5007SOL    HW226484   4.448   0.245   8.125 -0.5853  0.6204 -0.6426
 5008SOL     OW26485   0.924   1.484   3.550 -0.5390  0.3914 -0.3452
 5008SOL    HW126486   0.927   1.571   3.510 -3.3796  1.5617  1.9874
 5008SOL    HW226487   0.969   1.495   3.634  0.1244  0.7131 -0.7367
 5009SOL     OW26488   3.893   1.348  13.132  0.1017 -0.0169 -0.0246
 5009SOL    HW126489   3.937   1.413  13.188  0.6547  0.2573 -0.7741
 5009SOL    HW226490   3.951   1.351  13.056  0.8257 -1.7431  0.4652
 5010SOL     OW26491   0.631   1.925   0.524 -0.6433 -0.7171 -0.0748
 5010SOL    HW126492   0.691   1.955   0.456  0.5373 -1.6321  0.5430
 5010SOL    HW226493   0.690   1.895   0.593  0.3394  1.6858  0.1291
 5011SOL     OW26494   0.044   0.607   7.866 -0.1284 -0.8378 -0.5436
 5011SOL    HW126495   4.678   0.616   7.897 -0.7192 -1.5022 -2.0834
 5011SOL    HW226496   0.043   0.657   7.785 -0.0719 -0.3625 -0.2499
 5012SOL     OW26497   2.348   2.073   7.003 -0.0274 -0.3441  0.0832
 5012SOL    HW126498   2.327   2.135   7.073 -0.2979 -1.7939  1.2798
 5012SOL    HW226499   2.324   1.994   7.051 -1.3805 -0.0131 -0.0565
 5013SOL     OW26500   1.052   3.668   8.178 -0.4230  0.1429  0.8138
 5013SOL    HW126501   1.062   3.618   8.097  0.4853  0.6658  0.5998
 5013SOL    HW226502   0.962   3.699   8.178 -0.0324  1.2671  0.4965
 5014SOL     OW26503   3.725   2.432  16.820  0.0628 -0.1041 -0.4038
 5014SOL    HW126504   3.792   2.494  16.791  0.1722 -0.5780 -1.1328
 5014SOL    HW226505   3.748   2.344  16.793  0.6641  0.5266 -1.9255
 5015SOL     OW26506   2.190   4.187   1.090 -1.1995 -0.2211  0.1759
 5015SOL    HW126507   2.126   4.203   1.160  0.0807 -0.4826  1.3887
 5015SOL    HW226508   2.271   4.232   1.113 -0.4684 -0.1519 -2.5097
 5016SOL     OW26509   3.560   3.486  13.337 -0.5003  0.2466  0.6145
 5016SOL    HW126510   3.597   3.508  13.423 -0.2632  0.2840  0.5043
 5016SOL    HW226511   3.503   3.410  13.351 -1.6493  0.9239 -0.3943
 5017SOL     OW26512   3.709   2.628   2.159 -0.2446 -0.3686  0.1869
 5017SOL    HW126513   3.665   2.545   2.141 -0.9358  0.6570 -2.8969
 5017SOL    HW226514   3.670   2.676   2.086  0.8404 -0.9702 -0.8046
 5018SOL     OW26515   2.875   1.578  10.236 -0.0255  0.1908  0.3103
 5018SOL    HW126516   2.953   1.550  10.188 -1.1758 -2.6922  0.1228
 5018SOL    HW226517   2.810   1.578  10.166  0.0970  1.5543  0.1941
 5019SOL     OW26518   2.636   3.827  11.291 -0.2142  0.0145  0.1999
 5019SOL    HW126519   2.701   3.756  11.290  0.7712  0.8856  2.5832
 5019SOL    HW226520   2.554   3.787  11.263 -0.5634  1.0228 -0.2191
 5020SOL     OW26521   4.438   4.707   4.523  0.0567  0.1386  0.5732
 5020SOL    HW126522   4.534   4.710   4.517 -0.0941 -0.6187 -2.1726
 5020SOL    HW226523   4.425   4.618   4.491 -1.1905  0.7919 -0.7348
 5021SOL     OW26524   0.268   3.233  16.836 -0.3847 -0.3582  0.1725
 5021SOL    HW126525   0.243   3.165  16.775 -0.7803  0.4398 -0.5506
 5021SOL    HW226526   0.191   3.236  16.893  1.0137 -0.9188  2.0828
 5022SOL     OW26527   1.120   4.570   0.232 -0.1462 -0.4949 -0.2243
 5022SOL    HW126528   1.095   4.493   0.283 -2.9855  2.1514  2.3425
 5022SOL    HW226529   1.212   4.578   0.255  0.0712 -0.7854 -0.9713
 5023SOL     OW26530   2.211   2.795   6.656 -0.1539  0.2232 -0.7229
 5023SOL    HW126531   2.281   2.760   6.601  0.3606  1.1428 -0.6584
 5023SOL    HW226532   2.136   2.787   6.597 -0.7491  1.6288 -0.1705
 5024SOL     OW26533   4.299   2.249   8.789 -0.4334 -0.2084  0.0461
 5024SOL    HW126534   4.280   2.172   8.735 -0.7432 -0.6564  0.7885
 5024SOL    HW226535   4.351   2.298   8.726  1.1518  0.2752  1.7492
 5025SOL     OW26536   3.303   2.557  10.548  0.5416 -0.5271  0.2517
 5025SOL    HW126537   3.325   2.645  10.515  0.1956 -1.1486 -1.6136
 5025SOL    HW226538   3.209   2.565  10.564  0.3749 -1.5584 -0.2505
 5026SOL     OW26539   2.241   0.996  11.903 -0.0109  0.2829 -0.4272
 5026SOL    HW126540   2.202   1.031  11.823  2.0255  0.9597 -1.1217
 5026SOL    HW226541   2.264   0.909  11.870 -1.1070 -0.0310 -0.3832
 5027SOL     OW26542   4.607   4.477   7.399 -0.4552  0.2972  0.3630
 5027SOL    HW126543   4.573   4.447   7.484 -0.4886 -0.0700  0.2207
 5027SOL    HW226544   4.536   4.451   7.340  2.4055  0.2109 -3.0624
 5028SOL     OW26545   4.311   4.497   5.614 -0.7285 -0.1613 -0.3327
 5028SOL    HW126546   4.263   4.575   5.587 -1.3840 -0.4148  0.0966
 5028SOL    HW226547   4.324   4.524   5.705 -1.7918  0.1491 -0.2791
 5029SOL     OW26548   3.150   4.380  17.682  0.4740  0.3257 -0.3785
 5029SOL    HW126549   3.084   4.333  17.630 -0.0536 -0.5231  1.0398
 5029SOL    HW226550   3.116   4.469  17.692  1.7231  0.6272  1.0620
 5030SOL     OW26551   1.729   0.471  16.022  0.4561  0.5203 -0.2206
 5030SOL    HW126552   1.666   0.406  15.992 -2.4466  2.2209  2.0678
 5030SOL    HW226553   1.685   0.550  15.989 -0.9184  0.3099  1.1272
 5031SOL     OW26554   2.031   1.703   8.197 -0.2513 -0.2444 -0.5562
 5031SOL    HW126555   2.021   1.657   8.280  2.2461 -2.0980 -1.2911
 5031SOL    HW226556   2.018   1.624   8.144  0.3769 -1.1089  0.5690
 5032SOL     OW26557   4.021   1.096   2.058 -0.7037  0.2082  0.6521
 5032SOL    HW126558   3.966   1.141   1.994  0.1235  1.8042  1.0584
 5032SOL    HW226559   4.067   1.171   2.096 -1.4350  0.7546  0.4651
 5033SOL     OW26560   2.628   1.102   7.446  0.1175 -0.6322 -0.2591
 5033SOL    HW126561   2.535   1.125   7.449  0.8788  2.3040  1.2380
 5033SOL    HW226562   2.641   1.136   7.357 -2.5908  0.4335 -0.2701
 5034SOL     OW26563   0.386   4.104   2.631  0.0098 -0.2859 -0.1816
 5034SOL    HW126564   0.452   4.114   2.562 -1.0379  3.7685 -0.5917
 5034SOL    HW226565   0.426   4.138   2.711  1.2067 -1.7784 -0.1395
 5035SOL     OW26566   2.337   1.117   8.365  0.0772 -0.0037  0.5733
 5035SOL    HW126567   2.283   1.088   8.291 -1.3335 -0.9549  1.9610
 5035SOL    HW226568   2.314   1.209   8.360 -1.1106 -0.3015  0.4318
 5036SOL     OW26569   1.113   0.353   0.829 -0.2706 -0.2652 -0.0831
 5036SOL    HW126570   1.102   0.258   0.828  1.8511 -0.5099 -0.0686
 5036SOL    HW226571   1.066   0.377   0.749  1.5492  0.0856 -1.0447
 5037SOL     OW26572   0.904   2.907   6.900 -0.5405  1.0632 -0.1949
 5037SOL    HW126573   0.835   2.894   6.835 -0.1694 -1.8680 -0.0091
 5037SOL    HW226574   0.978   2.919   6.840  1.4412 -1.9454  1.6294
 5038SOL     OW26575   4.000   0.982   3.038 -0.3251 -0.3119  0.2537
 5038SOL    HW126576   3.975   0.894   3.068 -1.7373  0.7178  2.0325
 5038SOL    HW226577   4.045   0.964   2.955  0.2005 -1.4774  0.7885
 5039SOL     OW26578   4.385   3.155   3.551  0.2563 -0.0931 -0.2068
 5039SOL    HW126579   4.453   3.090   3.566 -0.3930 -0.2251  2.1797
 5039SOL    HW226580   4.387   3.210   3.629 -2.0005 -0.4320  0.1007
 5040SOL     OW26581   1.247   2.086   8.263  0.1196 -0.1708  0.2929
 5040SOL    HW126582   1.203   2.118   8.185 -0.2137 -0.5048  0.3484
 5040SOL    HW226583   1.215   2.152   8.325  0.2686 -0.8726  1.1228
 5041SOL     OW26584   2.579   2.185  11.869 -0.0896  0.0408 -0.2219
 5041SOL    HW126585   2.509   2.244  11.900  2.3639  2.3405  0.9201
 5041SOL    HW226586   2.649   2.228  11.919 -0.6327  0.9242 -0.2058
 5042SOL     OW26587   1.319   2.665   4.541 -0.8513  0.1461  0.4065
 5042SOL    HW126588   1.339   2.588   4.595 -0.4234  0.3187  0.4966
 5042SOL    HW226589   1.370   2.732   4.587  3.5316 -2.5278 -0.5874
 5043SOL     OW26590   0.671   0.631   0.958  0.0651 -0.0256  0.0448
 5043SOL    HW126591   0.711   0.584   0.885 -0.8500  2.0397 -1.7703
 5043SOL    HW226592   0.642   0.560   1.016  1.9488  0.8354  2.0316
 5044SOL     OW26593   2.606   0.755   6.235  0.1108 -0.2380 -0.3780
 5044SOL    HW126594   2.638   0.664   6.233  1.6002  0.2546  1.2338
 5044SOL    HW226595   2.635   0.786   6.321  1.3623  1.3626 -1.3846
 5045SOL     OW26596   1.753   1.528   5.422  0.1012 -0.0109 -0.0663
 5045SOL    HW126597   1.774   1.534   5.329 -1.9674 -0.6908 -0.5964
 5045SOL    HW226598   1.831   1.557   5.468 -0.2190 -0.5857  0.8392
 5046SOL     OW26599   2.927   1.142  13.575 -0.2706 -0.3962  0.1057
 5046SOL    HW126600   3.006   1.148  13.628  1.0043  2.6064 -2.1263
 5046SOL    HW226601   2.972   1.104  13.500 -0.5918 -1.6812  0.5687
 5047SOL     OW26602   1.331   4.203   6.888 -0.1265 -0.4586  0.5627
 5047SOL    HW126603   1.370   4.204   6.975  0.8443 -4.5099  0.2034
 5047SOL    HW226604   1.268   4.273   6.900 -0.3930 -0.3745 -1.3423
 5048SOL     OW26605   4.332   4.115   1.624 -0.7021 -0.4660  0.0062
 5048SOL    HW126606   4.369   4.149   1.705 -1.1002 -0.8091  0.3339
 5048SOL    HW226607   4.359   4.024   1.628 -0.4873 -0.4094 -0.1631
 5049SOL     OW26608   4.217   3.729   7.983 -0.0719 -0.3995 -0.3345
 5049SOL    HW126609   4.295   3.690   8.023  0.2317 -2.5234 -2.9994
 5049SOL    HW226610   4.152   3.668   8.015  0.6768 -0.2046  1.5559
 5050SOL     OW26611   0.583   1.237   8.753 -0.5464 -0.3628 -0.0035
 5050SOL    HW126612   0.674   1.247   8.782  0.2538  0.5758 -2.8893
 5050SOL    HW226613   0.556   1.188   8.831 -0.3791 -0.6929 -0.1553
 5051SOL     OW26614   3.332   4.661   3.957  0.0734  0.5487 -0.1804
 5051SOL    HW126615   3.407   4.700   4.002  2.5153 -2.0127 -2.0230
 5051SOL    HW226616   3.365   4.574   3.935 -2.0974 -0.4306  0.5384
 5052SOL     OW26617   0.560   3.367  13.001 -0.4726  0.1023 -0.0075
 5052SOL    HW126618   0.536   3.437  13.061 -1.1761 -0.8014  0.7630
 5052SOL    HW226619   0.654   3.380  12.996 -0.5067 -0.0906 -1.1104
 5053SOL     OW26620   3.567   3.724   8.128  0.5044 -0.1026 -0.3008
 5053SOL    HW126621   3.543   3.668   8.202 -1.1084  1.2631  0.2274
 5053SOL    HW226622   3.485   3.773   8.119 -0.4933 -1.5451  0.7819
 5054SOL     OW26623   0.606   2.299  15.130  0.9841 -0.6395 -0.3395
 5054SOL    HW126624   0.587   2.303  15.037 -3.1920 -0.1899  0.5272
 5054SOL    HW226625   0.530   2.245  15.151  0.2097 -0.2406 -2.1706
 5055SOL     OW26626   3.375   4.655  15.945  0.0670  0.2431 -0.1735
 5055SOL    HW126627   3.292   4.697  15.921 -0.8047 -2.1797 -1.3524
 5055SOL    HW226628   3.433   4.693  15.880 -0.3224  0.3644 -0.4535
 5056SOL     OW26629   2.031   3.362   5.351  0.2892 -0.0899  0.1464
 5056SOL    HW126630   2.080   3.283   5.328 -0.2870 -0.4062  0.0283
 5056SOL    HW226631   2.103   3.423   5.332 -1.0003  0.2119 -3.6241
 5057SOL     OW26632   3.998   4.161   4.330 -0.2440 -0.4252  0.6054
 5057SOL    HW126633   3.957   4.241   4.297  2.4998  1.0581  0.7844
 5057SOL    HW226634   3.924   4.102   4.335 -2.5782  2.7294  3.2293
 5058SOL     OW26635   2.912   0.621  16.783  0.4096 -0.5160 -0.9033
 5058SOL    HW126636   2.991   0.622  16.836 -0.0594 -2.6773 -0.1912
 5058SOL    HW226637   2.848   0.621  16.855  1.6031 -1.8114  0.1451
 5059SOL     OW26638   3.144   1.569   9.628  0.1780  0.2310  0.2296
 5059SOL    HW126639   3.230   1.595   9.662 -0.5303 -1.0604  3.0033
 5059SOL    HW226640   3.170   1.487   9.586  1.3048  0.9170 -0.4325
 5060SOL     OW26641   1.022   0.278   9.636  0.1816  0.1287  0.0612
 5060SOL    HW126642   1.061   0.340   9.696  1.3192 -0.9115  0.3946
 5060SOL    HW226643   1.087   0.282   9.566 -0.9166 -2.0217 -1.1047
 5061SOL     OW26644   2.210   3.634   1.146 -0.5373 -0.5740 -0.4622
 5061SOL    HW126645   2.189   3.634   1.053  0.4860  1.7124 -0.6892
 5061SOL    HW226646   2.301   3.662   1.150 -0.3592 -1.1435 -0.5252
 5062SOL     OW26647   2.114   1.824   5.050 -0.7451  0.1379 -0.5352
 5062SOL    HW126648   2.134   1.749   5.106 -0.8066  0.3199 -0.2715
 5062SOL    HW226649   2.050   1.880   5.093 -0.0793  0.2736  0.2767
 5063SOL     OW26650   2.805   1.518   0.399 -0.1468 -0.0010 -0.8250
 5063SOL    HW126651   2.845   1.457   0.337 -0.1429 -0.4783 -0.3484
 5063SOL    HW226652   2.715   1.489   0.388 -0.1482  0.0951 -1.0711
 5064SOL     OW26653   2.188   0.332   9.412 -0.4831  0.1529 -0.3507
 5064SOL    HW126654   2.275   0.346   9.449 -0.0553  1.6220 -1.9442
 5064SOL    HW226655   2.165   0.246   9.447  1.3705 -0.7139 -1.2990
 5065SOL     OW26656   3.818   1.663   7.498  0.5933 -0.7966 -0.2567
 5065SOL    HW126657   3.783   1.575   7.485  0.6050 -0.7589 -0.5382
 5065SOL    HW226658   3.910   1.634   7.504  1.4547  2.1456  1.0621
 5066SOL     OW26659   1.361   2.637   8.365 -0.2666 -0.1785 -0.4661
 5066SOL    HW126660   1.402   2.668   8.284  0.3576 -0.0976 -0.1182
 5066SOL    HW226661   1.373   2.716   8.417  0.5031 -0.3105 -0.4527
 5067SOL     OW26662   1.758   2.100   5.003 -0.0255  1.2123  0.1475
 5067SOL    HW126663   1.806   2.051   4.937 -0.2728 -1.7494  2.1857
 5067SOL    HW226664   1.817   2.071   5.072  0.2915  0.0585 -0.6215
 5068SOL     OW26665   2.473   2.120  10.279 -0.5935  0.3688  0.0207
 5068SOL    HW126666   2.563   2.101  10.252 -1.7666 -2.8867 -1.6032
 5068SOL    HW226667   2.460   2.201  10.229 -1.3194  0.6771  0.7099
 5069SOL     OW26668   0.000   3.190  12.568  0.5666 -0.2518  0.1404
 5069SOL    HW126669   4.693   3.184  12.478  0.1173  1.1137  0.2057
 5069SOL    HW226670   4.655   3.236  12.615  0.0318 -1.2540  0.3137
 5070SOL     OW26671   4.227   2.055   8.622 -0.0474 -0.3060  0.2326
 5070SOL    HW126672   4.259   1.975   8.580 -2.0351 -1.2129  0.4510
 5070SOL    HW226673   4.133   2.057   8.600 -0.2871  3.2511  1.5864
 5071SOL     OW26674   4.292   3.500   2.881  0.0378 -0.3517 -0.0399
 5071SOL    HW126675   4.278   3.585   2.839  0.1811  0.0935  0.8101
 5071SOL    HW226676   4.328   3.445   2.811  1.7054  0.2160  0.3674
 5072SOL     OW26677   4.616   3.304   4.630 -0.4684  0.5638 -0.0905
 5072SOL    HW126678   4.607   3.264   4.544 -2.5989 -0.6356  0.6816
 5072SOL    HW226679   4.523   3.321   4.647 -0.5828  0.1934 -0.3431
 5073SOL     OW26680   1.811   2.662  11.305 -0.1301 -0.0170 -0.2201
 5073SOL    HW126681   1.808   2.735  11.243  0.8175 -0.9662 -1.3719
 5073SOL    HW226682   1.899   2.680  11.338 -0.2258  1.1616 -0.5963
 5074SOL     OW26683   1.617   4.704   6.502  0.6863  0.0214 -0.1262
 5074SOL    HW126684   1.682   4.684   6.434  2.3010  1.1909  1.0685
 5074SOL    HW226685   1.547   4.640   6.488 -0.7502  1.2596  1.4705
 5075SOL     OW26686   0.655   3.877   4.148  0.2070 -0.1385 -0.4415
 5075SOL    HW126687   0.742   3.862   4.187  0.3870  0.8886 -0.4605
 5075SOL    HW226688   0.687   3.916   4.067  0.7865 -0.8069 -0.5411
 5076SOL     OW26689   3.257   2.968   7.542 -0.5436  0.1432  0.2862
 5076SOL    HW126690   3.170   2.930   7.546 -0.5299  0.3461  2.6770
 5076SOL    HW226691   3.309   2.906   7.594  0.4907  0.2264 -0.6473
 5077SOL     OW26692   0.086   3.754   8.953 -0.7379  0.4562  0.0875
 5077SOL    HW126693   0.142   3.681   8.982 -0.4255  1.2241  1.4249
 5077SOL    HW226694   0.022   3.700   8.907 -2.1287  0.8302  1.5686
 5078SOL     OW26695   2.319   0.611  17.198  0.1686 -0.2117  0.1271
 5078SOL    HW126696   2.415   0.604  17.193  0.0605  0.2154 -2.3502
 5078SOL    HW226697   2.301   0.594  17.291 -0.4260 -0.3516 -0.0152
 5079SOL     OW26698   1.015   1.702   9.480 -0.1959  0.3860 -0.8032
 5079SOL    HW126699   0.995   1.751   9.561 -0.4043 -0.3148 -0.4295
 5079SOL    HW226700   0.923   1.700   9.451  0.0106  0.4545 -1.4570
 5080SOL     OW26701   3.583   2.474   8.167  0.4153 -0.1086  0.1446
 5080SOL    HW126702   3.646   2.459   8.097  0.5197  1.1511 -0.0382
 5080SOL    HW226703   3.600   2.401   8.226  2.6542 -0.2578 -0.7037
 5081SOL     OW26704   4.218   1.464   5.802 -0.6603  0.0812 -0.2316
 5081SOL    HW126705   4.261   1.495   5.881 -1.3222 -1.3021  0.6769
 5081SOL    HW226706   4.164   1.540   5.781 -1.2364  0.5524  2.9337
 5082SOL     OW26707   1.469   0.143   9.462  0.6527 -0.1780 -0.3403
 5082SOL    HW126708   1.425   0.134   9.547  0.6023  1.2117 -0.2272
 5082SOL    HW226709   1.560   0.155   9.489  0.5538 -3.4561  1.4699
 5083SOL     OW26710   0.820   4.442  13.955  0.0919 -0.0521  0.4284
 5083SOL    HW126711   0.897   4.484  13.993  0.8816  0.1177 -1.3715
 5083SOL    HW226712   0.850   4.423  13.866  0.5329  0.6881  0.4214
 5084SOL     OW26713   3.050   3.095   0.425  0.3641 -0.1687  0.0283
 5084SOL    HW126714   2.965   3.136   0.409  0.2477 -0.5291 -0.2656
 5084SOL    HW226715   3.088   3.112   0.339 -0.5095  1.3168 -0.0736
 5085SOL     OW26716   3.973   0.945   0.262 -0.1980 -0.5965 -0.6103
 5085SOL    HW126717   3.962   1.034   0.297  3.2166  0.2411 -1.7382
 5085SOL    HW226718   3.963   0.962   0.168 -1.0964  1.8833 -0.0871
 5086SOL     OW26719   0.388   3.957  11.150 -0.2777 -0.1745  0.1066
 5086SOL    HW126720   0.413   4.049  11.142 -0.7483  0.0650  1.5266
 5086SOL    HW226721   0.418   3.927  11.063 -3.7658  0.8637 -1.4564
 5087SOL     OW26722   3.153   1.151  15.549  0.2259 -0.5056 -0.0296
 5087SOL    HW126723   3.118   1.238  15.533  0.0497 -0.5440  0.1423
 5087SOL    HW226724   3.113   1.132  15.634 -1.5478  1.1642 -0.4895
 5088SOL     OW26725   2.299   2.757  10.787  0.2948  0.0140  0.6675
 5088SOL    HW126726   2.217   2.801  10.808  0.6289  0.9269  0.0521
 5088SOL    HW226727   2.316   2.793  10.700  1.5460  0.7483  1.2119
 5089SOL     OW26728   3.222   3.649   8.184  0.2408 -0.3246  0.8614
 5089SOL    HW126729   3.261   3.699   8.112 -3.4478 -1.2109 -1.7620
 5089SOL    HW226730   3.252   3.709   8.252  0.2223  0.3040  0.3169
 5090SOL     OW26731   2.841   1.322   6.495 -0.0653 -0.4819 -0.3573
 5090SOL    HW126732   2.834   1.240   6.446 -1.6750 -0.2992 -0.4488
 5090SOL    HW226733   2.747   1.341   6.499 -0.5656 -2.8774 -0.8135
 5091SOL     OW26734   0.248   1.710   9.130  0.4712 -0.0116 -0.2674
 5091SOL    HW126735   0.252   1.677   9.219  0.1633  1.3786  0.2607
 5091SOL    HW226736   0.289   1.794   9.150 -0.1130 -0.4201  2.5301
 5092SOL     OW26737   1.149   4.038   8.273 -0.2845 -0.0131 -0.4896
 5092SOL    HW126738   1.221   3.974   8.271 -0.9281 -0.7027 -1.5184
 5092SOL    HW226739   1.102   4.025   8.355  1.3376  1.1289  0.6220
 5093SOL     OW26740   3.406   1.943   5.642 -0.2115 -0.6561  0.0427
 5093SOL    HW126741   3.453   1.984   5.714 -0.2053  0.8611 -0.8305
 5093SOL    HW226742   3.354   1.879   5.691 -1.3527  0.8219  0.7672
 5094SOL     OW26743   2.153   2.721   0.453  0.0347  0.2521  0.1013
 5094SOL    HW126744   2.084   2.760   0.506  0.9837  1.3381  0.5304
 5094SOL    HW226745   2.185   2.655   0.513  2.4938  0.5696 -0.8542
 5095SOL     OW26746   0.185   4.285   2.561  0.4273  0.4856  0.2054
 5095SOL    HW126747   0.217   4.374   2.577  1.2206  0.3558 -0.6672
 5095SOL    HW226748   0.264   4.234   2.545 -0.9445 -1.7349  0.5827
 5096SOL     OW26749   2.735   3.129   4.319 -0.3129 -0.3143  0.4826
 5096SOL    HW126750   2.803   3.075   4.361 -0.1467  0.7680  1.5923
 5096SOL    HW226751   2.783   3.159   4.242 -0.9633  0.7780  0.5000
 5097SOL     OW26752   1.704   0.843   6.653  0.1847  0.1547 -0.4601
 5097SOL    HW126753   1.689   0.764   6.705  0.9494  1.0307  1.0710
 5097SOL    HW226754   1.629   0.892   6.687  0.3442  0.0808 -0.0070
 5098SOL     OW26755   2.278   4.327   3.926 -0.1560 -0.3388  0.3496
 5098SOL    HW126756   2.360   4.279   3.913  0.0210  0.1821 -0.4300
 5098SOL    HW226757   2.223   4.275   3.985 -2.5157 -0.5402 -2.0260
 5099SOL     OW26758   3.561   1.104   4.420 -0.2927 -0.3477  0.1189
 5099SOL    HW126759   3.622   1.032   4.433 -0.3539 -0.7589 -1.8954
 5099SOL    HW226760   3.484   1.052   4.443 -0.6432 -0.7711 -2.0396
 5100SOL     OW26761   0.300   2.156   2.729  0.0576 -0.2793  0.0852
 5100SOL    HW126762   0.250   2.078   2.752  0.1838  0.3992  2.6282
 5100SOL    HW226763   0.234   2.212   2.687  1.6972  1.0187 -0.7869
 5101SOL     OW26764   0.815   0.341   9.461 -0.3614 -0.3858  0.0485
 5101SOL    HW126765   0.809   0.434   9.436 -0.2558 -1.0507 -2.5175
 5101SOL    HW226766   0.894   0.351   9.513 -0.3711  2.8074 -0.5547
 5102SOL     OW26767   2.771   3.495   3.631  0.3696  0.3628 -0.2580
 5102SOL    HW126768   2.804   3.457   3.550  0.8518  1.0436 -0.3834
 5102SOL    HW226769   2.852   3.542   3.651 -1.2533  2.7905  0.6850
 5103SOL     OW26770   0.448   1.192   1.322  0.9577 -0.6966  0.3482
 5103SOL    HW126771   0.513   1.130   1.291 -0.6499 -2.6926  0.9972
 5103SOL    HW226772   0.420   1.145   1.401 -0.1820 -0.2832  0.1918
 5104SOL     OW26773   2.278   3.768   7.007  0.1457 -0.3800 -0.5406
 5104SOL    HW126774   2.215   3.829   6.968 -0.4723 -0.5240  0.2569
 5104SOL    HW226775   2.220   3.732   7.074  1.6417 -0.8157  0.5066
 5105SOL     OW26776   0.451   3.076   4.547  0.1856 -0.4411 -0.0827
 5105SOL    HW126777   0.371   3.127   4.528  0.4645 -0.5762 -1.5844
 5105SOL    HW226778   0.519   3.129   4.506  1.0087  0.9364  3.0511
 5106SOL     OW26779   0.778   4.498   5.621  0.8084  0.3784  0.6873
 5106SOL    HW126780   0.716   4.437   5.581  0.6124 -0.3667  2.1294
 5106SOL    HW226781   0.823   4.533   5.545  0.9849 -0.5948  0.3457
 5107SOL     OW26782   0.268   0.442   3.878  0.1300  0.0510 -0.3504
 5107SOL    HW126783   0.223   0.405   3.803 -1.1399 -0.4696  0.6760
 5107SOL    HW226784   0.322   0.365   3.897  2.6133  1.6219 -1.0140
 5108SOL     OW26785   0.568   2.665   4.176  0.1535 -0.0325  0.3771
 5108SOL    HW126786   0.569   2.581   4.221 -2.1681  0.9626  2.2737
 5108SOL    HW226787   0.642   2.709   4.219  1.5600 -0.0325 -2.0572
 5109SOL     OW26788   3.655   4.660   2.824  0.4871 -0.5388  0.1047
 5109SOL    HW126789   3.603   0.004   2.784  2.5136  0.6655 -0.4308
 5109SOL    HW226790   3.724   4.646   2.760  2.3722 -1.9687  2.4535
 5110SOL     OW26791   3.756   2.192   6.174 -0.4608 -0.1070  0.4849
 5110SOL    HW126792   3.751   2.097   6.179 -0.7948 -0.1000  0.3194
 5110SOL    HW226793   3.747   2.221   6.265 -0.7501 -0.7908  0.6757
 5111SOL     OW26794   2.806   4.270   0.092 -0.0373 -0.5073 -0.0549
 5111SOL    HW126795   2.743   4.304   0.155  1.3094  0.4291  0.8045
 5111SOL    HW226796   2.883   4.265   0.148  0.2909  0.6968 -0.3928
 5112SOL     OW26797   2.655   4.446   2.971 -0.5010 -0.9743  0.0479
 5112SOL    HW126798   2.586   4.396   3.015 -1.4954  0.8825  0.6202
 5112SOL    HW226799   2.605   4.513   2.925  0.9120 -0.0581 -0.1477
 5113SOL     OW26800   1.251   2.700   8.763 -0.2493 -0.5306 -0.3107
 5113SOL    HW126801   1.278   2.790   8.781  0.3789 -0.4647 -1.5630
 5113SOL    HW226802   1.222   2.668   8.848  1.5920 -2.2523 -0.3153
 5114SOL     OW26803   3.296   3.756  10.429 -0.0543 -0.2292 -0.0065
 5114SOL    HW126804   3.295   3.836  10.375  0.7874  0.7581  1.4357
 5114SOL    HW226805   3.344   3.797  10.501  1.8639 -0.8234 -0.9507
 5115SOL     OW26806   2.377   3.534   0.841 -0.1496 -0.1824  0.4797
 5115SOL    HW126807   2.428   3.496   0.769 -0.0937  2.5571 -0.9473
 5115SOL    HW226808   2.312   3.464   0.840 -2.7481  2.2548 -1.9686
 5116SOL     OW26809   4.472   0.408  10.851  0.7024 -0.6394  0.0073
 5116SOL    HW126810   4.515   0.326  10.824  1.9727  1.1230 -3.3593
 5116SOL    HW226811   4.386   0.389  10.813  0.5663  1.4496 -0.7088
 5117SOL     OW26812   3.757   3.740  15.515  0.4185  0.0283 -0.4168
 5117SOL    HW126813   3.815   3.816  15.520 -1.5695  1.3991  1.8757
 5117SOL    HW226814   3.693   3.762  15.582  0.6078  1.0356 -0.5708
 5118SOL     OW26815   4.663   3.545   3.292  0.0382 -0.1146 -0.0788
 5118SOL    HW126816   4.596   3.500   3.344  0.7021 -2.1615 -0.9768
 5118SOL    HW226817   4.703   3.595   3.364  0.9806 -1.4733  0.3458
 5119SOL     OW26818   1.019   1.457  13.910  0.4833 -0.4216 -0.1819
 5119SOL    HW126819   1.103   1.432  13.950  0.3252  0.3200  0.6152
 5119SOL    HW226820   1.044   1.456  13.818  0.7398 -1.3307 -0.0989
 5120SOL     OW26821   2.166   2.292  12.002  0.0092  0.3376  0.4401
 5120SOL    HW126822   2.162   2.261  12.093 -0.8220 -2.0210 -0.4108
 5120SOL    HW226823   2.256   2.322  11.989 -0.6689  1.6648 -1.1788
 5121SOL     OW26824   2.483   0.983  11.599 -0.4102  0.2319  0.2741
 5121SOL    HW126825   2.497   1.013  11.509 -2.0756 -1.5103 -0.5477
 5121SOL    HW226826   2.397   1.023  11.611 -0.4411  0.1486  0.3321
 5122SOL     OW26827   4.525   3.011   9.017 -0.3859  0.4363 -0.3735
 5122SOL    HW126828   4.551   3.056   8.936  1.2612 -0.5057 -0.3621
 5122SOL    HW226829   4.587   3.046   9.081  0.2270  2.2032 -1.9105
 5123SOL     OW26830   3.675   0.144  13.222 -0.2307  0.0815  0.3554
 5123SOL    HW126831   3.605   0.126  13.158 -1.5702  2.9727  1.0156
 5123SOL    HW226832   3.688   0.051  13.243 -0.8724 -0.1581 -0.2823
 5124SOL     OW26833   3.531   1.155   6.695  0.2785  0.1477 -0.0260
 5124SOL    HW126834   3.442   1.189   6.685  0.7678  1.3191 -0.4203
 5124SOL    HW226835   3.574   1.215   6.634  1.0459 -0.1219  0.2474
 5125SOL     OW26836   3.647   3.079   6.764 -0.4716 -0.6239 -0.0469
 5125SOL    HW126837   3.674   3.107   6.676 -1.8314  0.3016 -0.1689
 5125SOL    HW226838   3.618   3.165   6.793  1.6087  1.1126 -3.1286
 5126SOL     OW26839   2.217   2.923  10.068  0.0130 -0.7822  1.0041
 5126SOL    HW126840   2.302   2.935  10.111  1.4798 -0.0010 -2.1473
 5126SOL    HW226841   2.208   2.828  10.054  0.7450 -0.4895 -1.3062
 5127SOL     OW26842   2.459   3.008   9.199  0.4305  0.1069 -0.0665
 5127SOL    HW126843   2.490   2.936   9.255 -0.1599  1.1044  1.5557
 5127SOL    HW226844   2.500   3.084   9.241 -2.0248  1.5457 -0.2661
 5128SOL     OW26845   0.302   3.516   4.402 -0.1105  0.0852  0.1344
 5128SOL    HW126846   0.249   3.514   4.481 -0.2005  2.8307  0.1348
 5128SOL    HW226847   0.384   3.559   4.427  0.6024 -0.0794 -1.9618
 5129SOL     OW26848   1.715   1.686   7.362 -0.7767 -0.0025 -0.0284
 5129SOL    HW126849   1.703   1.594   7.385 -0.6398 -0.2916 -1.1240
 5129SOL    HW226850   1.758   1.724   7.438 -0.8778  1.3049 -0.6363
 5130SOL     OW26851   1.524   1.916   5.070 -0.9505  0.4770 -0.2284
 5130SOL    HW126852   1.608   1.954   5.041 -0.1551 -1.6946 -0.7851
 5130SOL    HW226853   1.529   1.924   5.165 -0.9466  1.9020 -0.3432
 5131SOL     OW26854   0.844   2.283   7.718 -0.2214  0.3416 -0.2551
 5131SOL    HW126855   0.773   2.250   7.664 -2.4409  1.1175  2.1969
 5131SOL    HW226856   0.782   2.304   7.788 -1.8413 -1.2404 -1.2118
 5132SOL     OW26857   2.093   1.141  12.080 -0.0135  0.6924 -0.7200
 5132SOL    HW126858   2.126   1.078  12.016  1.1812 -0.7686  1.3310
 5132SOL    HW226859   2.087   1.080  12.153  0.9339  1.7383  0.2304
 5133SOL     OW26860   3.255   1.780   6.825  0.0298  0.5422 -0.2039
 5133SOL    HW126861   3.169   1.806   6.793  0.3266  1.4414 -0.2580
 5133SOL    HW226862   3.233   1.728   6.903 -0.1976  0.8088 -0.0897
 5134SOL     OW26863   0.967   0.940   5.587 -0.0971 -0.2001 -0.2567
 5134SOL    HW126864   0.883   0.974   5.556  0.2103  1.3423  0.6503
 5134SOL    HW226865   1.014   1.021   5.608  0.7571 -0.6122 -0.5646
 5135SOL     OW26866   2.905   2.984  11.956 -0.2095 -0.6864 -0.2901
 5135SOL    HW126867   2.831   2.961  11.899 -0.2814 -0.4923 -0.2742
 5135SOL    HW226868   2.966   2.921  11.918  0.2338 -0.0866 -0.5844
 5136SOL     OW26869   3.282   4.320   4.351 -0.0354 -0.2334  0.1157
 5136SOL    HW126870   3.342   4.359   4.287  1.3089  1.6827  2.5478
 5136SOL    HW226871   3.337   4.314   4.428 -0.8319 -1.4165  0.5984
 5137SOL     OW26872   3.179   2.685   7.718 -0.0852  0.1814 -0.0369
 5137SOL    HW126873   3.271   2.657   7.722 -0.8813 -2.4428 -0.3151
 5137SOL    HW226874   3.148   2.607   7.672 -0.6548  0.2161  0.2938
 5138SOL     OW26875   2.040   3.024   5.781  0.4965 -0.2103  0.3615
 5138SOL    HW126876   2.088   2.941   5.770 -2.3509 -1.6824 -0.9744
 5138SOL    HW226877   2.030   3.043   5.688  0.9532 -0.2670  0.2962
 5139SOL     OW26878   2.629   0.479  15.449  0.2097 -0.5022 -0.0851
 5139SOL    HW126879   2.588   0.524  15.375 -0.4717 -1.7785 -0.4780
 5139SOL    HW226880   2.608   0.548  15.512 -1.8129 -0.7820 -0.4607
 5140SOL     OW26881   0.434   3.716   3.486  0.4839  0.5610  0.1406
 5140SOL    HW126882   0.387   3.790   3.524 -0.4322 -0.3041  0.6925
 5140SOL    HW226883   0.367   3.649   3.499 -1.2082  2.1141 -0.6242
 5141SOL     OW26884   0.747   1.211   7.387 -0.4032 -0.2679  0.3228
 5141SOL    HW126885   0.808   1.168   7.327 -1.3372  2.0284 -2.2400
 5141SOL    HW226886   0.724   1.134   7.439 -1.2358 -0.8024 -0.8464
 5142SOL     OW26887   0.856   0.074   9.734  0.5864  0.1242 -0.4452
 5142SOL    HW126888   0.921   0.141   9.713 -2.0403  3.3037  1.5634
 5142SOL    HW226889   0.782   0.124   9.770  0.5472 -0.3036  0.0571
 5143SOL     OW26890   3.566   2.911   2.450 -0.6778  0.2233 -0.3744
 5143SOL    HW126891   3.487   2.895   2.501 -1.8457  3.2141 -1.2093
 5143SOL    HW226892   3.591   2.821   2.430 -1.1853 -0.4246  1.8694
 5144SOL     OW26893   2.837   3.720   0.252 -0.5949 -0.1232  0.0443
 5144SOL    HW126894   2.846   3.738   0.158 -2.0575 -1.4082 -0.3463
 5144SOL    HW226895   2.761   3.662   0.243 -0.1255 -0.8930  1.0888
 5145SOL     OW26896   2.373   2.913  11.158  0.5679 -0.5961 -0.4127
 5145SOL    HW126897   2.430   2.902  11.082 -0.6989 -1.0282 -1.2940
 5145SOL    HW226898   2.400   2.841  11.216  2.0732 -0.2789 -0.7319
 5146SOL     OW26899   3.657   0.100   6.461  0.1537  0.2085  1.0613
 5146SOL    HW126900   3.637   0.022   6.409 -0.1177  0.5462  0.6552
 5146SOL    HW226901   3.746   0.121   6.435 -0.3721 -0.9916 -1.7179
 5147SOL     OW26902   1.973   3.677   2.794  0.2644 -0.0974  0.1572
 5147SOL    HW126903   1.899   3.619   2.812 -1.0199  1.6981  0.6332
 5147SOL    HW226904   2.035   3.617   2.751 -1.3208 -1.4123 -0.3020
 5148SOL     OW26905   3.400   0.990   6.429 -0.0701  0.3800 -0.1696
 5148SOL    HW126906   3.391   0.979   6.524  0.1492 -1.8729 -0.4054
 5148SOL    HW226907   3.421   1.083   6.421 -2.5014  0.8683 -0.6534
 5149SOL     OW26908   4.028   1.266   0.735 -0.2278  0.0834  0.2839
 5149SOL    HW126909   4.030   1.357   0.706 -0.0072 -0.1118 -0.3016
 5149SOL    HW226910   4.087   1.264   0.811 -0.2643 -2.8218  0.2433
 5150SOL     OW26911   3.395   1.720   0.489 -0.1563 -0.2696  0.9257
 5150SOL    HW126912   3.424   1.787   0.427 -1.0008  1.4496  2.4174
 5150SOL    HW226913   3.418   1.767   0.569  3.1925  1.5558 -1.0838
 5151SOL     OW26914   1.619   0.250   4.533  0.2209  0.3782  0.5373
 5151SOL    HW126915   1.533   0.278   4.564 -0.1399 -0.2793  0.1455
 5151SOL    HW226916   1.610   0.155   4.525 -0.5135  0.4382  0.6397
 5152SOL     OW26917   1.691   1.664  16.363 -0.8899  0.3078 -0.7369
 5152SOL    HW126918   1.726   1.710  16.287 -0.9084  0.9680 -0.3411
 5152SOL    HW226919   1.601   1.694  16.352 -1.5649 -0.2014  3.4307
 5153SOL     OW26920   1.520   3.451   7.510  0.1757  0.2142 -0.3956
 5153SOL    HW126921   1.504   3.407   7.593 -4.8296  2.2326 -0.3352
 5153SOL    HW226922   1.452   3.403   7.462 -1.1454  0.3380  1.3799
 5154SOL     OW26923   0.313   1.741   4.215  0.4685 -0.0818 -0.3309
 5154SOL    HW126924   0.386   1.794   4.183  1.3443 -0.6472  0.7194
 5154SOL    HW226925   0.348   1.658   4.182 -0.7090 -1.1618  1.1172
 5155SOL     OW26926   3.415   2.501   5.820 -0.6138 -0.4700  0.0208
 5155SOL    HW126927   3.441   2.455   5.740 -1.4446 -0.1516 -0.4320
 5155SOL    HW226928   3.489   2.558   5.840 -0.9863 -0.1074  0.3690
 5156SOL     OW26929   3.485   2.974   5.077  0.3551 -0.3241  0.0110
 5156SOL    HW126930   3.505   2.924   4.998 -0.0599  0.5505 -0.6470
 5156SOL    HW226931   3.453   3.059   5.049  0.7023 -0.0904  0.3213
 5157SOL     OW26932   4.509   4.693   7.207  0.4995 -0.0530 -0.7552
 5157SOL    HW126933   4.423   4.670   7.242  0.6376 -0.4283 -0.6691
 5157SOL    HW226934   4.577   4.651   7.261 -2.5175 -1.8674  1.6063
 5158SOL     OW26935   2.623   2.150   5.402  0.7376  0.1440  0.3679
 5158SOL    HW126936   2.706   2.120   5.365 -0.1719  0.3389 -1.8046
 5158SOL    HW226937   2.569   2.086   5.355 -0.6288  1.7760 -0.2724
 5159SOL     OW26938   0.813   0.844  13.438 -0.5904  0.5203 -0.3031
 5159SOL    HW126939   0.737   0.896  13.462  1.0751  1.1306  3.5411
 5159SOL    HW226940   0.795   0.823  13.346 -2.3977 -1.5344  0.5191
 5160SOL     OW26941   0.039   3.825   7.836 -0.0647  0.0765  0.1878
 5160SOL    HW126942   0.010   3.842   7.926 -0.0305 -0.3258  0.2751
 5160SOL    HW226943   0.092   3.899   7.809  1.8993 -1.3791  0.0729
 5161SOL     OW26944   0.742   0.256   4.443 -0.0803  0.3323 -0.0254
 5161SOL    HW126945   0.670   0.206   4.406 -0.3259  1.5319 -1.1063
 5161SOL    HW226946   0.709   0.344   4.426 -0.5138  0.6980  2.5719
 5162SOL     OW26947   0.143   3.261   5.509  0.0052  0.4555  0.7244
 5162SOL    HW126948   0.105   3.187   5.558  0.3892  0.6348  1.2927
 5162SOL    HW226949   0.217   3.270   5.570  1.7808 -1.5425 -1.1288
 5163SOL     OW26950   3.228   4.042  16.261 -0.0650  0.6203 -0.3500
 5163SOL    HW126951   3.187   3.956  16.251  3.2690 -0.8496 -1.3110
 5163SOL    HW226952   3.190   4.067  16.345 -1.8735 -0.6238 -0.8032
 5164SOL     OW26953   3.084   1.483   5.606 -0.2461 -0.4311  0.4223
 5164SOL    HW126954   3.044   1.469   5.521 -2.7921  1.8492  1.2747
 5164SOL    HW226955   3.170   1.517   5.582 -0.6059  2.5427  3.2975
 5165SOL     OW26956   1.471   3.117   4.783 -0.1261  0.2773 -0.2546
 5165SOL    HW126957   1.388   3.120   4.831 -1.1010  0.7824 -1.9817
 5165SOL    HW226958   1.524   3.170   4.844  0.6612 -2.5369  1.5136
 5166SOL     OW26959   3.185   1.736  17.134 -0.3943 -0.1717 -0.2411
 5166SOL    HW126960   3.241   1.664  17.164  0.7432  0.2216 -1.3983
 5166SOL    HW226961   3.237   1.805  17.177 -1.5664 -0.4514  1.5937
 5167SOL     OW26962   3.832   2.536   1.589  0.0716 -0.0708 -0.0963
 5167SOL    HW126963   3.771   2.553   1.517 -0.0399 -0.9963 -0.2135
 5167SOL    HW226964   3.785   2.536   1.672 -2.2283  1.1855 -1.4132
 5168SOL     OW26965   2.759   1.965  14.191  0.7474 -0.4677  0.3292
 5168SOL    HW126966   2.826   1.955  14.259  0.8316  1.0583  0.4809
 5168SOL    HW226967   2.801   2.036  14.142  0.3841 -1.1443 -0.9372
 5169SOL     OW26968   2.308   4.017  13.728  0.3031 -0.6801  0.1198
 5169SOL    HW126969   2.323   3.927  13.757  0.9254 -1.1669 -1.6831
 5169SOL    HW226970   2.287   4.006  13.635 -2.5761  0.2810  0.6525
 5170SOL     OW26971   3.107   0.777   5.194 -0.5569  0.0198 -0.1691
 5170SOL    HW126972   3.026   0.808   5.153 -0.4987 -0.1491 -0.4125
 5170SOL    HW226973   3.142   0.707   5.139 -0.3916  1.0792 -1.4092
 5171SOL     OW26974   4.324   1.648   5.359  0.2167  0.0845 -0.8636
 5171SOL    HW126975   4.240   1.693   5.358 -0.4323 -1.1010  0.1639
 5171SOL    HW226976   4.382   1.711   5.400  0.3867 -1.6075  1.4808
 5172SOL     OW26977   2.615   0.745   7.442 -0.6339  0.4988 -0.8755
 5172SOL    HW126978   2.698   0.760   7.488 -1.6852 -0.8228  1.4328
 5172SOL    HW226979   2.591   0.826   7.397 -2.5778  0.6498  0.4567
 5173SOL     OW26980   4.233   0.825   6.211  0.0406  0.8065 -0.4438
 5173SOL    HW126981   4.299   0.864   6.269 -1.4488 -0.6551  2.2015
 5173SOL    HW226982   4.267   0.851   6.125 -0.2357  1.0413 -0.4801
 5174SOL     OW26983   1.801   2.398  16.201  0.1658 -0.2402 -0.2223
 5174SOL    HW126984   1.728   2.375  16.143 -0.9586  0.7625  0.8142
 5174SOL    HW226985   1.869   2.414  16.136  0.1020  0.4646 -0.1199
 5175SOL     OW26986   3.851   2.463   2.470 -0.4628 -0.3234 -0.0061
 5175SOL    HW126987   3.932   2.466   2.522 -0.6643 -0.5705  0.3174
 5175SOL    HW226988   3.820   2.373   2.474 -0.9500 -0.1716 -0.3355
 5176SOL     OW26989   0.315   3.038  14.857 -0.8668 -0.3778 -0.2179
 5176SOL    HW126990   0.288   2.958  14.812 -0.0605 -0.1702 -1.0906
 5176SOL    HW226991   0.247   3.048  14.923 -0.6079  2.4450 -0.4108
 5177SOL     OW26992   4.636   4.087   4.576 -1.1035  0.2318 -0.1531
 5177SOL    HW126993   4.626   4.178   4.603  2.1809  0.4107  0.5146
 5177SOL    HW226994   4.622   4.098   4.482  0.3879  0.7111 -0.3216
 5178SOL     OW26995   1.611   0.793   5.471 -0.4482 -0.5974 -0.3767
 5178SOL    HW126996   1.704   0.773   5.478 -0.5894 -1.3038 -0.4969
 5178SOL    HW226997   1.614   0.861   5.404 -2.1224  1.6730  1.8514
 5179SOL     OW26998   3.767   2.439   7.957 -0.0602 -0.1687  0.2067
 5179SOL    HW126999   3.846   2.385   7.949  0.1769 -0.2150  2.6146
 5179SOL    HW227000   3.738   2.451   7.867 -1.8326  1.0985  0.9563
 5180SOL     OW27001   0.465   0.158   4.407  0.1931  0.1967 -0.2206
 5180SOL    HW127002   0.439   0.244   4.438  1.6801  0.5895 -0.0386
 5180SOL    HW227003   0.416   0.151   4.326 -0.9164 -0.9988  0.5580
 5181SOL     OW27004   1.093   1.198   8.497 -0.4572  0.1232  0.0363
 5181SOL    HW127005   1.175   1.166   8.535 -0.9283 -0.0052  0.9534
 5181SOL    HW227006   1.095   1.180   8.403 -0.0578 -0.4961  0.1662
 5182SOL     OW27007   1.663   0.189   7.908 -0.6400 -0.2215  0.3816
 5182SOL    HW127008   1.755   0.163   7.901 -1.2034 -2.1722  0.1074
 5182SOL    HW227009   1.680   0.245   7.984 -1.2380  1.1631 -0.5145
 5183SOL     OW27010   3.528   2.619   5.029  0.1102 -0.7788 -0.0238
 5183SOL    HW127011   3.434   2.604   5.026  0.1711 -1.0093 -0.9510
 5183SOL    HW227012   3.554   2.625   4.937  0.3862 -0.0379  0.1032
 5184SOL     OW27013   3.150   2.473   7.170 -0.2590 -0.1529 -0.4534
 5184SOL    HW127014   3.062   2.438   7.157  0.1003 -0.9308 -0.8207
 5184SOL    HW227015   3.129   2.564   7.188  0.9440  0.4529 -2.1123
 5185SOL     OW27016   0.469   3.949   7.103  0.4799 -0.1792  0.5620
 5185SOL    HW127017   0.434   3.999   7.029 -1.0016 -3.2594 -0.8175
 5185SOL    HW227018   0.409   3.985   7.168 -0.0326  1.1903 -0.6803
 5186SOL     OW27019   2.685   4.513   4.762  0.1028  0.7997  0.0534
 5186SOL    HW127020   2.750   4.520   4.693  1.5018 -1.7406  1.1225
 5186SOL    HW227021   2.699   4.593   4.812  1.4897 -0.1013  1.1018
 5187SOL     OW27022   3.954   3.529   4.680 -0.1951 -0.2943  0.4853
 5187SOL    HW127023   3.986   3.548   4.591 -1.1579 -1.7246 -0.1657
 5187SOL    HW227024   4.036   3.511   4.725  0.6014 -1.0589 -1.2460
 5188SOL     OW27025   0.887   0.277  15.139 -0.3811 -0.1300  0.1695
 5188SOL    HW127026   0.826   0.204  15.142 -1.2352  0.5951  0.5699
 5188SOL    HW227027   0.894   0.283  15.043 -2.0469 -1.3553 -0.0367
 5189SOL     OW27028   3.823   3.795  12.679  0.1582  0.2566 -0.1680
 5189SOL    HW127029   3.785   3.820  12.595 -0.3259  0.8118  0.2116
 5189SOL    HW227030   3.908   3.760  12.653 -0.2555 -0.4108 -0.6239
 5190SOL     OW27031   3.516   3.540   0.876  0.5937 -0.1010 -0.0746
 5190SOL    HW127032   3.612   3.539   0.871  0.6395 -1.6264  0.9479
 5190SOL    HW227033   3.507   3.445   0.881  0.6820 -0.1764 -1.4420
 5191SOL     OW27034   4.663   4.204   2.653 -0.2215  0.2551  0.1440
 5191SOL    HW127035   0.018   4.245   2.622 -0.6776  0.5386 -0.6467
 5191SOL    HW227036   4.617   4.281   2.687 -2.4594 -1.3513  0.7948
 5192SOL     OW27037   4.395   0.608   4.446 -0.1472  0.3354  0.0110
 5192SOL    HW127038   4.372   0.627   4.355 -2.1697 -1.3800  0.1783
 5192SOL    HW227039   4.315   0.562   4.470  1.4125 -1.2604  2.2529
 5193SOL     OW27040   4.409   0.248   5.003  0.1121  0.6537  0.1328
 5193SOL    HW127041   4.379   0.221   5.090 -0.2550 -1.2493 -0.5906
 5193SOL    HW227042   4.495   0.207   4.996 -1.1062 -1.6479 -1.3926
 5194SOL     OW27043   0.689   3.419   9.986  0.3239  0.3800  0.0870
 5194SOL    HW127044   0.615   3.407  10.045 -2.1032 -0.0975 -3.0738
 5194SOL    HW227045   0.646   3.488   9.936 -3.3254 -0.5812  1.9113
 5195SOL     OW27046   3.424   2.973   5.360 -0.1283 -0.1811  0.7289
 5195SOL    HW127047   3.342   2.926   5.343 -0.8277  0.9879  0.8721
 5195SOL    HW227048   3.461   2.974   5.271  0.8975  0.0009  1.1673
 5196SOL     OW27049   0.782   4.222   7.995  0.0547  0.2852  0.2804
 5196SOL    HW127050   0.842   4.285   8.033  2.5970 -1.4606 -0.8756
 5196SOL    HW227051   0.779   4.234   7.900 -1.1096  0.7503  0.3698
 5197SOL     OW27052   2.986   0.730   3.308  0.3738  0.1252  0.1336
 5197SOL    HW127053   2.995   0.661   3.243  1.4661 -0.0044  0.4279
 5197SOL    HW227054   2.901   0.701   3.341  0.0447  3.2522  2.0670
 5198SOL     OW27055   2.353   3.817   0.848 -0.6314  0.4787 -0.8101
 5198SOL    HW127056   2.341   3.724   0.827  1.1981  0.2520 -0.8079
 5198SOL    HW227057   2.435   3.831   0.802 -0.3455  0.5622 -0.2712
 5199SOL     OW27058   2.006   1.571   7.081  0.3421 -0.2122  0.4950
 5199SOL    HW127059   2.059   1.597   7.156  0.5005 -0.4908  0.4779
 5199SOL    HW227060   2.005   1.650   7.027  1.3118  0.4320  1.4181
 5200SOL     OW27061   2.928   2.103   3.849  0.4172 -0.4634 -0.7537
 5200SOL    HW127062   2.897   2.027   3.898 -0.7773 -0.2675 -1.2273
 5200SOL    HW227063   2.893   2.176   3.901  1.5214  0.2096 -0.9304
 5201SOL     OW27064   0.277   4.025   7.731  0.1746  0.0921 -0.5500
 5201SOL    HW127065   0.298   4.099   7.787 -1.6253 -1.5653  2.3209
 5201SOL    HW227066   0.355   3.970   7.729  0.8378  0.9851  2.4593
 5202SOL     OW27067   0.208   3.927   3.849  0.1867 -0.0095 -0.3617
 5202SOL    HW127068   0.224   3.968   3.934  2.2346 -0.6546 -0.4498
 5202SOL    HW227069   0.168   3.846   3.880  0.5735 -0.8958 -2.1698
 5203SOL     OW27070   2.029   3.145  11.541  0.2916  0.4910 -0.5743
 5203SOL    HW127071   2.009   3.126  11.633  1.0189  1.8117 -0.1382
 5203SOL    HW227072   1.950   3.192  11.517 -1.0411 -1.2198  0.5324
 5204SOL     OW27073   1.465   1.137   4.943  0.5591 -0.1436 -0.1192
 5204SOL    HW127074   1.548   1.092   4.925  0.3137 -0.4916 -0.3697
 5204SOL    HW227075   1.456   1.187   4.861  2.7434  0.2009 -0.1707
 5205SOL     OW27076   3.100   0.187   5.710  0.0121  0.0878  0.3081
 5205SOL    HW127077   3.054   0.263   5.746 -2.4838 -0.8020 -1.0162
 5205SOL    HW227078   3.180   0.193   5.763  0.9125 -0.2315 -1.0160
 5206SOL     OW27079   0.635   4.256   3.825 -0.1538 -0.2509  0.2764
 5206SOL    HW127080   0.554   4.286   3.867 -0.7607 -1.2226 -0.1896
 5206SOL    HW227081   0.655   4.325   3.762  0.4018 -0.9712 -0.3339
 5207SOL     OW27082   0.854   0.956  11.299 -0.6298 -0.5852 -0.5512
 5207SOL    HW127083   0.878   0.971  11.207  2.2939  0.2496  0.3518
 5207SOL    HW227084   0.921   0.891  11.316 -0.5816 -0.7424 -1.3163
 5208SOL     OW27085   3.935   1.553  13.305 -0.3583  0.7868 -0.2313
 5208SOL    HW127086   3.897   1.555  13.393 -0.6262 -2.5963 -0.2738
 5208SOL    HW227087   3.959   1.645  13.293 -1.5757  1.2986  1.1499
 5209SOL     OW27088   1.794   2.064   3.436  0.2074  0.3117  0.0792
 5209SOL    HW127089   1.746   2.067   3.354 -0.5890 -1.1611  0.4800
 5209SOL    HW227090   1.729   2.037   3.500  0.2776  0.6031  0.2735
 5210SOL     OW27091   2.741   3.949   7.604  0.0502 -0.1397  0.1074
 5210SOL    HW127092   2.712   3.988   7.522  1.8440  0.1700 -0.3546
 5210SOL    HW227093   2.749   3.858   7.576  1.1916 -0.0992  0.3354
 5211SOL     OW27094   2.085   4.318   1.389  0.0770  0.4245 -0.1005
 5211SOL    HW127095   2.075   4.380   1.461  0.2094  0.9718 -0.5534
 5211SOL    HW227096   2.016   4.253   1.406 -0.0839  0.0485 -2.1640
 5212SOL     OW27097   0.673   4.032  12.547 -0.6017 -0.0886 -0.0338
 5212SOL    HW127098   0.674   4.112  12.494  3.5254  1.2861  2.0737
 5212SOL    HW227099   0.748   4.044  12.605 -0.1119 -2.2410 -0.2179
 5213SOL     OW27100   2.175   3.321   7.548 -0.4560  0.6849  0.1246
 5213SOL    HW127101   2.150   3.334   7.639 -0.7133  0.6302  0.0621
 5213SOL    HW227102   2.208   3.407   7.521  0.9136 -0.1368 -0.8515
 5214SOL     OW27103   4.146   1.827   9.398 -0.5721 -0.1137  0.3121
 5214SOL    HW127104   4.066   1.812   9.449  0.4003  0.0528  1.8864
 5214SOL    HW227105   4.106   1.815   9.312  0.3304 -1.8234  0.1306
 5215SOL     OW27106   2.091   1.464  17.203 -0.1692  0.1383 -0.2817
 5215SOL    HW127107   2.004   1.467  17.162  0.2535  2.0974 -1.0443
 5215SOL    HW227108   2.104   1.558  17.196 -0.3956  0.3128  1.6085
 5216SOL     OW27109   3.853   3.374  12.372 -0.0916 -1.0401  0.4790
 5216SOL    HW127110   3.782   3.314  12.391  0.2576 -1.5468  0.1943
 5216SOL    HW227111   3.911   3.344  12.442 -2.4849  0.9700  3.3163
 5217SOL     OW27112   3.134   2.357   5.137  0.2090  0.9305  0.4538
 5217SOL    HW127113   3.112   2.305   5.061  0.1809  0.4903  0.7625
 5217SOL    HW227114   3.074   2.431   5.134 -1.1312 -0.3324 -2.6429
 5218SOL     OW27115   2.397   2.666  11.332 -0.1075  0.2481 -0.1561
 5218SOL    HW127116   2.330   2.617  11.285  0.5755  0.8023 -1.6958
 5218SOL    HW227117   2.474   2.621  11.299  0.6477  0.0496  1.8430
 5219SOL     OW27118   2.016   3.588   0.914  0.7295 -0.4327  0.3005
 5219SOL    HW127119   2.025   3.616   0.823 -2.3050  2.2070  0.8009
 5219SOL    HW227120   2.009   3.493   0.905  0.8857 -0.3095 -1.0648
 5220SOL     OW27121   0.046   2.054   8.439  0.5878 -0.0158  0.7994
 5220SOL    HW127122   4.685   2.020   8.465 -0.3612 -0.3194 -2.8083
 5220SOL    HW227123   0.002   2.113   8.377  1.7452 -1.0961 -1.0208
 5221SOL     OW27124   3.428   3.414   6.393 -0.3929  0.0549 -0.1860
 5221SOL    HW127125   3.427   3.318   6.395 -2.7676  0.0604 -0.8137
 5221SOL    HW227126   3.401   3.449   6.478 -1.6771 -1.1229 -0.1148
 5222SOL     OW27127   2.261   1.129   5.501  0.2401 -0.4359  0.4079
 5222SOL    HW127128   2.193   1.154   5.563 -0.4853 -1.2958 -0.0430
 5222SOL    HW227129   2.338   1.105   5.551  0.7088  0.3907  0.0954
 5223SOL     OW27130   3.128   2.701   8.718 -0.3534 -0.3691 -0.4997
 5223SOL    HW127131   3.204   2.703   8.660  0.6649  1.2217  0.8869
 5223SOL    HW227132   3.145   2.626   8.775 -0.5438  0.1999  0.3088
 5224SOL     OW27133   0.221   0.925   4.749 -1.1202 -1.1058 -0.3993
 5224SOL    HW127134   0.147   0.976   4.717 -1.3648 -0.8472  0.6154
 5224SOL    HW227135   0.218   0.949   4.841  1.7478 -0.0109 -0.6030
 5225SOL     OW27136   3.534   2.256  11.951 -0.8223  0.4434 -0.1937
 5225SOL    HW127137   3.618   2.248  11.996 -1.4274  2.9904  1.4317
 5225SOL    HW227138   3.488   2.178  11.981  1.3458 -0.3764  0.9942
 5226SOL     OW27139   2.639   2.259   7.899  0.3354  0.8590 -0.1961
 5226SOL    HW127140   2.674   2.191   7.956 -1.4754 -0.9407 -1.2330
 5226SOL    HW227141   2.552   2.221   7.881  0.1819  1.0433  0.1510
 5227SOL     OW27142   1.763   4.618   2.866 -0.3004  0.0253  0.3732
 5227SOL    HW127143   1.838   4.613   2.807 -0.7685 -0.8247 -0.1499
 5227SOL    HW227144   1.811   4.642   2.945  0.8349 -0.0614 -0.2880
 5228SOL     OW27145   0.158   0.363   2.898 -0.6605  0.4846  0.2432
 5228SOL    HW127146   0.221   0.358   2.970  1.0242  0.4555 -1.2268
 5228SOL    HW227147   0.183   0.447   2.859  0.5639  0.2224  0.4590
 5229SOL     OW27148   3.642   3.620  12.774  0.5343  0.0965  0.3749
 5229SOL    HW127149   3.720   3.567  12.790  0.2643 -0.6304 -0.7612
 5229SOL    HW227150   3.696   3.693  12.744  0.2015  0.0863 -0.2377
 5230SOL     OW27151   1.003   3.734   5.230 -0.1937 -0.1562 -0.4266
 5230SOL    HW127152   0.908   3.731   5.241 -0.0593  1.1544  1.1282
 5230SOL    HW227153   1.023   3.659   5.174 -0.8259 -1.6415  1.3037
 5231SOL     OW27154   3.308   3.289   2.493 -0.2903  0.0808  0.1076
 5231SOL    HW127155   3.333   3.381   2.479  2.2927 -0.5955  0.3103
 5231SOL    HW227156   3.292   3.283   2.587  0.7692 -2.3951  0.1230
 5232SOL     OW27157   1.719   1.559  11.704 -0.0029  0.1489 -0.8278
 5232SOL    HW127158   1.686   1.471  11.723  0.6956  0.6147  2.6408
 5232SOL    HW227159   1.673   1.585  11.624 -1.1221 -2.4834 -1.0179
 5233SOL     OW27160   3.770   0.309   4.034  0.2583 -0.1293 -0.2409
 5233SOL    HW127161   3.689   0.304   3.984 -0.2933 -1.1999  0.7466
 5233SOL    HW227162   3.756   0.394   4.076 -1.2797 -0.2868 -0.4542
 5234SOL     OW27163   2.624   2.110   7.231  0.6619 -0.1655 -0.1799
 5234SOL    HW127164   2.679   2.180   7.268  1.8119 -0.3460 -1.5389
 5234SOL    HW227165   2.614   2.131   7.138 -1.3028  0.3107  0.1535
 5235SOL     OW27166   3.716   1.743  10.826  0.1651  0.2092  0.2105
 5235SOL    HW127167   3.637   1.696  10.853  1.6770 -1.3378  1.9761
 5235SOL    HW227168   3.785   1.681  10.849  0.3053 -0.3689 -1.7913
 5236SOL     OW27169   3.002   3.669   5.880 -0.0950  0.0301  0.1045
 5236SOL    HW127170   3.001   3.759   5.849 -1.5554  0.5535  1.6280
 5236SOL    HW227171   2.915   3.667   5.922 -0.1206  0.3834  0.0701
 5237SOL     OW27172   1.944   0.822  14.129 -0.0687 -0.0552 -0.4132
 5237SOL    HW127173   1.906   0.894  14.179 -1.5778 -0.1914 -1.3848
 5237SOL    HW227174   1.866   0.776  14.097 -1.4767  1.9418  0.1862
 5238SOL     OW27175   1.551   4.088  16.141 -0.6974  0.3457 -0.1886
 5238SOL    HW127176   1.524   4.158  16.081 -0.8788 -2.0897 -2.9465
 5238SOL    HW227177   1.639   4.122  16.154 -0.4799 -0.0850 -0.5290
 5239SOL     OW27178   2.326   3.303   1.690 -0.8990  0.1664  0.5135
 5239SOL    HW127179   2.352   3.221   1.732  0.6751  0.9202  1.0051
 5239SOL    HW227180   2.288   3.341   1.769 -0.6037  1.7886 -0.1387
 5240SOL     OW27181   1.963   2.442   5.476  0.4502 -0.1456 -0.2751
 5240SOL    HW127182   1.895   2.386   5.439 -1.2914  1.6770  0.1430
 5240SOL    HW227183   1.921   2.521   5.509 -0.7834 -0.8991 -0.0337
 5241SOL     OW27184   2.831   4.407   2.437 -0.0197 -0.0388 -0.1238
 5241SOL    HW127185   2.756   4.349   2.451  0.2632 -0.5640 -0.7756
 5241SOL    HW227186   2.820   4.456   2.518 -0.9090  0.5286 -0.5955
 5242SOL     OW27187   1.808   4.100   0.931 -0.1477  0.4975 -0.4554
 5242SOL    HW127188   1.893   4.060   0.913 -0.0914  1.4372 -2.2995
 5242SOL    HW227189   1.773   4.036   0.994 -0.8192  0.1941 -1.1356
 5243SOL     OW27190   3.253   1.774   7.379  0.5934 -0.0572 -0.3032
 5243SOL    HW127191   3.266   1.679   7.383  0.4455 -0.0477  0.3876
 5243SOL    HW227192   3.343   1.800   7.359  0.5322  1.4119  1.3603
 5244SOL     OW27193   1.602   3.587  12.944  0.4516 -0.1920  0.1492
 5244SOL    HW127194   1.538   3.521  12.919 -0.1970  1.1541 -1.7994
 5244SOL    HW227195   1.551   3.635  13.010 -1.4688 -0.0823 -1.4028
 5245SOL     OW27196   3.328   1.278   8.555  0.6598 -0.1430  0.1796
 5245SOL    HW127197   3.387   1.208   8.582  0.2276 -1.0478 -1.2106
 5245SOL    HW227198   3.245   1.243   8.587 -0.0468 -1.0900 -2.7120
 5246SOL     OW27199   2.194   3.559   8.703  0.1773  0.6169  0.3388
 5246SOL    HW127200   2.183   3.493   8.635  0.1984  0.1084  0.8298
 5246SOL    HW227201   2.210   3.638   8.651 -2.1747  0.1137 -1.1351
 5247SOL     OW27202   0.716   2.782   1.824  0.0183  0.2352  0.4765
 5247SOL    HW127203   0.760   2.835   1.890 -1.7579  1.0128  1.0557
 5247SOL    HW227204   0.758   2.697   1.840 -0.3461 -0.1289 -0.4603
 5248SOL     OW27205   0.121   3.154   2.412 -0.5074 -0.7367  0.1247
 5248SOL    HW127206   0.202   3.146   2.361 -0.2729  0.9711  0.2451
 5248SOL    HW227207   0.166   3.148   2.496 -1.5114 -1.1113  0.6345
 5249SOL     OW27208   1.509   3.965   5.081  0.1545  0.0846  0.5933
 5249SOL    HW127209   1.571   4.013   5.135  0.5267 -2.6637  2.6099
 5249SOL    HW227210   1.433   3.964   5.138 -0.7465 -0.2911 -0.6100
 5250SOL     OW27211   0.676   0.432  15.639  0.0915 -0.0913 -0.0737
 5250SOL    HW127212   0.587   0.459  15.616  0.3704  1.7122  0.9368
 5250SOL    HW227213   0.714   0.419  15.552  1.7575 -1.2453  0.8082
 5251SOL     OW27214   2.614   0.330  14.856 -0.0906 -0.7473  0.3064
 5251SOL    HW127215   2.678   0.258  14.853  0.8521  0.0431  1.4857
 5251SOL    HW227216   2.656   0.390  14.795 -0.2982  0.2326  1.1296
 5252SOL     OW27217   2.097   2.663  10.251 -0.4869 -0.2419  0.5118
 5252SOL    HW127218   2.111   2.674  10.157  0.2962  0.2294  0.6817
 5252SOL    HW227219   2.126   2.573  10.268 -1.9021 -0.7355  0.3163
 5253SOL     OW27220   2.450   1.807   7.822  0.5616 -0.6564 -0.2168
 5253SOL    HW127221   2.493   1.722   7.829  2.9106  0.5610  0.0196
 5253SOL    HW227222   2.430   1.809   7.729  2.7397  1.2397 -0.6331
 5254SOL     OW27223   3.190   4.475   7.479  0.2489 -0.2063  0.2462
 5254SOL    HW127224   3.147   4.539   7.536  1.3758  0.9705 -0.2264
 5254SOL    HW227225   3.130   4.401   7.490 -1.2905  0.9556 -0.3667
 5255SOL     OW27226   2.683   0.380   6.198 -0.1391  0.4394 -0.0510
 5255SOL    HW127227   2.735   0.309   6.234  0.6994  1.0124 -0.1077
 5255SOL    HW227228   2.596   0.342   6.196 -0.0063  0.0463  2.0209
 5256SOL     OW27229   3.366   0.089   8.390 -0.1268  0.5455 -0.7389
 5256SOL    HW127230   3.451   0.131   8.380  0.7415 -1.0465 -0.0811
 5256SOL    HW227231   3.393   0.000   8.366 -0.2497  0.4916 -0.6796
 5257SOL     OW27232   4.365   4.184  11.786 -0.1060  0.1302  0.2446
 5257SOL    HW127233   4.444   4.232  11.761 -0.1081 -0.2288 -0.4673
 5257SOL    HW227234   4.310   4.216  11.714 -0.0254 -0.5308 -0.1121
 5258SOL     OW27235   1.921   3.975  14.820 -0.4486 -0.3387 -0.5396
 5258SOL    HW127236   1.984   4.020  14.875 -0.1098 -0.9330 -0.4403
 5258SOL    HW227237   1.917   4.030  14.742  2.3709  0.4062 -0.1544
 5259SOL     OW27238   0.741   3.491   8.568 -0.4283  0.2327 -0.2744
 5259SOL    HW127239   0.733   3.579   8.531 -0.8813 -0.7081 -2.4216
 5259SOL    HW227240   0.680   3.503   8.641 -0.1611 -1.5447  0.2311
 5260SOL     OW27241   4.055   2.873   8.258  0.3916  0.5145  0.7699
 5260SOL    HW127242   4.121   2.804   8.251  0.6074  0.7286  0.6569
 5260SOL    HW227243   4.107   2.941   8.301 -0.3181  1.9914 -0.7210
 5261SOL     OW27244   4.294   1.545   4.162 -0.2071  1.2068  0.1095
 5261SOL    HW127245   4.345   1.507   4.234 -1.1821 -0.9439 -0.3217
 5261SOL    HW227246   4.204   1.550   4.194 -0.4964 -1.6350 -0.2242
 5262SOL     OW27247   1.925   2.589   7.206  0.2718 -0.1045  0.3433
 5262SOL    HW127248   1.883   2.508   7.232 -1.0975  0.8392  1.0712
 5262SOL    HW227249   1.962   2.613   7.292 -1.3512  3.0001  0.1675
 5263SOL     OW27250   0.322   3.987   4.104  0.0647  0.1456 -0.2027
 5263SOL    HW127251   0.372   4.056   4.147 -3.2883  2.3488  0.0737
 5263SOL    HW227252   0.368   3.912   4.141  0.5371  0.8838  0.6968
 5264SOL     OW27253   2.354   4.138   8.268  0.2234 -0.8023  0.1457
 5264SOL    HW127254   2.447   4.148   8.249  0.0632  0.3325 -0.0514
 5264SOL    HW227255   2.347   4.180   8.354 -3.1655  0.1787 -0.5717
 5265SOL     OW27256   1.969   4.255   3.045 -0.1521  0.3573  0.3010
 5265SOL    HW127257   2.025   4.255   3.122 -1.9264  0.9801  1.6001
 5265SOL    HW227258   1.897   4.300   3.090 -0.6022  0.2126 -0.2638
 5266SOL     OW27259   1.981   2.879  10.583  0.3418 -0.4110 -0.3005
 5266SOL    HW127260   1.888   2.877  10.561  0.0216 -1.8867  1.1709
 5266SOL    HW227261   2.027   2.908  10.504  0.2172 -2.5663 -1.1584
 5267SOL     OW27262   0.430   0.848   4.589 -0.5065 -0.2216 -0.2537
 5267SOL    HW127263   0.356   0.896   4.625 -1.1721 -1.0214 -0.5699
 5267SOL    HW227264   0.389   0.763   4.579 -1.8834  0.5071 -0.7902
 5268SOL     OW27265   1.223   1.416  14.110  0.0100  0.2059 -0.5897
 5268SOL    HW127266   1.315   1.440  14.101  0.9940 -2.8713  1.2134
 5268SOL    HW227267   1.194   1.485  14.169 -0.3379 -0.6072  0.1880
 5269SOL     OW27268   0.112   1.987   0.368 -0.1502 -0.6885 -0.1439
 5269SOL    HW127269   0.200   1.994   0.406 -0.6973  1.5859  0.7146
 5269SOL    HW227270   0.102   1.895   0.391  0.3808 -0.2072  2.0072
 5270SOL     OW27271   3.705   1.464   8.198  0.1425 -0.2884 -0.6584
 5270SOL    HW127272   3.696   1.516   8.278  1.9527  2.2096 -2.0716
 5270SOL    HW227273   3.628   1.410   8.215  0.6489 -1.0078 -0.6341
 5271SOL     OW27274   3.042   0.914  16.804 -0.4508 -0.2330  0.3572
 5271SOL    HW127275   3.038   0.897  16.710 -0.2484 -2.0499  0.6731
 5271SOL    HW227276   3.133   0.884  16.811 -0.6382 -0.2734  2.6781
 5272SOL     OW27277   2.028   2.182  15.951  0.4416  0.1822  0.2506
 5272SOL    HW127278   2.092   2.201  15.883 -0.3056  0.0875 -0.4765
 5272SOL    HW227279   2.019   2.268  15.993  0.4213 -1.0466  2.7489
 5273SOL     OW27280   4.295   2.512  12.903 -0.3414  0.1206 -0.1601
 5273SOL    HW127281   4.348   2.529  12.826 -0.7562 -1.5206 -0.8093
 5273SOL    HW227282   4.211   2.491  12.863 -0.6047 -1.5748  1.2736
 5274SOL     OW27283   3.796   4.316  12.986 -0.2350  0.6050 -0.5102
 5274SOL    HW127284   3.825   4.316  12.894  0.9772  1.5885 -0.1274
 5274SOL    HW227285   3.772   4.408  12.994  2.5728  1.4697 -2.0336
 5275SOL     OW27286   3.783   1.765   6.960  0.1976  0.5882  0.3087
 5275SOL    HW127287   3.843   1.828   6.918 -0.4455  0.9995  0.0158
 5275SOL    HW227288   3.790   1.687   6.904  0.9209  0.8508  0.0203
 5276SOL     OW27289   1.517   1.809   4.242  0.1353  0.8710 -0.2936
 5276SOL    HW127290   1.474   1.787   4.159 -0.4051 -3.2349  1.0449
 5276SOL    HW227291   1.610   1.816   4.224  1.1138 -1.1561  4.0155
 5277SOL     OW27292   1.522   0.055  15.724  0.7502 -0.2551  0.4369
 5277SOL    HW127293   1.464   0.038  15.650  0.6905  0.1452  0.3919
 5277SOL    HW227294   1.603   0.017  15.691  0.7733  0.3766 -0.2417
 5278SOL     OW27295   2.684   0.080   7.652 -0.5169  0.2813 -0.6587
 5278SOL    HW127296   2.617   0.030   7.604  0.4397 -2.6792  1.1035
 5278SOL    HW227297   2.746   0.103   7.582  0.5860 -0.7818 -0.0361
 5279SOL     OW27298   2.962   3.223  15.533 -0.3955 -0.0878 -0.6306
 5279SOL    HW127299   2.883   3.228  15.587 -0.4419 -0.1032 -0.6964
 5279SOL    HW227300   3.021   3.285  15.576  0.4696 -1.2026 -0.2060
 5280SOL     OW27301   2.588   0.762   5.627 -0.0380  0.6298 -0.0863
 5280SOL    HW127302   2.522   0.782   5.693  0.9231  0.5791  0.8874
 5280SOL    HW227303   2.668   0.779   5.677  0.7859 -3.0457 -0.1528
 5281SOL     OW27304   0.305   3.810   3.225 -0.0098  0.1907 -0.3083
 5281SOL    HW127305   0.370   3.878   3.210  0.5614 -0.2734  0.0588
 5281SOL    HW227306   0.344   3.770   3.303 -2.3483 -0.0571  0.7519
 5282SOL     OW27307   4.002   1.364   6.575 -0.4558  0.2097  0.3573
 5282SOL    HW127308   3.976   1.452   6.547 -0.1566  0.1492 -0.1203
 5282SOL    HW227309   4.094   1.376   6.550 -0.0261 -2.4072  0.7041
 5283SOL     OW27310   4.304   3.674   4.637 -0.2683  0.1664  0.1187
 5283SOL    HW127311   4.366   3.739   4.603 -0.3472 -0.4564 -1.2005
 5283SOL    HW227312   4.334   3.686   4.727 -1.0386 -0.5425  0.4611
 5284SOL     OW27313   3.968   3.695   6.471 -0.1506  0.7937 -0.1767
 5284SOL    HW127314   3.878   3.719   6.494  0.4552  1.8101  1.1763
 5284SOL    HW227315   3.995   3.778   6.431  1.5356  0.9470  1.2955
 5285SOL     OW27316   1.421   0.523   5.385 -0.1477  0.3114  0.1749
 5285SOL    HW127317   1.510   0.500   5.358  0.0821 -0.0657  1.2353
 5285SOL    HW227318   1.376   0.569   5.315 -1.7592  2.5551  2.7090
 5286SOL     OW27319   1.575   0.215   8.999 -0.6698  0.0096  0.2170
 5286SOL    HW127320   1.591   0.163   9.077  0.2293 -2.8294 -1.8579
 5286SOL    HW227321   1.653   0.272   8.993 -0.7660  0.0381 -0.7431
 5287SOL     OW27322   2.934   3.451   0.624 -0.4694  0.3036  0.3753
 5287SOL    HW127323   2.996   3.494   0.683 -1.1347 -1.3079  2.2636
 5287SOL    HW227324   2.949   3.505   0.547 -1.8480 -2.1731 -1.6377
 5288SOL     OW27325   2.139   3.741   4.619  0.9154 -0.0286 -0.4968
 5288SOL    HW127326   2.130   3.648   4.595  0.6140  0.0427 -0.6621
 5288SOL    HW227327   2.227   3.756   4.584  0.8586  1.4713  0.0075
 5289SOL     OW27328   1.118   2.154   4.799  0.0489  0.4767  0.2632
 5289SOL    HW127329   1.203   2.174   4.840  1.1963 -0.4403 -1.6895
 5289SOL    HW227330   1.064   2.184   4.872 -2.6570 -0.8039 -1.2440
 5290SOL     OW27331   4.230   1.737   3.943 -0.2983 -0.0439  0.3025
 5290SOL    HW127332   4.233   1.666   4.007  1.9496 -2.3625 -2.3387
 5290SOL    HW227333   4.144   1.723   3.904  0.4513 -0.8357 -1.0846
 5291SOL     OW27334   4.382   3.205   2.471  0.2123 -0.0794 -0.5145
 5291SOL    HW127335   4.458   3.195   2.414  1.2272  0.7780  0.6567
 5291SOL    HW227336   4.355   3.117   2.495  1.6247 -0.8037 -1.6173
 5292SOL     OW27337   0.794   1.761   3.619 -0.0571  0.0709  0.7587
 5292SOL    HW127338   0.798   1.779   3.713 -1.7412  1.9739  0.4607
 5292SOL    HW227339   0.703   1.742   3.594 -0.3214 -0.4091  2.0582
 5293SOL     OW27340   1.675   3.878   4.339 -0.5636 -0.2541  0.4131
 5293SOL    HW127341   1.594   3.826   4.333 -0.2060 -0.4178 -2.7163
 5293SOL    HW227342   1.712   3.861   4.426  2.2149  3.7789  0.0166
 5294SOL     OW27343   2.391   2.510   7.641 -0.4629 -0.0697  0.6499
 5294SOL    HW127344   2.484   2.485   7.638 -0.1162  1.2402  0.3569
 5294SOL    HW227345   2.382   2.569   7.566 -0.3376 -0.0814  0.6248
 5295SOL     OW27346   3.702   2.562   1.822  0.0706  0.2585  0.2044
 5295SOL    HW127347   3.670   2.636   1.874  1.8922 -0.0199  1.7174
 5295SOL    HW227348   3.657   2.496   1.875 -3.0226  2.0366 -0.1905
 5296SOL     OW27349   4.422   3.794   1.053  0.4050  0.2113 -0.1418
 5296SOL    HW127350   4.440   3.803   0.959 -0.6582 -0.7082 -0.4338
 5296SOL    HW227351   4.469   3.714   1.075 -0.3050 -0.5665 -1.4026
 5297SOL     OW27352   4.506   2.956   6.263 -0.4168 -0.2661 -0.1978
 5297SOL    HW127353   4.537   3.012   6.333 -0.5208  0.4499 -0.7192
 5297SOL    HW227354   4.436   3.012   6.229 -1.3978 -0.0092  2.2576
 5298SOL     OW27355   4.255   3.886  12.326 -0.0112  0.3094 -0.3849
 5298SOL    HW127356   4.310   3.892  12.248  0.6652  0.4562  0.1110
 5298SOL    HW227357   4.312   3.922  12.393  0.3588  1.1047 -1.1212
 5299SOL     OW27358   0.706   3.412  11.580 -0.5026 -0.0272 -0.1395
 5299SOL    HW127359   0.700   3.447  11.669  1.1058 -0.4884  0.1430
 5299SOL    HW227360   0.681   3.488  11.527 -1.2700  0.2760  0.6563
 5300SOL     OW27361   0.304   2.502   2.669 -0.1205 -0.2873 -0.0081
 5300SOL    HW127362   0.373   2.486   2.605 -1.3302 -1.0370 -1.1088
 5300SOL    HW227363   0.287   2.596   2.661 -0.2393 -0.2674  0.4897
 5301SOL     OW27364   4.564   2.576   9.039 -0.0520 -0.1402  0.0921
 5301SOL    HW127365   4.512   2.603   9.115 -0.3935 -2.4699  0.6773
 5301SOL    HW227366   4.559   2.481   9.046  2.1929 -0.1914  0.8297
 5302SOL     OW27367   2.719   3.415   5.303 -0.1672 -0.4433  0.3803
 5302SOL    HW127368   2.680   3.336   5.265  0.9511 -0.9284  0.2574
 5302SOL    HW227369   2.778   3.381   5.370  0.4067 -0.4680 -0.1337
 5303SOL     OW27370   2.909   4.063   0.767  0.4142 -0.1614 -0.8396
 5303SOL    HW127371   2.889   3.975   0.801 -1.3583  0.7104  0.3461
 5303SOL    HW227372   2.822   4.100   0.776  0.1152 -0.9213 -0.5523
 5304SOL     OW27373   0.394   0.829   3.485 -0.1384  0.2210  0.4718
 5304SOL    HW127374   0.386   0.778   3.404  2.3821 -0.3307  0.5959
 5304SOL    HW227375   0.346   0.908   3.460 -0.1916 -0.1402 -0.5849
 5305SOL     OW27376   3.486   2.084   9.037 -0.2321  0.3381  0.6593
 5305SOL    HW127377   3.416   2.132   9.082  0.6225  2.0514  0.1803
 5305SOL    HW227378   3.541   2.160   9.019 -1.3669  0.8088 -0.7863
 5306SOL     OW27379   2.573   0.772   3.613 -0.3520 -0.2089 -0.0192
 5306SOL    HW127380   2.615   0.699   3.658 -2.6091 -1.0058  0.7646
 5306SOL    HW227381   2.483   0.762   3.642  0.2964 -0.4866  1.8636
 5307SOL     OW27382   3.008   3.922   5.780 -0.6225 -0.0016  0.2433
 5307SOL    HW127383   2.986   3.969   5.699 -2.8379 -0.9852  0.2798
 5307SOL    HW227384   3.077   3.977   5.819  0.9055 -0.9721 -1.0662
 5308SOL     OW27385   2.101   0.639   6.314 -0.2510 -0.4431 -0.1837
 5308SOL    HW127386   2.158   0.563   6.324 -0.3024 -0.5308 -0.5437
 5308SOL    HW227387   2.134   0.677   6.232  1.7117  3.2888  2.3482
 5309SOL     OW27388   0.078   1.435   2.566 -0.0213 -0.0247 -0.0827
 5309SOL    HW127389   0.091   1.383   2.487  0.3800 -1.0552  0.6653
 5309SOL    HW227390   0.068   1.523   2.529  1.3211 -0.8289 -2.3477
 5310SOL     OW27391   1.772   2.324   3.991 -0.0954 -0.4825 -0.4041
 5310SOL    HW127392   1.721   2.261   4.042 -1.6959 -0.0879 -1.5122
 5310SOL    HW227393   1.815   2.254   3.942  1.0884  0.2480 -0.4088
 5311SOL     OW27394   2.178   4.573  16.791 -0.1156 -0.4226  0.3633
 5311SOL    HW127395   2.154   4.480  16.790 -0.6642 -0.2840  0.7344
 5311SOL    HW227396   2.101   4.602  16.742 -0.3708 -1.6500  0.0230
 5312SOL     OW27397   3.359   0.706  12.469 -0.0129  0.0999  0.3252
 5312SOL    HW127398   3.278   0.756  12.474  0.1777  0.5568 -1.0920
 5312SOL    HW227399   3.381   0.687  12.560  0.2203 -0.6742  0.1151
 5313SOL     OW27400   2.967   1.676   6.327 -0.3453  0.1255  0.8965
 5313SOL    HW127401   3.006   1.728   6.257 -0.2900 -1.7914 -0.4676
 5313SOL    HW227402   2.883   1.722   6.335 -1.5156 -2.0503  1.0514
 5314SOL     OW27403   4.314   2.379   4.184 -0.5935  0.2100 -0.5706
 5314SOL    HW127404   4.339   2.325   4.259  0.0598 -0.6823 -1.4277
 5314SOL    HW227405   4.314   2.316   4.111  1.4186 -0.1536 -0.2574
 5315SOL     OW27406   3.075   2.958   8.787 -0.5967 -0.2513 -0.1271
 5315SOL    HW127407   2.985   2.972   8.756 -1.1581 -1.1810  1.0846
 5315SOL    HW227408   3.086   2.863   8.780 -0.7084 -0.0808 -2.4786
 5316SOL     OW27409   0.981   2.060   9.977 -0.3998 -0.0031  0.3444
 5316SOL    HW127410   1.070   2.083  10.001  0.5890 -4.0325  0.5319
 5316SOL    HW227411   0.981   1.965   9.986  0.0729 -0.0364 -0.0111
 5317SOL     OW27412   4.248   4.661   9.463  0.4928  0.4898  0.0499
 5317SOL    HW127413   4.237   4.566   9.474 -0.9881  0.8115  1.2976
 5317SOL    HW227414   4.331   4.669   9.509  0.1594  0.2272  0.6994
 5318SOL     OW27415   0.302   2.297  11.180  0.5033  0.0534  0.8467
 5318SOL    HW127416   0.292   2.232  11.250 -0.5570 -0.5617  0.1358
 5318SOL    HW227417   0.379   2.347  11.206  0.3440  0.1475  1.1412
 5319SOL     OW27418   1.133   0.854   2.799  0.0191  0.0357  0.1818
 5319SOL    HW127419   1.133   0.765   2.836 -2.2329  0.2612  0.7488
 5319SOL    HW227420   1.086   0.898   2.870  0.7282  1.2573 -0.1079
 5320SOL     OW27421   1.350   4.137   3.172 -0.1567  0.4195  0.1364
 5320SOL    HW127422   1.425   4.179   3.132 -1.0656  1.2243 -0.7170
 5320SOL    HW227423   1.342   4.193   3.249 -0.8650 -2.5186  2.2132
 5321SOL     OW27424   4.046   3.470   4.436  1.0980  0.1666  0.0144
 5321SOL    HW127425   4.085   3.524   4.367  0.9114  1.3563  0.8519
 5321SOL    HW227426   4.031   3.387   4.390  1.5724  0.4214 -0.5932
 5322SOL     OW27427   2.306   2.322   1.885  0.1159 -0.6832  0.0390
 5322SOL    HW127428   2.324   2.370   1.805  1.3494  0.7373  1.1678
 5322SOL    HW227429   2.219   2.292   1.858 -0.8442  0.8271  1.4565
 5323SOL     OW27430   0.945   2.177   1.435 -0.5504  0.6419  0.2277
 5323SOL    HW127431   1.003   2.151   1.507  0.1997  3.7995  0.7579
 5323SOL    HW227432   0.984   2.139   1.356 -0.1764 -1.4485  1.4049
 5324SOL     OW27433   4.453   1.344   2.163 -0.0018  0.3687  0.0976
 5324SOL    HW127434   4.531   1.312   2.117 -1.1557 -0.3656 -1.3453
 5324SOL    HW227435   4.432   1.277   2.228 -0.9540  0.8314  0.2620
 5325SOL     OW27436   1.814   4.536   8.285  0.2962  0.5672  0.1875
 5325SOL    HW127437   1.728   4.542   8.242  1.2773 -1.3315 -2.0396
 5325SOL    HW227438   1.790   4.515   8.376 -1.1678  1.7514  0.0740
 5326SOL     OW27439   1.698   1.944  17.355  0.1168  0.4773 -0.5907
 5326SOL    HW127440   1.658   1.951  17.269  3.5090 -0.4103 -2.2320
 5326SOL    HW227441   1.626   1.970  17.413 -1.7738 -4.3194 -0.7776
 5327SOL     OW27442   3.379   1.197   7.775  0.0143  0.0219 -0.7801
 5327SOL    HW127443   3.449   1.202   7.710  2.3541 -0.0404  1.7654
 5327SOL    HW227444   3.328   1.126   7.736 -1.9814  0.4527  1.0342
 5328SOL     OW27445   4.389   3.725   7.631 -0.2056 -0.6304 -0.4035
 5328SOL    HW127446   4.434   3.808   7.649  1.0054 -0.8583 -2.3564
 5328SOL    HW227447   4.302   3.754   7.658 -0.6882 -1.5439 -0.9700
 5329SOL     OW27448   0.695   3.564   7.213 -0.5316 -0.2488 -0.0628
 5329SOL    HW127449   0.682   3.503   7.285 -0.9978  0.8875  0.8276
 5329SOL    HW227450   0.785   3.539   7.192 -0.0309  2.6229 -1.4717
 5330SOL     OW27451   0.698   3.097   4.182  0.0668  0.3289 -0.3417
 5330SOL    HW127452   0.648   3.168   4.141 -0.3055  0.0954 -0.2911
 5330SOL    HW227453   0.649   3.093   4.264  1.1979  1.6896  0.4045
 5331SOL     OW27454   4.682   3.920   6.266  0.2933  0.7258 -0.2662
 5331SOL    HW127455   4.701   3.827   6.276 -3.1792 -0.0431 -0.7965
 5331SOL    HW227456   4.644   3.945   6.351  1.3101  0.3163  0.3056
 5332SOL     OW27457   3.961   3.703  15.143  0.2305  0.1657  0.1733
 5332SOL    HW127458   4.006   3.716  15.226 -0.6409  0.0458  0.6636
 5332SOL    HW227459   3.894   3.648  15.184 -0.5648  1.7214  0.9388
 5333SOL     OW27460   3.577   3.028  12.841  0.4680 -0.4759  0.3275
 5333SOL    HW127461   3.552   3.027  12.749  1.8100  0.6189 -0.0563
 5333SOL    HW227462   3.632   3.105  12.850 -1.3291  0.8558 -0.1981
 5334SOL     OW27463   2.832   2.808  10.284  0.2170  0.7660  0.2475
 5334SOL    HW127464   2.838   2.880  10.348  1.3332  0.6260  0.3109
 5334SOL    HW227465   2.856   2.849  10.201  0.9650 -2.3977 -1.0669
 5335SOL     OW27466   4.293   3.781   7.260  0.0260  0.6439 -0.1014
 5335SOL    HW127467   4.218   3.841   7.265 -0.3556  0.0666  1.1571
 5335SOL    HW227468   4.270   3.716   7.326  0.7571  1.4770  0.9862
 5336SOL     OW27469   0.337   3.061   5.806  0.6471  0.6567 -0.1453
 5336SOL    HW127470   0.392   3.017   5.742  2.5150  0.9758  1.2237
 5336SOL    HW227471   0.341   3.001   5.881  0.3096 -0.4631 -1.0369
 5337SOL     OW27472   2.169   0.483  12.160  0.2350 -0.4316  0.0294
 5337SOL    HW127473   2.139   0.404  12.114 -0.4251 -0.9506  1.3562
 5337SOL    HW227474   2.101   0.498  12.226  0.3834  0.3196  0.0131
 5338SOL     OW27475   3.630   0.091   1.362 -0.3018 -0.4225 -0.0903
 5338SOL    HW127476   3.538   0.109   1.382 -0.2714  0.1150 -0.4464
 5338SOL    HW227477   3.652   0.038   1.439  0.1289 -0.9489 -0.5790
 5339SOL     OW27478   3.519   1.740  14.353 -0.1931 -0.3322  0.4315
 5339SOL    HW127479   3.575   1.777  14.422  1.1100 -2.1779  0.3790
 5339SOL    HW227480   3.439   1.776  14.392  0.1578 -0.1950  1.0266
 5340SOL     OW27481   2.644   2.881   8.635 -0.5880  0.3192  0.8863
 5340SOL    HW127482   2.731   2.840   8.643  0.0582  1.3353 -0.9150
 5340SOL    HW227483   2.590   2.811   8.671  0.4158 -0.1699  1.4585
 5341SOL     OW27484   2.922   0.416   5.788  0.2575  0.0045  0.5474
 5341SOL    HW127485   2.966   0.436   5.870 -3.0413 -0.1668  2.3598
 5341SOL    HW227486   2.913   0.506   5.756 -1.2468 -0.1465  0.5686
 5342SOL     OW27487   3.066   3.495  12.319  0.9749  0.9882 -0.3742
 5342SOL    HW127488   2.991   3.479  12.262  0.7505  0.9931 -0.0853
 5342SOL    HW227489   3.103   3.408  12.333 -1.1000  0.5878  2.7903
 5343SOL     OW27490   0.164   3.476  16.326  0.0134 -0.3542 -0.5761
 5343SOL    HW127491   0.243   3.489  16.378  0.8133 -0.8772 -1.6599
 5343SOL    HW227492   0.109   3.537  16.375 -0.3412 -2.6733  1.8988
 5344SOL     OW27493   1.552   4.342   0.058 -1.2883  0.2708 -0.1061
 5344SOL    HW127494   1.585   4.314  17.674  1.4418  0.1255  1.0133
 5344SOL    HW227495   1.597   4.425   0.078 -1.0716  0.0538  0.3020
 5345SOL     OW27496   3.318   1.840   8.963  0.8103 -0.2676  0.0566
 5345SOL    HW127497   3.240   1.892   8.942  1.1798 -0.2212 -1.2071
 5345SOL    HW227498   3.385   1.908   8.968  0.7525 -0.1429 -0.8839
 5346SOL     OW27499   0.174   4.327  13.239  0.7325 -0.1528 -0.3866
 5346SOL    HW127500   0.263   4.310  13.208  1.5269  3.0409  0.1731
 5346SOL    HW227501   0.139   4.240  13.258  0.5526  0.3052  1.4209
 5347SOL     OW27502   1.188   2.188   2.007  0.1319 -0.3793  0.3906
 5347SOL    HW127503   1.160   2.109   1.960 -2.5176  0.7340  0.0953
 5347SOL    HW227504   1.270   2.216   1.967 -0.6373 -0.5741 -1.3488
 5348SOL     OW27505   4.627   3.849  15.417 -0.3367  0.4197  1.0055
 5348SOL    HW127506   4.677   3.847  15.499 -0.1063  1.5694  0.8929
 5348SOL    HW227507   4.695   3.879  15.357 -1.7868  1.7623  0.0590
 5349SOL     OW27508   0.479   4.121   6.260  0.1765  0.1697 -0.1023
 5349SOL    HW127509   0.403   4.085   6.306 -1.1741  3.5072  0.3601
 5349SOL    HW227510   0.453   4.122   6.167 -0.5900  1.7996  0.1297
 5350SOL     OW27511   2.735   4.477   7.439  0.4365  0.4201  0.5108
 5350SOL    HW127512   2.771   4.555   7.481 -0.7002  1.3971 -0.3150
 5350SOL    HW227513   2.716   4.510   7.351  1.9099  0.7474  0.3097
 5351SOL     OW27514   1.323   1.547   5.290  0.4300 -0.5424 -0.1073
 5351SOL    HW127515   1.354   1.488   5.221  2.1308  1.0649 -0.7158
 5351SOL    HW227516   1.247   1.503   5.329  0.9384 -2.5361 -1.3848
 5352SOL     OW27517   2.081   3.367   3.125  0.0759 -0.2673  0.3231
 5352SOL    HW127518   2.079   3.271   3.132  1.0582 -0.0887  3.1695
 5352SOL    HW227519   2.007   3.394   3.070  0.4605  0.4489  0.1617
 5353SOL     OW27520   0.500   3.393   3.094 -0.0110  0.4928 -0.0925
 5353SOL    HW127521   0.488   3.395   3.189 -1.7590  1.1478 -0.3201
 5353SOL    HW227522   0.408   3.379   3.069  1.0097 -0.2492 -3.4307
 5354SOL     OW27523   2.962   3.081  17.438 -0.4747 -0.7875  0.3310
 5354SOL    HW127524   2.971   3.098  17.344  1.3087  1.1595  0.8591
 5354SOL    HW227525   2.868   3.069  17.448 -0.8443  1.4352 -0.5402
 5355SOL     OW27526   1.207   4.359   9.486  0.8366 -0.3605 -0.3941
 5355SOL    HW127527   1.138   4.420   9.459  1.2853  0.3311  0.0416
 5355SOL    HW227528   1.192   4.371   9.580  0.5336  2.0137 -0.7527
 5356SOL     OW27529   4.430   2.580  16.571 -0.1759 -0.4877  1.0477
 5356SOL    HW127530   4.483   2.649  16.532  0.0910 -1.2000  0.1477
 5356SOL    HW227531   4.428   2.616  16.660  0.7868  0.1797  0.7977
 5357SOL     OW27532   3.900   2.425   8.353  0.5530  0.3754 -0.2939
 5357SOL    HW127533   3.977   2.401   8.303 -0.6032 -2.2105 -0.8364
 5357SOL    HW227534   3.905   2.520   8.358  0.2177  0.2998  1.4706
 5358SOL     OW27535   1.192   3.978  10.005  0.0202 -0.4540  0.4609
 5358SOL    HW127536   1.143   3.906   9.966  1.3510 -1.8257  1.3297
 5358SOL    HW227537   1.214   4.031   9.929 -3.8011  0.5039  0.0046
 5359SOL     OW27538   1.076   4.462  12.348 -0.4978 -0.5080 -0.1448
 5359SOL    HW127539   0.999   4.517  12.335 -0.7695 -0.6783  0.7276
 5359SOL    HW227540   1.113   4.502  12.427  2.8617 -0.5834 -1.6802
 5360SOL     OW27541   4.433   1.481   3.342 -0.3952 -0.0525  0.3796
 5360SOL    HW127542   4.490   1.409   3.371 -1.2321 -0.6587  0.5436
 5360SOL    HW227543   4.359   1.432   3.306  0.5259 -0.2966 -1.2243
 5361SOL     OW27544   0.252   2.722   6.476  0.4520 -0.4634  0.1911
 5361SOL    HW127545   0.183   2.679   6.425  0.5670  1.7185 -1.7698
 5361SOL    HW227546   0.235   2.683   6.562  0.3132  0.2447  0.4838
 5362SOL     OW27547   0.308   2.297  11.563 -0.3614 -0.2270 -0.3049
 5362SOL    HW127548   0.216   2.319  11.570 -0.5927 -1.6160  1.0981
 5362SOL    HW227549   0.349   2.378  11.594 -1.2658 -0.5369  1.6817
 5363SOL     OW27550   2.439   4.082   5.322 -0.1826 -0.1791 -0.3382
 5363SOL    HW127551   2.407   3.999   5.359  0.8217 -0.4565 -0.0886
 5363SOL    HW227552   2.529   4.056   5.305 -0.1302  0.2249 -0.6677
 5364SOL     OW27553   3.744   3.247  12.866 -0.0906  0.0462 -0.2304
 5364SOL    HW127554   3.790   3.229  12.948  3.6170 -0.7983 -2.4827
 5364SOL    HW227555   3.799   3.316  12.827  1.3349 -1.5181 -0.9836
 5365SOL     OW27556   2.127   0.990  12.759  0.0177 -0.3896 -0.3020
 5365SOL    HW127557   2.111   1.053  12.689 -1.0544  0.0206  0.3088
 5365SOL    HW227558   2.215   1.019  12.783 -1.5713  1.6929  3.0290
 5366SOL     OW27559   1.760   0.173   0.434 -0.1582 -0.5095  0.4858
 5366SOL    HW127560   1.690   0.174   0.370 -0.2475 -0.1158  0.5886
 5366SOL    HW227561   1.766   0.079   0.450  2.1733 -0.2525  1.1946
 5367SOL     OW27562   1.850   1.021   3.399 -0.3198 -0.0132  0.1312
 5367SOL    HW127563   1.792   1.084   3.441  1.0883  0.0453  2.0055
 5367SOL    HW227564   1.894   1.000   3.481 -0.5992  0.2532  0.3478
 5368SOL     OW27565   3.314   0.843   5.353  0.5451 -0.0786 -0.4929
 5368SOL    HW127566   3.287   0.935   5.363 -0.7110 -0.4701 -0.2626
 5368SOL    HW227567   3.235   0.797   5.323 -0.0248  0.1861  0.6014
 5369SOL     OW27568   2.340   3.010   9.826 -0.0616  0.1312  0.1848
 5369SOL    HW127569   2.416   3.006   9.885  1.2132  3.0839 -1.2336
 5369SOL    HW227570   2.264   2.998   9.883 -0.0290  0.1098  0.2240
 5370SOL     OW27571   0.500   1.222   2.018 -0.7561  0.1360  0.5331
 5370SOL    HW127572   0.557   1.167   2.071  0.3618  0.6629 -0.1307
 5370SOL    HW227573   0.558   1.298   2.009  0.5553 -1.0762 -1.2197
 5371SOL     OW27574   0.510   4.582   7.753 -0.0427  0.0083  0.5394
 5371SOL    HW127575   0.537   4.652   7.693 -0.9941 -1.5446 -1.7024
 5371SOL    HW227576   0.556   4.611   7.832 -2.0881 -0.0861  1.7663
 5372SOL     OW27577   1.536   2.167  13.591  0.2455 -0.2624 -0.2506
 5372SOL    HW127578   1.464   2.178  13.529  0.4348 -0.9428 -0.5897
 5372SOL    HW227579   1.613   2.169  13.533  0.9804 -1.2504  0.6840
 5373SOL     OW27580   3.886   1.843   4.267  0.1689 -0.7623  0.0576
 5373SOL    HW127581   3.834   1.923   4.265  1.1738 -0.0786  1.0895
 5373SOL    HW227582   3.833   1.793   4.205  0.1257 -2.1846  1.2183
 5374SOL     OW27583   1.318   0.042   9.272  0.0503  0.3565  0.1259
 5374SOL    HW127584   1.370   4.697   9.233  0.9156  0.3378  1.3243
 5374SOL    HW227585   1.388   0.095   9.309  1.3215 -0.9503 -0.4104
 5375SOL     OW27586   4.015   4.396   3.909 -0.3711 -0.0921 -0.0727
 5375SOL    HW127587   3.987   4.383   3.818  0.7591 -2.1884 -0.1088
 5375SOL    HW227588   4.024   4.307   3.943  1.3290 -0.7640 -2.2803
 5376SOL     OW27589   3.545   2.383  12.222 -0.6047  0.0177 -0.2582
 5376SOL    HW127590   3.504   2.391  12.136  1.3100  0.3260 -1.1277
 5376SOL    HW227591   3.633   2.352  12.201  0.7453  2.3979  2.0340
 5377SOL     OW27592   4.419   2.258   6.147  0.0868  0.0563 -0.1058
 5377SOL    HW127593   4.440   2.192   6.213 -1.2903  0.2923  0.5624
 5377SOL    HW227594   4.435   2.333   6.205 -0.8824  1.3449 -1.5326
 5378SOL     OW27595   0.536   1.589  11.926 -0.1729  0.0068 -0.4510
 5378SOL    HW127596   0.531   1.611  12.019  1.1538 -3.4132  0.4342
 5378SOL    HW227597   0.569   1.670  11.887 -0.5667 -0.0615 -0.9214
 5379SOL     OW27598   4.624   1.204   2.448 -0.4623  0.4937 -0.3503
 5379SOL    HW127599   4.585   1.118   2.434  0.9824  0.1725 -2.4418
 5379SOL    HW227600   4.713   1.182   2.423 -0.4013  0.8802 -0.4840
 5380SOL     OW27601   4.454   2.550   2.978  0.5992 -0.3055  0.8112
 5380SOL    HW127602   4.491   2.524   2.893  1.4456  2.8220  0.2242
 5380SOL    HW227603   4.531   2.555   3.034 -0.1355 -0.7365  1.8639
 5381SOL     OW27604   3.917   1.723  14.673 -0.0056 -0.3588  0.4919
 5381SOL    HW127605   3.835   1.674  14.666 -0.8472  1.2175 -0.8183
 5381SOL    HW227606   3.935   1.737  14.580 -2.1009 -0.8665  0.0085
 5382SOL     OW27607   0.583   2.923   8.342 -0.4203  0.1918 -0.1135
 5382SOL    HW127608   0.536   2.919   8.425  0.6533  0.4406  0.5124
 5382SOL    HW227609   0.599   3.017   8.338 -0.2221  0.1613 -0.0710
 5383SOL     OW27610   0.901   2.312   3.723  0.4085 -0.6522 -0.3096
 5383SOL    HW127611   0.947   2.363   3.789 -1.1513 -0.8278  0.9162
 5383SOL    HW227612   0.808   2.315   3.746  1.0477 -3.7257  2.7510
 5384SOL     OW27613   2.300   3.137   3.064  0.2590  0.5155 -0.1790
 5384SOL    HW127614   2.347   3.069   3.015  1.0640  0.6904  0.3533
 5384SOL    HW227615   2.282   3.196   2.991 -2.0076  0.9520  0.7334
 5385SOL     OW27616   1.470   0.700   9.056  0.2698  0.6098  0.6903
 5385SOL    HW127617   1.470   0.721   9.150  2.4058 -0.4996  0.9429
 5385SOL    HW227618   1.377   0.686   9.038  0.2966 -0.3690  1.2870
 5386SOL     OW27619   3.678   3.836   2.279  0.5288  0.2124 -0.7769
 5386SOL    HW127620   3.716   3.811   2.195  1.8475  1.4661 -0.5421
 5386SOL    HW227621   3.587   3.857   2.257 -0.5610 -2.4412  1.2396
 5387SOL     OW27622   4.285   4.587  10.937  0.4852 -0.2250 -0.3267
 5387SOL    HW127623   4.195   4.555  10.934  0.0391  1.0958 -0.6378
 5387SOL    HW227624   4.290   4.642  10.859  2.2615  1.4173  0.9495
 5388SOL     OW27625   4.020   3.205   8.389 -0.3056  0.3976 -0.0081
 5388SOL    HW127626   3.932   3.194   8.353 -0.0039 -0.5149 -0.4716
 5388SOL    HW227627   4.004   3.255   8.469 -2.3028  0.4928 -0.4807
 5389SOL     OW27628   3.998   4.018  12.612  0.6441  0.2633 -0.3664
 5389SOL    HW127629   4.085   4.058  12.600 -0.3783  3.1477  1.8380
 5389SOL    HW227630   3.986   3.990  12.521  0.5314  0.8484 -0.5329
 5390SOL     OW27631   0.962   2.316  12.182  0.2074  0.2416 -0.3086
 5390SOL    HW127632   0.940   2.243  12.240 -0.3144 -0.2038 -1.0656
 5390SOL    HW227633   0.995   2.277  12.101  1.3324 -0.1488  0.3425
 5391SOL     OW27634   4.367   3.819  12.727 -0.3433  0.1523  0.7472
 5391SOL    HW127635   4.434   3.788  12.665 -0.2261 -0.3902  1.1488
 5391SOL    HW227636   4.413   3.891  12.770 -3.0144  1.1805  1.8765
 5392SOL     OW27637   2.341   3.702   9.613 -0.3945 -0.3901 -0.3801
 5392SOL    HW127638   2.321   3.678   9.522 -0.4133 -0.3780 -0.3791
 5392SOL    HW227639   2.256   3.711   9.656 -0.0773 -0.9354  0.3630
 5393SOL     OW27640   1.965   3.199   9.514  0.2161  0.1693  0.3839
 5393SOL    HW127641   2.055   3.225   9.534 -0.4766  2.8029  0.0679
 5393SOL    HW227642   1.964   3.110   9.550  2.8382 -0.1298 -0.3136
 5394SOL     OW27643   1.444   3.857  17.069 -0.4382 -0.2995  0.2346
 5394SOL    HW127644   1.503   3.856  16.994 -1.1792 -0.0037 -0.3588
 5394SOL    HW227645   1.395   3.937  17.051  0.0234 -0.4580 -1.8423
 5395SOL     OW27646   0.489   0.060   6.676 -0.2807 -0.7789 -0.1620
 5395SOL    HW127647   0.450   4.701   6.651 -1.9997 -0.5075  1.5659
 5395SOL    HW227648   0.561   0.075   6.614  0.9032 -0.4870  1.2888
 5396SOL     OW27649   1.042   4.313   9.731 -0.1010  0.3581 -0.3816
 5396SOL    HW127650   0.979   4.282   9.797  0.8350 -1.8272 -0.4950
 5396SOL    HW227651   1.015   4.400   9.704  0.8435  1.1978  1.3927
 5397SOL     OW27652   1.704   0.314   5.158 -0.4758 -0.2644  0.2307
 5397SOL    HW127653   1.663   0.362   5.230 -0.7905  1.5402 -1.1677
 5397SOL    HW227654   1.761   0.378   5.114 -2.1633 -0.0355 -1.6050
 5398SOL     OW27655   2.067   3.923   2.882 -0.1830 -0.3071 -0.1164
 5398SOL    HW127656   2.030   3.838   2.856  0.3655 -1.4673  2.8696
 5398SOL    HW227657   1.985   3.972   2.882 -0.3625 -0.5952  0.6895
 5399SOL     OW27658   3.281   3.395  16.154 -0.1201  0.2188 -0.3364
 5399SOL    HW127659   3.215   3.356  16.211  0.6555  0.5400  0.7859
 5399SOL    HW227660   3.332   3.314  16.149  1.9402  1.5587 -1.2461
 5400SOL     OW27661   4.084   2.973   6.577 -0.5166  0.2339 -0.2769
 5400SOL    HW127662   4.012   2.969   6.513  0.3982  0.2840 -1.3072
 5400SOL    HW227663   4.108   3.063   6.552 -1.2811  0.8096  1.0738
 5401SOL     OW27664   2.147   4.123   1.823  0.1250 -0.6064 -0.2337
 5401SOL    HW127665   2.240   4.100   1.820  0.5612  1.1232 -0.0349
 5401SOL    HW227666   2.126   4.113   1.730  0.5853  0.7511 -0.4803
 5402SOL     OW27667   0.492   2.624   7.353  0.2729  0.1611 -0.5374
 5402SOL    HW127668   0.482   2.709   7.396  0.3355 -0.4497  0.6668
 5402SOL    HW227669   0.505   2.575   7.434  0.5234  0.2735 -0.5086
 5403SOL     OW27670   3.691   1.639   8.401  0.0968  0.5934  0.4544
 5403SOL    HW127671   3.630   1.700   8.362 -0.8326 -0.7096 -0.1351
 5403SOL    HW227672   3.656   1.622   8.489 -0.0883 -0.2553  0.2193
 5404SOL     OW27673   3.148   0.930   2.744  0.3766 -0.0902  0.5439
 5404SOL    HW127674   3.226   0.897   2.701  0.4226 -1.5519  1.7661
 5404SOL    HW227675   3.145   1.020   2.711  0.4714  1.1536  3.8947
 5405SOL     OW27676   1.427   2.400   5.861 -0.8324  0.0722  0.6398
 5405SOL    HW127677   1.376   2.345   5.802 -0.2533  2.0937 -1.7827
 5405SOL    HW227678   1.408   2.488   5.828 -2.5591 -0.3207  0.6198
 5406SOL     OW27679   2.982   2.945   5.856  0.2930 -0.6329  0.0624
 5406SOL    HW127680   2.967   2.939   5.950  2.0136  3.0508  0.5963
 5406SOL    HW227681   2.920   3.012   5.827  0.2392 -0.2954  0.9722
 5407SOL     OW27682   4.685   2.636  12.614  0.1172 -0.7395 -0.1065
 5407SOL    HW127683   0.036   2.596  12.572  0.0601 -0.4417 -0.4982
 5407SOL    HW227684   4.678   2.716  12.561 -0.1345 -0.4746  0.3323
 5408SOL     OW27685   0.020   0.181   7.812  0.2794 -0.3413 -0.2707
 5408SOL    HW127686   0.065   0.117   7.868 -0.1129  0.4040  0.9079
 5408SOL    HW227687   0.009   0.130   7.732 -0.6365  4.0657 -2.9110
 5409SOL     OW27688   4.374   0.156   8.344 -0.5371 -0.0625  0.4240
 5409SOL    HW127689   4.378   0.061   8.335  1.8197  0.1202 -0.2936
 5409SOL    HW227690   4.298   0.168   8.401 -1.0861  0.9667 -0.5129
 5410SOL     OW27691   0.571   4.359   6.364 -0.2912  0.4563  0.0132
 5410SOL    HW127692   0.508   4.425   6.335 -0.0830  0.0313 -1.4223
 5410SOL    HW227693   0.563   4.285   6.304  2.9910  2.1209 -2.5177
 5411SOL     OW27694   3.122   4.146   6.856 -0.4021 -0.2965 -0.0630
 5411SOL    HW127695   3.201   4.157   6.803  0.2748 -1.8670  0.6289
 5411SOL    HW227696   3.090   4.059   6.832  1.1077 -0.8094 -0.2237
 5412SOL     OW27697   0.279   4.696  15.882 -0.3634  0.4282 -0.1362
 5412SOL    HW127698   0.237   0.024  15.950 -1.3781  1.8907 -1.9059
 5412SOL    HW227699   0.351   0.029  15.858 -2.5052  2.1428 -2.3193
 5413SOL     OW27700   0.361   0.160   5.436  0.1559 -0.1990  0.1063
 5413SOL    HW127701   0.327   0.220   5.503  0.6391 -0.5777  0.6878
 5413SOL    HW227702   0.300   0.087   5.441  0.7473 -0.8061 -1.8279
 5414SOL     OW27703   1.474   4.011   7.619  0.3090 -0.0324 -0.2368
 5414SOL    HW127704   1.383   4.029   7.641  1.4241  3.7737  1.1592
 5414SOL    HW227705   1.517   4.001   7.704  2.5369 -0.5176 -1.4174
 5415SOL     OW27706   3.531   4.137   7.280 -0.2759 -0.3600 -0.1216
 5415SOL    HW127707   3.547   4.213   7.337  0.3878  1.1512 -2.3002
 5415SOL    HW227708   3.608   4.091   7.312 -0.3184 -0.4638 -0.1697
 5416SOL     OW27709   4.212   2.599  17.256 -0.5784 -0.2529  0.3846
 5416SOL    HW127710   4.241   2.684  17.289 -1.7298 -0.0571  0.9188
 5416SOL    HW227711   4.117   2.609  17.247 -0.8661 -2.7097  0.8055
 5417SOL     OW27712   3.973   4.181   2.761 -0.8065 -0.3448 -0.0948
 5417SOL    HW127713   3.879   4.174   2.747 -0.9998  2.1199  0.0420
 5417SOL    HW227714   3.972   4.273   2.786  0.8094 -0.4137  0.2023
 5418SOL     OW27715   1.568   4.421   5.862 -0.6685  0.4879 -0.1372
 5418SOL    HW127716   1.604   4.332   5.854  1.2487  1.1710  0.7710
 5418SOL    HW227717   1.473   4.413   5.861 -0.5735 -0.6590 -0.4180
 5419SOL     OW27718   3.674   0.624  12.857  0.1044 -0.1851  0.1421
 5419SOL    HW127719   3.586   0.656  12.835  0.4723  0.9997  0.3788
 5419SOL    HW227720   3.684   0.537  12.817 -0.5551 -1.2947  2.3893
 5420SOL     OW27721   0.526   2.832   7.548  0.1422  0.4215 -0.5277
 5420SOL    HW127722   0.549   2.787   7.629 -0.8434  1.1773  0.1734
 5420SOL    HW227723   0.435   2.859   7.562 -1.1061 -3.3114 -1.4203
 5421SOL     OW27724   1.438   0.691   8.736 -0.0527  0.0784  0.0796
 5421SOL    HW127725   1.351   0.651   8.734  0.4762 -1.1251  1.1172
 5421SOL    HW227726   1.441   0.718   8.644  0.0565  0.7312  0.2773
 5422SOL     OW27727   3.405   4.123   1.971 -0.2593  0.7332 -0.0400
 5422SOL    HW127728   3.450   4.149   2.051 -0.3610 -0.9785  0.5757
 5422SOL    HW227729   3.336   4.190   1.968 -1.3920 -0.3379  2.6017
 5423SOL     OW27730   4.278   4.490   5.026  0.2007  0.0405 -0.2048
 5423SOL    HW127731   4.208   4.429   5.004 -2.5535  2.8805  0.6230
 5423SOL    HW227732   4.343   4.475   4.958 -1.7773 -0.3852 -2.0033
 5424SOL     OW27733   1.210   1.917   6.183  0.0467 -0.1464  0.3718
 5424SOL    HW127734   1.242   1.996   6.140 -1.1184 -0.7677 -1.6285
 5424SOL    HW227735   1.250   1.946   6.265  0.1405 -1.5915  0.8551
 5425SOL     OW27736   3.222   1.399   8.271 -0.5158 -0.6835 -1.0431
 5425SOL    HW127737   3.173   1.395   8.353  2.4109 -2.1739  0.6440
 5425SOL    HW227738   3.216   1.491   8.247 -0.0241  0.0636  1.6588
 5426SOL     OW27739   0.955   3.930   2.485  0.2040 -0.2424 -0.1591
 5426SOL    HW127740   0.864   3.904   2.465  0.1918 -0.3065 -0.0182
 5426SOL    HW227741   1.002   3.890   2.412 -0.8794  0.8890 -1.4787
 5427SOL     OW27742   4.506   4.193   0.427 -0.2557  0.0358 -0.8123
 5427SOL    HW127743   4.444   4.233   0.488 -0.2370 -0.7019 -0.3143
 5427SOL    HW227744   4.584   4.205   0.481 -1.2891 -0.7091  0.8544
 5428SOL     OW27745   3.839   2.077  11.661 -0.0857  0.2944 -0.7285
 5428SOL    HW127746   3.827   2.171  11.647  1.7507  0.6648  0.1443
 5428SOL    HW227747   3.935   2.078  11.664 -0.1086  0.3092  0.0407
 5429SOL     OW27748   0.165   2.585   1.594 -0.5535  0.0283  0.1936
 5429SOL    HW127749   0.221   2.608   1.668  0.2423  0.2944 -0.4945
 5429SOL    HW227750   0.112   2.515   1.634 -1.8298 -0.5609 -2.5031
 5430SOL     OW27751   3.195   1.301   5.886 -0.6155 -0.1264 -0.1045
 5430SOL    HW127752   3.191   1.354   5.965 -0.6732 -0.8907  0.4076
 5430SOL    HW227753   3.287   1.309   5.864 -0.4828 -0.1092  0.4543
 5431SOL     OW27754   0.813   3.072  10.857 -0.2189  0.0903 -0.6684
 5431SOL    HW127755   0.749   3.092  10.788 -0.1913  0.1560 -0.6747
 5431SOL    HW227756   0.831   3.157  10.897 -1.1521  0.3504 -0.7899
 5432SOL     OW27757   4.012   1.882   5.307  0.2323  0.0717  0.1414
 5432SOL    HW127758   4.062   1.962   5.324  2.7210 -1.3870 -0.2108
 5432SOL    HW227759   3.982   1.896   5.217  0.1567 -3.7979 -0.4650
 5433SOL     OW27760   2.438   4.488  12.174 -0.3142  0.5638  0.4467
 5433SOL    HW127761   2.533   4.480  12.183 -0.2273 -0.3582 -1.3253
 5433SOL    HW227762   2.418   4.397  12.152  0.6023  0.3784  0.3605
 5434SOL     OW27763   3.367   2.811   4.632 -0.1073  0.1467 -0.2596
 5434SOL    HW127764   3.420   2.739   4.598 -0.1924 -0.4159  0.8036
 5434SOL    HW227765   3.417   2.850   4.704 -2.3730 -0.4926  1.6833
 5435SOL     OW27766   1.030   1.252  13.439 -0.2044 -0.1244 -0.5426
 5435SOL    HW127767   0.977   1.219  13.512 -0.5183 -0.6416 -0.9977
 5435SOL    HW227768   1.025   1.171  13.389 -1.6110 -0.3047 -0.1217
 5436SOL     OW27769   1.279   1.770  14.612 -0.5504  0.0654 -0.6155
 5436SOL    HW127770   1.291   1.812  14.526  0.3860 -0.3085 -0.6640
 5436SOL    HW227771   1.322   1.685  14.605  1.9360  1.1392  1.8825
 5437SOL     OW27772   2.179   0.860   0.834 -0.1766 -0.1642 -0.2524
 5437SOL    HW127773   2.262   0.843   0.879 -0.7690 -1.1765  0.4607
 5437SOL    HW227774   2.178   0.953   0.812 -1.1187 -0.3278 -0.8718
 5438SOL     OW27775   3.226   3.944   0.929  0.2308 -0.0067  0.6049
 5438SOL    HW127776   3.287   3.876   0.904  2.5305  1.2925  2.7228
 5438SOL    HW227777   3.152   3.919   0.874  1.7372 -1.3945 -0.7397
 5439SOL     OW27778   1.378   2.361   3.114  0.7452  0.2574  0.2156
 5439SOL    HW127779   1.431   2.406   3.048  1.4498 -2.4067 -1.0323
 5439SOL    HW227780   1.294   2.401   3.090 -0.1175 -2.4594 -1.3436
 5440SOL     OW27781   0.640   3.398   7.829 -0.0973  0.2645 -0.2844
 5440SOL    HW127782   0.595   3.446   7.899  1.8066 -1.6855  2.2560
 5440SOL    HW227783   0.571   3.337   7.803 -0.2774  0.0785  0.6364
 5441SOL     OW27784   1.148   2.095  13.230 -0.6666  0.1944 -0.2063
 5441SOL    HW127785   1.184   2.035  13.165 -0.1900  0.7470 -0.4572
 5441SOL    HW227786   1.074   2.134  13.185 -0.8022 -0.2865 -0.3900
 5442SOL     OW27787   4.099   4.703   4.978  0.2691 -0.1541  0.0187
 5442SOL    HW127788   4.177   4.650   4.994 -0.0001 -0.0264  1.7794
 5442SOL    HW227789   4.115   0.042   5.048  0.0984  0.4682 -0.5086
 5443SOL     OW27790   4.712   2.458  12.199 -0.2333 -0.1985  0.2857
 5443SOL    HW127791   4.702   2.544  12.239 -0.6673  0.3000 -0.9021
 5443SOL    HW227792   4.675   2.474  12.112  0.1559 -0.0738  0.1434
 5444SOL     OW27793   3.540   4.382  16.741  0.0597  0.3062  0.1284
 5444SOL    HW127794   3.576   4.312  16.686 -1.3865 -1.5698  1.5167
 5444SOL    HW227795   3.581   4.465  16.720  0.3885 -0.5602 -2.5989
 5445SOL     OW27796   3.646   3.592   5.547  0.2282  0.5156 -0.1919
 5445SOL    HW127797   3.568   3.585   5.603  1.1087 -1.3589  0.8237
 5445SOL    HW227798   3.666   3.505   5.511 -2.1622  0.1807 -0.7187
 5446SOL     OW27799   2.463   2.684   7.077  0.0889  0.0142  0.5984
 5446SOL    HW127800   2.443   2.749   7.010 -1.4196  0.1536  1.1603
 5446SOL    HW227801   2.555   2.673   7.055 -0.7972 -1.4669 -2.2632
 5447SOL     OW27802   0.054   4.019   4.166 -0.0253 -0.0644  0.3274
 5447SOL    HW127803   0.069   3.976   4.250 -0.2071 -4.2219 -1.7971
 5447SOL    HW227804   0.142   4.024   4.128 -0.0987  0.2901  0.2033
 5448SOL     OW27805   2.292   4.073   0.760 -0.1764 -0.1811 -0.8077
 5448SOL    HW127806   2.296   3.990   0.807  0.2005  0.4550  0.3032
 5448SOL    HW227807   2.351   4.058   0.686 -0.4330 -1.2783 -0.7794
 5449SOL     OW27808   3.347   3.845   6.903 -0.4215  0.1255 -0.0914
 5449SOL    HW127809   3.301   3.920   6.942  1.9479  2.8838 -2.6142
 5449SOL    HW227810   3.434   3.865   6.937 -0.0569 -1.0875 -0.3085
 5450SOL     OW27811   0.582   1.099   2.272  0.5217 -0.1244  0.3220
 5450SOL    HW127812   0.642   1.174   2.271  1.1402 -0.6415 -0.8395
 5450SOL    HW227813   0.559   1.116   2.364  1.0844  1.4263  0.1824
 5451SOL     OW27814   2.071   2.627  10.944  0.0374 -0.0650  0.0665
 5451SOL    HW127815   2.075   2.704  11.001  0.0437  0.2693 -0.3853
 5451SOL    HW227816   2.119   2.564  10.996  0.1030  0.6536  0.8770
 5452SOL     OW27817   2.864   2.947   8.353 -1.0376  0.1093  0.0888
 5452SOL    HW127818   2.847   2.859   8.385  0.4813 -0.4929 -0.7413
 5452SOL    HW227819   2.887   2.931   8.261  1.7638 -0.4765  0.8873
 5453SOL     OW27820   3.319   3.812  15.804  0.0031  0.2773  0.1213
 5453SOL    HW127821   3.312   3.728  15.848  1.1052 -0.2852 -0.7769
 5453SOL    HW227822   3.306   3.870  15.879 -1.9379 -1.7279  1.3421
 5454SOL     OW27823   1.880   0.679   7.116  0.9071  0.2633  0.5813
 5454SOL    HW127824   1.906   0.636   7.198  1.0045 -0.2246  0.2898
 5454SOL    HW227825   1.954   0.664   7.057 -1.6327  2.6712 -3.2186
 5455SOL     OW27826   0.532   1.789   8.974 -0.0897  0.1459  0.0654
 5455SOL    HW127827   0.601   1.830   8.923 -0.2642  0.3536 -0.0039
 5455SOL    HW227828   0.515   1.711   8.921  1.9179  0.8105 -1.5415
 5456SOL     OW27829   0.339   0.380  15.383 -0.1192 -0.1609  0.3523
 5456SOL    HW127830   0.359   0.297  15.428  0.1616 -0.3759 -0.1677
 5456SOL    HW227831   0.363   0.456  15.437  1.7093 -1.8033  1.8956
 5457SOL     OW27832   4.276   1.881   5.131 -0.4396 -0.0115 -0.0816
 5457SOL    HW127833   4.340   1.810   5.135 -0.2195  0.1254 -1.3371
 5457SOL    HW227834   4.205   1.844   5.079 -1.3493  0.9392  0.4847
 5458SOL     OW27835   2.657   0.895   3.174  0.0852  0.5862  0.2490
 5458SOL    HW127836   2.661   0.884   3.079 -0.3878 -1.8748  0.5159
 5458SOL    HW227837   2.717   0.969   3.168 -0.1436  0.7068 -0.5733
 5459SOL     OW27838   0.199   1.577   8.905 -0.3411  0.1126 -0.5818
 5459SOL    HW127839   0.209   1.619   8.990 -0.3957 -0.8407 -0.1103
 5459SOL    HW227840   0.242   1.636   8.843  0.4969  0.2791  0.1779
 5460SOL     OW27841   0.613   3.047   4.824 -0.0521  0.3650  0.1086
 5460SOL    HW127842   0.593   3.125   4.772  0.4883 -0.7123 -1.7208
 5460SOL    HW227843   0.523   3.028   4.850 -0.5507  2.7670  0.1428
 5461SOL     OW27844   4.317   2.589   4.554 -0.1870 -0.0969  0.2875
 5461SOL    HW127845   4.403   2.602   4.514 -0.6331 -1.6858 -1.2266
 5461SOL    HW227846   4.272   2.637   4.485  1.1631 -2.5506 -2.3112
 5462SOL     OW27847   0.555   2.438   1.206  0.8240 -0.2920 -0.2806
 5462SOL    HW127848   0.621   2.417   1.272 -2.3074 -1.7429  2.3768
 5462SOL    HW227849   0.484   2.473   1.261 -0.0089  0.1663 -1.6453
 5463SOL     OW27850   3.346   2.971   6.206 -0.0552  0.5265 -0.1734
 5463SOL    HW127851   3.333   3.056   6.164  2.0430 -0.1033 -2.1003
 5463SOL    HW227852   3.382   2.915   6.137 -0.4397  0.2725 -0.1676
 5464SOL     OW27853   0.550   2.178   4.479 -0.1055  0.0036  0.5974
 5464SOL    HW127854   0.471   2.170   4.533 -0.3578  2.2475  0.5382
 5464SOL    HW227855   0.614   2.191   4.549  0.7360 -1.0532  0.0218
 5465SOL     OW27856   3.874   0.700  13.472  0.8024 -0.9437 -0.4422
 5465SOL    HW127857   3.863   0.705  13.377 -0.4066  0.5655 -0.2317
 5465SOL    HW227858   3.961   0.737  13.487  1.0761 -2.9944  3.0127
 5466SOL     OW27859   0.408   3.705   6.972 -0.6067 -0.1535 -0.2969
 5466SOL    HW127860   0.443   3.786   7.008  2.4768 -1.5439 -0.2014
 5466SOL    HW227861   0.449   3.704   6.886 -0.7638  0.6960 -0.3804
 5467SOL     OW27862   1.941   3.968  13.045 -0.2782 -0.5535 -0.0830
 5467SOL    HW127863   1.870   3.906  13.027 -0.0592 -0.7957 -0.1224
 5467SOL    HW227864   1.923   4.043  12.988  1.7855  0.4766  0.6260
 5468SOL     OW27865   1.319   3.813   4.748 -0.0061 -0.2115 -0.7038
 5468SOL    HW127866   1.389   3.753   4.723  1.8950  1.9791 -0.6851
 5468SOL    HW227867   1.359   3.899   4.731  0.3236  0.0509  1.4028
 5469SOL     OW27868   3.088   2.472  13.057 -0.2733  0.0861  0.2102
 5469SOL    HW127869   3.146   2.418  13.110 -1.2272 -1.9104 -0.8055
 5469SOL    HW227870   3.063   2.544  13.115 -2.0783 -0.1925 -0.2056
 5470SOL     OW27871   2.595   2.184  11.198  0.5489  0.3695 -0.1209
 5470SOL    HW127872   2.584   2.097  11.161 -1.4744 -0.0542  1.4984
 5470SOL    HW227873   2.585   2.182  11.293  0.2462  0.4321 -0.1518
 5471SOL     OW27874   1.488   2.229   7.070 -0.1653 -0.2288 -0.4473
 5471SOL    HW127875   1.433   2.151   7.072  2.2251 -1.8258  1.9970
 5471SOL    HW227876   1.503   2.246   6.977  0.3500 -1.4935 -0.6002
 5472SOL     OW27877   0.089   3.506   8.647 -0.1765  0.5382  0.8728
 5472SOL    HW127878   0.010   3.549   8.679 -1.1005  0.7435 -1.7504
 5472SOL    HW227879   0.098   3.426   8.699  4.2602  2.2114  2.6624
 5473SOL     OW27880   0.915   4.516   3.625  0.5947  0.3348 -0.3864
 5473SOL    HW127881   0.924   4.471   3.710 -0.3536  1.0920  0.1251
 5473SOL    HW227882   0.827   4.554   3.633  1.3000  2.1291 -1.3935
 5474SOL     OW27883   2.743   0.658  10.735 -0.2147 -0.0181 -0.4889
 5474SOL    HW127884   2.764   0.746  10.765  0.8443  0.5269 -2.8093
 5474SOL    HW227885   2.698   0.617  10.809 -0.1594 -0.2708 -0.5938
 5475SOL     OW27886   3.857   2.348  17.317  0.1656 -0.1566  0.1649
 5475SOL    HW127887   3.770   2.387  17.311  0.5351  0.5037 -0.9732
 5475SOL    HW227888   3.869   2.364  17.411 -0.7268  0.0535  0.2442
 5476SOL     OW27889   2.535   3.768   7.979  0.3134 -0.4435  0.4985
 5476SOL    HW127890   2.550   3.846   7.926  1.4855  0.6923  2.5003
 5476SOL    HW227891   2.565   3.787   8.068  0.5265 -0.7491  0.4919
 5477SOL     OW27892   0.468   2.549   4.507  0.1481  0.1712  0.2213
 5477SOL    HW127893   0.547   2.502   4.534  0.2254 -0.2860 -0.7976
 5477SOL    HW227894   0.492   2.640   4.522 -0.6408 -0.1299  3.3155
 5478SOL     OW27895   1.403   0.376   4.653 -0.3947  0.7376  0.7990
 5478SOL    HW127896   1.427   0.376   4.746 -0.2094  3.4285  0.7310
 5478SOL    HW227897   1.366   0.464   4.649 -1.1802  0.4360  1.3944
 5479SOL     OW27898   1.602   3.779  11.789  0.9579 -0.3371  0.4036
 5479SOL    HW127899   1.583   3.848  11.852 -0.4365 -0.1814 -0.1853
 5479SOL    HW227900   1.532   3.719  11.816  1.2760 -0.9535 -0.1354
 5480SOL     OW27901   1.565   4.150   4.293 -0.7846 -0.0242 -0.4585
 5480SOL    HW127902   1.652   4.180   4.267 -1.4302 -1.0816 -3.8375
 5480SOL    HW227903   1.582   4.070   4.342  1.4011  1.4759  1.2219
 5481SOL     OW27904   1.897   3.355   3.468 -0.2942  0.0622 -0.3766
 5481SOL    HW127905   1.876   3.362   3.375  0.9925 -0.3021 -0.6829
 5481SOL    HW227906   1.809   3.354   3.507 -0.1863 -0.7506 -0.1454
 5482SOL     OW27907   0.918   3.854   4.210  0.5977 -0.0262  0.5443
 5482SOL    HW127908   0.999   3.903   4.223  1.0598 -0.7347  0.2914
 5482SOL    HW227909   0.947   3.816   4.127 -1.8742 -0.8963  0.0802
 5483SOL     OW27910   0.590   3.984   5.442 -0.0111 -0.2546  0.1634
 5483SOL    HW127911   0.586   3.893   5.412  1.5730 -0.4311  0.5308
 5483SOL    HW227912   0.677   4.014   5.415  1.2950 -2.5055  1.9258
 5484SOL     OW27913   4.073   3.187  14.160  0.3960 -0.6275  0.0990
 5484SOL    HW127914   4.064   3.185  14.065  1.5935  0.9316 -0.0388
 5484SOL    HW227915   4.167   3.175  14.169  0.6017 -0.0914 -1.3179
 5485SOL     OW27916   4.075   3.596  12.526 -0.3903 -0.3349  0.0181
 5485SOL    HW127917   4.143   3.530  12.521 -0.5833 -0.3993 -1.7088
 5485SOL    HW227918   4.036   3.584  12.439  0.0279 -1.7615  0.0339
 5486SOL     OW27919   0.091   4.278  11.674  0.1174  0.0190  0.9560
 5486SOL    HW127920   0.036   4.277  11.596 -2.1787  0.0728  2.5592
 5486SOL    HW227921   0.050   4.199  11.711  0.3027 -0.9050 -0.8465
 5487SOL     OW27922   1.906   2.420   5.981  0.0717 -0.2960  0.0070
 5487SOL    HW127923   1.918   2.346   6.040 -1.9763 -0.7223 -0.0859
 5487SOL    HW227924   1.861   2.373   5.910  1.1722 -0.4971 -0.5594
 5488SOL     OW27925   2.356   0.571   0.285 -0.4538  0.1704  0.1874
 5488SOL    HW127926   2.267   0.592   0.255 -0.3809 -0.8690 -0.7564
 5488SOL    HW227927   2.405   0.618   0.218  0.6863 -1.3479 -0.0437
 5489SOL     OW27928   0.268   0.101   0.243 -0.0747 -0.2181  0.1184
 5489SOL    HW127929   0.232   0.152   0.170  0.8306 -1.7914 -1.4433
 5489SOL    HW227930   0.246   0.154   0.319 -0.5812  1.1913 -0.9956
 5490SOL     OW27931   1.850   3.160   3.004 -0.7673 -0.2032 -0.6156
 5490SOL    HW127932   1.775   3.136   2.951 -1.0306 -2.1119  0.6237
 5490SOL    HW227933   1.807   3.199   3.080 -1.0011 -0.6192 -0.5343
 5491SOL     OW27934   0.442   1.154   5.213  0.2872 -0.0467 -0.2828
 5491SOL    HW127935   0.405   1.237   5.180 -0.6712  0.0548  1.0371
 5491SOL    HW227936   0.477   1.115   5.133 -0.0007 -1.3880  0.2573
 5492SOL     OW27937   3.903   3.601  17.029  0.3743 -0.1008  0.2092
 5492SOL    HW127938   3.854   3.553  17.096 -1.7317  1.5858 -0.1136
 5492SOL    HW227939   3.968   3.536  17.001 -0.1950 -0.0526 -1.2472
 5493SOL     OW27940   1.769   1.779   4.190 -0.3394 -0.3212 -0.0642
 5493SOL    HW127941   1.819   1.735   4.259 -0.5030 -2.5706 -1.3560
 5493SOL    HW227942   1.833   1.840   4.155  1.5816 -2.4568 -0.2764
 5494SOL     OW27943   1.563   2.390  17.141 -0.0419 -0.1040 -0.7554
 5494SOL    HW127944   1.612   2.329  17.197  1.1012  0.2503 -1.3854
 5494SOL    HW227945   1.478   2.403  17.184  0.3433  0.5121 -0.1826
 5495SOL     OW27946   0.532   4.066   8.610  0.5689  0.5173 -0.0277
 5495SOL    HW127947   0.542   3.976   8.641  2.1596  1.1603  1.3363
 5495SOL    HW227948   0.525   4.039   8.518 -1.2845  4.1837 -0.9487
 5496SOL     OW27949   3.675   0.114   3.320  0.4090  0.0010 -0.1276
 5496SOL    HW127950   3.607   0.170   3.285  0.3443  0.2556  0.4002
 5496SOL    HW227951   3.706   0.068   3.242 -0.4075 -2.8202  1.2499
 5497SOL     OW27952   1.999   3.055   9.956 -0.9964 -0.5775 -0.0473
 5497SOL    HW127953   1.963   3.076  10.042 -0.2571  1.4115 -0.2400
 5497SOL    HW227954   2.090   3.030   9.973 -1.2210 -0.9111  0.6655
 5498SOL     OW27955   4.687   1.934   8.796  0.3578  0.1164  0.6361
 5498SOL    HW127956   0.009   2.003   8.843  3.1305 -2.0276  1.0079
 5498SOL    HW227957   0.032   1.870   8.785 -0.4776 -0.8921  1.1462
 5499SOL     OW27958   4.368   2.658   9.224  0.4305 -0.0585  0.4146
 5499SOL    HW127959   4.356   2.752   9.239  0.6039 -0.2044  1.5312
 5499SOL    HW227960   4.363   2.624   9.314 -2.9648 -2.0328 -0.5510
 5500SOL     OW27961   0.818   4.215   1.226 -0.0472  0.3199  0.3945
 5500SOL    HW127962   0.874   4.146   1.191 -0.2200  1.5840 -2.3487
 5500SOL    HW227963   0.871   4.235   1.304  0.1767 -0.8687  0.5361
 5501SOL     OW27964   1.472   4.072   9.454  0.4450 -0.0496 -0.0173
 5501SOL    HW127965   1.383   4.035   9.448  1.5622 -2.3453 -2.1969
 5501SOL    HW227966   1.463   4.143   9.391  1.1424 -0.0382 -0.1010
 5502SOL     OW27967   0.467   2.714   5.811 -0.5470 -0.0154 -0.3474
 5502SOL    HW127968   0.436   2.633   5.772 -0.4201 -0.2262 -0.0157
 5502SOL    HW227969   0.464   2.774   5.737  0.7450  0.3297 -0.1229
 5503SOL     OW27970   0.975   1.816   6.837  0.1987  0.3372 -0.0340
 5503SOL    HW127971   0.944   1.738   6.882 -0.1628 -0.3474 -1.4602
 5503SOL    HW227972   0.982   1.880   6.908 -0.2741  0.4844 -0.1170
 5504SOL     OW27973   3.250   3.381   3.196  0.2035  0.3767  0.5495
 5504SOL    HW127974   3.261   3.476   3.188 -0.1039  0.2037 -2.1633
 5504SOL    HW227975   3.336   3.344   3.177  0.4544  0.0068  2.4707
 5505SOL     OW27976   3.329   0.024  10.160 -0.1187 -0.1713  0.1562
 5505SOL    HW127977   3.289   4.723  10.243  1.0984 -0.5149  0.6357
 5505SOL    HW227978   3.420   4.725  10.177 -0.2609  0.1845  1.3848
 5506SOL     OW27979   1.369   3.745   9.854 -0.1723 -0.3201 -0.1425
 5506SOL    HW127980   1.392   3.797   9.931 -0.1399  1.6701 -1.5240
 5506SOL    HW227981   1.276   3.764   9.847 -0.0289  0.7385  0.8029
 5507SOL     OW27982   1.713   1.576   9.839 -0.1016  0.3696 -0.4000
 5507SOL    HW127983   1.748   1.614   9.758  2.6707 -0.8837  0.1894
 5507SOL    HW227984   1.718   1.483   9.815  0.9759  0.1428  0.7034
 5508SOL     OW27985   2.674   2.705   6.552 -0.8680 -0.3007 -0.4548
 5508SOL    HW127986   2.689   2.743   6.466 -2.0565 -1.5975 -1.2261
 5508SOL    HW227987   2.682   2.784   6.605  2.1162  0.2537 -1.7464
 5509SOL     OW27988   2.308   4.694   4.242  0.4373  0.4141 -0.0705
 5509SOL    HW127989   2.279   4.678   4.332  0.4320 -0.5436 -0.2403
 5509SOL    HW227990   2.400   4.672   4.256  0.4426 -0.2614 -1.0949
 5510SOL     OW27991   2.823   0.961  11.795  0.5656 -0.2943  0.2141
 5510SOL    HW127992   2.816   1.053  11.818 -0.3788  0.1300 -1.8134
 5510SOL    HW227993   2.738   0.932  11.830 -0.0286  1.7141  0.4192
 5511SOL     OW27994   4.424   0.967   4.572 -0.6282  0.1247  0.8788
 5511SOL    HW127995   4.346   1.023   4.567 -0.9609 -0.4350 -0.0970
 5511SOL    HW227996   4.383   0.885   4.599  0.8768 -0.6849  0.6767
 5512SOL     OW27997   0.698   3.289   4.742 -0.4866  0.6382  0.3973
 5512SOL    HW127998   0.742   3.357   4.691 -0.0026 -0.6555 -0.9072
 5512SOL    HW227999   0.712   3.325   4.829 -0.9121 -2.5442  1.7746
 5513SOL     OW28000   3.650   2.382   0.949  0.9556 -0.0555  0.0364
 5513SOL    HW128001   3.593   2.398   0.874 -1.3827  0.2610  1.8934
 5513SOL    HW228002   3.646   2.287   0.942 -0.2300  0.0904 -1.3622
 5514SOL     OW28003   4.443   2.113   3.559 -0.1041 -0.1395 -0.5031
 5514SOL    HW128004   4.501   2.061   3.504 -2.2698 -0.8520 -2.1393
 5514SOL    HW228005   4.370   2.150   3.508 -0.3869  1.7991  1.2827
 5515SOL     OW28006   3.717   3.403   3.152 -0.3097  0.0629 -0.3011
 5515SOL    HW128007   3.797   3.403   3.206 -0.7760 -2.6234  0.3786
 5515SOL    HW228008   3.699   3.313   3.180 -2.8985  0.3886 -0.9596
 5516SOL     OW28009   1.473   0.340   1.013 -0.3031 -0.2408  0.0942
 5516SOL    HW128010   1.387   0.336   1.055 -0.2378  0.4607  0.2888
 5516SOL    HW228011   1.446   0.402   0.946 -0.1681 -0.3091 -0.0240
 5517SOL     OW28012   2.691   4.544   8.267  0.3535  0.1038  0.5800
 5517SOL    HW128013   2.728   4.632   8.265 -0.7058  0.4990 -1.1657
 5517SOL    HW228014   2.601   4.547   8.236  0.6134 -0.5264 -0.2389
 5518SOL     OW28015   3.135   2.662  13.957 -0.4888 -0.1057 -0.2593
 5518SOL    HW128016   3.091   2.705  13.884  0.0251  1.7528  0.5130
 5518SOL    HW228017   3.143   2.739  14.013 -1.0546 -1.3128  1.4809
 5519SOL     OW28018   2.315   2.250   8.478  0.0310 -0.7393  0.1560
 5519SOL    HW128019   2.258   2.196   8.533  2.2438 -1.2872  1.9402
 5519SOL    HW228020   2.394   2.196   8.470  0.2845 -0.3800  0.2116
 5520SOL     OW28021   3.351   4.043  10.907  0.4594  0.5446  0.4718
 5520SOL    HW128022   3.421   4.005  10.959  0.5213  0.6673  0.4785
 5520SOL    HW228023   3.384   4.133  10.905 -0.4775  0.8750 -0.7759
 5521SOL     OW28024   0.988   0.231   1.781 -0.7049  0.0325 -0.7561
 5521SOL    HW128025   0.968   0.207   1.872 -0.8382 -0.0119 -0.7966
 5521SOL    HW228026   0.924   0.298   1.759 -2.3855 -0.5268  2.5003
 5522SOL     OW28027   4.601   2.363  11.781  0.0444 -0.2785  0.5882
 5522SOL    HW128028   4.602   2.405  11.868 -1.6916 -0.0503  0.4918
 5522SOL    HW228029   4.508   2.373  11.763 -0.1201  0.7530  2.0000
 5523SOL     OW28030   4.379   3.062   7.509 -0.4237 -0.1240 -0.6466
 5523SOL    HW128031   4.338   3.127   7.566  1.0867 -0.2562  0.6090
 5523SOL    HW228032   4.469   3.073   7.539 -0.4596 -0.5160 -0.3959
 5524SOL     OW28033   0.018   3.246  14.147 -0.2552  0.1578 -0.0118
 5524SOL    HW128034   0.047   3.297  14.071  3.1023 -1.0496  0.4564
 5524SOL    HW228035   0.100   3.235  14.196 -0.0615 -1.1960 -0.6113
 5525SOL     OW28036   2.955   0.943   8.394  0.2603 -0.4791 -0.9814
 5525SOL    HW128037   2.940   0.858   8.435  1.6127  0.0311  0.5587
 5525SOL    HW228038   3.021   0.977   8.455  0.1552 -1.1932 -0.4672
 5526SOL     OW28039   2.054   3.495  17.332 -0.1022 -0.4176  0.1397
 5526SOL    HW128040   1.980   3.438  17.311  0.1611 -0.5405 -0.4612
 5526SOL    HW228041   2.122   3.428  17.338  0.2601 -0.2157 -1.6747
 5527SOL     OW28042   4.623   1.075   2.162 -0.0702  0.3629  0.0176
 5527SOL    HW128043   4.639   1.029   2.080  1.1707  0.8707 -0.0194
 5527SOL    HW228044   4.703   1.044   2.206 -0.7754 -1.5803 -0.0425
 5528SOL     OW28045   2.471   2.860   4.542 -0.0621  0.3411  0.0910
 5528SOL    HW128046   2.395   2.804   4.561  1.0958 -0.5365  2.1325
 5528SOL    HW228047   2.535   2.811   4.594 -0.9738 -1.1224 -0.1395
 5529SOL     OW28048   4.500   3.397   7.273 -0.2567  0.1980 -0.8370
 5529SOL    HW128049   4.506   3.471   7.212  3.3669  1.2089  0.7609
 5529SOL    HW228050   4.511   3.429   7.362 -1.1364  0.2307 -0.7381
 5530SOL     OW28051   2.045   3.051   3.916  0.0768 -0.4493  0.4208
 5530SOL    HW128052   2.078   3.022   4.001  2.3760 -0.3866 -0.4475
 5530SOL    HW228053   2.111   3.016   3.856 -1.1502  1.7350 -2.1917
 5531SOL     OW28054   1.851   1.921  16.530  0.0872  0.3781  0.0551
 5531SOL    HW128055   1.840   1.954  16.441 -1.4230 -1.4140 -0.4281
 5531SOL    HW228056   1.918   1.982  16.560  0.1329 -0.1152  0.9584
 5532SOL     OW28057   0.164   1.941   7.433 -0.3409 -0.1405 -0.3617
 5532SOL    HW128058   0.155   2.003   7.505 -0.7428 -0.2437 -0.3258
 5532SOL    HW228059   0.081   1.894   7.430 -0.0129 -0.8822  1.7922
 5533SOL     OW28060   1.961   1.508   8.374 -1.2255  0.4679 -0.5053
 5533SOL    HW128061   1.931   1.518   8.464  1.6937  3.6294  0.1096
 5533SOL    HW228062   1.963   1.413   8.359 -0.7380  0.1021  1.8301
 5534SOL     OW28063   2.995   4.529  13.878  0.7346 -0.0180  1.0104
 5534SOL    HW128064   2.989   4.601  13.941 -1.0176 -0.0148  0.8467
 5534SOL    HW228065   2.990   4.456  13.940  1.9580 -1.1530 -0.2328
 5535SOL     OW28066   1.741   1.466   7.025  0.2576 -0.1566 -0.0127
 5535SOL    HW128067   1.685   1.536   7.059  0.8938  0.7940 -0.9301
 5535SOL    HW228068   1.825   1.510   7.039  2.0354 -3.4492 -0.1890
 5536SOL     OW28069   0.543   3.740  16.249 -0.3627  0.6642 -0.2756
 5536SOL    HW128070   0.558   3.677  16.319 -1.9637 -0.1677 -0.6672
 5536SOL    HW228071   0.478   3.690  16.199 -0.9532 -0.1261  1.2849
 5537SOL     OW28072   4.640   0.174  14.373  0.4595 -0.1075  0.3174
 5537SOL    HW128073   4.556   0.172  14.418  1.7208  0.0175  2.6888
 5537SOL    HW228074   4.620   0.183  14.280 -0.1994  0.8127  0.5529
 5538SOL     OW28075   0.298   3.567  12.724 -0.1622 -0.2902  0.4328
 5538SOL    HW128076   0.267   3.639  12.780 -1.4680  0.2688 -0.9948
 5538SOL    HW228077   0.385   3.543  12.755 -0.7934  0.0574  2.4856
 5539SOL     OW28078   2.852   1.887  12.658  0.2682 -0.3022  0.2223
 5539SOL    HW128079   2.778   1.826  12.651 -0.8240  1.2327 -1.4454
 5539SOL    HW228080   2.926   1.827  12.656 -0.3776 -1.0577 -0.8930
 5540SOL     OW28081   4.154   4.313   2.047 -0.2449  0.1887 -1.4868
 5540SOL    HW128082   4.158   4.404   2.017  1.3831  0.7710  0.4742
 5540SOL    HW228083   4.062   4.308   2.073  0.3914  1.5197  1.0406
 5541SOL     OW28084   0.900   4.666   2.346 -0.3521  0.4182  0.4122
 5541SOL    HW128085   0.847   0.020   2.360 -2.3979 -1.1940  1.6264
 5541SOL    HW228086   0.987   4.695   2.375 -1.0289  2.2821  0.6095
 5542SOL     OW28087   3.640   2.361  10.619  0.1639  0.0101  0.1915
 5542SOL    HW128088   3.715   2.405  10.660 -0.3306 -0.2497  1.3746
 5542SOL    HW228089   3.630   2.294  10.686  2.4648 -1.5533 -1.0419
 5543SOL     OW28090   1.580   0.766   4.142 -0.0958  0.6876 -0.1695
 5543SOL    HW128091   1.563   0.741   4.052 -0.0815 -1.4810  0.4311
 5543SOL    HW228092   1.548   0.691   4.192 -1.0983  0.6632 -0.8514
 5544SOL     OW28093   1.201   2.611   4.047 -0.1405 -0.1326 -0.5426
 5544SOL    HW128094   1.270   2.658   4.000  2.1406 -1.8611  1.1068
 5544SOL    HW228095   1.245   2.576   4.124 -3.5079 -0.4819  1.2207
 5545SOL     OW28096   0.148   4.186   0.243 -0.1417 -0.0202 -0.0342
 5545SOL    HW128097   0.208   4.254   0.277 -1.9734  1.1644  0.8310
 5545SOL    HW228098   0.166   4.108   0.295 -4.0835 -0.0256  1.2797
 5546SOL     OW28099   2.542   2.122   8.374  0.3227 -0.4830 -0.1541
 5546SOL    HW128100   2.604   2.193   8.355  0.3996 -0.6330 -0.4696
 5546SOL    HW228101   2.489   2.120   8.294  1.4750 -0.1960 -0.9234
 5547SOL     OW28102   3.006   3.595   4.482 -0.5104 -0.2742  0.4600
 5547SOL    HW128103   3.090   3.641   4.472 -0.4882 -0.3877  0.1152
 5547SOL    HW228104   3.040   3.521   4.531  1.1800 -0.5715 -1.1462
 5548SOL     OW28105   0.310   0.370  13.079  0.3076  0.0235 -0.3489
 5548SOL    HW128106   0.311   0.442  13.016  0.6798  1.1685  0.9647
 5548SOL    HW228107   0.224   0.333  13.057 -0.2654  0.0110  1.9216
 5549SOL     OW28108   0.922   2.501   7.412  0.0204 -0.5682  0.0930
 5549SOL    HW128109   0.858   2.463   7.352 -0.4080 -0.5660  0.5503
 5549SOL    HW228110   0.972   2.557   7.352  0.2430 -1.3212 -0.4286
 5550SOL     OW28111   1.041   3.767   7.040  0.1201 -0.7745  0.5815
 5550SOL    HW128112   1.096   3.840   7.009 -0.1158 -1.4669 -1.4857
 5550SOL    HW228113   0.973   3.817   7.085  0.0072 -0.4356  0.0396
 5551SOL     OW28114   4.198   2.146   9.883 -0.2839  0.0278  0.3002
 5551SOL    HW128115   4.140   2.182   9.950 -1.9768  1.4747 -1.9158
 5551SOL    HW228116   4.145   2.156   9.804  1.9903 -1.5068 -1.4161
 5552SOL     OW28117   3.017   2.994  13.552 -0.6481  0.0175  0.3006
 5552SOL    HW128118   3.010   3.063  13.486  1.5562 -0.6417 -0.6061
 5552SOL    HW228119   2.941   2.939  13.539 -0.3638 -0.3517  0.2192
 5553SOL     OW28120   1.150   3.492   7.998 -0.0009  0.8175  0.1191
 5553SOL    HW128121   1.178   3.486   8.089 -1.2561 -2.5276  0.2677
 5553SOL    HW228122   1.092   3.417   7.989  0.4433  0.5535 -0.5087
 5554SOL     OW28123   0.638   0.025   3.782 -0.0799  0.6164 -0.1449
 5554SOL    HW128124   0.603   0.040   3.694  1.3374 -0.5952 -0.8977
 5554SOL    HW228125   0.564   0.061   3.831 -1.2460  0.4089 -1.7553
 5555SOL     OW28126   3.124   0.888  12.803 -0.5059  0.3701  0.3204
 5555SOL    HW128127   3.215   0.890  12.833 -0.6090 -0.6680  0.7189
 5555SOL    HW228128   3.070   0.915  12.877  1.3537  3.1714  0.6903
 5556SOL     OW28129   0.979   0.586   2.407  0.5033  0.1304  0.2757
 5556SOL    HW128130   0.978   0.659   2.470  0.7809 -0.9041  1.4683
 5556SOL    HW228131   1.066   0.589   2.368 -0.7269  0.4846 -2.4542
 5557SOL     OW28132   1.613   2.059   7.423  0.6625 -0.2854  0.5309
 5557SOL    HW128133   1.544   2.107   7.378  0.9099 -2.8384 -2.6009
 5557SOL    HW228134   1.690   2.113   7.403  1.5923 -3.1298 -3.6347
 5558SOL     OW28135   0.227   1.900  16.219  0.6738 -0.5942 -0.5309
 5558SOL    HW128136   0.149   1.928  16.170  1.3919 -0.8452 -1.8215
 5558SOL    HW228137   0.283   1.877  16.146 -0.5674 -0.3465 -1.5650
 5559SOL     OW28138   3.696   1.931   3.550  0.1418 -0.3359  0.4886
 5559SOL    HW128139   3.720   1.891   3.466  0.6314  1.1052 -0.0522
 5559SOL    HW228140   3.750   2.010   3.557 -1.7664  1.0421 -0.5048
 5560SOL     OW28141   0.632   1.048   7.563  0.2977 -0.0810  0.3326
 5560SOL    HW128142   0.639   1.105   7.639  1.0889 -0.1008  0.2738
 5560SOL    HW228143   0.538   1.039   7.550  0.2212  0.4778  0.4897
 5561SOL     OW28144   3.608   4.366  16.278  0.2148 -0.5454 -0.4132
 5561SOL    HW128145   3.622   4.420  16.200 -3.1349 -2.0794 -2.0584
 5561SOL    HW228146   3.689   4.393  16.322  1.3336 -0.2834 -2.6565
 5562SOL     OW28147   2.636   3.484   9.490  0.5415  0.3179 -0.5490
 5562SOL    HW128148   2.618   3.536   9.412  1.2314  1.9203  0.3570
 5562SOL    HW228149   2.631   3.559   9.549 -0.6644 -2.2459  2.6381
 5563SOL     OW28150   1.043   1.852   4.813  0.1796 -0.1768  1.0196
 5563SOL    HW128151   1.102   1.857   4.889  0.9636 -0.6906  0.4480
 5563SOL    HW228152   1.071   1.933   4.772 -2.0071 -0.5079 -1.0796
 5564SOL     OW28153   1.656   2.118  13.372 -0.6439 -0.6550  0.0317
 5564SOL    HW128154   1.746   2.126  13.341 -0.9177  0.5100 -0.4972
 5564SOL    HW228155   1.615   2.163  13.297 -2.7434  0.1696  1.6571
 5565SOL     OW28156   0.469   1.840   5.506  0.1394 -0.1783  0.1702
 5565SOL    HW128157   0.397   1.796   5.551 -0.6154  0.6304 -0.2550
 5565SOL    HW228158   0.531   1.856   5.578  0.3469  0.1274 -0.0744
 5566SOL     OW28159   1.329   4.456   8.105 -0.3539  0.1903  0.4593
 5566SOL    HW128160   1.243   4.414   8.113  0.0726 -0.4115  1.8923
 5566SOL    HW228161   1.362   4.421   8.188  2.2764 -0.9993 -1.0921
 5567SOL     OW28162   2.957   3.773  12.480  0.1816  0.0363 -0.0249
 5567SOL    HW128163   2.921   3.736  12.400 -1.4565 -0.2422  0.8276
 5567SOL    HW228164   2.876   3.785  12.530 -0.4783  0.6276 -1.2369
 5568SOL     OW28165   4.236   0.345  10.707 -0.4558  0.0678  0.8952
 5568SOL    HW128166   4.143   0.362  10.719 -0.1706  2.1357  0.1656
 5568SOL    HW228167   4.245   0.359  10.613 -1.0661  0.7732  0.9467
 5569SOL     OW28168   4.028   4.419   2.883  0.0748 -0.3803 -0.0809
 5569SOL    HW128169   4.047   4.492   2.824  1.5603  0.5526  1.5592
 5569SOL    HW228170   4.000   4.455   2.967 -0.2885  3.1526 -1.7118
 5570SOL     OW28171   0.437   3.964   0.634  0.3117 -0.3761  0.1203
 5570SOL    HW128172   0.489   3.904   0.580  0.0182 -0.4304 -0.1010
 5570SOL    HW228173   0.505   4.004   0.688  1.2941 -2.5123  0.4724
 5571SOL     OW28174   3.747   0.913   7.413  0.0944 -0.6082 -0.5526
 5571SOL    HW128175   3.785   0.830   7.441  0.4102 -0.9525 -1.9921
 5571SOL    HW228176   3.692   0.886   7.339 -1.8114 -0.7328  0.9189
 5572SOL     OW28177   2.979   2.824   6.789  0.0525  0.1287  0.2856
 5572SOL    HW128178   3.042   2.783   6.730 -0.9530 -1.6486  0.4552
 5572SOL    HW228179   2.920   2.750   6.801  2.0545 -1.5037 -0.0017
 5573SOL     OW28180   1.729   4.358   0.530 -0.7365  0.1132  0.6883
 5573SOL    HW128181   1.740   4.326   0.619 -4.1196  0.1268  1.1053
 5573SOL    HW228182   1.738   4.282   0.473 -1.5528 -0.0004  0.7105
 5574SOL     OW28183   1.502   1.737   9.315 -0.1200 -0.2059 -0.1964
 5574SOL    HW128184   1.415   1.728   9.356 -0.3880  1.5834 -0.3955
 5574SOL    HW228185   1.549   1.678   9.375  0.1790  0.5785  0.3400
 5575SOL     OW28186   1.426   2.005   6.398  0.1549  0.2155  0.2944
 5575SOL    HW128187   1.467   2.047   6.473 -1.4831  1.0169  0.7394
 5575SOL    HW228188   1.430   1.917   6.436  2.9594  0.7477  1.2165
 5576SOL     OW28189   2.321   2.670   3.670  0.1275  0.1820 -0.9708
 5576SOL    HW128190   2.396   2.674   3.729 -0.6390 -0.2063  0.0276
 5576SOL    HW228191   2.254   2.629   3.724 -0.0989  0.7834 -0.7971
 5577SOL     OW28192   4.636   4.290   0.160  0.1150 -0.8681  0.3018
 5577SOL    HW128193   0.001   4.259   0.163  0.7020  0.9638  1.4745
 5577SOL    HW228194   4.615   4.278   0.253  1.6484  0.1744  0.7848
 5578SOL     OW28195   0.154   1.614  11.602 -0.2883  0.1362  0.0681
 5578SOL    HW128196   0.121   1.702  11.618 -2.0536 -0.3363 -0.9868
 5578SOL    HW228197   0.183   1.584  11.689 -1.1576  1.6639  0.8719
 5579SOL     OW28198   0.482   1.011   6.379 -0.1565 -0.0429 -0.2785
 5579SOL    HW128199   0.534   0.952   6.433  1.6908  0.8934 -1.0564
 5579SOL    HW228200   0.536   1.041   6.306 -1.6047  0.9855 -0.9348
 5580SOL     OW28201   2.217   4.456   8.215 -0.0845  0.1207  0.3640
 5580SOL    HW128202   2.132   4.475   8.175 -0.8535 -2.4722  0.8117
 5580SOL    HW228203   2.236   4.381   8.158 -0.1601  0.1222  0.3380
 5581SOL     OW28204   0.833   2.100  13.962 -0.0146  0.0756  0.0447
 5581SOL    HW128205   0.751   2.109  13.913 -0.2430 -0.8202  0.2507
 5581SOL    HW228206   0.817   2.164  14.031 -0.9077 -1.0901  0.9201
 5582SOL     OW28207   3.234   2.990   6.601 -0.0859 -0.1086  0.4727
 5582SOL    HW128208   3.241   2.964   6.692  3.5845 -2.0090 -0.3638
 5582SOL    HW228209   3.148   3.032   6.609 -1.3127 -2.0239 -2.6156
 5583SOL     OW28210   4.096   0.377  17.171  0.4415 -0.0273  0.1760
 5583SOL    HW128211   4.155   0.379  17.246  1.9585 -2.1342 -0.9358
 5583SOL    HW228212   4.150   0.404  17.097 -0.0048 -0.2713 -0.2403
 5584SOL     OW28213   1.448   4.539  11.746 -0.0729  0.2957  0.6342
 5584SOL    HW128214   1.408   4.560  11.662  1.0633  2.3644  0.6004
 5584SOL    HW228215   1.361   4.531  11.786  0.4963 -1.6049  1.4651
 5585SOL     OW28216   0.869   0.768   1.109 -0.1137 -0.0844 -0.6753
 5585SOL    HW128217   0.922   0.785   1.032  0.7586  1.6461  0.3143
 5585SOL    HW228218   0.798   0.714   1.073  0.9955 -2.4682  0.7154
 5586SOL     OW28219   4.212   1.877  14.737 -0.5469  0.0719 -0.3121
 5586SOL    HW128220   4.159   1.830  14.673 -1.6701 -1.3230  1.6346
 5586SOL    HW228221   4.202   1.828  14.819 -0.4064  1.3879  0.4867
 5587SOL     OW28222   2.659   4.320   8.663 -0.2472  0.6265  0.4570
 5587SOL    HW128223   2.755   4.323   8.665 -0.1612 -0.8259 -1.2803
 5587SOL    HW228224   2.640   4.238   8.708  1.0474  0.0727 -0.0155
 5588SOL     OW28225   1.078   0.269   6.659  0.0970  0.2698  0.6298
 5588SOL    HW128226   1.101   0.304   6.745  2.1784  0.2312  0.0820
 5588SOL    HW228227   1.053   0.348   6.610  2.0492  0.9418  0.7251
 5589SOL     OW28228   1.130   4.004   2.949  0.2825  0.2038  0.7149
 5589SOL    HW128229   1.036   4.013   2.966  0.5296 -1.3613  2.9723
 5589SOL    HW228230   1.134   4.027   2.856  1.7793 -2.4890  0.1410
 5590SOL     OW28231   1.828   3.728   5.349  0.1507  0.1281 -0.1599
 5590SOL    HW128232   1.852   3.751   5.259  1.0519 -3.4415 -0.8093
 5590SOL    HW228233   1.740   3.692   5.339 -1.2401  3.1997  0.8847
 5591SOL     OW28234   2.532   4.176   3.322 -0.5534  0.3007  0.1133
 5591SOL    HW128235   2.489   4.157   3.239 -0.2183  2.2919 -0.5060
 5591SOL    HW228236   2.495   4.105   3.376  1.2268 -0.8055 -0.1009
 5592SOL     OW28237   1.234   2.130  10.080  0.2260 -0.0345  0.5006
 5592SOL    HW128238   1.276   2.074  10.015 -0.0575  0.3345 -0.0048
 5592SOL    HW228239   1.302   2.137  10.146 -1.2079  0.4566  1.9382
 5593SOL     OW28240   2.059   2.719   6.989  0.7934 -0.2965  0.2600
 5593SOL    HW128241   2.044   2.812   7.002  2.0584 -0.1784  0.8671
 5593SOL    HW228242   2.010   2.685   7.064 -1.5972  1.3003 -0.5845
 5594SOL     OW28243   0.447   3.799   8.930 -0.1567 -0.1311  0.1533
 5594SOL    HW128244   0.436   3.875   8.987 -1.0503 -0.3434  0.2626
 5594SOL    HW228245   0.371   3.824   8.878 -0.2639 -1.3933 -0.2876
 5595SOL     OW28246   4.069   1.262   8.784 -0.4541 -0.6393 -0.2266
 5595SOL    HW128247   4.003   1.202   8.751  0.6520 -1.7114 -0.4628
 5595SOL    HW228248   4.031   1.349   8.769  0.6639  0.4395  3.1446
 5596SOL     OW28249   3.324   4.353   0.246  0.3224  0.0837 -0.0979
 5596SOL    HW128250   3.312   4.364   0.340 -1.1623 -2.0224 -0.0326
 5596SOL    HW228251   3.300   4.442   0.219  3.4161  1.1111  0.5178
 5597SOL     OW28252   1.304   2.131   8.891 -0.2563  0.5601 -0.1574
 5597SOL    HW128253   1.363   2.195   8.852 -0.8859  1.2374  0.0132
 5597SOL    HW228254   1.322   2.053   8.838  1.6036  0.9889 -0.1701
 5598SOL     OW28255   0.738   4.183  11.214  0.2242  0.6239  0.1731
 5598SOL    HW128256   0.652   4.195  11.255  1.3980 -1.7037  3.3120
 5598SOL    HW228257   0.762   4.095  11.243 -2.8643  0.4968  2.3784
 5599SOL     OW28258   3.300   0.619   6.059  0.3155 -0.3714  0.1778
 5599SOL    HW128259   3.270   0.698   6.104  0.9385 -1.2944  2.2194
 5599SOL    HW228260   3.345   0.565   6.125  1.2900  0.9687  0.6184
 5600SOL     OW28261   3.141   3.425   4.645 -0.2717  0.0737 -0.6247
 5600SOL    HW128262   3.222   3.473   4.659  0.1370 -0.6165 -0.6662
 5600SOL    HW228263   3.141   3.354   4.709  1.0481 -1.8844 -2.8175
 5601SOL     OW28264   3.147   2.540   2.791  0.0751  0.2836 -0.0170
 5601SOL    HW128265   3.136   2.632   2.818 -1.7172  0.8266 -2.6442
 5601SOL    HW228266   3.103   2.494   2.863  0.7149  1.8326  1.3659
 5602SOL     OW28267   4.371   3.895   7.029 -0.0389 -0.7598  0.2105
 5602SOL    HW128268   4.358   3.844   7.109 -1.2848 -0.4326  0.2124
 5602SOL    HW228269   4.394   3.977   7.074 -1.0641 -0.5953  0.4269
 5603SOL     OW28270   3.556   3.618   1.610  0.0217  0.3757 -0.3641
 5603SOL    HW128271   3.559   3.712   1.627  0.3681  0.3578 -0.3155
 5603SOL    HW228272   3.560   3.585   1.700 -0.2685  1.6567  0.1079
 5604SOL     OW28273   0.515   3.179  14.732  0.7845 -0.1508  0.1103
 5604SOL    HW128274   0.540   3.095  14.694 -0.8868 -1.2291  1.3936
 5604SOL    HW228275   0.440   3.154  14.786 -0.8011 -0.7349 -2.3088
 5605SOL     OW28276   4.632   1.564   5.821 -0.1229  0.2352  0.0673
 5605SOL    HW128277   4.565   1.629   5.801 -0.1473 -0.1991 -1.2565
 5605SOL    HW228278   4.619   1.502   5.749 -0.8314  1.3639 -0.7876
 5606SOL     OW28279   2.226   3.128   4.234 -0.2478 -0.8204 -0.6809
 5606SOL    HW128280   2.243   3.216   4.200 -3.5785  0.6492  1.4823
 5606SOL    HW228281   2.300   3.114   4.293 -0.2178  1.3068 -0.2058
 5607SOL     OW28282   2.269   4.326   4.534 -0.2629 -0.2124 -0.5759
 5607SOL    HW128283   2.245   4.242   4.494  1.0737 -1.3086  0.9192
 5607SOL    HW228284   2.300   4.283   4.614  1.9555 -0.7388 -1.7057
 5608SOL     OW28285   0.063   2.513   7.076 -0.4581  0.2487 -0.2870
 5608SOL    HW128286   0.012   2.528   6.996 -2.8511  1.1708  1.3951
 5608SOL    HW228287   0.036   2.598   7.112 -2.3700  0.1045 -1.3499
 5609SOL     OW28288   3.393   0.913   4.459  0.3899  0.0940 -0.3774
 5609SOL    HW128289   3.414   0.856   4.533 -0.6155 -0.2813 -0.3822
 5609SOL    HW228290   3.301   0.893   4.445  0.8128 -1.5445 -0.8054
 5610SOL     OW28291   2.073   2.987   6.276  0.3704 -0.2564  0.1815
 5610SOL    HW128292   2.072   3.053   6.206  1.1926 -1.6892 -1.2015
 5610SOL    HW228293   2.094   2.906   6.229  1.1889  0.2196 -0.2755
 5611SOL     OW28294   4.685   0.013   8.155 -0.2246 -0.1132 -0.2192
 5611SOL    HW128295   0.032   0.056   8.108 -0.4407 -1.1005 -1.4304
 5611SOL    HW228296   0.017   4.714   8.229 -1.0494 -2.4984 -0.3363
 5612SOL     OW28297   2.384   3.367   4.499 -0.5624 -0.2872 -0.0991
 5612SOL    HW128298   2.414   3.287   4.457 -1.9819  0.4991 -2.5887
 5612SOL    HW228299   2.335   3.336   4.575 -3.3387  1.1880 -1.3051
 5613SOL     OW28300   1.121   4.694   9.482 -0.3119 -0.6213 -0.4574
 5613SOL    HW128301   1.110   0.063   9.501  2.0777  0.0563 -2.4311
 5613SOL    HW228302   1.161   4.690   9.395  0.7910 -1.7959  0.0994
 5614SOL     OW28303   2.430   1.583   4.274  0.1685 -0.1143  0.2704
 5614SOL    HW128304   2.522   1.601   4.254  0.5441 -0.2082  1.9385
 5614SOL    HW228305   2.391   1.594   4.187  0.7183 -2.6025 -0.2961
 5615SOL     OW28306   1.022   4.036   4.448 -0.3740  0.0624  0.6952
 5615SOL    HW128307   1.083   4.067   4.514  0.7827 -1.7994  0.4936
 5615SOL    HW228308   0.936   4.024   4.490 -1.0909  0.0852 -0.7595
 5616SOL     OW28309   2.218   2.181  12.228 -0.3225 -0.4169  0.1955
 5616SOL    HW128310   2.281   2.135  12.284  0.0999 -0.3646 -0.2345
 5616SOL    HW228311   2.152   2.197  12.295 -0.9550  0.3758 -0.6281
 5617SOL     OW28312   2.770   2.096   9.509 -0.3729  0.3934  0.0448
 5617SOL    HW128313   2.750   2.077   9.418  1.2289 -2.0256  0.2243
 5617SOL    HW228314   2.827   2.024   9.535  0.5304  1.2367  0.4239
 5618SOL     OW28315   3.523   0.043   2.242 -0.0322  0.1739 -0.2685
 5618SOL    HW128316   3.551   4.691   2.293  1.7578  0.6160 -0.5821
 5618SOL    HW228317   3.611   0.033   2.204 -0.6697  1.1825 -2.0220
 5619SOL     OW28318   0.123   1.271   3.594 -0.8404 -0.3629  0.1318
 5619SOL    HW128319   0.050   1.287   3.653 -0.6030  3.0260 -0.5119
 5619SOL    HW228320   0.173   1.353   3.594 -1.6653  0.1309  0.4097
 5620SOL     OW28321   4.686   3.710  16.246 -0.5226  0.4610  0.1671
 5620SOL    HW128322   4.614   3.725  16.185 -2.1307 -2.3183  1.3773
 5620SOL    HW228323   4.648   3.727  16.332 -0.7892  2.3188 -0.3142
 5621SOL     OW28324   1.206   1.200   6.786 -0.3809  0.2228  0.8362
 5621SOL    HW128325   1.223   1.160   6.701 -2.1230 -0.1283  0.6577
 5621SOL    HW228326   1.134   1.147   6.819  0.0691 -1.0496 -0.2551
 5622SOL     OW28327   2.434   2.986   6.385 -0.6704  0.8935 -0.5466
 5622SOL    HW128328   2.351   3.024   6.415 -1.0182  1.2864 -2.0050
 5622SOL    HW228329   2.425   2.894   6.411  1.2556  1.2834  1.4917
 5623SOL     OW28330   4.520   1.123  15.055  0.5933  0.2952 -0.1573
 5623SOL    HW128331   4.528   1.054  15.121  1.6398  0.7699  0.2084
 5623SOL    HW228332   4.612   1.146  15.049 -0.0781  3.0525  0.4416
 5624SOL     OW28333   3.587   0.028   7.844 -0.0171  0.0333  0.3287
 5624SOL    HW128334   3.522   0.072   7.789 -0.6299  0.1522  1.1451
 5624SOL    HW228335   3.653   0.005   7.778  0.0199  1.3912 -0.1003
 5625SOL     OW28336   0.773   4.551   3.900 -0.1407  0.0293 -0.7320
 5625SOL    HW128337   0.701   4.509   3.947  0.0838  1.4052  0.8577
 5625SOL    HW228338   0.729   4.616   3.844 -0.8480 -2.0778 -2.5967
 5626SOL     OW28339   4.713   2.737   2.763 -0.2745 -0.1174 -0.7583
 5626SOL    HW128340   4.704   2.816   2.817  0.0076 -0.8695  0.3934
 5626SOL    HW228341   0.006   2.674   2.833 -1.2053  2.5382  1.9043
 5627SOL     OW28342   3.410   3.136   6.402  0.4310 -0.0196  0.0377
 5627SOL    HW128343   3.402   3.061   6.344  2.0615 -0.1610 -0.0049
 5627SOL    HW228344   3.364   3.109   6.482 -1.9660  3.2518 -0.2440
 5628SOL     OW28345   4.602   3.478   6.613  0.2637 -0.1662 -0.0396
 5628SOL    HW128346   4.523   3.511   6.655  0.4651  0.1470  0.0914
 5628SOL    HW228347   4.657   3.459   6.689  0.1988  0.2076  0.1011
 5629SOL     OW28348   3.979   4.324   3.577 -0.2846  0.8707 -0.0622
 5629SOL    HW128349   4.019   4.337   3.491  1.7037  0.0835  0.7480
 5629SOL    HW228350   3.916   4.396   3.579  0.3459  1.3980  0.7295
 5630SOL     OW28351   2.086   2.679   9.062  0.1934 -0.0735  0.2771
 5630SOL    HW128352   2.145   2.734   9.010 -1.3583  2.3035  0.9866
 5630SOL    HW228353   2.087   2.736   9.139  2.0501 -0.1075  0.2847
 5631SOL     OW28354   3.585   2.894   3.243  0.0296 -0.3557  0.4683
 5631SOL    HW128355   3.655   2.862   3.301 -1.1720  1.9045  3.1753
 5631SOL    HW228356   3.610   2.854   3.160 -1.2842 -1.5296  0.6423
 5632SOL     OW28357   0.547   0.042   8.415  0.8775  0.1948  0.4858
 5632SOL    HW128358   0.583   0.037   8.504  1.0573 -1.0191  0.3407
 5632SOL    HW228359   0.570   0.132   8.389 -0.7310  0.6694  0.6851
 5633SOL     OW28360   2.326   3.207  11.480 -0.1238  0.0487  0.2838
 5633SOL    HW128361   2.340   3.295  11.516  1.1463  0.5567 -1.4373
 5633SOL    HW228362   2.231   3.203  11.474  0.0294 -1.8162 -0.8638
 5634SOL     OW28363   2.174   0.134  17.681 -0.0619  0.3454  0.0181
 5634SOL    HW128364   2.221   0.052  17.666 -0.7808 -0.3146  1.3964
 5634SOL    HW228365   2.118   0.116   0.056 -0.2593 -0.9235 -0.4284
 5635SOL     OW28366   0.968   2.054   0.329 -0.0384 -0.1902  0.2515
 5635SOL    HW128367   1.036   2.113   0.299 -0.6679  0.3671 -0.0652
 5635SOL    HW228368   0.891   2.107   0.309 -2.0095 -2.4076  1.8264
 5636SOL     OW28369   0.984   1.841   8.368 -0.2125  0.6574  0.4421
 5636SOL    HW128370   0.968   1.885   8.452  0.3980 -0.2604  1.0286
 5636SOL    HW228371   1.073   1.808   8.376 -0.3292  0.3420  0.4333
 5637SOL     OW28372   3.071   1.380  17.066 -0.0993 -0.5226 -0.0489
 5637SOL    HW128373   2.992   1.328  17.052  0.0305 -0.7156 -0.0727
 5637SOL    HW228374   3.086   1.424  16.983  1.0233  0.8186  0.8733
 5638SOL     OW28375   4.153   3.109  13.522 -0.9105  0.6250 -0.2490
 5638SOL    HW128376   4.154   3.133  13.615 -0.3616  1.4709 -0.4764
 5638SOL    HW228377   4.225   3.157  13.481 -0.5101  0.7551  0.6070
 5639SOL     OW28378   2.187   2.917   8.323 -0.2778 -0.3235 -0.1088
 5639SOL    HW128379   2.137   2.883   8.397 -0.9922 -1.2181 -1.0036
 5639SOL    HW228380   2.273   2.909   8.364  0.9846  2.0023 -2.2946
 5640SOL     OW28381   4.396   1.243   6.141 -0.4244  0.4081 -0.2211
 5640SOL    HW128382   4.491   1.253   6.148 -0.7018  2.6326  0.2944
 5640SOL    HW228383   4.399   1.153   6.109 -0.7590  0.0176  0.8597
 5641SOL     OW28384   4.215   2.269   5.701 -0.2940  0.1734  0.4855
 5641SOL    HW128385   4.243   2.209   5.631 -0.3944  0.6835  0.0119
 5641SOL    HW228386   4.214   2.354   5.657  2.0926 -0.6235 -1.0697
 5642SOL     OW28387   3.998   0.183   8.069  0.1543 -0.1940 -0.0227
 5642SOL    HW128388   4.066   0.137   8.018 -0.4583 -1.6842  0.4874
 5642SOL    HW228389   4.055   0.246   8.113  1.9249 -1.0101 -1.1281
 5643SOL     OW28390   1.183   0.677   0.619 -0.2387  0.5469  0.0933
 5643SOL    HW128391   1.165   0.734   0.544  2.1517 -0.6701 -1.4093
 5643SOL    HW228392   1.277   0.687   0.630 -0.0326  0.1801 -1.3872
 5644SOL     OW28393   2.126   2.892   4.198 -0.1594  0.7449  0.3235
 5644SOL    HW128394   2.163   2.980   4.191 -1.6527  1.5032  1.9447
 5644SOL    HW228395   2.073   2.901   4.278 -0.7746  2.2334 -0.2494
 5645SOL     OW28396   3.068   4.613   5.686 -0.3329  0.5475 -0.7915
 5645SOL    HW128397   3.113   4.564   5.756 -0.4328  1.4807 -0.0727
 5645SOL    HW228398   3.060   4.702   5.719  0.9494  0.4259 -0.1189
 5646SOL     OW28399   2.086   0.345   7.974 -0.3038 -0.2397  0.6613
 5646SOL    HW128400   2.179   0.335   7.995  0.2849  1.0471 -1.3156
 5646SOL    HW228401   2.049   0.400   8.043  1.2052  1.0231  0.4503
 5647SOL     OW28402   0.306   4.518   6.888 -0.3817  0.4350  0.4963
 5647SOL    HW128403   0.299   4.529   6.983  2.4528 -2.3240  1.0455
 5647SOL    HW228404   0.399   4.494   6.886  0.4255  3.8921 -2.6324
 5648SOL     OW28405   4.425   1.347   6.874  0.3038 -0.0791 -0.0999
 5648SOL    HW128406   4.481   1.275   6.903  1.7761  1.0264 -0.2113
 5648SOL    HW228407   4.491   1.404   6.835 -0.8921  2.0198  0.9789
 5649SOL     OW28408   0.666   1.236   4.138  0.2641  0.0458 -0.2778
 5649SOL    HW128409   0.618   1.248   4.220 -0.3722 -0.6044 -0.5613
 5649SOL    HW228410   0.696   1.147   4.155  1.6337  0.5067 -0.3055
 5650SOL     OW28411   2.411   0.995   5.742  0.3560  0.5996 -0.4572
 5650SOL    HW128412   2.478   1.007   5.809 -0.6620  2.5620  0.2328
 5650SOL    HW228413   2.342   0.948   5.789 -0.1622  1.3541 -0.4555
 5651SOL     OW28414   3.579   1.058   0.469 -0.5862 -0.2819 -0.2920
 5651SOL    HW128415   3.650   1.078   0.409  0.2463 -0.5539  0.6093
 5651SOL    HW228416   3.513   1.016   0.414 -0.1796 -0.0601 -0.9436
 5652SOL     OW28417   3.305   2.101   6.963  0.0265  0.1887 -0.4378
 5652SOL    HW128418   3.275   2.188   6.990  1.2518  0.1447  1.0567
 5652SOL    HW228419   3.223   2.062   6.932  0.8217  0.4053 -2.8157
 5653SOL     OW28420   0.415   4.535  11.185 -0.1037 -0.0273  0.2383
 5653SOL    HW128421   0.389   4.569  11.271 -0.5491  0.6170 -0.1571
 5653SOL    HW228422   0.508   4.558  11.185 -0.6969  2.3977  0.1354
 5654SOL     OW28423   1.171   1.190  15.316 -0.5728  0.0155 -0.1315
 5654SOL    HW128424   1.223   1.199  15.236 -0.2897  1.5917  0.2414
 5654SOL    HW228425   1.223   1.211  15.393  1.4026 -0.5582 -1.3054
 5655SOL     OW28426   4.139   0.585   4.573 -0.2202  0.1231 -0.0206
 5655SOL    HW128427   4.046   0.606   4.583 -0.4563 -0.3728 -1.2968
 5655SOL    HW228428   4.145   0.506   4.520  0.5913 -0.8567  1.5196
 5656SOL     OW28429   2.609   1.973   0.414  0.6921 -0.3210  0.3201
 5656SOL    HW128430   2.593   1.903   0.350 -0.7707 -0.4876  0.8719
 5656SOL    HW228431   2.522   2.012   0.413 -0.1786 -2.2829 -0.7739
 5657SOL     OW28432   1.098   2.855   9.324 -0.2008  0.7153 -0.2730
 5657SOL    HW128433   1.133   2.901   9.401  0.5169 -1.6762  0.8214
 5657SOL    HW228434   1.013   2.899   9.326 -0.2679  0.5043  1.5086
 5658SOL     OW28435   2.191   1.280  10.292 -0.0636  0.0401  0.1450
 5658SOL    HW128436   2.111   1.280  10.239  2.0427  1.5307 -3.0543
 5658SOL    HW228437   2.219   1.366  10.261 -1.0191  0.2473 -0.1497
 5659SOL     OW28438   0.526   4.316   4.917  0.0010  0.0345  0.2138
 5659SOL    HW128439   0.546   4.333   5.009 -1.2912  0.5218  0.4006
 5659SOL    HW228440   0.516   4.407   4.889  1.6549  0.4658  1.0097
 5660SOL     OW28441   2.823   4.337   1.190 -0.2472  0.5919 -0.0656
 5660SOL    HW128442   2.728   4.342   1.193 -0.3562 -1.9421  0.0591
 5660SOL    HW228443   2.836   4.391   1.112  2.9810  0.1722  0.1547
 5661SOL     OW28444   2.746   1.907   8.609  0.7152  0.2931  0.0640
 5661SOL    HW128445   2.732   1.815   8.628 -3.7133  0.6481 -1.3938
 5661SOL    HW228446   2.775   1.951   8.689  1.6249 -0.6565  0.2465
 5662SOL     OW28447   1.044   1.781   7.572  0.0778  0.0834 -0.6153
 5662SOL    HW128448   1.000   1.809   7.652  0.8465 -1.8324  0.4616
 5662SOL    HW228449   1.076   1.861   7.530 -1.7442  1.1417  0.0147
 5663SOL     OW28450   4.210   0.787   5.350 -0.3809 -0.2650  0.0402
 5663SOL    HW128451   4.158   0.864   5.326 -1.7314 -1.3392 -0.5302
 5663SOL    HW228452   4.151   0.721   5.312  0.6884 -0.9829 -0.3590
 5664SOL     OW28453   2.613   3.688   0.932 -0.0316  0.1403 -0.4237
 5664SOL    HW128454   2.539   3.629   0.916  0.7100 -1.7366  2.9323
 5664SOL    HW228455   2.622   3.681   1.028  0.3025  1.5208 -0.3636
 5665SOL     OW28456   0.320   3.296   7.142  0.0019  0.3183 -0.0334
 5665SOL    HW128457   0.331   3.390   7.153  0.6176  0.0573  1.4963
 5665SOL    HW228458   0.412   3.271   7.148 -0.4212 -1.3930 -0.6499
 5666SOL     OW28459   0.135   1.544   6.164 -0.4272 -0.7148  0.7179
 5666SOL    HW128460   0.220   1.587   6.174 -0.3914 -0.9137  1.3097
 5666SOL    HW228461   0.104   1.574   6.250 -2.1206  0.6669 -0.3767
 5667SOL     OW28462   1.000   1.249   3.429 -0.6695  0.4815 -0.4484
 5667SOL    HW128463   0.919   1.199   3.438 -1.3679  2.0927  2.0383
 5667SOL    HW228464   0.992   1.323   3.489 -1.4740 -0.7906  1.0352
 5668SOL     OW28465   4.272   1.088   3.357 -0.0557 -0.0065  0.1171
 5668SOL    HW128466   4.288   1.010   3.305 -2.1807 -0.7725  0.6402
 5668SOL    HW228467   4.179   1.106   3.346 -0.0243 -0.4162 -0.7999
 5669SOL     OW28468   4.204   4.461   1.710  0.3454 -0.2880 -0.2779
 5669SOL    HW128469   4.265   4.395   1.742  1.0677 -0.4093 -1.8802
 5669SOL    HW228470   4.261   4.537   1.696  0.0644  0.1500  0.9748
 5670SOL     OW28471   0.857   1.932   4.403  0.0958  0.2604 -0.6206
 5670SOL    HW128472   0.920   1.987   4.450 -0.3581 -0.9389  1.3640
 5670SOL    HW228473   0.861   1.853   4.457  0.5521  1.1207  0.6071
 5671SOL     OW28474   3.216   4.270   8.315  0.1570  0.1170 -0.2668
 5671SOL    HW128475   3.142   4.211   8.330  0.6033 -0.1322  0.9633
 5671SOL    HW228476   3.279   4.215   8.269  1.4185  1.0995  0.2751
 5672SOL     OW28477   2.084   0.341   2.679 -0.8859 -0.0708  0.0928
 5672SOL    HW128478   2.095   0.425   2.634 -1.8024 -1.8520 -3.4803
 5672SOL    HW228479   2.070   0.288   2.600  0.3123 -1.2000  0.6348
 5673SOL     OW28480   3.163   3.478   1.148 -0.2494 -0.6227 -0.8221
 5673SOL    HW128481   3.099   3.439   1.207  0.0324  0.3861  0.1609
 5673SOL    HW228482   3.179   3.401   1.094 -1.1192  0.5154 -2.7078
 5674SOL     OW28483   1.650   1.078   7.491  0.0127  0.0943 -0.2777
 5674SOL    HW128484   1.643   1.140   7.418  1.3128  2.2401  1.3892
 5674SOL    HW228485   1.730   1.027   7.482  0.0186  0.2172 -0.8832
 5675SOL     OW28486   2.750   3.667   2.142 -0.4710 -0.1818 -0.1318
 5675SOL    HW128487   2.757   3.580   2.181 -4.0334 -0.7792 -0.7781
 5675SOL    HW228488   2.819   3.709   2.192 -0.1830 -0.7372 -0.0658
 5676SOL     OW28489   3.338   4.717   6.622  0.2678 -0.3209  0.1745
 5676SOL    HW128490   3.276   4.656   6.661  0.4580 -0.6250 -0.0052
 5676SOL    HW228491   3.288   0.074   6.616  0.6540  0.0265  1.5331
 5677SOL     OW28492   3.330   2.465   3.623 -0.1515 -0.1193  0.0398
 5677SOL    HW128493   3.267   2.410   3.576  0.2469  0.7466 -1.5024
 5677SOL    HW228494   3.415   2.452   3.581 -0.6208 -0.1833 -0.8889
 5678SOL     OW28495   4.581   4.435  11.795 -0.6108 -0.1548 -0.4881
 5678SOL    HW128496   4.654   4.415  11.737 -0.1517 -0.0515  0.0648
 5678SOL    HW228497   4.630   4.446  11.876 -3.6746 -2.3471  1.6766
 5679SOL     OW28498   4.071   2.510   5.981  0.0639  0.3624 -0.7316
 5679SOL    HW128499   4.059   2.416   5.968 -0.0682  0.3682 -0.6450
 5679SOL    HW228500   4.079   2.508   6.077  0.5913  0.4663 -0.7709
 5680SOL     OW28501   1.714   0.319   1.146  0.0415 -0.2867 -0.1127
 5680SOL    HW128502   1.703   0.231   1.182 -2.4601 -0.9250 -2.4163
 5680SOL    HW228503   1.625   0.352   1.135 -0.3938 -0.2858  3.2443
 5681SOL     OW28504   1.493   0.943   8.878 -0.2456 -0.0662 -0.1103
 5681SOL    HW128505   1.488   0.991   8.961 -1.1002 -1.3094  0.5581
 5681SOL    HW228506   1.470   0.854   8.906  1.3868 -1.4745 -3.2440
 5682SOL     OW28507   3.894   3.597   5.920 -0.2742  0.0954  0.3065
 5682SOL    HW128508   3.974   3.611   5.970  0.0633 -0.3690 -0.1029
 5682SOL    HW228509   3.861   3.512   5.949  1.7273 -0.6072  0.5063
 5683SOL     OW28510   1.144   2.250   8.452  0.1964  0.1629  0.4687
 5683SOL    HW128511   1.191   2.315   8.504 -0.1909  2.1785 -1.7215
 5683SOL    HW228512   1.050   2.268   8.452  0.1906  0.1281  1.8622
 5684SOL     OW28513   2.088   2.682   2.388  0.2834 -0.6439 -0.0430
 5684SOL    HW128514   2.091   2.769   2.349  0.5480  0.0319  1.4652
 5684SOL    HW228515   2.178   2.662   2.417  0.8958 -1.1057 -2.2893
 5685SOL     OW28516   0.411   3.255  10.423  0.1848  0.0620 -0.2470
 5685SOL    HW128517   0.389   3.208  10.343  1.3586  0.3628 -0.7463
 5685SOL    HW228518   0.421   3.178  10.478 -0.8396  0.4488  0.4727
 5686SOL     OW28519   1.803   3.434   2.760  0.1938  0.2258  0.4269
 5686SOL    HW128520   1.708   3.441   2.752  0.3001 -0.1790 -1.1025
 5686SOL    HW228521   1.822   3.423   2.667 -1.5519 -0.1570  0.1121
 5687SOL     OW28522   3.630   2.394   3.209 -0.1016 -0.1686  0.1147
 5687SOL    HW128523   3.715   2.437   3.219  0.6939 -2.2579  2.1721
 5687SOL    HW228524   3.649   2.320   3.151 -2.4336 -0.9097  0.2887
 5688SOL     OW28525   0.972   4.280   5.371  0.7756 -0.3842  0.3825
 5688SOL    HW128526   0.941   4.366   5.400 -0.3520 -0.2216 -1.2900
 5688SOL    HW228527   1.000   4.312   5.285  0.6560 -2.9405 -0.5923
 5689SOL     OW28528   3.541   2.593  16.942 -0.6339 -0.4273  0.0716
 5689SOL    HW128529   3.586   2.520  16.900  0.9567 -0.2935  1.5673
 5689SOL    HW228530   3.600   2.666  16.924 -0.3577 -0.5902  0.3254
 5690SOL     OW28531   3.106   3.244   5.269  0.3315  0.2543 -0.2212
 5690SOL    HW128532   3.046   3.273   5.200 -1.4356 -3.0494 -0.0717
 5690SOL    HW228533   3.155   3.188   5.210 -0.5321 -1.7348  0.9356
 5691SOL     OW28534   0.995   1.937   2.205  0.1380 -0.0626 -0.3944
 5691SOL    HW128535   0.976   1.863   2.263 -1.6465  1.0919  0.5006
 5691SOL    HW228536   1.051   1.891   2.142  0.4388 -0.2729  0.0231
 5692SOL     OW28537   0.696   0.772  16.954 -0.1327 -0.6818  0.0428
 5692SOL    HW128538   0.638   0.789  17.028 -1.1822  0.1617 -0.9581
 5692SOL    HW228539   0.667   0.688  16.920  0.9763 -1.9259  2.1879
 5693SOL     OW28540   1.066   2.802   8.469  0.4917  0.5366  0.2099
 5693SOL    HW128541   1.126   2.729   8.485  1.3061  1.1488 -0.0320
 5693SOL    HW228542   0.994   2.744   8.448  1.2853 -0.7161  0.9368
 5694SOL     OW28543   3.611   1.550   5.029  0.5341 -0.1935 -0.3628
 5694SOL    HW128544   3.516   1.537   5.030  0.4108  0.7401 -0.1875
 5694SOL    HW228545   3.618   1.608   5.105 -0.7970 -1.9702  1.0971
 5695SOL     OW28546   4.459   1.820   8.855  0.1234 -0.8564  0.2216
 5695SOL    HW128547   4.536   1.870   8.828 -1.4146  1.6305  0.5397
 5695SOL    HW228548   4.502   1.743   8.893  1.5471  0.6239  1.6134
 5696SOL     OW28549   1.588   1.888   7.640  0.2730 -0.2689  0.1483
 5696SOL    HW128550   1.547   1.928   7.564 -1.0240 -0.7101  0.6219
 5696SOL    HW228551   1.514   1.858   7.692 -1.4329 -0.5837 -2.5040
 5697SOL     OW28552   3.547   1.211  15.575 -0.0718 -0.3697  0.5170
 5697SOL    HW128553   3.502   1.163  15.645  1.5339 -0.9679  1.1217
 5697SOL    HW228554   3.593   1.278  15.625  1.5904 -0.1224 -1.3786
 5698SOL     OW28555   2.503   1.934   1.142  1.1455 -0.9935 -0.1015
 5698SOL    HW128556   2.458   1.910   1.223  1.4846  2.3528  1.1107
 5698SOL    HW228557   2.526   1.846   1.113  1.5121 -0.7944 -0.4190
 5699SOL     OW28558   1.056   2.905  11.299 -0.0050 -0.1268  0.4001
 5699SOL    HW128559   1.117   2.952  11.243 -0.1821  0.7983  0.9894
 5699SOL    HW228560   1.111   2.915  11.377  3.5219 -3.8142 -1.6132
 5700SOL     OW28561   4.446   2.470  12.011 -0.1215  0.1086  0.4481
 5700SOL    HW128562   4.367   2.511  11.975 -0.7618 -0.2637  1.4261
 5700SOL    HW228563   4.420   2.383  12.041  2.4658  0.0005  2.4052
 5701SOL     OW28564   0.311   1.665   5.668  0.2734  0.2239  0.3876
 5701SOL    HW128565   0.348   1.679   5.756  0.0285 -0.6625  0.6281
 5701SOL    HW228566   0.261   1.586   5.687 -0.1228  0.7361  1.4947
 5702SOL     OW28567   1.386   2.943   8.821  0.2344 -0.0849 -0.0658
 5702SOL    HW128568   1.396   3.027   8.777 -0.1994 -0.3962 -0.7775
 5702SOL    HW228569   1.432   2.962   8.902 -0.7466 -0.2588  0.5368
 5703SOL     OW28570   0.868   0.954   6.851 -0.1534  0.8205  0.4644
 5703SOL    HW128571   0.917   0.916   6.924 -0.1701 -2.1382 -1.0760
 5703SOL    HW228572   0.791   0.898   6.864  0.6515 -0.2120  0.8211
 5704SOL     OW28573   0.145   2.174  13.095  0.0044 -0.4522 -0.0153
 5704SOL    HW128574   0.171   2.082  13.087 -0.7252 -0.7074  0.5178
 5704SOL    HW228575   0.061   2.153  13.135 -0.0221 -1.9341 -0.8591
 5705SOL     OW28576   3.173   0.010  10.837 -0.2432 -0.0867  0.5899
 5705SOL    HW128577   3.187   4.653  10.789 -1.3527  0.1787 -0.1650
 5705SOL    HW228578   3.083   0.026  10.810  0.3146  0.3266 -1.0265
 5706SOL     OW28579   0.482   3.762   3.959 -0.0737 -0.3541 -0.4664
 5706SOL    HW128580   0.543   3.758   4.033 -2.0301 -0.0059  1.1607
 5706SOL    HW228581   0.531   3.802   3.888  2.7750  0.2307  1.7993
 5707SOL     OW28582   0.500   3.868  10.584  0.2164  0.2809  0.1678
 5707SOL    HW128583   0.512   3.926  10.509 -0.1095  1.3164  0.9207
 5707SOL    HW228584   0.573   3.809  10.565  0.0388  0.3308 -0.6574
 5708SOL     OW28585   1.506   2.853   9.371 -0.5246  0.4392 -0.5712
 5708SOL    HW128586   1.484   2.908   9.446 -0.5436  0.5288 -0.6413
 5708SOL    HW228587   1.552   2.913   9.312  0.0743  0.6460  0.1065
 5709SOL     OW28588   4.306   2.029  12.032 -0.3428 -0.7079 -0.1414
 5709SOL    HW128589   4.245   2.022  11.959  1.3177 -0.2247 -1.5718
 5709SOL    HW228590   4.385   2.004  11.984  0.6160  1.8258  0.1091
 5710SOL     OW28591   1.604   1.211   7.802 -0.1854 -0.1799 -0.3972
 5710SOL    HW128592   1.575   1.123   7.826 -0.4356  0.8765  3.1455
 5710SOL    HW228593   1.524   1.245   7.762 -0.4281  0.4479  0.6175
 5711SOL     OW28594   3.294   3.432   1.791  0.4834 -0.0819 -0.2261
 5711SOL    HW128595   3.221   3.458   1.734  0.2713 -0.2995 -0.0543
 5711SOL    HW228596   3.321   3.520   1.815 -1.1847  0.5947 -0.8092
 5712SOL     OW28597   0.109   4.401   7.267 -0.1800  0.3304 -0.3343
 5712SOL    HW128598   0.033   4.429   7.317 -1.1628 -0.9972 -1.0896
 5712SOL    HW228599   0.082   4.443   7.186  1.2689 -0.4091 -1.2147
 5713SOL     OW28600   0.380   1.479   1.294 -0.3153  0.2881  0.8373
 5713SOL    HW128601   0.449   1.540   1.318 -1.7352  1.5392  1.7535
 5713SOL    HW228602   0.423   1.396   1.313 -0.9672 -0.0543  0.8218
 5714SOL     OW28603   2.413   0.326   3.062  0.2152  0.0011  0.1678
 5714SOL    HW128604   2.344   0.283   3.112 -0.2367 -0.7523 -1.0975
 5714SOL    HW228605   2.376   0.312   2.975  1.3688 -2.4812  0.0731
 5715SOL     OW28606   3.399   1.449   8.751  0.7372 -0.5324  0.1371
 5715SOL    HW128607   3.360   1.411   8.673 -1.5638  1.9467  0.0627
 5715SOL    HW228608   3.483   1.479   8.716 -0.4470  0.8580 -1.4991
 5716SOL     OW28609   2.207   4.057   2.701 -0.0069 -0.0462  0.7893
 5716SOL    HW128610   2.127   4.094   2.664  1.1761  0.3953 -1.3187
 5716SOL    HW228611   2.173   4.011   2.778 -0.5783  0.0826  0.6116
 5717SOL     OW28612   4.170   1.757   5.640 -0.3110 -0.4257  0.7609
 5717SOL    HW128613   4.126   1.842   5.636 -1.0283 -0.7453  1.9551
 5717SOL    HW228614   4.125   1.705   5.573  0.7802  1.1345 -1.1915
 5718SOL     OW28615   2.173   1.190   6.190 -0.0573  0.0542  0.4413
 5718SOL    HW128616   2.255   1.141   6.185  2.2156  3.9156 -0.4779
 5718SOL    HW228617   2.185   1.284   6.201  0.2967  0.0418  0.1781
 5719SOL     OW28618   4.063   2.031   8.072  0.4687  0.2530  0.7724
 5719SOL    HW128619   3.983   2.057   8.027  0.5511 -1.1828 -0.2144
 5719SOL    HW228620   4.059   1.940   8.041 -1.5233  0.6879 -0.2114
 5720SOL     OW28621   2.344   3.621  17.508  0.1340 -0.1244 -0.3159
 5720SOL    HW128622   2.293   3.554  17.461  2.2044 -1.9237  0.0036
 5720SOL    HW228623   2.339   3.592  17.599 -2.4133 -0.8354 -0.6746
 5721SOL     OW28624   1.650   3.604   0.541  0.5504  0.0580 -0.9465
 5721SOL    HW128625   1.617   3.694   0.537  0.3572  0.0472  0.3900
 5721SOL    HW228626   1.705   3.604   0.462  0.0064  0.0351 -1.3270
 5722SOL     OW28627   1.967   1.807   9.423  0.3949 -0.8107  1.1057
 5722SOL    HW128628   2.019   1.761   9.357  0.6851 -0.2556  0.9435
 5722SOL    HW228629   1.994   1.898   9.408 -1.7656 -0.6207 -1.5425
 5723SOL     OW28630   4.018   4.177  17.089  0.3875  0.9099 -0.2160
 5723SOL    HW128631   4.015   4.083  17.075 -1.2904  1.1243 -1.2514
 5723SOL    HW228632   4.059   4.205  17.007  0.2270  1.2908 -0.1695
 5724SOL     OW28633   0.748   3.235  14.614 -0.1049 -0.6802  0.0359
 5724SOL    HW128634   0.671   3.224  14.669  1.5982  2.7322  3.0315
 5724SOL    HW228635   0.810   3.188  14.668 -1.0039  0.1760  1.8092
 5725SOL     OW28636   4.321   1.873   4.667 -0.0229 -0.9268  0.6981
 5725SOL    HW128637   4.279   1.951   4.703  3.1473  1.5107 -0.8816
 5725SOL    HW228638   4.414   1.897   4.676 -0.8816  3.9280 -3.4469
 5726SOL     OW28639   3.589   2.141   2.376 -0.6097 -0.1023  0.3813
 5726SOL    HW128640   3.521   2.147   2.443 -0.6621  1.6620  0.1742
 5726SOL    HW228641   3.668   2.162   2.427 -0.8392  0.6859  0.4202
 5727SOL     OW28642   1.295   1.497   3.804 -0.3115  0.2642  0.2256
 5727SOL    HW128643   1.209   1.538   3.799  0.1456  1.1264 -0.5260
 5727SOL    HW228644   1.314   1.490   3.710  0.5934 -0.8119  0.4858
 5728SOL     OW28645   0.314   4.531   8.795 -0.0855 -0.2324  0.7565
 5728SOL    HW128646   0.267   4.568   8.720  0.6817 -3.3576 -1.2585
 5728SOL    HW228647   0.378   4.483   8.743  0.8159  0.2935  1.3655
 5729SOL     OW28648   3.653   4.493   3.030 -0.9415 -0.0518 -0.0220
 5729SOL    HW128649   3.581   4.536   3.075 -1.4603  0.2848 -1.1687
 5729SOL    HW228650   3.639   4.532   2.943  0.4558  0.4115 -0.0415
 5730SOL     OW28651   3.225   2.924   0.531  0.5161 -0.0240 -0.2159
 5730SOL    HW128652   3.155   2.978   0.494  0.6358  0.7658  0.7073
 5730SOL    HW228653   3.275   2.994   0.572  1.5269 -0.2753 -1.0098
 5731SOL     OW28654   0.199   0.124  15.531  0.1260  0.3836 -0.2410
 5731SOL    HW128655   0.156   0.207  15.552  0.1172  0.8826 -2.2172
 5731SOL    HW228656   0.122   0.068  15.520 -0.9008  1.4817  1.3152
 5732SOL     OW28657   1.474   0.684   3.008 -0.4410  0.1997  0.0997
 5732SOL    HW128658   1.536   0.725   2.948 -0.2164 -0.9985 -0.4826
 5732SOL    HW228659   1.511   0.596   3.009  1.8223  1.1747  1.1272
 5733SOL     OW28660   0.977   1.075   6.308 -0.5893  0.1186  0.5011
 5733SOL    HW128661   0.981   1.170   6.297 -0.1114 -0.1920 -2.0535
 5733SOL    HW228662   1.068   1.049   6.321 -0.7142 -0.4745  0.1910
 5734SOL     OW28663   2.799   4.629   7.842  0.3333 -0.0387 -0.2975
 5734SOL    HW128664   2.738   4.652   7.912  0.3262 -0.2852 -0.2216
 5734SOL    HW228665   2.778   4.706   7.790  0.3009  0.0347 -0.1773
 5735SOL     OW28666   0.500   0.737  12.112 -0.4767 -0.5136  0.0153
 5735SOL    HW128667   0.477   0.792  12.187 -0.7823 -1.4393  0.5968
 5735SOL    HW228668   0.451   0.789  12.048  0.6096 -1.4212 -1.5493
 5736SOL     OW28669   3.921   0.490   7.314 -0.2046  0.5685  0.0789
 5736SOL    HW128670   3.989   0.469   7.378  0.8558  0.3201 -1.1219
 5736SOL    HW228671   3.869   0.553   7.364  1.1538  0.8415  1.1359
 5737SOL     OW28672   1.419   0.895  16.479 -0.8987 -0.4632 -0.7174
 5737SOL    HW128673   1.379   0.810  16.464 -1.1615 -0.4147 -0.3027
 5737SOL    HW228674   1.365   0.925  16.552 -0.9238 -0.8005 -0.5991
 5738SOL     OW28675   4.105   2.340   8.944 -0.1209 -0.4859  0.1157
 5738SOL    HW128676   4.138   2.386   9.021  2.1581 -2.3975  0.2986
 5738SOL    HW228677   4.179   2.321   8.886 -2.3404  1.7547 -3.4536
 5739SOL     OW28678   1.203   3.970   3.613 -0.2093  0.3461  0.4277
 5739SOL    HW128679   1.274   3.975   3.549 -1.0501 -2.0985 -0.7279
 5739SOL    HW228680   1.148   4.046   3.594 -0.3406  0.6371  1.9774
 5740SOL     OW28681   0.186   3.936   6.881  0.2770  0.0129 -0.0310
 5740SOL    HW128682   0.250   3.893   6.824  0.2763 -0.3151  0.2131
 5740SOL    HW228683   0.183   4.026   6.851  0.5663  1.3487  3.9091
 5741SOL     OW28684   3.175   3.495   7.485 -0.3455  0.0800  0.3396
 5741SOL    HW128685   3.091   3.479   7.528  0.0205  0.3928  1.1639
 5741SOL    HW228686   3.154   3.547   7.408  1.3070 -1.3024 -1.0703
 5742SOL     OW28687   1.210   2.745   2.406  1.0175  0.3392 -1.0422
 5742SOL    HW128688   1.232   2.698   2.326  2.0642 -0.5066 -0.2618
 5742SOL    HW228689   1.301   2.742   2.438  0.7494  2.0264 -0.1172
 5743SOL     OW28690   3.672   3.362   6.627  0.1281  0.1435 -0.1210
 5743SOL    HW128691   3.666   3.344   6.721 -0.2249  2.4611  0.3018
 5743SOL    HW228692   3.649   3.455   6.623  1.7452  0.6514  2.3978
 5744SOL     OW28693   1.465   2.645   5.393  0.0576  0.7544 -0.1895
 5744SOL    HW128694   1.382   2.649   5.346  0.9286 -0.0874 -1.8058
 5744SOL    HW228695   1.516   2.597   5.328 -0.3743 -0.3745  0.2961
 5745SOL     OW28696   0.753   3.543   4.029 -0.2102  0.2959 -0.8416
 5745SOL    HW128697   0.762   3.628   3.986 -1.4335  1.3709  1.0338
 5745SOL    HW228698   0.842   3.511   4.011  0.3916  1.2882  0.3441
 5746SOL     OW28699   1.291   3.770   8.540  0.3276  0.0391 -0.2620
 5746SOL    HW128700   1.289   3.695   8.600 -2.2537  1.6928  1.7015
 5746SOL    HW228701   1.366   3.756   8.481  0.8570 -0.5975  0.5710
 5747SOL     OW28702   3.273   2.534   4.938  0.2231  0.0826 -0.3891
 5747SOL    HW128703   3.182   2.510   4.921 -0.2603  0.0040  2.2154
 5747SOL    HW228704   3.312   2.450   4.913  0.3514  0.0888 -0.2163
 5748SOL     OW28705   1.277   3.635   2.924 -0.7464 -0.6006  0.1418
 5748SOL    HW128706   1.340   3.682   2.868 -0.8064 -0.4830  0.1738
 5748SOL    HW228707   1.270   3.703   2.992  0.3801 -0.7218  0.3879
 5749SOL     OW28708   4.449   2.882   3.112  0.2807  0.1614 -0.4163
 5749SOL    HW128709   4.507   2.912   3.041 -1.0804  3.3048 -0.2137
 5749SOL    HW228710   4.518   2.887   3.178 -0.2609 -0.1947  0.1693
 5750SOL     OW28711   1.337   0.624  13.163  0.3837  0.3927 -0.4488
 5750SOL    HW128712   1.335   0.577  13.079 -0.8441  2.2324 -1.4564
 5750SOL    HW228713   1.250   0.596  13.189  0.7873 -0.0205  0.4574
 5751SOL     OW28714   3.730   2.825   4.210  0.1274  0.5988 -0.5486
 5751SOL    HW128715   3.819   2.795   4.195  0.5227  0.7429  1.4687
 5751SOL    HW228716   3.758   2.881   4.283 -0.9448  0.3321  0.0720
 5752SOL     OW28717   3.558   3.102   4.177  0.0618  0.6428  0.1569
 5752SOL    HW128718   3.498   3.167   4.142 -1.1908  0.0091  1.1251
 5752SOL    HW228719   3.634   3.157   4.198  0.1728  0.9571 -1.0450
 5753SOL     OW28720   1.009   1.730   2.395  0.4767  0.2719  0.0000
 5753SOL    HW128721   1.087   1.687   2.360 -0.5166  0.6207 -2.6304
 5753SOL    HW228722   1.055   1.800   2.442  1.9383 -0.4273 -0.3913
 5754SOL     OW28723   3.869   2.706  12.253  0.3762 -0.2473 -0.4786
 5754SOL    HW128724   3.912   2.712  12.338  1.0687  0.0462 -0.8509
 5754SOL    HW228725   3.942   2.700  12.192 -0.9471 -0.8168 -2.0018
 5755SOL     OW28726   0.141   1.783  10.720 -0.0693  0.0219 -0.6244
 5755SOL    HW128727   0.223   1.736  10.738 -0.3596 -0.7108 -1.2061
 5755SOL    HW228728   0.178   1.870  10.732 -0.2738 -0.2110  1.6791
 5756SOL     OW28729   2.621   0.476   3.113  0.1378 -0.2193  0.1087
 5756SOL    HW128730   2.536   0.433   3.105 -0.5076  0.6972  2.0538
 5756SOL    HW228731   2.625   0.504   3.021 -0.2258 -0.1041  0.1291
 5757SOL     OW28732   4.067   3.310  12.560 -0.3352 -0.2014 -0.0934
 5757SOL    HW128733   4.149   3.330  12.516  0.4821  0.6403  1.8160
 5757SOL    HW228734   4.082   3.227  12.605  3.2040 -0.1517 -1.1882
 5758SOL     OW28735   2.170   1.452   6.148  0.4575  0.4359  0.5162
 5758SOL    HW128736   2.104   1.501   6.196  1.3015  0.1079  1.9955
 5758SOL    HW228737   2.226   1.529   6.136 -0.0456  1.0009  1.7832
 5759SOL     OW28738   0.564   0.547  15.030  0.0419 -0.2385  0.0875
 5759SOL    HW128739   0.618   0.586  14.961 -0.4587  1.4029  0.6351
 5759SOL    HW228740   0.557   0.463  14.983  0.5311 -0.4529  0.4003
 5760SOL     OW28741   0.066   1.014  10.695  1.0166 -0.0794  0.1809
 5760SOL    HW128742   0.066   0.954  10.620  1.8803  1.5065 -1.1087
 5760SOL    HW228743   0.158   1.016  10.724  1.1809 -1.6471 -0.2326
 5761SOL     OW28744   2.250   3.015   1.575  0.1875 -0.5628  0.1842
 5761SOL    HW128745   2.322   3.056   1.624 -0.2819 -1.3309  1.5255
 5761SOL    HW228746   2.238   3.075   1.502  0.2631 -0.8656 -0.0772
 5762SOL     OW28747   1.174   4.315   8.686  0.0937 -0.4752 -0.0073
 5762SOL    HW128748   1.141   4.245   8.743 -1.2211  1.1977  1.2573
 5762SOL    HW228749   1.223   4.257   8.627  1.6320  0.4246  0.3727
 5763SOL     OW28750   0.899   4.135   7.473 -0.1073 -0.0150 -0.3945
 5763SOL    HW128751   0.965   4.068   7.457  0.4068  0.0332  1.6039
 5763SOL    HW228752   0.823   4.085   7.501  0.5138  0.2684  1.7497
 5764SOL     OW28753   3.198   1.668   8.236 -0.1727  0.2754 -0.2516
 5764SOL    HW128754   3.149   1.692   8.315 -0.2969  1.1997 -0.6041
 5764SOL    HW228755   3.175   1.732   8.168 -1.6026 -0.5162 -0.5103
 5765SOL     OW28756   2.843   4.451   5.723 -0.3125 -0.0980  0.0587
 5765SOL    HW128757   2.917   4.485   5.672 -0.9428  0.1134 -0.7277
 5765SOL    HW228758   2.897   4.413   5.791  0.3433 -0.5305 -0.7009
 5766SOL     OW28759   0.100   0.428   7.647  0.2547 -0.2433 -0.2905
 5766SOL    HW128760   0.057   0.484   7.711  0.9701  1.8604 -1.6499
 5766SOL    HW228761   0.071   0.351   7.696  0.4379  0.0300  0.2439
 5767SOL     OW28762   2.868   3.109   1.137  0.0151 -0.1863  0.0134
 5767SOL    HW128763   2.923   3.103   1.058 -3.1564 -1.5935 -2.0985
 5767SOL    HW228764   2.823   3.025   1.130 -0.8806  0.2015  1.1142
 5768SOL     OW28765   3.948   0.482  17.392  0.0324  0.4950  0.2520
 5768SOL    HW128766   3.963   0.439  17.308  1.3094 -0.2519  0.8632
 5768SOL    HW228767   3.967   0.572  17.368 -1.5473  0.5563 -0.7572
 5769SOL     OW28768   3.212   4.679  10.406 -0.0510 -0.2809  0.2785
 5769SOL    HW128769   3.129   4.700  10.448  0.4169 -0.8658  1.4824
 5769SOL    HW228770   3.268   4.712  10.476  1.6807 -1.7100 -0.4561
 5770SOL     OW28771   1.852   1.466  11.421  0.3877 -0.3395  0.4533
 5770SOL    HW128772   1.849   1.389  11.478  0.9197 -0.0686  0.8476
 5770SOL    HW228773   1.765   1.502  11.442 -0.7986 -1.1302 -3.2595
 5771SOL     OW28774   2.279   0.428   6.263  0.3723  0.2149  0.2587
 5771SOL    HW128775   2.321   0.413   6.347  0.6432  0.2680  0.1308
 5771SOL    HW228776   2.323   0.367   6.203  0.3754  0.2221  0.2536
 5772SOL     OW28777   0.367   1.535  10.793  0.0944  0.0830  0.2246
 5772SOL    HW128778   0.342   1.444  10.806  1.4230 -0.3300 -0.1033
 5772SOL    HW228779   0.395   1.556  10.882 -2.9492  1.5836  0.8312
 5773SOL     OW28780   4.155   3.378   5.801 -0.4377  0.0797  0.3927
 5773SOL    HW128781   4.139   3.327   5.881  1.3765 -2.1214 -0.6492
 5773SOL    HW228782   4.222   3.440   5.830  0.4681  0.1614 -1.8996
 5774SOL     OW28783   4.598   0.901   3.662  0.5162 -0.2202  0.4162
 5774SOL    HW128784   4.560   0.855   3.587  3.7370 -2.5424  0.1995
 5774SOL    HW228785   4.552   0.985   3.655  0.3515 -0.1883  1.7888
 5775SOL     OW28786   3.710   0.821   9.672 -0.5120 -0.0847 -0.0351
 5775SOL    HW128787   3.710   0.727   9.657 -2.8229  0.0486 -0.8216
 5775SOL    HW228788   3.723   0.853   9.583  0.5467 -2.1716 -0.6244
 5776SOL     OW28789   4.138   1.415   3.939 -0.1771 -0.0290 -0.6774
 5776SOL    HW128790   4.120   1.444   4.028 -0.7369 -0.6554 -0.5891
 5776SOL    HW228791   4.062   1.358   3.941  0.3462 -0.8173 -2.6565
 5777SOL     OW28792   0.328   0.312   9.217  0.0042  0.0857  0.1854
 5777SOL    HW128793   0.396   0.362   9.263 -0.5887  1.1472 -0.0930
 5777SOL    HW228794   0.316   0.380   9.150 -0.4468 -0.6513 -0.4765
 5778SOL     OW28795   0.245   4.069   8.050 -0.3572  0.1595  0.3603
 5778SOL    HW128796   0.272   3.985   8.087 -0.8301  1.0593  2.7321
 5778SOL    HW228797   0.330   4.111   8.054  0.7077 -1.9680  0.1057
 5779SOL     OW28798   3.980   3.280   9.298 -1.3645 -0.1313 -0.5977
 5779SOL    HW128799   3.973   3.266   9.203 -0.6107  0.8064 -0.7841
 5779SOL    HW228800   3.942   3.368   9.310 -1.3824 -0.5107  2.1190
 5780SOL     OW28801   3.611   3.817   7.098 -0.0396  0.2464 -0.6329
 5780SOL    HW128802   3.617   3.854   7.186 -1.7631  2.1697 -1.3460
 5780SOL    HW228803   3.698   3.832   7.061  0.3874  1.4450  0.8811
 5781SOL     OW28804   3.810   1.646   6.235  0.0391 -0.4235  0.3889
 5781SOL    HW128805   3.842   1.609   6.154  1.9571 -0.2871  1.0843
 5781SOL    HW228806   3.719   1.620   6.223 -0.4167  0.2996  2.2208
 5782SOL     OW28807   0.539   1.681   5.284  0.3278 -0.7541 -0.6717
 5782SOL    HW128808   0.528   1.597   5.329 -1.2302 -1.0370 -1.5849
 5782SOL    HW228809   0.499   1.742   5.346  3.1243 -1.8522  2.2234
 5783SOL     OW28810   3.522   3.926   3.140  0.3692  0.0791  0.3940
 5783SOL    HW128811   3.526   3.832   3.126 -0.1572  0.0774  0.2533
 5783SOL    HW228812   3.582   3.929   3.215  0.1924 -2.3044  0.6153
 5784SOL     OW28813   2.612   1.138   7.164 -0.0024  0.4051 -0.4755
 5784SOL    HW128814   2.640   1.229   7.167 -1.1560  0.8351 -2.1920
 5784SOL    HW228815   2.693   1.087   7.161  0.5643  1.1011  3.4531
 5785SOL     OW28816   1.205   0.610   5.786  0.0293 -0.1111  0.3955
 5785SOL    HW128817   1.241   0.549   5.722 -0.5399  0.2761 -0.2957
 5785SOL    HW228818   1.260   0.684   5.759  0.5988 -0.5477  0.3645
 5786SOL     OW28819   3.179   0.413   7.269 -0.6376  0.3382  0.4401
 5786SOL    HW128820   3.264   0.455   7.282 -0.2441 -0.4767  0.4676
 5786SOL    HW228821   3.208   0.369   7.189 -2.9459 -0.5176  0.0882
 5787SOL     OW28822   0.555   2.901   3.020  0.3006  0.0063  0.3667
 5787SOL    HW128823   0.605   2.826   3.052  2.1376  1.3565  0.6474
 5787SOL    HW228824   0.616   2.975   3.023 -1.3028  1.3509 -0.2796
 5788SOL     OW28825   1.507   1.634   4.514 -0.0798  0.1092 -0.0217
 5788SOL    HW128826   1.531   1.696   4.445 -0.0778  0.2846  0.1347
 5788SOL    HW228827   1.464   1.569   4.459  1.9210 -0.8993 -0.3808
 5789SOL     OW28828   1.775   1.234   2.619  0.1372 -0.0646  0.1284
 5789SOL    HW128829   1.852   1.201   2.666  0.0540 -1.0992 -0.4612
 5789SOL    HW228830   1.719   1.188   2.681  2.0083 -1.6533  0.6612
 5790SOL     OW28831   1.951   3.242   7.194  0.2156  0.4954 -0.9376
 5790SOL    HW128832   1.890   3.312   7.217  1.4095  1.4821 -0.7958
 5790SOL    HW228833   2.014   3.295   7.146  1.1452 -1.2338 -1.6358
 5791SOL     OW28834   2.160   1.468   4.487 -0.8149 -0.9734  0.3698
 5791SOL    HW128835   2.131   1.400   4.548 -0.5921  1.4488  3.1756
 5791SOL    HW228836   2.222   1.423   4.430  0.1773 -0.3317  0.9482
 5792SOL     OW28837   0.822   2.351   3.434 -0.0638  0.2652  0.5359
 5792SOL    HW128838   0.849   2.292   3.504 -1.0132 -0.8285 -0.0162
 5792SOL    HW228839   0.732   2.368   3.461 -0.4963 -0.1508 -0.6321
 5793SOL     OW28840   2.025   3.746  10.645 -0.3671 -0.2331  0.1963
 5793SOL    HW128841   1.931   3.760  10.632 -0.4958  0.5808  1.9945
 5793SOL    HW228842   2.033   3.696  10.727  1.5748 -2.9197 -1.6152
 5794SOL     OW28843   0.996   3.888   6.663  0.2460 -0.5426  0.2350
 5794SOL    HW128844   1.083   3.855   6.687  0.6853  1.9116  1.9634
 5794SOL    HW228845   1.003   3.982   6.681 -1.0146 -0.0057 -2.0643
 5795SOL     OW28846   1.053   3.432   9.319 -0.1597 -0.0708 -0.0995
 5795SOL    HW128847   1.004   3.470   9.246 -0.1532 -0.4517 -0.2985
 5795SOL    HW228848   1.048   3.495   9.391 -1.1456 -0.4449  0.1586
 5796SOL     OW28849   2.490   3.252   5.870  0.6274  0.3446 -0.0305
 5796SOL    HW128850   2.417   3.235   5.930  0.0276 -0.4110 -0.9725
 5796SOL    HW228851   2.447   3.260   5.785  1.1754 -2.1454 -0.5396
 5797SOL     OW28852   4.153   4.255  13.585 -0.0873  0.6129  0.0658
 5797SOL    HW128853   4.131   4.206  13.664  0.3134 -0.6616 -0.6057
 5797SOL    HW228854   4.221   4.314  13.617 -1.5239  2.8548 -1.0932
 5798SOL     OW28855   1.675   3.934   3.339  0.9663  0.6973  0.3427
 5798SOL    HW128856   1.757   3.972   3.369  0.9183  2.3694 -1.6566
 5798SOL    HW228857   1.714   3.894   3.262  0.3125  0.4144  0.1611
 5799SOL     OW28858   0.530   0.893  10.630 -0.0739 -0.2685  0.1371
 5799SOL    HW128859   0.625   0.898  10.641 -0.1549  2.3157 -0.2169
 5799SOL    HW228860   0.523   0.810  10.583  0.1565 -0.2893  0.1402
 5800SOL     OW28861   3.239   2.674   4.282  0.0198 -0.7749 -0.2564
 5800SOL    HW128862   3.330   2.704   4.281 -1.2003  2.9110 -0.4419
 5800SOL    HW228863   3.192   2.741   4.232 -0.6645  0.1290  1.6011
 5801SOL     OW28864   3.055   4.486   9.130  0.6505  0.5642 -0.3839
 5801SOL    HW128865   2.988   4.552   9.145 -1.7435 -1.5773 -1.5558
 5801SOL    HW228866   3.079   4.530   9.048  1.3962  0.8534 -0.0073
 5802SOL     OW28867   0.996   1.789   3.154 -0.0989 -0.4238 -0.0426
 5802SOL    HW128868   0.925   1.784   3.218  1.0850 -1.6657  1.1419
 5802SOL    HW228869   1.060   1.732   3.195 -1.2675 -1.7702 -0.0827
 5803SOL     OW28870   1.220   1.384  10.116  0.1893  0.1038  1.0464
 5803SOL    HW128871   1.276   1.309  10.133 -1.3193 -1.2346  0.1783
 5803SOL    HW228872   1.155   1.349  10.054  0.1550  1.3330  0.3997
 5804SOL     OW28873   2.863   1.063   6.375  0.2189 -0.0821 -0.0602
 5804SOL    HW128874   2.822   0.980   6.399 -0.1398 -0.2291 -1.1964
 5804SOL    HW228875   2.953   1.030   6.380  0.3381 -0.1588 -2.8776
 5805SOL     OW28876   0.130   3.442   4.644 -0.3555 -0.0405 -0.6871
 5805SOL    HW128877   0.058   3.379   4.640 -0.3023 -0.1238 -0.3680
 5805SOL    HW228878   0.184   3.406   4.715 -0.7360  0.7409  0.0002
 5806SOL     OW28879   2.790   4.042  16.171  0.5835  0.1825  0.4250
 5806SOL    HW128880   2.768   3.979  16.103 -1.2063  1.2225  0.0235
 5806SOL    HW228881   2.828   3.996  16.246  2.3879  0.3252 -0.4131
 5807SOL     OW28882   0.438   0.918   1.490 -0.5686 -0.0866  0.3391
 5807SOL    HW128883   0.497   0.860   1.441 -3.6396 -1.5425 -1.6076
 5807SOL    HW228884   0.351   0.897   1.456 -0.0891  2.4380 -2.5567
 5808SOL     OW28885   3.000   2.851   6.224  0.0391  0.6834  0.1857
 5808SOL    HW128886   3.033   2.763   6.211 -0.6681  0.0712  2.5875
 5808SOL    HW228887   3.075   2.899   6.259  0.9813  1.5674 -2.9804
 5809SOL     OW28888   4.378   1.106   2.276 -0.4092 -0.4418 -0.5910
 5809SOL    HW128889   4.320   1.063   2.214 -0.7654  0.4555 -0.8826
 5809SOL    HW228890   4.463   1.084   2.237 -0.1192 -4.7143  2.4956
 5810SOL     OW28891   3.228   0.691   8.631  0.0110 -0.0708 -0.1601
 5810SOL    HW128892   3.234   0.604   8.592  0.7994  0.8266 -2.0718
 5810SOL    HW228893   3.277   0.679   8.712 -1.5817 -2.8435  0.3779
 5811SOL     OW28894   1.361   3.574   0.557  0.1768  0.2628 -0.1658
 5811SOL    HW128895   1.325   3.625   0.484  0.6256  1.9252  0.7779
 5811SOL    HW228896   1.455   3.570   0.545  0.4747  0.3300  2.1686
 5812SOL     OW28897   0.263   2.072   4.072  0.3719 -0.0271 -0.4564
 5812SOL    HW128898   0.308   2.153   4.048 -1.2513  1.4553  1.5758
 5812SOL    HW228899   0.333   2.010   4.052  1.4389  0.6313  1.2982
 5813SOL     OW28900   4.062   2.691  12.052  0.1599 -0.1344 -0.0209
 5813SOL    HW128901   4.138   2.728  12.006 -0.6441  0.8247 -0.5800
 5813SOL    HW228902   3.978   2.715  12.013 -1.2017 -0.6877  2.5778
 5814SOL     OW28903   3.664   3.354   6.884  0.0666 -0.0039 -0.0257
 5814SOL    HW128904   3.756   3.344   6.909  0.2310  2.7376  0.5213
 5814SOL    HW228905   3.638   3.436   6.926  1.6369 -1.1209  3.0875
 5815SOL     OW28906   1.828   2.187   2.735  0.3031 -0.1062  0.4610
 5815SOL    HW128907   1.905   2.227   2.693  0.3951 -1.3109 -0.5279
 5815SOL    HW228908   1.881   2.137   2.797 -0.4620 -0.2840  0.9763
 5816SOL     OW28909   2.670   1.338   4.659  0.1491 -1.0700 -0.2296
 5816SOL    HW128910   2.592   1.327   4.604 -1.1289 -0.3278  1.4539
 5816SOL    HW228911   2.709   1.403   4.600 -0.0140 -1.1813 -0.4595
 5817SOL     OW28912   0.419   2.938  11.687 -0.0174  0.1201  0.3023
 5817SOL    HW128913   0.466   3.009  11.643  0.9552  0.7335  2.3391
 5817SOL    HW228914   0.487   2.877  11.714 -0.1227 -0.5064 -0.8090
 5818SOL     OW28915   3.205   0.355  11.805  0.9544  0.5063 -0.2044
 5818SOL    HW128916   3.178   0.445  11.790 -1.5093 -0.2337 -0.3029
 5818SOL    HW228917   3.244   0.373  11.890 -2.3713  1.4283  1.1238
 5819SOL     OW28918   0.117   1.780  16.737  0.0828  0.1140  0.0118
 5819SOL    HW128919   0.059   1.853  16.758  0.3646  0.4279 -0.2970
 5819SOL    HW228920   0.177   1.773  16.812  1.4722 -1.4037 -1.2319
 5820SOL     OW28921   1.379   3.874  16.110  0.1859 -0.4130 -0.1767
 5820SOL    HW128922   1.457   3.928  16.123 -1.0032  1.0893  0.7377
 5820SOL    HW228923   1.315   3.940  16.085  0.0753  0.3846  2.2298
 5821SOL     OW28924   2.414   2.749   7.889  0.9178 -0.1576  0.2259
 5821SOL    HW128925   2.349   2.803   7.844  0.2262  0.1003  1.5582
 5821SOL    HW228926   2.415   2.673   7.831  0.6202  0.9841 -1.2769
 5822SOL     OW28927   1.561   2.893  15.389 -0.5143 -0.2477  0.0506
 5822SOL    HW128928   1.570   2.797  15.392 -0.0203 -0.1556  1.3375
 5822SOL    HW228929   1.641   2.925  15.430  0.6507 -2.6926 -0.3181
 5823SOL     OW28930   4.434   4.010   3.759 -0.3341  0.4753 -0.2456
 5823SOL    HW128931   4.370   3.947   3.728  2.0226 -1.8888 -0.2790
 5823SOL    HW228932   4.420   4.001   3.853  1.7600 -2.2419 -0.1919
 5824SOL     OW28933   2.273   0.837   6.149 -0.0927  0.3385 -0.4959
 5824SOL    HW128934   2.218   0.855   6.073 -1.1035  3.6430  1.0288
 5824SOL    HW228935   2.356   0.874   6.119  1.3010 -0.5810  2.2045
 5825SOL     OW28936   1.458   4.400   6.464 -0.3144  0.0214 -0.5184
 5825SOL    HW128937   1.542   4.380   6.422 -0.8295 -0.4533 -1.3150
 5825SOL    HW228938   1.467   4.341   6.539 -0.3245 -0.0185 -0.5489
 5826SOL     OW28939   1.519   1.281  16.433 -0.0560  0.0292 -0.5467
 5826SOL    HW128940   1.607   1.297  16.398  0.4974 -1.2029  0.3005
 5826SOL    HW228941   1.511   1.349  16.500  1.1660 -0.4665  0.1182
 5827SOL     OW28942   4.429   0.453  13.685 -0.1314 -0.5200 -0.0449
 5827SOL    HW128943   4.444   0.389  13.616  1.9013 -0.3082  0.2052
 5827SOL    HW228944   4.388   0.399  13.752 -2.7244 -0.5381 -1.6687
 5828SOL     OW28945   1.546   2.775   8.158  0.2872 -0.2903  0.0280
 5828SOL    HW128946   1.625   2.803   8.204  0.6886 -2.3704  0.6220
 5828SOL    HW228947   1.569   2.825   8.080 -2.5991  1.2454  0.1909
 5829SOL     OW28948   1.245   3.917   4.246  0.4267 -0.2065 -0.1585
 5829SOL    HW128949   1.254   3.942   4.154 -1.8647 -0.7372 -0.5147
 5829SOL    HW228950   1.321   3.954   4.292 -0.8081  1.8171  0.2795
 5830SOL     OW28951   2.080   4.134   7.788  0.0228 -0.2712 -0.2188
 5830SOL    HW128952   2.148   4.157   7.725 -0.8339  0.4617 -0.8878
 5830SOL    HW228953   2.006   4.163   7.734 -0.2569  1.8297  1.2703
 5831SOL     OW28954   3.330   4.589   0.617  0.0400 -0.0515  0.3733
 5831SOL    HW128955   3.258   4.533   0.588  0.7095 -0.1037 -1.1904
 5831SOL    HW228956   3.400   4.533   0.586 -2.7451 -1.3877 -3.5152
 5832SOL     OW28957   1.779   0.504   6.618  0.4612 -0.6408  0.5960
 5832SOL    HW128958   1.767   0.529   6.710 -0.5459 -2.5759  0.9885
 5832SOL    HW228959   1.872   0.484   6.610  0.3882 -1.7857  2.5891
 5833SOL     OW28960   0.565   4.340  14.570  0.0660 -0.2256 -0.2857
 5833SOL    HW128961   0.566   4.382  14.656  1.2539  0.7229 -0.7676
 5833SOL    HW228962   0.602   4.417  14.528  1.2290 -1.0850 -0.8418
 5834SOL     OW28963   0.606   3.747   4.688 -0.3997 -0.2290  0.2918
 5834SOL    HW128964   0.656   3.801   4.748 -1.2068  0.2713  0.5155
 5834SOL    HW228965   0.558   3.807   4.632 -0.1558 -0.2635  0.0482
 5835SOL     OW28966   2.741   3.289   1.645  0.0684  0.2477 -0.0087
 5835SOL    HW128967   2.747   3.250   1.558  2.2501  0.8329 -0.1089
 5835SOL    HW228968   2.714   3.211   1.694 -3.0855  0.3773 -1.5462
 5836SOL     OW28969   2.068   1.286   5.915 -0.1397  0.2317  0.1777
 5836SOL    HW128970   2.009   1.214   5.938  0.9209 -0.9119 -0.6366
 5836SOL    HW228971   2.100   1.327   5.995  1.0558  0.9487 -0.6665
 5837SOL     OW28972   1.074   3.467  13.629  0.4287  0.2989  0.0468
 5837SOL    HW128973   1.072   3.559  13.604 -0.8101  0.0861 -0.6752
 5837SOL    HW228974   1.167   3.447  13.630 -0.1027 -2.2674 -0.6972
 5838SOL     OW28975   4.408   2.470  11.423  0.0722 -0.3472 -0.0303
 5838SOL    HW128976   4.411   2.503  11.333  2.6013  1.6629  0.8060
 5838SOL    HW228977   4.468   2.396  11.416  1.4506  0.9045 -1.4639
 5839SOL     OW28978   0.691   4.712   6.876 -0.2745 -0.3555  0.4561
 5839SOL    HW128979   0.757   0.055   6.864  1.2294 -1.6149  1.5153
 5839SOL    HW228980   0.619   0.034   6.834  0.0117 -2.8245 -2.7528
 5840SOL     OW28981   0.872   3.937  11.708  0.2239 -0.1526  0.1851
 5840SOL    HW128982   0.955   3.962  11.749  0.4496 -0.5813 -0.0160
 5840SOL    HW228983   0.896   3.852  11.671 -1.3988 -1.0437  1.1751
 5841SOL     OW28984   2.998   2.306   8.793 -0.1158 -0.4198  0.9246
 5841SOL    HW128985   3.087   2.282   8.817 -0.8577 -1.5818  2.4936
 5841SOL    HW228986   3.012   2.359   8.714 -0.9113 -0.2038  0.9307
 5842SOL     OW28987   1.753   1.360   0.819  0.0789 -0.1258  0.6956
 5842SOL    HW128988   1.682   1.371   0.882 -2.0166  0.9055 -1.8383
 5842SOL    HW228989   1.712   1.291   0.766  1.9786  0.9430 -2.2015
 5843SOL     OW28990   3.782   3.724   7.991  0.0696  0.3463  0.3114
 5843SOL    HW128991   3.735   3.686   7.916 -1.0104  0.0057  1.1582
 5843SOL    HW228992   3.706   3.741   8.047 -0.4043 -1.3348  0.1777
 5844SOL     OW28993   3.379   3.953  10.635 -0.0048 -0.1118  0.5400
 5844SOL    HW128994   3.469   3.984  10.645  1.3795 -2.9202 -3.6726
 5844SOL    HW228995   3.344   3.971  10.723 -0.6361  1.9257 -0.1355
 5845SOL     OW28996   4.589   0.348  16.336  0.1946 -0.3482 -0.0949
 5845SOL    HW128997   4.538   0.321  16.412  0.0059  2.3850  0.7562
 5845SOL    HW228998   4.661   0.400  16.372 -0.8308  0.0452  1.3667
 5846SOL     OW28999   1.373   2.782   0.907  0.0738 -0.4198  0.8535
 5846SOL    HW129000   1.463   2.809   0.925  0.3189  0.3218 -1.5307
 5846SOL    HW229001   1.340   2.845   0.971  0.0434  0.6850 -0.2531
 5847SOL     OW29002   1.082   2.404  16.478  0.4336  0.1075  0.6209
 5847SOL    HW129003   1.012   2.425  16.417  1.3522 -1.6797 -1.0763
 5847SOL    HW229004   1.135   2.483  16.486  1.1576 -0.3305  0.2122
 5848SOL     OW29005   1.315   4.278   5.751  0.2723  0.2105  0.1435
 5848SOL    HW129006   1.345   4.192   5.778  1.6171  0.9770  1.0775
 5848SOL    HW229007   1.243   4.261   5.691  1.0821  2.2820 -1.4319
 5849SOL     OW29008   0.750   2.214  11.633  0.5110  0.1254 -0.5645
 5849SOL    HW129009   0.690   2.214  11.707  0.2217  0.2365 -0.8028
 5849SOL    HW229010   0.818   2.273  11.666  1.7624 -0.8729 -1.3740
 5850SOL     OW29011   1.009   4.016  17.226  0.4024 -0.0381 -0.8767
 5850SOL    HW129012   1.084   4.071  17.202  1.7651 -1.7672 -0.6155
 5850SOL    HW229013   0.951   4.019  17.150 -0.5088 -0.3554 -0.1933
 5851SOL     OW29014   0.884   0.152   6.819  0.0104  0.3344 -0.1326
 5851SOL    HW129015   0.938   0.148   6.897 -1.6649  0.1003  1.0216
 5851SOL    HW229016   0.954   0.162   6.755 -0.2060  0.8498 -0.2865
 5852SOL     OW29017   0.091   2.290  10.980  0.2702 -0.1425  0.6998
 5852SOL    HW129018   0.176   2.311  11.019 -0.1208  1.7615  0.5307
 5852SOL    HW229019   0.033   2.336  11.040 -0.9834  0.8683 -1.2858
 5853SOL     OW29020   3.911   1.898   7.368 -0.0462  0.3595  0.4129
 5853SOL    HW129021   3.885   1.963   7.434 -0.8859  0.4340  0.0121
 5853SOL    HW229022   3.855   1.821   7.385 -0.1253  0.6450  1.4884
 5854SOL     OW29023   2.875   3.462   9.959  0.5797 -0.0605  0.3858
 5854SOL    HW129024   2.964   3.480   9.928 -0.2047  0.3622 -1.5822
 5854SOL    HW229025   2.847   3.551   9.981 -0.2821 -0.1615 -0.3323
 5855SOL     OW29026   1.371   3.862   8.252 -0.4006 -0.1234 -0.3329
 5855SOL    HW129027   1.352   3.790   8.311 -1.2207  0.2588 -0.1248
 5855SOL    HW229028   1.465   3.864   8.236 -0.5492  3.1749 -0.8232
 5856SOL     OW29029   2.991   4.550   4.849  0.4830 -0.3723  0.1410
 5856SOL    HW129030   3.032   4.575   4.932 -2.9965  0.9845  1.4564
 5856SOL    HW229031   3.035   4.468   4.826  2.3265  0.5326  0.4764
 5857SOL     OW29032   2.515   3.742   8.557 -0.1487 -0.7207  0.5892
 5857SOL    HW129033   2.600   3.782   8.539 -0.3675 -0.8603 -0.7193
 5857SOL    HW229034   2.538   3.685   8.630 -0.5977  0.8857  2.0010
 5858SOL     OW29035   3.882   1.573   4.943  0.4327  0.1146  0.4235
 5858SOL    HW129036   3.791   1.559   4.917  1.1870 -0.8886 -1.6228
 5858SOL    HW229037   3.873   1.520   5.022 -1.7526 -1.1453 -0.6751
 5859SOL     OW29038   3.432   4.395   9.103  0.0613  0.0142 -0.0400
 5859SOL    HW129039   3.406   4.469   9.049  1.1925  1.7997  1.8833
 5859SOL    HW229040   3.462   4.340   9.031 -0.9262 -0.7737  0.1415
 5860SOL     OW29041   0.751   2.252  14.183 -0.2208  0.3294 -0.1977
 5860SOL    HW129042   0.832   2.279  14.228 -1.3377 -0.3971  2.2572
 5860SOL    HW229043   0.702   2.195  14.242 -0.7698  1.1548  0.1507
 5861SOL     OW29044   2.772   4.578   6.596 -0.0737 -0.0686  0.4954
 5861SOL    HW129045   2.839   4.518   6.562  0.6699  0.6358  0.7025
 5861SOL    HW229046   2.810   4.662   6.569 -0.9681  0.6749  1.5653
 5862SOL     OW29047   3.771   0.663   5.287  0.0363  0.5836 -0.0657
 5862SOL    HW129048   3.741   0.736   5.341  0.1293 -0.3680  1.2956
 5862SOL    HW229049   3.731   0.662   5.200 -0.0520  0.9775 -0.0293
 5863SOL     OW29050   0.848   0.073  15.667  0.1461  0.0549 -0.0494
 5863SOL    HW129051   0.804   0.042  15.588  2.1116 -3.4936  0.2140
 5863SOL    HW229052   0.776   0.124  15.703 -1.7302 -2.1001 -0.7733
 5864SOL     OW29053   3.045   2.194   4.943 -0.0328  0.0414 -1.0335
 5864SOL    HW129054   2.975   2.204   4.878 -0.6502 -2.0216 -0.6749
 5864SOL    HW229055   3.021   2.113   4.988 -0.6824  0.5530 -0.4554
 5865SOL     OW29056   2.543   1.768   0.232  0.0736 -0.4167  0.0185
 5865SOL    HW129057   2.493   1.691   0.260  0.7282 -1.0144 -0.4628
 5865SOL    HW229058   2.609   1.732   0.173 -0.5515 -1.5380 -0.0020
 5866SOL     OW29059   0.192   1.971  12.467  0.5246  0.3158 -0.2302
 5866SOL    HW129060   0.282   2.003  12.468  1.1837 -1.4351 -2.8505
 5866SOL    HW229061   0.147   2.051  12.494 -2.1276 -1.1505 -0.3066
 5867SOL     OW29062   4.500   4.297   3.033 -0.2324  0.0086  0.0207
 5867SOL    HW129063   4.507   4.243   2.954 -0.3716 -2.5135  1.7065
 5867SOL    HW229064   4.440   4.252   3.092 -0.3650 -1.3643 -1.1419
 5868SOL     OW29065   4.578   4.107   4.310  0.3160 -0.4448  0.1021
 5868SOL    HW129066   4.495   4.121   4.265 -0.5796 -0.5537  1.7085
 5868SOL    HW229067   4.623   4.067   4.236  0.6037  0.0233  0.0250
 5869SOL     OW29068   3.441   2.409  12.784 -0.1052  0.5277 -0.1181
 5869SOL    HW129069   3.401   2.390  12.699 -1.3474  0.9589  0.3693
 5869SOL    HW229070   3.508   2.468  12.749 -1.2336  1.7430 -0.2576
 5870SOL     OW29071   0.364   4.403   4.504 -0.1966 -0.0182  0.0872
 5870SOL    HW129072   0.345   4.395   4.411 -0.2479  1.6915 -0.0512
 5870SOL    HW229073   0.429   4.334   4.516 -1.6499 -1.4556 -0.3166
 5871SOL     OW29074   0.829   2.205   0.700  0.3344 -0.2789  0.1035
 5871SOL    HW129075   0.759   2.261   0.736  0.2683  0.2253 -0.8205
 5871SOL    HW229076   0.781   2.155   0.634  1.3775 -0.5375 -0.4605
 5872SOL     OW29077   1.052   0.549   9.744 -0.3696 -0.1210 -0.4245
 5872SOL    HW129078   1.072   0.616   9.810  0.6410 -1.0600  0.2319
 5872SOL    HW229079   1.105   0.587   9.674 -0.8333  0.9692 -0.1821
 5873SOL     OW29080   2.845   0.320  13.920 -0.3305  0.4304 -0.5693
 5873SOL    HW129081   2.829   0.286  13.832 -1.6550 -1.5183  0.4387
 5873SOL    HW229082   2.786   0.274  13.979 -0.6878  0.4608 -0.9019
 5874SOL     OW29083   0.615   4.014   3.713 -0.0680  0.2285 -0.3449
 5874SOL    HW129084   0.652   4.086   3.765 -2.8302  0.5901  1.1305
 5874SOL    HW229085   0.562   4.075   3.661 -0.8641  0.0411  0.2341
 5875SOL     OW29086   0.592   0.769  15.919  0.1941  0.2459  0.1908
 5875SOL    HW129087   0.531   0.822  15.869 -2.2954 -1.8914  0.9401
 5875SOL    HW229088   0.671   0.783  15.866  1.8760 -0.5468  2.4602
 5876SOL     OW29089   1.504   0.713   7.725 -0.4061  0.3716 -0.2125
 5876SOL    HW129090   1.509   0.744   7.635  1.5387  0.4009 -0.1112
 5876SOL    HW229091   1.425   0.660   7.721  1.1782 -1.9361 -1.2932
 5877SOL     OW29092   0.501   4.158   4.206 -0.1756  0.3738  0.1255
 5877SOL    HW129093   0.570   4.168   4.140 -0.4375  0.8417 -0.0755
 5877SOL    HW229094   0.549   4.166   4.289  0.2027  0.7580 -0.1272
 5878SOL     OW29095   1.965   2.640   6.769 -0.0370 -0.7633  0.4363
 5878SOL    HW129096   1.996   2.676   6.852  0.4143 -0.5614  0.1753
 5878SOL    HW229097   2.010   2.696   6.706 -2.1204  0.0772 -0.3114
 5879SOL     OW29098   1.514   2.142   3.913 -0.5427 -0.6840  0.0426
 5879SOL    HW129099   1.553   2.056   3.927  2.3911  0.7440  0.6348
 5879SOL    HW229100   1.562   2.193   3.979 -1.6692  1.8239 -1.0877
 5880SOL     OW29101   2.555   3.507   0.415 -0.0248 -0.9144  0.3526
 5880SOL    HW129102   2.622   3.561   0.457 -0.0572 -0.9583  0.4590
 5880SOL    HW229103   2.562   3.551   0.330 -1.1863  0.2200  0.8451
 5881SOL     OW29104   2.684   1.459   3.726  0.4470  0.2545  0.0716
 5881SOL    HW129105   2.741   1.535   3.740  0.7308  0.7343 -3.8602
 5881SOL    HW229106   2.613   1.496   3.674  0.7429  1.0317  0.2103
 5882SOL     OW29107   0.748   1.715   9.429  0.9817  0.1600 -0.7691
 5882SOL    HW129108   0.691   1.761   9.367 -0.3276  2.0286  1.8030
 5882SOL    HW229109   0.752   1.773   9.505 -1.0148 -0.1187 -0.4528
 5883SOL     OW29110   3.394   2.765   7.340  0.1151  0.4397 -0.2892
 5883SOL    HW129111   3.484   2.732   7.340  0.5313  1.5417  1.4379
 5883SOL    HW229112   3.391   2.814   7.423 -1.3514  0.1900 -0.2091
 5884SOL     OW29113   2.789   1.048   5.566 -0.4769 -0.3912  0.1690
 5884SOL    HW129114   2.697   1.028   5.581 -0.5733  0.0583  0.1584
 5884SOL    HW229115   2.797   1.137   5.600  0.7618 -0.9358  1.3285
 5885SOL     OW29116   0.129   3.365  13.927 -0.6165  0.1643  0.1643
 5885SOL    HW129117   0.184   3.411  13.863  0.1148  0.4141  0.9738
 5885SOL    HW229118   0.117   3.290  13.869 -1.8079  1.8301 -1.7506
 5886SOL     OW29119   3.698   3.472   8.526 -0.4547  0.2163  0.3801
 5886SOL    HW129120   3.641   3.533   8.479 -0.2317 -0.1902 -0.4193
 5886SOL    HW229121   3.648   3.391   8.515 -0.0955  0.4702 -3.1151
 5887SOL     OW29122   4.664   0.166   3.130 -0.2202  0.2079  0.2921
 5887SOL    HW129123   4.597   0.184   3.196 -0.8298  0.9270 -0.5271
 5887SOL    HW229124   0.010   0.220   3.164 -0.5520  0.7879  0.0571
 5888SOL     OW29125   2.516   1.105  14.880 -0.0045 -0.2132  0.4970
 5888SOL    HW129126   2.439   1.110  14.937  0.1601  0.4441  0.6608
 5888SOL    HW229127   2.482   1.141  14.798 -1.8290 -1.0400  0.8942
 5889SOL     OW29128   0.277   2.769  13.523 -0.5264  0.1074  0.1838
 5889SOL    HW129129   0.266   2.751  13.430 -1.1250  0.5220  0.1748
 5889SOL    HW229130   0.357   2.721  13.546  0.8004  1.7020 -1.1624
 5890SOL     OW29131   2.777   1.149   7.667 -0.6034 -0.2160 -0.2138
 5890SOL    HW129132   2.765   1.242   7.650  0.3527 -0.2129 -0.8786
 5890SOL    HW229133   2.715   1.118   7.602 -0.1433 -2.5716  0.4704
 5891SOL     OW29134   3.930   4.180   5.956 -0.4407 -0.4618  0.2032
 5891SOL    HW129135   4.001   4.230   5.916 -2.1254 -2.0223 -4.6806
 5891SOL    HW229136   3.857   4.221   5.911 -1.0994 -0.7211  1.0293
 5892SOL     OW29137   0.241   1.313   8.908  0.4251 -0.4098  0.5836
 5892SOL    HW129138   0.168   1.311   8.971  0.5507  0.2665  0.7473
 5892SOL    HW229139   0.236   1.405   8.881  2.3247 -0.5817 -0.3709
 5893SOL     OW29140   2.170   0.842   0.109 -0.2902 -0.2406  0.1466
 5893SOL    HW129141   2.142   0.914   0.052  1.1979  3.3479  3.9150
 5893SOL    HW229142   2.184   0.905   0.180  3.0995 -0.0205 -0.7353
 5894SOL     OW29143   3.274   3.785   8.414  0.0187 -0.3930  0.5978
 5894SOL    HW129144   3.218   3.787   8.491  0.4947  0.3380  0.9316
 5894SOL    HW229145   3.357   3.794   8.461 -0.0432  0.6041  0.5130
 5895SOL     OW29146   3.859   3.772   6.995 -0.5806  0.2362 -0.2608
 5895SOL    HW129147   3.948   3.802   6.973 -1.1059  1.2704 -0.9651
 5895SOL    HW229148   3.873   3.757   7.088  0.3919  1.2651 -0.2420
 5896SOL     OW29149   3.950   3.917   2.153  0.4877 -0.1808 -0.0325
 5896SOL    HW129150   4.039   3.890   2.131  0.6588 -0.6177  1.1672
 5896SOL    HW229151   3.952   4.011   2.171  1.1374 -0.2280  0.1579
 5897SOL     OW29152   4.535   1.056   6.898  0.2685  0.0887 -0.1290
 5897SOL    HW129153   4.531   1.048   6.803 -0.6086 -1.8674  0.0858
 5897SOL    HW229154   4.448   1.021   6.919  0.7920 -0.2746  1.4318
 5898SOL     OW29155   0.854   1.594   2.938  0.1493 -1.0673  0.1779
 5898SOL    HW129156   0.868   1.568   3.029 -1.2646 -1.2710  0.3344
 5898SOL    HW229157   0.944   1.612   2.910  0.2477 -1.5567  0.1852
 5899SOL     OW29158   0.142   2.592   0.809  0.8775  0.4650  0.2031
 5899SOL    HW129159   0.069   2.630   0.858 -0.3935 -1.7307  0.0178
 5899SOL    HW229160   0.115   2.501   0.797  0.9752  0.5204 -0.4263
 5900SOL     OW29161   4.536   1.164   2.788  0.4056 -0.0739  0.6746
 5900SOL    HW129162   4.508   1.221   2.717 -2.8096  0.4792  2.4161
 5900SOL    HW229163   4.518   1.080   2.746  2.3994  1.1353 -2.5855
 5901SOL     OW29164   0.260   3.270   6.221  0.1043  0.2995 -0.3356
 5901SOL    HW129165   0.198   3.201   6.246  1.7138 -1.3969 -1.0804
 5901SOL    HW229166   0.206   3.348   6.207 -1.6022 -0.5764  1.3840
 5902SOL     OW29167   3.586   1.732   5.241  0.0946 -0.0038  0.2084
 5902SOL    HW129168   3.647   1.797   5.276  0.0155  0.9698 -1.4350
 5902SOL    HW229169   3.509   1.790   5.233  1.5410  2.1725  1.9720
 5903SOL     OW29170   2.312   2.315   6.767 -0.0607  0.4765  0.0513
 5903SOL    HW129171   2.317   2.379   6.838 -0.5689  0.5790 -0.0035
 5903SOL    HW229172   2.241   2.259   6.797 -1.4098  1.7422 -0.7892
 5904SOL     OW29173   1.571   3.380  16.494 -0.2034  0.4813  0.1341
 5904SOL    HW129174   1.664   3.368  16.510 -0.3735 -1.7002 -0.4993
 5904SOL    HW229175   1.552   3.359  16.402  1.0649 -0.9933  0.2171
 5905SOL     OW29176   3.347   0.292   0.540 -0.7443  0.4711 -0.4835
 5905SOL    HW129177   3.278   0.358   0.533  0.0328  1.3733  0.5231
 5905SOL    HW229178   3.421   0.349   0.560 -0.3885  0.0569 -0.6078
 5906SOL     OW29179   3.212   2.157   3.743 -0.0508  0.3591  0.5871
 5906SOL    HW129180   3.123   2.146   3.776  0.6513 -0.7873  2.0956
 5906SOL    HW229181   3.265   2.091   3.787  1.0961  1.0290  0.1998
 5907SOL     OW29182   0.432   2.047  10.438  0.1981  0.7046  0.3993
 5907SOL    HW129183   0.504   1.989  10.415  0.3471  1.5741 -1.3515
 5907SOL    HW229184   0.405   2.017  10.525  1.5824  0.7261  0.8337
 5908SOL     OW29185   0.693   4.607   4.576  0.3842 -0.1711  0.5750
 5908SOL    HW129186   0.730   4.525   4.544 -1.7246 -0.9973  0.2740
 5908SOL    HW229187   0.679   4.647   4.490 -0.4911 -2.5561 -0.3839
 5909SOL     OW29188   0.340   3.624   1.796  0.2385  0.0237 -0.3670
 5909SOL    HW129189   0.417   3.666   1.758  2.3677 -0.4547  3.4931
 5909SOL    HW229190   0.367   3.616   1.887 -0.4211  1.8327 -0.0105
 5910SOL     OW29191   3.024   1.924   6.692  0.4511 -0.3251 -0.1419
 5910SOL    HW129192   2.992   1.853   6.636  1.0642 -0.6155 -0.1279
 5910SOL    HW229193   3.010   2.002   6.638  2.4630 -0.7116 -1.2503
 5911SOL     OW29194   2.914   0.299   8.222 -0.2418 -0.2028  0.0067
 5911SOL    HW129195   2.987   0.270   8.276  0.3643 -1.8978 -1.7311
 5911SOL    HW229196   2.918   0.395   8.228  3.6605 -0.3979  0.3744
 5912SOL     OW29197   2.390   2.517   4.378  0.0030  0.0438  0.2675
 5912SOL    HW129198   2.434   2.534   4.461  1.5566  2.5426 -1.0837
 5912SOL    HW229199   2.392   2.604   4.340  4.2037  0.4879  1.4843
 5913SOL     OW29200   3.458   3.902   2.102  0.0809 -0.5484  0.0917
 5913SOL    HW129201   3.431   3.974   2.044 -0.0221  0.5505  1.5066
 5913SOL    HW229202   3.531   3.856   2.062 -0.5296 -0.2264 -1.4035
 5914SOL     OW29203   1.272   1.870  13.894 -0.1132 -0.0789 -0.1108
 5914SOL    HW129204   1.192   1.921  13.886 -0.3220 -0.3188  0.4501
 5914SOL    HW229205   1.268   1.821  13.812 -1.1495 -1.1616  0.5952
 5915SOL     OW29206   0.815   2.049   7.452 -0.0329 -0.3986  0.5217
 5915SOL    HW129207   0.792   1.978   7.512 -1.2185 -0.1089  0.4210
 5915SOL    HW229208   0.756   2.117   7.485 -1.8989 -1.4492 -0.6584
 5916SOL     OW29209   1.591   1.084   2.749 -0.0926  0.1141 -0.2148
 5916SOL    HW129210   1.501   1.073   2.720  0.1050  0.5784 -0.9834
 5916SOL    HW229211   1.614   1.001   2.792  0.4732  1.1930  1.5558
 5917SOL     OW29212   1.045   0.760   7.561 -0.3556 -0.3211  0.1184
 5917SOL    HW129213   0.955   0.729   7.555 -0.4853  0.5967 -2.8114
 5917SOL    HW229214   1.027   0.839   7.611 -0.6902 -0.1068 -0.3439
 5918SOL     OW29215   1.021   0.240   8.695  0.3164  0.3841 -0.3591
 5918SOL    HW129216   0.947   0.188   8.727 -0.0023  0.0444 -1.6842
 5918SOL    HW229217   1.081   0.216   8.766 -0.6781 -1.9122 -0.2940
 5919SOL     OW29218   1.678   4.249  14.735  0.2265  0.7570 -0.0388
 5919SOL    HW129219   1.717   4.327  14.774 -0.8181  0.5815  1.3624
 5919SOL    HW229220   1.747   4.232  14.671  1.4345  1.8202  0.9956
 5920SOL     OW29221   2.746   1.341   8.259  0.3744  0.0613 -0.2166
 5920SOL    HW129222   2.688   1.291   8.315  0.3896  1.6895  1.2640
 5920SOL    HW229223   2.685   1.412   8.236 -0.9828 -1.0868 -0.1419
 5921SOL     OW29224   1.875   3.384  13.484  0.4320  0.0125  0.0802
 5921SOL    HW129225   1.897   3.426  13.401  0.3344 -1.6967 -0.8122
 5921SOL    HW229226   1.961   3.383  13.525 -0.1945  1.1035  1.4008
 5922SOL     OW29227   0.943   2.397   8.066  0.4041 -0.1623 -0.2243
 5922SOL    HW129228   0.888   2.468   8.032 -1.2292 -1.2680  0.1036
 5922SOL    HW229229   1.008   2.451   8.110 -1.2955  0.4345  1.5786
 5923SOL     OW29230   3.185   0.607  14.785 -0.3164  0.7044  0.0656
 5923SOL    HW129231   3.279   0.595  14.797 -0.5628 -1.5716 -0.3089
 5923SOL    HW229232   3.177   0.698  14.755 -0.5323 -0.0296 -2.0988
 5924SOL     OW29233   1.876   4.122   8.104 -0.0814  0.0820  0.3625
 5924SOL    HW129234   1.913   4.177   8.035 -0.6331 -2.1482 -1.7397
 5924SOL    HW229235   1.954   4.109   8.158 -0.9071  1.8821  1.9623
 5925SOL     OW29236   4.400   0.235   2.412 -0.5756  0.3920  0.0391
 5925SOL    HW129237   4.476   0.209   2.359  1.6296 -0.6431  3.6782
 5925SOL    HW229238   4.369   0.151   2.447  0.9380  0.3639  1.3395
 5926SOL     OW29239   0.029   1.096  10.986  0.1555  0.0678  0.3723
 5926SOL    HW129240   0.038   1.083  10.891 -0.2789  2.7947 -0.0451
 5926SOL    HW229241   0.026   1.192  10.990 -0.5590  0.0671 -0.1104
 5927SOL     OW29242   2.354   3.384   0.265  0.2869  0.5242  0.0103
 5927SOL    HW129243   2.422   3.396   0.332  0.0275 -0.6498  0.4808
 5927SOL    HW229244   2.270   3.381   0.310 -0.3785  0.9649 -1.1977
 5928SOL     OW29245   2.365   1.477   7.075  0.4883  0.4175 -0.3990
 5928SOL    HW129246   2.423   1.542   7.115 -1.4201  2.1950 -0.5214
 5928SOL    HW229247   2.347   1.432   7.158 -1.2157  1.0972 -0.4123
 5929SOL     OW29248   2.519   2.141   2.511 -0.0245 -0.5807  0.2200
 5929SOL    HW129249   2.576   2.135   2.587 -2.8608  1.8011  2.5236
 5929SOL    HW229250   2.512   2.047   2.492 -0.8281 -0.4680 -0.0571
 5930SOL     OW29251   0.317   2.453  14.638 -0.1254  0.0290 -0.4888
 5930SOL    HW129252   0.239   2.403  14.662 -0.5037  0.6306 -0.4641
 5930SOL    HW229253   0.357   2.458  14.725 -0.3495  2.3048 -0.5213
 5931SOL     OW29254   1.897   2.154   3.828 -0.3498 -0.1808 -0.2195
 5931SOL    HW129255   1.910   2.067   3.791  0.2296  0.3102 -1.1542
 5931SOL    HW229256   1.933   2.202   3.754 -1.9700  0.2500 -0.7266
 5932SOL     OW29257   3.013   2.186   7.656 -0.2167  0.4161  0.2162
 5932SOL    HW129258   3.094   2.148   7.622 -0.4245  1.1090 -1.0705
 5932SOL    HW229259   2.945   2.147   7.602  0.3230 -1.1833  0.6885
 5933SOL     OW29260   0.354   0.341   5.978  0.9222  0.1563  0.1920
 5933SOL    HW129261   0.354   0.431   5.945 -1.1137 -0.5280 -1.6597
 5933SOL    HW229262   0.447   0.319   5.980  0.0557 -3.3943  1.3018
 5934SOL     OW29263   3.726   1.584   7.849  0.1455 -0.9952 -0.3271
 5934SOL    HW129264   3.817   1.577   7.821  0.7710 -0.7236  1.5877
 5934SOL    HW229265   3.746   1.549   7.937 -2.6179  0.5345  0.9015
 5935SOL     OW29266   3.248   1.269   6.264  0.5710  0.2450 -0.0844
 5935SOL    HW129267   3.318   1.269   6.199 -0.2033 -1.2623 -0.9366
 5935SOL    HW229268   3.181   1.324   6.223  0.8063 -1.8557 -3.2711
 5936SOL     OW29269   0.789   2.012  11.148  0.0152 -0.2488 -0.5207
 5936SOL    HW129270   0.782   2.052  11.235  2.1769 -1.7556  0.3331
 5936SOL    HW229271   0.816   2.080  11.086  1.5330 -1.7383 -1.4689
 5937SOL     OW29272   1.746   0.256   4.232  0.3736  0.1589  0.1388
 5937SOL    HW129273   1.739   0.195   4.306  0.1563  0.4325  0.3432
 5937SOL    HW229274   1.838   0.242   4.208  1.0374  1.5649  1.8768
 5938SOL     OW29275   2.097   4.608  14.978  0.3406 -0.0336 -0.3126
 5938SOL    HW129276   2.128   4.632  14.891 -2.8433 -0.0878 -1.4380
 5938SOL    HW229277   2.004   4.620  14.962  0.1746 -0.7907  0.0718
 5939SOL     OW29278   3.107   3.513   8.388  0.3347 -0.0830  0.2932
 5939SOL    HW129279   3.169   3.539   8.320 -0.2871  0.5808 -0.0153
 5939SOL    HW229280   3.033   3.489   8.333  0.1359 -0.1214  0.5780
 5940SOL     OW29281   3.395   0.711  12.789  1.0058  0.0893  0.2569
 5940SOL    HW129282   3.421   0.794  12.830  3.6546 -2.0216  2.8663
 5940SOL    HW229283   3.335   0.677  12.856 -1.1625 -1.2673 -2.4168
 5941SOL     OW29284   3.729   3.376   5.421  0.4713 -0.1414 -0.5170
 5941SOL    HW129285   3.762   3.290   5.447 -4.0498 -1.3448  1.3434
 5941SOL    HW229286   3.678   3.362   5.342 -1.1599  0.9441  0.3377
 5942SOL     OW29287   2.944   1.369  15.011 -0.3664 -0.4008  0.8675
 5942SOL    HW129288   2.873   1.382  14.949  0.7478 -0.4581 -0.4256
 5942SOL    HW229289   3.023   1.348  14.961 -1.7540 -2.3951 -0.4942
 5943SOL     OW29290   2.200   3.778   6.423  0.1201  0.3633 -0.6833
 5943SOL    HW129291   2.172   3.690   6.445 -3.2288  1.5455 -0.2201
 5943SOL    HW229292   2.285   3.778   6.466 -0.8213 -1.6640  1.2059
 5944SOL     OW29293   2.615   4.005  16.480  0.5034 -0.8158  0.3480
 5944SOL    HW129294   2.596   4.069  16.411  2.5246 -0.4689  0.1225
 5944SOL    HW229295   2.524   3.984  16.501 -0.1163  2.5416  1.1542
 5945SOL     OW29296   2.356   3.487  15.408 -0.2331 -0.0944 -0.2628
 5945SOL    HW129297   2.307   3.408  15.431  0.8887 -0.7357 -0.0798
 5945SOL    HW229298   2.343   3.540  15.486  0.3441 -1.5446  0.8225
 5946SOL     OW29299   2.806   3.341   5.562  0.1342 -0.0063  0.2190
 5946SOL    HW129300   2.764   3.325   5.647  0.6330  1.3100  0.7192
 5946SOL    HW229301   2.875   3.405   5.581  0.2824 -0.4789  1.3050
 5947SOL     OW29302   0.493   2.469  16.692  0.6041  0.6410  0.0205
 5947SOL    HW129303   0.434   2.395  16.678  0.1404  1.2066 -1.0448
 5947SOL    HW229304   0.507   2.504  16.604  0.3723 -3.5482 -1.6364
 5948SOL     OW29305   2.825   3.270   6.071  0.1114  0.4990 -0.2913
 5948SOL    HW129306   2.894   3.281   6.137  1.0508 -2.3956 -0.7863
 5948SOL    HW229307   2.756   3.306   6.127  0.4834  1.9678 -0.7604
 5949SOL     OW29308   3.529   2.688  14.436 -0.3155  0.4943  0.1304
 5949SOL    HW129309   3.561   2.769  14.476  3.3654 -0.9599  0.1197
 5949SOL    HW229310   3.502   2.636  14.511 -1.4436 -0.5598 -1.0026
 5950SOL     OW29311   3.868   3.427   0.028  0.1556 -0.2822 -0.1220
 5950SOL    HW129312   3.882   3.383   0.112  1.1224  0.7531  0.2691
 5950SOL    HW229313   3.836   3.512   0.058  1.7151 -0.2424  1.4746
 5951SOL     OW29314   2.437   2.356   9.512  0.5315 -0.0528 -0.0986
 5951SOL    HW129315   2.502   2.301   9.468 -1.0338 -1.9142 -0.0648
 5951SOL    HW229316   2.444   2.322   9.601  1.2385  0.9303  0.2171
 5952SOL     OW29317   1.344   1.983   7.074 -0.1833 -0.0534 -0.1745
 5952SOL    HW129318   1.298   1.902   7.052  0.8139 -0.0894 -2.1311
 5952SOL    HW229319   1.405   1.979   7.000  1.5192  4.3197  0.9539
 5953SOL     OW29320   4.365   4.626   8.775 -0.3182 -0.3440  0.4811
 5953SOL    HW129321   4.421   4.669   8.710  0.9004  0.8635  2.3284
 5953SOL    HW229322   4.420   4.550   8.794 -0.4938 -1.0328 -1.7612
 5954SOL     OW29323   3.052   3.248   5.736  0.0385 -0.5617 -0.3441
 5954SOL    HW129324   3.054   3.154   5.718 -1.6873 -0.6976  0.1309
 5954SOL    HW229325   3.121   3.284   5.682 -1.0535 -0.6523 -1.7941
 5955SOL     OW29326   0.692   4.704   4.309  0.4273 -0.3913 -0.2948
 5955SOL    HW129327   0.614   4.720   4.256 -0.7037  0.4061  1.6346
 5955SOL    HW229328   0.753   4.689   4.237  0.2671 -0.0274 -0.5087
 5956SOL     OW29329   1.212   3.946   9.467  0.5571 -0.3682  0.6753
 5956SOL    HW129330   1.246   3.879   9.526  2.7447 -1.1244 -1.4384
 5956SOL    HW229331   1.146   3.897   9.418  2.0051 -1.2669 -0.3710
 5957SOL     OW29332   1.821   2.432   0.808  0.0982 -0.1656 -0.4367
 5957SOL    HW129333   1.895   2.438   0.748 -0.4868  1.6915 -0.9894
 5957SOL    HW229334   1.859   2.486   0.877  1.1366  0.5426 -1.5739
 5958SOL     OW29335   0.906   3.357  13.798 -0.5245 -0.3309 -0.5060
 5958SOL    HW129336   0.965   3.399  13.735  0.7537  1.4891  1.8880
 5958SOL    HW229337   0.914   3.413  13.875 -0.5578 -0.9719 -0.0423
 5959SOL     OW29338   0.958   0.465   5.908  0.3276 -0.6151 -0.0344
 5959SOL    HW129339   0.954   0.536   5.845 -1.8341  1.4704  2.4751
 5959SOL    HW229340   1.013   0.407   5.855 -0.5416  0.6683 -2.3255
 5960SOL     OW29341   4.089   2.874   2.126  0.2695  0.5089  0.7596
 5960SOL    HW129342   4.019   2.938   2.136 -0.1338  0.0243  1.0241
 5960SOL    HW229343   4.139   2.914   2.054 -1.8096  0.0745 -0.9336
 5961SOL     OW29344   2.770   4.568  17.591 -0.1641  0.0627 -0.1750
 5961SOL    HW129345   2.799   4.599  17.677  1.6355  1.2859 -1.2275
 5961SOL    HW229346   2.779   4.650  17.542  0.5651 -0.2737 -0.5958
 5962SOL     OW29347   0.504   1.043  15.878 -0.1732  0.2583 -0.3057
 5962SOL    HW129348   0.482   1.038  15.971  0.7741  0.0814 -0.0887
 5962SOL    HW229349   0.417   1.052  15.838  0.2944  1.2044 -1.1002
 5963SOL     OW29350   0.462   2.574  14.960  0.2707 -0.5405  0.3106
 5963SOL    HW129351   0.426   2.486  14.947 -0.1733 -0.8566  3.6443
 5963SOL    HW229352   0.409   2.600  15.036 -0.6585  0.7897 -0.7821
 5964SOL     OW29353   3.767   1.925   6.234  0.0745 -0.2621 -0.2810
 5964SOL    HW129354   3.791   1.833   6.236 -0.9940 -0.4948  1.4792
 5964SOL    HW229355   3.769   1.940   6.329  1.1263  0.9829 -0.4962
 5965SOL     OW29356   1.173   3.246   0.624  0.9124  0.4579  0.2067
 5965SOL    HW129357   1.179   3.339   0.643  0.9187  0.9037 -2.0447
 5965SOL    HW229358   1.249   3.197   0.656  2.4768  1.2047 -2.4082
 5966SOL     OW29359   2.121   0.625  15.724 -0.4589 -0.4913  0.5930
 5966SOL    HW129360   2.090   0.657  15.809  1.4389  1.4122  0.5651
 5966SOL    HW229361   2.079   0.687  15.665 -1.8678 -1.2998  0.7608
 5967SOL     OW29362   4.147   0.078   6.265  0.0347  0.1165  0.4980
 5967SOL    HW129363   4.172   0.139   6.335  0.9678  1.7416 -1.2470
 5967SOL    HW229364   4.172   0.136   6.193  0.7820 -0.3775  0.3565
 5968SOL     OW29365   3.192   3.855   3.038 -0.3083  0.1154  0.2811
 5968SOL    HW129366   3.228   3.891   2.956  0.1554 -0.8401  0.0624
 5968SOL    HW229367   3.101   3.838   3.013  0.2299 -1.3778 -0.6883
 5969SOL     OW29368   4.523   3.830  14.367 -0.0324  0.6836 -0.3738
 5969SOL    HW129369   4.593   3.795  14.312 -2.1237 -2.3152 -1.1272
 5969SOL    HW229370   4.446   3.836  14.311 -1.4890 -0.3253  1.5367
 5970SOL     OW29371   2.182   3.395  17.100 -0.2037 -0.2445  0.0266
 5970SOL    HW129372   2.169   3.490  17.098  1.8911  0.0308  0.1307
 5970SOL    HW229373   2.097   3.370  17.063  0.2062  1.2380 -1.9409
 5971SOL     OW29374   4.047   1.977  16.750  0.2879  0.6253  0.2328
 5971SOL    HW129375   4.142   1.988  16.757  0.4403 -0.1768 -0.5430
 5971SOL    HW229376   4.036   1.893  16.705  2.4642  1.2293 -1.4586
 5972SOL     OW29377   0.423   2.787   5.306 -0.7906 -0.1089  0.0625
 5972SOL    HW129378   0.472   2.819   5.381  0.5632  0.3275 -1.0081
 5972SOL    HW229379   0.339   2.790   5.352 -2.0884 -1.6543 -2.1784
 5973SOL     OW29380   2.596   0.513   4.699  0.1049 -0.3706 -0.6295
 5973SOL    HW129381   2.517   0.491   4.649 -0.8538 -1.2591  1.2752
 5973SOL    HW229382   2.584   0.468   4.783  1.1341 -0.1229 -0.3491
 5974SOL     OW29383   2.854   2.452   3.726 -0.3243  0.0996  0.0897
 5974SOL    HW129384   2.791   2.452   3.799 -1.0705  0.8455 -0.5663
 5974SOL    HW229385   2.936   2.481   3.766 -0.3763  2.3504 -1.4528
 5975SOL     OW29386   1.700   3.507  10.558 -0.2417 -0.4610 -0.3854
 5975SOL    HW129387   1.790   3.485  10.584 -0.0679  3.1629  2.1735
 5975SOL    HW229388   1.651   3.449  10.616 -1.6197  1.3595  0.2847
 5976SOL     OW29389   2.456   0.456   3.703  0.0553  0.3745  0.3606
 5976SOL    HW129390   2.424   0.540   3.736 -2.3806 -0.9032  1.2524
 5976SOL    HW229391   2.546   0.483   3.684  0.2250  0.7680  1.7137
 5977SOL     OW29392   4.124   0.729  11.443  0.1324 -0.1273 -0.0998
 5977SOL    HW129393   4.109   0.716  11.349  0.8999  0.2156 -0.2677
 5977SOL    HW229394   4.095   0.649  11.488 -0.6284  0.4826  0.4771
 5978SOL     OW29395   0.508   2.566   5.135  0.2910  0.6314 -0.2676
 5978SOL    HW129396   0.478   2.649   5.172  0.7793  1.2533 -1.2381
 5978SOL    HW229397   0.480   2.513   5.209  1.4991 -2.2517 -1.8845
 5979SOL     OW29398   1.215   0.349   9.464 -0.2208  0.7142 -0.0336
 5979SOL    HW129399   1.212   0.436   9.502 -2.2881  0.2322  0.9286
 5979SOL    HW229400   1.277   0.369   9.394  1.5717 -1.5402  0.9035
 5980SOL     OW29401   2.809   1.581  15.210 -0.0752 -0.8078 -0.6146
 5980SOL    HW129402   2.854   1.506  15.172  0.8201 -0.8224  0.4841
 5980SOL    HW229403   2.789   1.548  15.298 -0.3217 -1.2877 -0.8517
 5981SOL     OW29404   1.319   1.657   2.915  0.0934 -0.2782  0.0571
 5981SOL    HW129405   1.228   1.675   2.893  0.7305  2.7796 -0.0907
 5981SOL    HW229406   1.337   1.739   2.961 -0.2609  0.2483 -0.7423
 5982SOL     OW29407   0.589   1.833   4.672 -0.3639  0.6692  0.3849
 5982SOL    HW129408   0.595   1.898   4.742 -0.1355  1.2138 -0.1450
 5982SOL    HW229409   0.679   1.821   4.640 -0.3792 -1.0750  0.9895
 5983SOL     OW29410   4.631   4.503  17.670  0.7339  0.3306  0.3463
 5983SOL    HW129411   4.707   4.540   0.014  0.9148 -1.2398  1.3843
 5983SOL    HW229412   4.638   4.416   0.011 -1.8132  0.5747  1.3157
 5984SOL     OW29413   3.012   3.623   3.623 -0.1195  0.6398 -0.6465
 5984SOL    HW129414   3.030   3.659   3.536  0.5980  0.3982 -0.6030
 5984SOL    HW229415   2.992   3.702   3.673 -0.7928  0.8887 -1.3182
 5985SOL     OW29416   1.173   3.665   6.121  0.1278  0.3470 -0.1795
 5985SOL    HW129417   1.090   3.710   6.135  0.5733  1.3515 -0.7798
 5985SOL    HW229418   1.228   3.742   6.131  0.6460 -0.0625  0.1009
 5986SOL     OW29419   0.789   0.145   7.164  0.1238 -0.3623  0.2306
 5986SOL    HW129420   0.881   0.169   7.157 -0.2898  0.9295 -1.0943
 5986SOL    HW229421   0.762   0.202   7.091 -2.6479 -1.1935  0.5961
 5987SOL     OW29422   2.286   4.413   1.224  0.8867 -0.4202 -0.5354
 5987SOL    HW129423   2.305   4.507   1.231  1.1873 -0.4557 -0.9066
 5987SOL    HW229424   2.250   4.402   1.312 -1.9798 -2.6423 -1.9905
 5988SOL     OW29425   2.357   2.672   8.164 -0.1158 -0.2640 -0.2666
 5988SOL    HW129426   2.409   2.714   8.095  0.0327  0.7340  0.4627
 5988SOL    HW229427   2.403   2.703   8.242 -0.8843  0.7169 -0.2165
 5989SOL     OW29428   2.496   1.880   2.443  0.0990 -0.1318 -0.1206
 5989SOL    HW129429   2.500   1.802   2.387  0.0158 -1.2550  1.4334
 5989SOL    HW229430   2.417   1.865   2.495 -0.1820  0.2698 -0.4287
 5990SOL     OW29431   2.285   3.490  10.233 -0.3815 -1.0295  0.0000
 5990SOL    HW129432   2.240   3.536  10.303  1.3678  0.9279 -0.1643
 5990SOL    HW229433   2.261   3.397  10.232 -3.7689 -0.1463 -1.7959
 5991SOL     OW29434   0.392   4.612  13.968  0.2801  0.1218 -0.1510
 5991SOL    HW129435   0.409   4.519  13.954  2.6259  0.8521 -2.1522
 5991SOL    HW229436   0.323   4.639  13.907  0.6707 -0.4555 -0.8437
 5992SOL     OW29437   1.294   0.267   4.067  0.0959 -0.2911 -0.3872
 5992SOL    HW129438   1.278   0.335   4.132 -1.2608 -0.6307 -0.3515
 5992SOL    HW229439   1.336   0.198   4.118  1.3559 -0.0664 -1.1389
 5993SOL     OW29440   3.982   4.718   1.668  0.4379 -0.0354 -0.3391
 5993SOL    HW129441   4.007   4.629   1.643  0.7560 -0.1017  0.2114
 5993SOL    HW229442   3.895   4.723   1.629  0.0106 -0.1571  0.5957
 5994SOL     OW29443   0.065   0.510   0.359  0.1010  0.0830  0.0071
 5994SOL    HW129444   0.143   0.457   0.348 -1.2200 -1.7533 -0.5350
 5994SOL    HW229445   0.017   0.467   0.288 -0.5898  0.3373  0.3127
 5995SOL     OW29446   1.862   3.160   2.150  1.1534  0.0626 -0.8716
 5995SOL    HW129447   1.769   3.158   2.126  1.2286 -1.3676 -1.0414
 5995SOL    HW229448   1.905   3.227   2.097  0.0315 -0.1937 -2.1326
 5996SOL     OW29449   1.056   3.454   4.184 -0.6435  0.8564 -0.1284
 5996SOL    HW129450   1.106   3.519   4.233 -1.2029  1.8171 -0.8243
 5996SOL    HW229451   1.064   3.497   4.099 -1.6289  0.2449 -0.5312
 5997SOL     OW29452   3.148   3.871   1.517  0.6649  0.5116  0.2415
 5997SOL    HW129453   3.203   3.848   1.592  2.3323 -1.6783 -1.6570
 5997SOL    HW229454   3.176   3.798   1.463  2.8544 -0.5160  2.7587
 5998SOL     OW29455   0.658   1.441   1.559 -0.2550 -0.3947 -0.1530
 5998SOL    HW129456   0.652   1.501   1.484 -0.8324 -2.2457 -1.5845
 5998SOL    HW229457   0.566   1.455   1.585  0.1598  1.7027  0.1944
 5999SOL     OW29458   0.879   1.772   4.623  0.1258  0.1720 -0.3017
 5999SOL    HW129459   0.932   1.779   4.703  0.5634 -0.9959 -0.4788
 5999SOL    HW229460   0.912   1.686   4.596  0.4454  0.6361 -1.3524
 6000SOL     OW29461   0.342   1.912   9.327 -0.4740 -0.4780 -0.1496
 6000SOL    HW129462   0.279   1.984   9.329 -0.4958 -0.4693 -1.3824
 6000SOL    HW229463   0.321   1.884   9.416  1.6902  1.5117  0.9753
 6001SOL     OW29464   2.855   3.046  10.512 -0.1496  0.3748  0.3857
 6001SOL    HW129465   2.881   3.125  10.465  2.4131 -1.5493 -1.4018
 6001SOL    HW229466   2.801   3.093  10.576 -0.1433 -2.2994  2.3454
 6002SOL     OW29467   3.041   3.331  14.685  0.0648  0.6034  0.1957
 6002SOL    HW129468   3.109   3.263  14.682 -0.6541 -0.2747  3.5246
 6002SOL    HW229469   2.974   3.289  14.738  0.1208 -2.2733 -2.0158
 6003SOL     OW29470   0.609   0.031   2.553  0.2640 -0.0386  0.0208
 6003SOL    HW129471   0.535   0.039   2.613 -1.5314  1.3186 -2.4390
 6003SOL    HW229472   0.592   0.094   2.484  0.9640  0.9538  0.7506
 6004SOL     OW29473   3.313   3.896  15.279 -0.7078  0.1443  0.2434
 6004SOL    HW129474   3.304   3.990  15.289  1.2996  0.5443 -1.7673
 6004SOL    HW229475   3.369   3.891  15.201  0.1033 -0.3963  0.8524
 6005SOL     OW29476   3.762   3.090   9.262  0.0703  0.3227 -0.3073
 6005SOL    HW129477   3.840   3.139   9.286 -1.3871  2.9915 -0.9458
 6005SOL    HW229478   3.785   3.004   9.296  2.0063  0.8749 -0.2316
 6006SOL     OW29479   0.668   0.866  11.882  0.1558 -0.0770 -0.2049
 6006SOL    HW129480   0.698   0.824  11.962 -0.6777  1.7083  1.0565
 6006SOL    HW229481   0.742   0.892  11.828  0.4653 -1.1514 -0.2925
 6007SOL     OW29482   2.308   1.394  16.760 -0.3849 -0.0430 -0.2522
 6007SOL    HW129483   2.292   1.423  16.850  2.9841  0.4003  0.2242
 6007SOL    HW229484   2.226   1.431  16.727 -0.2131  2.5737  2.1939
 6008SOL     OW29485   2.185   1.051   4.746  0.2238 -0.4322  0.6351
 6008SOL    HW129486   2.263   1.002   4.719  1.2724  1.0467  1.0068
 6008SOL    HW229487   2.210   1.077   4.834 -0.5171 -0.2154  0.7819
 6009SOL     OW29488   2.298   2.374   5.420 -0.2906  0.4657  0.0558
 6009SOL    HW129489   2.338   2.360   5.506 -0.6706  0.1158  0.1744
 6009SOL    HW229490   2.304   2.469   5.414  4.2817  0.0250 -1.6792
 6010SOL     OW29491   3.768   4.201  13.806 -0.6717  0.5926  0.6512
 6010SOL    HW129492   3.719   4.146  13.867 -0.1520 -1.8134 -1.0820
 6010SOL    HW229493   3.841   4.142  13.787 -2.0859 -0.9927  0.1349
 6011SOL     OW29494   0.319   1.998   8.939  0.4693  0.1561  0.1552
 6011SOL    HW129495   0.405   1.963   8.962  1.0575  1.2678 -0.4071
 6011SOL    HW229496   0.294   1.928   8.879  0.2588 -1.3089  1.9262
 6012SOL     OW29497   3.983   0.462  13.592 -0.1726 -0.1043 -0.4814
 6012SOL    HW129498   4.056   0.524  13.590 -0.2218  0.0338  1.3103
 6012SOL    HW229499   3.926   0.514  13.536  0.3168  1.3292  0.3565
 6013SOL     OW29500   0.893   4.598   5.135  0.1439  0.7569  0.3698
 6013SOL    HW129501   0.803   4.624   5.155  1.5540  3.3045  3.3050
 6013SOL    HW229502   0.871   4.569   5.046  1.6865  0.5419  0.0637
 6014SOL     OW29503   1.315   2.251  12.373  0.4144 -0.3776  0.2232
 6014SOL    HW129504   1.398   2.228  12.413 -0.3182  2.1048  3.1715
 6014SOL    HW229505   1.307   2.345  12.390  0.4912 -0.0627 -1.4909
 6015SOL     OW29506   2.341   0.926   7.909 -0.6326  0.1670 -0.8622
 6015SOL    HW129507   2.319   0.943   8.001 -0.1298 -0.7822 -0.5716
 6015SOL    HW229508   2.253   0.921   7.872  0.2105  1.7677 -3.1135
 6016SOL     OW29509   1.593   1.473   2.315 -0.1533  0.4699  0.1140
 6016SOL    HW129510   1.556   1.471   2.226 -1.2697 -0.4534  0.5936
 6016SOL    HW229511   1.625   1.563   2.323  0.6651  0.0695  1.3128
 6017SOL     OW29512   1.113   2.720  13.190 -0.3225 -0.2824 -0.2972
 6017SOL    HW129513   1.020   2.716  13.211 -0.0914 -0.3934  0.7376
 6017SOL    HW229514   1.119   2.793  13.129  1.2225 -0.0854  0.0729
 6018SOL     OW29515   4.668   2.147  17.195 -0.8196 -0.1469 -0.4527
 6018SOL    HW129516   4.593   2.186  17.239 -1.0548 -0.6282 -0.4274
 6018SOL    HW229517   4.686   2.215  17.130  1.5367  0.0256  0.3835
 6019SOL     OW29518   1.218   0.262   6.311 -0.4076 -0.1226  0.2490
 6019SOL    HW129519   1.207   0.354   6.286 -2.1599 -0.7688 -1.3625
 6019SOL    HW229520   1.212   0.221   6.224 -0.2353 -0.5722  0.4530
 6020SOL     OW29521   2.553   4.650   6.732 -0.2226 -0.0213 -0.0785
 6020SOL    HW129522   2.630   4.620   6.684 -0.2831  1.6986 -1.2690
 6020SOL    HW229523   2.491   4.600   6.679 -1.4840  2.3640 -0.8376
 6021SOL     OW29524   3.528   4.391   9.825  0.0568  0.2518  0.1967
 6021SOL    HW129525   3.620   4.391   9.798  0.1162  3.6162  0.5155
 6021SOL    HW229526   3.485   4.396   9.740  0.3956  0.4704  0.0402
 6022SOL     OW29527   2.313   4.050   3.174  0.3346 -0.0481  0.1432
 6022SOL    HW129528   2.341   4.077   3.087 -0.1245 -0.4564 -0.1283
 6022SOL    HW229529   2.272   3.966   3.155  1.9532 -0.6084 -0.8221
 6023SOL     OW29530   1.639   3.043   9.556  0.2945  0.2770  0.5635
 6023SOL    HW129531   1.658   3.130   9.591 -3.0273  0.2530  2.4151
 6023SOL    HW229532   1.549   3.060   9.527  0.0115 -2.5420 -0.2347
 6024SOL     OW29533   4.403   2.547   6.261  0.5191  0.5081 -0.0105
 6024SOL    HW129534   4.389   2.557   6.355 -0.8059  1.8263 -0.3488
 6024SOL    HW229535   4.315   2.564   6.229  0.1450 -0.1115  0.6870
 6025SOL     OW29536   0.114   2.334   1.149  0.3247 -0.1712 -0.2777
 6025SOL    HW129537   0.039   2.304   1.201 -0.4327  0.3978 -1.0537
 6025SOL    HW229538   0.159   2.382   1.219  0.3909 -1.6542  0.7016
 6026SOL     OW29539   2.148   1.735   7.249  0.3727 -0.1387  0.1273
 6026SOL    HW129540   2.170   1.812   7.195 -0.9413 -0.4559 -0.8601
 6026SOL    HW229541   2.064   1.775   7.269  0.4304 -0.9469  1.9207
 6027SOL     OW29542   3.589   1.490   6.220  0.3389 -0.7523  0.2992
 6027SOL    HW129543   3.581   1.396   6.232  1.2157 -0.7093  1.3307
 6027SOL    HW229544   3.557   1.504   6.131  1.1651 -0.2445  0.0772
 6028SOL     OW29545   1.435   2.788   5.987 -0.0115  0.0417  0.1559
 6028SOL    HW129546   1.413   2.857   6.050 -0.9590  0.7013 -0.8853
 6028SOL    HW229547   1.525   2.808   5.963  0.3013 -0.6651  0.7618
 6029SOL     OW29548   3.554   1.361   8.374 -0.0751 -0.8173 -0.2814
 6029SOL    HW129549   3.636   1.348   8.422 -1.6486 -0.8534  2.4470
 6029SOL    HW229550   3.492   1.316   8.432 -1.1329  0.0070 -0.7680
 6030SOL     OW29551   4.599   1.944   4.922 -0.1322 -0.0719 -0.2989
 6030SOL    HW129552   4.541   1.999   4.974  1.4908  0.5631  0.8361
 6030SOL    HW229553   4.569   1.959   4.832 -0.3268 -0.7551 -0.3509
 6031SOL     OW29554   3.453   1.472   5.357 -0.3979 -0.2503 -0.6274
 6031SOL    HW129555   3.506   1.541   5.318 -0.1033  1.3973  2.7658
 6031SOL    HW229556   3.437   1.422   5.276 -1.8922  0.6390 -0.8655
 6032SOL     OW29557   4.487   3.165   7.117  0.0806  0.1882  0.2409
 6032SOL    HW129558   4.530   3.230   7.173  0.8741  0.1905 -0.3806
 6032SOL    HW229559   4.481   3.228   7.045 -0.1264 -1.3813 -1.1108
 6033SOL     OW29560   2.228   3.153  11.172 -0.7330 -0.1610  0.0677
 6033SOL    HW129561   2.275   3.188  11.248 -2.4206 -0.4116  1.2117
 6033SOL    HW229562   2.278   3.072  11.161 -1.0620 -0.3701  0.1336
 6034SOL     OW29563   4.706   3.436   6.373 -0.3672  0.7245  0.1884
 6034SOL    HW129564   4.659   3.463   6.452 -1.2649 -0.7457  0.1562
 6034SOL    HW229565   0.067   3.432   6.414 -0.7217  0.4525  0.9082
 6035SOL     OW29566   3.770   1.950   8.817 -1.2526  0.1450 -0.1718
 6035SOL    HW129567   3.783   1.921   8.907 -1.4856  2.3451  0.5585
 6035SOL    HW229568   3.841   1.901   8.775 -0.9675  0.4259 -0.0130
 6036SOL     OW29569   1.866   4.625   0.495  0.2242  0.2841 -0.1654
 6036SOL    HW129570   1.783   4.579   0.485  1.9006 -3.0025  1.3582
 6036SOL    HW229571   1.917   4.548   0.516 -0.1308 -0.4828 -2.0805
 6037SOL     OW29572   0.006   1.539  13.164  0.4450 -0.5016  0.3640
 6037SOL    HW129573   0.072   1.596  13.124 -1.0987  0.2910 -1.0527
 6037SOL    HW229574   0.018   1.458  13.114 -0.0054  0.2331 -0.9418
 6038SOL     OW29575   0.039   4.061   2.936 -0.0735  0.0608  0.3836
 6038SOL    HW129576   4.696   4.109   2.890  1.1197  1.7405  0.3720
 6038SOL    HW229577   0.078   4.029   2.855 -4.8358  0.9726 -2.2338
 6039SOL     OW29578   0.104   0.225   9.335  0.0432  0.1976  0.5328
 6039SOL    HW129579   0.110   0.129   9.330 -1.5313  0.0459  1.3221
 6039SOL    HW229580   0.193   0.248   9.312  0.8638 -2.0703  1.4067
 6040SOL     OW29581   2.685   0.095   4.824  0.6539  0.3402  0.2404
 6040SOL    HW129582   2.666   0.185   4.798 -0.0509  0.0599 -0.2166
 6040SOL    HW229583   2.704   0.093   4.918  1.0935 -2.0516  0.1141
 6041SOL     OW29584   4.217   2.072   3.079  0.5750 -0.0888 -0.2424
 6041SOL    HW129585   4.225   2.141   3.146  0.0928 -0.8963  0.6487
 6041SOL    HW229586   4.134   2.082   3.033  0.8500 -0.1135 -0.7406
 6042SOL     OW29587   1.224   1.204   4.166 -0.0816  0.3280  0.1064
 6042SOL    HW129588   1.283   1.269   4.128 -0.5744  1.7539  1.7936
 6042SOL    HW229589   1.165   1.176   4.096 -0.5545 -0.0233  0.6387
 6043SOL     OW29590   1.890   3.093  13.595 -0.1883 -0.2369 -0.5610
 6043SOL    HW129591   1.857   3.096  13.685 -1.1404 -0.3776 -0.8993
 6043SOL    HW229592   1.908   3.186  13.588 -1.1872 -0.0701 -0.8785
 6044SOL     OW29593   2.650   2.397   0.345  0.0369 -0.6476 -0.1007
 6044SOL    HW129594   2.671   2.481   0.304 -1.4971 -0.0415  0.3471
 6044SOL    HW229595   2.576   2.420   0.402  0.1567 -0.0735 -0.1767
 6045SOL     OW29596   4.004   1.012   9.116  0.4210  0.3971 -0.0658
 6045SOL    HW129597   3.974   0.929   9.153 -2.0996  0.9836 -0.8040
 6045SOL    HW229598   3.924   1.030   9.068 -1.7559 -2.5419  2.4825
 6046SOL     OW29599   3.579   1.896   4.096  0.5379 -0.3306 -0.2719
 6046SOL    HW129600   3.655   1.848   4.063 -0.2697 -1.6553 -0.1727
 6046SOL    HW229601   3.603   1.981   4.059  1.3356 -1.0543 -1.4244
 6047SOL     OW29602   1.016   2.785  16.368  0.0327  0.9489  0.0534
 6047SOL    HW129603   1.021   2.738  16.285  2.0864  0.6396  0.3568
 6047SOL    HW229604   1.097   2.835  16.372  0.2333  0.5668  0.8165
 6048SOL     OW29605   4.213   2.893   7.673  0.8436  0.8506 -0.5907
 6048SOL    HW129606   4.281   2.848   7.722 -0.0712  1.0114  0.8352
 6048SOL    HW229607   4.262   2.971   7.647  2.6719 -0.3733 -0.8099
 6049SOL     OW29608   4.412   2.121   8.119  0.1330  0.7876 -0.3532
 6049SOL    HW129609   4.405   2.070   8.200  1.0102  2.1334  0.5591
 6049SOL    HW229610   4.375   2.053   8.063 -0.2586  1.2757 -0.6845
 6050SOL     OW29611   4.419   2.550   1.420 -0.4475  0.2670 -0.1182
 6050SOL    HW129612   4.470   2.569   1.498 -1.4085  0.0110  0.5717
 6050SOL    HW229613   4.351   2.617   1.432 -1.6029 -1.0452  0.5967
 6051SOL     OW29614   2.412   2.649   9.172 -0.6807  0.4287  0.8849
 6051SOL    HW129615   2.466   2.695   9.236  1.6802  0.6867 -1.2946
 6051SOL    HW229616   2.458   2.572   9.137 -2.4607  0.0502 -0.5847
 6052SOL     OW29617   1.017   2.100   1.181  0.4103 -0.5920 -0.3783
 6052SOL    HW129618   1.106   2.066   1.169  1.4210  2.0665 -0.5005
 6052SOL    HW229619   0.984   2.083   1.093 -1.3991  0.0435  0.1853
 6053SOL     OW29620   1.147   4.246  10.399 -0.3061  0.1266 -0.1284
 6053SOL    HW129621   1.200   4.233  10.478 -1.1225 -0.2685  0.3525
 6053SOL    HW229622   1.129   4.340  10.409  2.2617  0.4611  1.3436
 6054SOL     OW29623   0.388   3.782  12.149 -0.1469  0.0842  0.0623
 6054SOL    HW129624   0.458   3.821  12.202  1.0613 -0.1127 -1.3746
 6054SOL    HW229625   0.335   3.737  12.214 -1.0252  0.2246 -0.5579
 6055SOL     OW29626   2.678   0.705  16.429 -0.0393  0.0383 -0.0138
 6055SOL    HW129627   2.644   0.733  16.344 -0.3400 -2.2157 -0.6296
 6055SOL    HW229628   2.604   0.663  16.472  1.0395 -2.6877 -0.7785
 6056SOL     OW29629   0.054   2.382  11.584 -0.5107  0.0430  0.5600
 6056SOL    HW129630   4.715   2.375  11.655 -0.0387 -0.4709  0.9251
 6056SOL    HW229631   0.006   2.332  11.518  0.2311 -0.5977  0.5127
 6057SOL     OW29632   1.636   2.547   6.979 -0.0517 -0.0921  0.0673
 6057SOL    HW129633   1.679   2.475   6.933 -2.2274 -1.8542  0.8194
 6057SOL    HW229634   1.548   2.510   6.971  0.2517 -0.3776 -2.1989
 6058SOL     OW29635   2.174   0.973   8.186  0.4956  0.2192 -0.3452
 6058SOL    HW129636   2.101   0.912   8.177 -0.3284  0.8759  1.6879
 6058SOL    HW229637   2.120   1.046   8.156 -1.4957 -0.7768  0.7703
 6059SOL     OW29638   4.675   3.783   4.720  0.0004 -0.3468  0.3210
 6059SOL    HW129639   4.666   3.744   4.633  1.3917 -1.7520  0.8206
 6059SOL    HW229640   4.635   3.866   4.693 -0.2669  0.0039  1.8406
 6060SOL     OW29641   1.220   1.348   8.811 -0.3212  0.3158 -0.4104
 6060SOL    HW129642   1.256   1.386   8.892 -2.7128  0.5715  0.5216
 6060SOL    HW229643   1.151   1.289   8.842  2.1285 -3.0426 -1.3942
 6061SOL     OW29644   3.892   0.528   1.111 -0.0353 -0.2040  0.2655
 6061SOL    HW129645   3.961   0.507   1.048 -0.9248 -0.1003 -0.7285
 6061SOL    HW229646   3.893   0.454   1.172  1.8010 -0.8909 -0.5717
 6062SOL     OW29647   0.519   0.472   3.378 -0.1160 -0.1084 -0.0301
 6062SOL    HW129648   0.573   0.490   3.456 -0.4761  0.3884  0.1067
 6062SOL    HW229649   0.431   0.450   3.410 -0.6735  0.3698 -1.2427
 6063SOL     OW29650   4.655   3.854   5.758  0.2259  0.5229 -0.5766
 6063SOL    HW129651   4.581   3.865   5.698 -0.6505  1.4940  0.7034
 6063SOL    HW229652   4.634   3.927   5.816  2.9217 -1.5277  2.9879
 6064SOL     OW29653   2.154   2.773   5.793  0.2918 -0.1080  0.4314
 6064SOL    HW129654   2.169   2.685   5.760 -3.1585 -1.1312  1.5400
 6064SOL    HW229655   2.070   2.756   5.837  0.6464 -1.1458  0.7090
 6065SOL     OW29656   3.726   3.090  16.079  0.3239 -0.2652  0.2405
 6065SOL    HW129657   3.822   3.087  16.089 -0.0382 -2.0977  3.0569
 6065SOL    HW229658   3.714   3.069  15.986  1.8897 -0.1788  0.0179
 6066SOL     OW29659   2.531   1.129   4.842  0.0749  0.7956 -0.1819
 6066SOL    HW129660   2.514   1.048   4.793  0.1803  0.8293 -0.2751
 6066SOL    HW229661   2.619   1.147   4.809  0.3429  0.1608  0.1910
 6067SOL     OW29662   2.537   3.369   3.172 -0.6976  0.4950  0.1296
 6067SOL    HW129663   2.445   3.390   3.158 -0.6117  0.6463 -0.1909
 6067SOL    HW229664   2.543   3.278   3.142 -1.2823 -0.0700  1.7422
 6068SOL     OW29665   2.815   4.021   3.428  0.2293 -0.1857 -0.4419
 6068SOL    HW129666   2.864   4.055   3.354 -2.2828  0.9158 -1.5931
 6068SOL    HW229667   2.725   4.050   3.413  0.0092  0.3579  1.9087
 6069SOL     OW29668   3.410   1.759   8.665 -0.0883  0.5681 -0.0805
 6069SOL    HW129669   3.393   1.720   8.579  0.8474 -1.6796  0.7471
 6069SOL    HW229670   3.479   1.702   8.699  0.9599  1.4524 -0.7189
 6070SOL     OW29671   0.292   0.386   4.432  0.3140  0.0709 -0.3975
 6070SOL    HW129672   0.212   0.334   4.441 -0.2710  0.4816 -3.0984
 6070SOL    HW229673   0.268   0.431   4.351 -0.2115 -1.4530 -1.0801
 6071SOL     OW29674   3.356   1.590   9.059 -0.1531  0.6376  0.1352
 6071SOL    HW129675   3.353   1.683   9.040 -0.6204  0.7691  0.8713
 6071SOL    HW229676   3.396   1.584   9.145 -1.3279  0.8796  0.7011
 6072SOL     OW29677   1.624   4.626   5.322  0.4629 -0.2847 -0.3791
 6072SOL    HW129678   1.586   4.709   5.352  1.6000  0.6155 -1.4370
 6072SOL    HW229679   1.593   4.557   5.381 -0.1497 -0.7141 -1.2167
 6073SOL     OW29680   0.946   4.298   1.456  0.2054 -0.0229 -0.5163
 6073SOL    HW129681   0.995   4.379   1.474  1.6644 -0.8630 -0.7613
 6073SOL    HW229682   0.972   4.256   1.537  2.8822  0.0122 -1.3588
 6074SOL     OW29683   2.929   1.217  14.670  0.2971  0.0363  0.5127
 6074SOL    HW129684   2.946   1.279  14.598 -1.7283  0.6538  0.5637
 6074SOL    HW229685   2.999   1.240  14.732  1.9028  0.7962 -1.5563
 6075SOL     OW29686   3.240   3.584   6.281  0.2352 -0.4185  0.0486
 6075SOL    HW129687   3.298   3.516   6.316 -1.4611 -1.6396  0.5069
 6075SOL    HW229688   3.178   3.571   6.352  2.5167  1.3504  2.3608
 6076SOL     OW29689   2.001   1.357  10.536 -0.2220  0.6065  0.7141
 6076SOL    HW129690   2.023   1.309  10.617  0.5819  1.9031  1.2644
 6076SOL    HW229691   2.081   1.340  10.486  0.1594  0.5007  1.3571
 6077SOL     OW29692   1.932   3.320   1.319 -0.3488  0.1835 -0.3852
 6077SOL    HW129693   2.006   3.318   1.259 -0.1394 -1.4119 -0.0904
 6077SOL    HW229694   1.926   3.230   1.351 -0.6451 -0.2643 -1.7160
 6078SOL     OW29695   1.929   4.457   6.461  0.3245  0.1671  0.0980
 6078SOL    HW129696   1.942   4.545   6.497 -2.7024  0.8780 -0.5165
 6078SOL    HW229697   1.898   4.408   6.537  0.6975 -2.2912 -1.3493
 6079SOL     OW29698   4.476   4.089   2.834  0.0049 -0.1032 -0.0184
 6079SOL    HW129699   4.535   4.119   2.765 -0.4488 -1.8069 -1.1349
 6079SOL    HW229700   4.513   4.002   2.850 -2.7861 -0.9717  1.7572
 6080SOL     OW29701   4.175   0.440   5.455 -0.2931 -0.8747  0.2379
 6080SOL    HW129702   4.148   0.433   5.364  0.2965  0.0968 -0.0130
 6080SOL    HW229703   4.106   0.497   5.489 -0.6621 -1.8646  1.1450
 6081SOL     OW29704   1.398   3.627   5.388  0.1480 -0.0924 -0.0701
 6081SOL    HW129705   1.315   3.586   5.366  0.0294 -0.9011  1.9276
 6081SOL    HW229706   1.432   3.632   5.299 -0.4662 -1.5036 -0.3736
 6082SOL     OW29707   4.712   1.319   9.760 -0.6838 -0.1240  0.6061
 6082SOL    HW129708   4.659   1.239   9.754 -0.5666 -0.0769 -0.9235
 6082SOL    HW229709   0.071   1.285   9.728  0.4774  1.0080  2.4511
 6083SOL     OW29710   2.113   0.031   3.636  0.1276 -0.5479  0.1781
 6083SOL    HW129711   2.031   4.709   3.628 -0.2412  0.1645 -0.2424
 6083SOL    HW229712   2.134   0.007   3.726  2.7388 -2.2396 -0.8773
 6084SOL     OW29713   1.376   4.528   7.846  0.1166  0.8169 -0.2923
 6084SOL    HW129714   1.284   4.504   7.856  0.5419 -0.2660  0.8759
 6084SOL    HW229715   1.406   4.536   7.936 -1.7525 -0.5153  0.4282
 6085SOL     OW29716   1.496   0.790   8.498  0.3006 -0.6401  0.4701
 6085SOL    HW129717   1.590   0.775   8.483  0.4410 -1.8349  2.4545
 6085SOL    HW229718   1.448   0.759   8.422  1.3047  0.0748 -0.4650
 6086SOL     OW29719   1.510   4.024   9.722  0.1423  0.0570  0.2073
 6086SOL    HW129720   1.429   4.068   9.745  0.1831  0.5858 -0.6593
 6086SOL    HW229721   1.519   4.057   9.633 -1.5424 -0.1499 -0.0385
 6087SOL     OW29722   3.545   2.684   1.081  0.0208  0.2754 -0.0943
 6087SOL    HW129723   3.568   2.662   1.171 -0.4124  0.3973  0.0462
 6087SOL    HW229724   3.595   2.615   1.037  1.0756 -0.5164  2.3170
 6088SOL     OW29725   0.873   3.454   6.223  0.6652  0.0833 -0.2858
 6088SOL    HW129726   0.797   3.436   6.168  0.4619 -1.7020  0.5765
 6088SOL    HW229727   0.938   3.423   6.161  2.6066 -0.1276  1.8348
 6089SOL     OW29728   3.580   2.165   5.520 -0.0222  0.4199 -0.0029
 6089SOL    HW129729   3.490   2.171   5.553  0.6785  0.8778  1.8232
 6089SOL    HW229730   3.578   2.238   5.458 -0.4263  1.3988  1.1597
 6090SOL     OW29731   0.909   2.010   9.419  0.1488  0.6424  0.1811
 6090SOL    HW129732   0.994   2.015   9.465  0.0666 -0.6270  0.4895
 6090SOL    HW229733   0.845   2.023   9.489  0.4759 -1.6051  0.9277
 6091SOL     OW29734   1.188   3.925   5.885 -0.1596 -0.4312  0.8383
 6091SOL    HW129735   1.134   3.997   5.917  0.1701 -0.4697  1.4808
 6091SOL    HW229736   1.271   3.960   5.854 -0.0686 -0.9806  0.4715
 6092SOL     OW29737   2.324   1.523   3.356 -0.0554 -0.3819  0.1714
 6092SOL    HW129738   2.282   1.514   3.270 -1.1671 -0.0789  0.6791
 6092SOL    HW229739   2.251   1.507   3.416  0.2932  1.5820  1.1149
 6093SOL     OW29740   1.319   1.026   2.687  0.1797  0.8159 -0.0237
 6093SOL    HW129741   1.254   1.077   2.639  0.9398  1.2297 -0.6190
 6093SOL    HW229742   1.266   0.967   2.740 -0.8693  0.7001 -1.2190
 6094SOL     OW29743   2.027   1.785   3.006  0.8828  0.2830  0.3618
 6094SOL    HW129744   1.950   1.728   3.000 -0.2451  1.9608 -1.1678
 6094SOL    HW229745   2.014   1.823   3.092  3.9759  0.6306  0.6757
 6095SOL     OW29746   4.009   1.716   8.150 -0.0771  0.4155 -0.1206
 6095SOL    HW129747   4.065   1.735   8.225  0.3626 -0.6362 -0.1864
 6095SOL    HW229748   3.929   1.760   8.180  0.3856  2.8493 -2.4400
 6096SOL     OW29749   1.282   3.990   5.260  0.0371  0.1778  0.5226
 6096SOL    HW129750   1.261   3.927   5.329  0.1124 -1.8581 -1.3290
 6096SOL    HW229751   1.278   4.076   5.301 -0.3070  0.6575 -0.5063
 6097SOL     OW29752   1.032   1.082   1.455 -0.1204  0.1421  0.2682
 6097SOL    HW129753   0.955   1.136   1.471 -2.1512 -3.2152  1.7136
 6097SOL    HW229754   1.081   1.090   1.536  0.0808 -1.1801  0.2698
 6098SOL     OW29755   3.340   0.830   3.504  0.2099 -0.6626  0.5535
 6098SOL    HW129756   3.397   0.903   3.528  1.0221 -1.1235  0.0374
 6098SOL    HW229757   3.326   0.832   3.409 -3.0650 -1.3246  1.0334
 6099SOL     OW29758   0.961   1.842   8.091 -0.3330 -0.4397 -0.4063
 6099SOL    HW129759   0.989   1.752   8.072 -1.6871 -1.7485  3.7162
 6099SOL    HW229760   1.013   1.865   8.168 -0.1032 -1.2126 -0.3289
 6100SOL     OW29761   3.645   1.340  14.770 -0.1604  0.3535 -0.0185
 6100SOL    HW129762   3.552   1.360  14.774  0.5348  3.2201  1.5643
 6100SOL    HW229763   3.658   1.322  14.676 -0.0372  0.9857 -0.1237
 6101SOL     OW29764   2.206   4.550  11.435 -0.5201 -0.9320  0.3782
 6101SOL    HW129765   2.256   4.494  11.375  0.8540  0.3782  0.2752
 6101SOL    HW229766   2.187   4.499  11.514 -1.1043 -0.3426  0.6175
 6102SOL     OW29767   2.754   0.810   6.481 -0.1149 -0.4781  0.3350
 6102SOL    HW129768   2.825   0.767   6.529 -2.4932 -3.2967  1.3581
 6102SOL    HW229769   2.718   0.872   6.545 -3.1168 -2.1815  0.3117
 6103SOL     OW29770   0.469   4.047   3.200  0.2219  0.3011  0.1826
 6103SOL    HW129771   0.557   4.071   3.231  0.1145 -0.4958  1.1064
 6103SOL    HW229772   0.463   4.091   3.115 -0.2233  1.6474  0.9062
 6104SOL     OW29773   3.473   1.748   2.054  0.0239  0.2018  0.1040
 6104SOL    HW129774   3.406   1.754   2.122 -1.3209 -0.8805 -1.1428
 6104SOL    HW229775   3.466   1.829   2.003 -0.6327  0.5321  0.7190
 6105SOL     OW29776   2.665   0.098  16.670 -0.1652 -0.4553 -0.5014
 6105SOL    HW129777   2.750   0.077  16.708  0.4781 -0.1780 -1.7720
 6105SOL    HW229778   2.694   0.113  16.580  1.7598 -1.2710 -0.0255
 6106SOL     OW29779   4.030   3.465  17.527 -0.3001  0.3673  0.5287
 6106SOL    HW129780   3.974   3.440  17.600 -0.3175  2.7972  1.3355
 6106SOL    HW229781   3.969   3.524  17.484  0.6182 -1.3314 -3.1442
 6107SOL     OW29782   2.573   1.570   7.829 -0.3371  0.2269 -0.2208
 6107SOL    HW129783   2.562   1.555   7.923  1.4093 -0.0435 -0.0523
 6107SOL    HW229784   2.585   1.481   7.796 -2.7568 -0.4175  0.6439
 6108SOL     OW29785   3.637   2.148   7.797  0.0694 -0.3568  0.1947
 6108SOL    HW129786   3.607   2.060   7.775 -0.0375 -0.4170  0.5886
 6108SOL    HW229787   3.551   2.188   7.811 -0.0573 -0.5276 -0.1041
 6109SOL     OW29788   1.024   2.201   4.257 -0.1418  0.1319 -0.0266
 6109SOL    HW129789   0.966   2.183   4.332 -0.4923 -0.5751 -0.4676
 6109SOL    HW229790   1.110   2.176   4.291 -0.1798 -0.5552 -0.4431
 6110SOL     OW29791   0.148   4.638  12.392 -0.1845 -0.3399  0.1584
 6110SOL    HW129792   0.121   4.546  12.387  1.0923 -0.7909  1.5840
 6110SOL    HW229793   0.065   4.680  12.415 -1.5464 -0.3441 -4.7276
 6111SOL     OW29794   3.569   4.398   1.809 -0.2371 -0.1281 -0.0176
 6111SOL    HW129795   3.492   4.419   1.863 -0.6069 -1.4316 -0.0166
 6111SOL    HW229796   3.637   4.389   1.876  0.5934  0.4483 -0.7977
 6112SOL     OW29797   0.735   2.591   7.998 -0.6526 -0.0710 -0.0504
 6112SOL    HW129798   0.742   2.652   7.926 -1.3443  0.9206  0.7258
 6112SOL    HW229799   0.658   2.623   8.044  0.6533  0.9192  1.4563
 6113SOL     OW29800   2.610   3.811  14.428 -0.2196 -0.4725 -0.1299
 6113SOL    HW129801   2.694   3.841  14.464  0.0670  0.5053 -1.6302
 6113SOL    HW229802   2.590   3.725  14.465  3.3092 -1.4107 -0.3745
 6114SOL     OW29803   2.307   0.883   2.095 -0.4653  0.0768  0.1123
 6114SOL    HW129804   2.338   0.972   2.083  0.4502 -0.2830 -0.1513
 6114SOL    HW229805   2.218   0.910   2.118 -0.9067  0.7834 -2.4338
 6115SOL     OW29806   0.445   0.115   4.971  0.2629 -0.3394  0.0204
 6115SOL    HW129807   0.434   0.152   5.059 -0.3277  1.0853 -0.6528
 6115SOL    HW229808   0.355   0.125   4.941  0.1900 -5.6102 -1.4715
 6116SOL     OW29809   3.902   0.882  15.037 -0.4783  0.5471 -0.5433
 6116SOL    HW129810   3.968   0.841  15.093 -1.5665  1.5292  1.4698
 6116SOL    HW229811   3.861   0.936  15.104 -1.3675 -2.8907  1.6557
 6117SOL     OW29812   0.033   2.381   7.434 -0.1077 -0.2152  0.6112
 6117SOL    HW129813   0.061   2.450   7.494 -1.2443  1.8793 -1.2398
 6117SOL    HW229814   4.670   2.408   7.405 -0.1294  0.5871  1.4200
 6118SOL     OW29815   4.654   3.269   5.912 -0.1500 -0.4912  0.6047
 6118SOL    HW129816   4.678   3.260   6.004  1.9201 -0.1308  0.1000
 6118SOL    HW229817   4.666   3.364   5.900  0.6438 -1.0093 -2.8566
 6119SOL     OW29818   2.806   3.514  11.490  0.2036 -0.3901 -0.2916
 6119SOL    HW129819   2.867   3.587  11.481  1.1036 -1.1933 -0.6399
 6119SOL    HW229820   2.771   3.511  11.401  0.0920 -0.6225 -0.2385
 6120SOL     OW29821   2.582   2.917  15.263  0.1120  0.3702 -0.2066
 6120SOL    HW129822   2.537   2.889  15.343 -0.3391  2.0256  0.1222
 6120SOL    HW229823   2.552   2.841  15.213 -0.1266 -0.6449  1.4738
 6121SOL     OW29824   1.731   3.409   1.020 -0.3665 -0.0593  0.0764
 6121SOL    HW129825   1.742   3.453   1.105  2.2917  0.5593 -0.5679
 6121SOL    HW229826   1.708   3.485   0.968  1.2681  1.0021  0.8856
 6122SOL     OW29827   0.688   3.226   3.822 -0.0022 -0.3786  0.0203
 6122SOL    HW129828   0.626   3.246   3.892 -0.4456  0.0699 -0.4973
 6122SOL    HW229829   0.689   3.131   3.827 -2.3492 -0.4633 -0.8950
 6123SOL     OW29830   0.648   1.561   8.784  0.0364 -0.1456 -0.3274
 6123SOL    HW129831   0.599   1.497   8.836 -1.4027  1.0873 -0.1620
 6123SOL    HW229832   0.710   1.597   8.848  1.0197 -1.3797 -0.5847
 6124SOL     OW29833   1.523   3.481   0.226 -0.0387 -0.6032  0.0801
 6124SOL    HW129834   1.514   3.446   0.138 -1.8714  2.1483 -0.8303
 6124SOL    HW229835   1.474   3.409   0.264 -1.3178 -0.7744 -1.8990
 6125SOL     OW29836   1.360   0.778  12.417  0.0883 -0.1797 -0.1558
 6125SOL    HW129837   1.408   0.844  12.467 -0.2149  0.6685 -0.9762
 6125SOL    HW229838   1.394   0.793  12.328  2.3118  1.7535  1.0006
 6126SOL     OW29839   1.301   0.569   5.128  0.5077 -0.2453  0.1157
 6126SOL    HW129840   1.246   0.646   5.114  0.4216  0.0870  2.3215
 6126SOL    HW229841   1.235   0.510   5.163  1.4089 -0.6991  1.0760
 6127SOL     OW29842   1.637   3.649   8.104  0.3390  0.1663  0.4810
 6127SOL    HW129843   1.657   3.565   8.063  1.7836  0.5210  0.4616
 6127SOL    HW229844   1.715   3.702   8.090  0.9033 -1.1326 -1.2062
 6128SOL     OW29845   0.072   3.540   2.373  0.0536  0.0937  0.3763
 6128SOL    HW129846   0.108   3.614   2.422  0.2006  0.0533  0.3292
 6128SOL    HW229847   0.151   3.487   2.366 -0.3071 -0.3391 -0.4543
 6129SOL     OW29848   2.241   3.845   0.427 -0.1145  0.2178 -0.2748
 6129SOL    HW129849   2.146   3.857   0.427 -0.4222 -2.2824  0.8672
 6129SOL    HW229850   2.254   3.801   0.343  2.7903  0.2428  0.1390
 6130SOL     OW29851   4.353   0.743  16.264 -0.2170 -0.0034 -0.0361
 6130SOL    HW129852   4.319   0.700  16.185  2.0637  1.5625 -1.8986
 6130SOL    HW229853   4.288   0.809  16.283  1.2717  0.9581  1.7369
 6131SOL     OW29854   2.324   2.266   5.685 -0.1187 -0.8558 -0.1859
 6131SOL    HW129855   2.385   2.298   5.752  0.3773  0.5101 -1.2863
 6131SOL    HW229856   2.341   2.173   5.701  2.8809 -0.3627 -0.4716
 6132SOL     OW29857   0.275   3.640  11.949  0.3339 -0.3706  0.5584
 6132SOL    HW129858   0.331   3.670  12.021 -0.5998 -0.2200  1.2268
 6132SOL    HW229859   0.215   3.713  11.934 -1.4731 -2.1676 -1.0638
 6133SOL     OW29860   3.453   2.888  16.234  0.0449 -0.1216 -0.0152
 6133SOL    HW129861   3.377   2.870  16.290  1.3746 -2.4191  1.0379
 6133SOL    HW229862   3.474   2.810  16.184  0.7849 -0.4464  0.8146
 6134SOL     OW29863   3.002   4.425   4.456  0.1184 -0.0054 -0.3581
 6134SOL    HW129864   3.036   4.348   4.411 -1.2868 -0.4924 -0.5768
 6134SOL    HW229865   3.079   4.480   4.467 -1.7364  2.2074  1.6533
 6135SOL     OW29866   3.362   1.482   2.162 -0.0823 -1.0539 -0.3763
 6135SOL    HW129867   3.353   1.555   2.101  1.3704  0.1883  0.9080
 6135SOL    HW229868   3.369   1.533   2.242 -0.2865  0.6444 -1.4447
 6136SOL     OW29869   1.970   0.573   7.400  0.1192 -0.2489 -0.1942
 6136SOL    HW129870   1.892   0.552   7.451 -0.9238 -1.3748 -2.2587
 6136SOL    HW229871   1.987   0.653   7.451 -0.9707  0.5735 -1.1300
 6137SOL     OW29872   1.913   3.249   4.737  0.5686  0.1290  0.6164
 6137SOL    HW129873   1.984   3.248   4.801  0.6778 -1.0789  0.4831
 6137SOL    HW229874   1.873   3.164   4.753 -0.2713  0.5892  0.9683
 6138SOL     OW29875   0.740   1.237  10.828  0.0990  0.0520  0.2352
 6138SOL    HW129876   0.772   1.327  10.838  2.1678 -0.5087 -1.3025
 6138SOL    HW229877   0.699   1.237  10.742  3.4181 -2.6580 -1.3664
 6139SOL     OW29878   1.193   1.777   5.229 -0.2596  0.3363 -0.2583
 6139SOL    HW129879   1.239   1.701   5.265  0.8590 -0.1406 -2.7118
 6139SOL    HW229880   1.135   1.733   5.168 -2.1669  3.4791 -0.6760
 6140SOL     OW29881   2.218   2.480  11.116 -0.0148 -0.0945 -0.2855
 6140SOL    HW129882   2.284   2.445  11.056 -0.2504 -3.0143  1.1445
 6140SOL    HW229883   2.227   2.429  11.197  2.4014 -0.9210 -1.0944
 6141SOL     OW29884   1.522   1.908  13.548 -0.0673 -0.6249  0.2613
 6141SOL    HW129885   1.596   1.856  13.515 -0.0642  0.0613 -0.8177
 6141SOL    HW229886   1.538   1.999  13.524  0.2680 -0.4680  1.0913
 6142SOL     OW29887   2.743   1.824   6.501 -0.6155  0.5169  0.0250
 6142SOL    HW129888   2.702   1.891   6.556  1.2730  0.5328  1.4241
 6142SOL    HW229889   2.726   1.851   6.411 -2.1751  1.5480  0.6223
 6143SOL     OW29890   1.643   3.242  10.290  0.0442 -0.1107  0.2054
 6143SOL    HW129891   1.656   3.167  10.232 -1.3379  1.1676 -1.7243
 6143SOL    HW229892   1.676   3.219  10.377 -1.9594 -2.2892  0.3857
 6144SOL     OW29893   2.725   2.094  10.213 -0.1986 -0.2866  0.0821
 6144SOL    HW129894   2.729   2.076  10.119 -1.1017  0.6740 -0.1299
 6144SOL    HW229895   2.815   2.120  10.233 -0.7936  0.9603  1.0945
 6145SOL     OW29896   3.467   4.373   5.526  0.0952  0.1492 -0.3802
 6145SOL    HW129897   3.489   4.425   5.449 -0.1709 -1.2091 -1.3679
 6145SOL    HW229898   3.467   4.286   5.487  0.4181  0.5680 -1.3090
 6146SOL     OW29899   2.157   3.979  11.795 -0.3195  0.7456 -0.2915
 6146SOL    HW129900   2.198   3.899  11.762  0.5039  0.6586  0.9243
 6146SOL    HW229901   2.063   3.961  11.787 -0.2372 -0.5183  1.4709
 6147SOL     OW29902   0.082   1.712   5.467  0.3080 -0.3112  0.4271
 6147SOL    HW129903   0.111   1.792   5.510  1.0260 -0.3318 -0.0282
 6147SOL    HW229904   0.073   1.731   5.374  0.1741  0.0127  0.5078
 6148SOL     OW29905   0.400   4.079   2.238  0.6167  0.3734  0.6365
 6148SOL    HW129906   0.389   4.058   2.145 -0.4140 -1.9249  1.2685
 6148SOL    HW229907   0.471   4.018   2.260  0.7150  0.0086 -0.6753
 6149SOL     OW29908   4.162   2.206   1.937 -0.0221  0.2009 -0.1079
 6149SOL    HW129909   4.165   2.249   2.022 -0.5972  2.4047 -1.1990
 6149SOL    HW229910   4.233   2.142   1.940 -0.9414 -0.7510  0.9631
 6150SOL     OW29911   4.307   1.657   7.244 -0.4551  0.1497  0.1495
 6150SOL    HW129912   4.275   1.658   7.334 -2.9332  0.5849 -0.7549
 6150SOL    HW229913   4.247   1.595   7.201  1.5708 -2.0544  0.4797
 6151SOL     OW29914   0.699   0.090   0.197  0.5254 -0.3426  0.0649
 6151SOL    HW129915   0.753   0.145   0.254 -0.8950  0.6296  0.4943
 6151SOL    HW229916   0.762   0.044   0.142  1.5239 -0.2762  1.1450
 6152SOL     OW29917   2.917   1.545   7.110  0.4527 -0.2147  0.1357
 6152SOL    HW129918   2.980   1.514   7.046  0.0140 -0.1349 -0.3383
 6152SOL    HW229919   2.950   1.632   7.129  2.1721 -1.3190  2.2359
 6153SOL     OW29920   0.398   1.759   1.872  0.2490  0.1968 -0.5182
 6153SOL    HW129921   0.355   1.687   1.825  0.7290  0.1282 -0.8524
 6153SOL    HW229922   0.325   1.821   1.879  0.8780  0.9748 -0.8926
 6154SOL     OW29923   3.761   2.139  17.656 -0.0121  0.3548  0.2414
 6154SOL    HW129924   3.809   2.212  17.695  0.1417  1.3505 -1.8062
 6154SOL    HW229925   3.806   2.125  17.573  1.3802 -0.6121  1.1637
 6155SOL     OW29926   4.055   3.153   1.621  0.0318  0.6073  0.1981
 6155SOL    HW129927   3.964   3.180   1.634  0.7825  2.5598  1.2752
 6155SOL    HW229928   4.070   3.143   1.527  1.0221  0.5438  0.3682
 6156SOL     OW29929   0.906   3.841  13.605  0.0555  0.6047 -0.6005
 6156SOL    HW129930   0.980   3.795  13.564  1.3146  0.1151  2.2437
 6156SOL    HW229931   0.837   3.812  13.545 -0.8221 -0.9750  1.1496
 6157SOL     OW29932   4.717   2.255   8.639  0.3919 -0.5518 -0.5938
 6157SOL    HW129933   0.036   2.217   8.563  2.7110  0.6279  0.1361
 6157SOL    HW229934   0.011   2.191   8.707 -0.1322 -1.3273 -1.1826
 6158SOL     OW29935   0.260   4.052  13.011 -0.1556  0.3855  0.5789
 6158SOL    HW129936   0.235   4.052  13.103 -0.6886  1.0381  0.4321
 6158SOL    HW229937   0.270   4.146  13.001  0.8523  0.1445 -0.7218
 6159SOL     OW29938   4.454   3.351   2.693 -0.0855 -0.0235 -0.6361
 6159SOL    HW129939   4.540   3.314   2.711  0.9704  0.9534 -3.6811
 6159SOL    HW229940   4.438   3.300   2.614  1.0738 -1.5050  0.0866
 6160SOL     OW29941   3.509   4.524  17.316 -0.4096 -0.1643  0.7172
 6160SOL    HW129942   3.499   4.597  17.377  3.7487  0.0711  1.1016
 6160SOL    HW229943   3.494   4.573  17.235  1.4794 -1.5635 -0.4708
 6161SOL     OW29944   2.485   2.936   8.927 -0.2958 -1.0976 -0.0957
 6161SOL    HW129945   2.507   2.949   9.019 -3.5865 -1.2472  0.7151
 6161SOL    HW229946   2.536   2.857   8.907  1.5376 -0.5629  2.4382
 6162SOL     OW29947   2.139   0.407   1.724 -0.1498 -0.2866  0.3706
 6162SOL    HW129948   2.177   0.475   1.668 -0.9467  0.4898  0.7792
 6162SOL    HW229949   2.079   0.457   1.779 -2.7449 -1.8069 -1.0555
 6163SOL     OW29950   3.258   3.994   4.348 -0.0134 -0.0605 -0.4555
 6163SOL    HW129951   3.328   3.943   4.307 -0.9391  0.1970 -2.3698
 6163SOL    HW229952   3.283   4.080   4.313 -0.1842 -0.3166 -1.2048
 6164SOL     OW29953   3.546   0.702   5.433  0.3609 -0.0420  0.1741
 6164SOL    HW129954   3.551   0.754   5.514 -2.8420 -1.5323  1.3521
 6164SOL    HW229955   3.457   0.727   5.408  0.4916 -0.9739 -1.1830
 6165SOL     OW29956   0.699   3.797   7.077  0.4305  0.3987 -0.1576
 6165SOL    HW129957   0.618   3.838   7.110  0.7144  0.5662  0.3264
 6165SOL    HW229958   0.689   3.713   7.122 -1.8142  1.1858  0.8174
 6166SOL     OW29959   2.248   3.355   4.102  0.2732  0.8355  0.0063
 6166SOL    HW129960   2.212   3.384   4.186 -1.5061 -1.4538  0.0376
 6166SOL    HW229961   2.167   3.364   4.052 -1.0842 -1.3855  1.8077
 6167SOL     OW29962   1.919   0.048   8.404 -0.0378  0.4106 -0.6489
 6167SOL    HW129963   1.887   4.699   8.353 -1.7011 -2.6038  4.7356
 6167SOL    HW229964   1.964   4.723   8.472 -2.3388 -0.7090  0.0564
 6168SOL     OW29965   2.955   4.190   5.006 -0.6551 -0.0528  0.2166
 6168SOL    HW129966   3.034   4.137   5.021 -0.1006 -0.1611 -3.1051
 6168SOL    HW229967   2.893   4.127   4.972  1.6521 -1.8952 -0.6127
 6169SOL     OW29968   1.356   1.533  14.733  0.1720  0.2386 -0.2936
 6169SOL    HW129969   1.309   1.537  14.816  2.5795 -1.6438  1.1741
 6169SOL    HW229970   1.450   1.536  14.752 -0.3250 -1.7676  2.4121
 6170SOL     OW29971   4.599   1.056   3.264 -0.1081  0.3288 -0.7518
 6170SOL    HW129972   4.528   0.996   3.238  0.1556  0.8356 -2.6207
 6170SOL    HW229973   4.623   1.108   3.188  2.6689 -0.4129 -0.3555
 6171SOL     OW29974   2.718   1.085  15.722 -0.2756 -0.4831 -0.1542
 6171SOL    HW129975   2.778   1.082  15.648 -0.2836  4.7174 -0.3637
 6171SOL    HW229976   2.631   1.090  15.682  0.3868 -0.7794 -1.6287
 6172SOL     OW29977   2.708   4.563  11.000  0.2668 -0.1995  0.4366
 6172SOL    HW129978   2.718   4.655  11.024 -1.0729  0.8138 -2.8371
 6172SOL    HW229979   2.787   4.543  10.950 -0.2847  0.3790 -0.6685
 6173SOL     OW29980   1.537   3.623   4.418 -0.2328  0.1221 -0.8327
 6173SOL    HW129981   1.567   3.551   4.474  1.2545  1.2379 -0.1789
 6173SOL    HW229982   1.454   3.647   4.459 -0.6339 -1.0623 -0.9583
 6174SOL     OW29983   1.884   3.865   9.579 -0.3511 -0.5583  0.1424
 6174SOL    HW129984   1.814   3.876   9.515  1.3189  0.0258 -1.6026
 6174SOL    HW229985   1.896   3.775   9.550 -1.6366 -0.2716 -1.2996
 6175SOL     OW29986   3.183   0.213   7.500  0.3663  0.4660  0.2226
 6175SOL    HW129987   3.129   0.228   7.577 -0.3608  0.5359 -0.3056
 6175SOL    HW229988   3.182   0.299   7.459  1.2947  1.0074  1.3208
 6176SOL     OW29989   1.396   4.673   3.287  0.0882  0.0710 -0.1461
 6176SOL    HW129990   1.314   4.680   3.238 -0.9350 -1.5888  1.3506
 6176SOL    HW229991   1.432   4.591   3.252  1.4677  0.9920 -0.9279
 6177SOL     OW29992   0.703   1.362   3.674  0.5228  0.1991  0.9553
 6177SOL    HW129993   0.662   1.312   3.604  2.1658  0.3863 -0.1320
 6177SOL    HW229994   0.769   1.407   3.621 -1.3070  1.6034 -0.1285
 6178SOL     OW29995   3.998   2.525   4.888 -0.2330 -0.6008 -0.4149
 6178SOL    HW129996   3.975   2.563   4.803 -0.2887 -1.3777 -0.7472
 6178SOL    HW229997   3.916   2.499   4.929  0.0601  0.3561  0.7791
 6179SOL     OW29998   1.819   3.343   5.510  0.6873  0.4616 -0.1576
 6179SOL    HW129999   1.886   3.363   5.445 -0.0277 -0.7804 -1.2694
 6179SOL    HW230000   1.806   3.250   5.490  1.5946  0.8301 -2.4165
 6180SOL     OW30001   1.329   1.843   7.784 -0.0871 -0.3835  0.3300
 6180SOL    HW130002   1.252   1.803   7.823  0.7047 -0.8724  1.3996
 6180SOL    HW230003   1.367   1.890   7.858 -2.0606  0.2285  0.9310
 6181SOL     OW30004   3.646   3.871  17.326 -0.0690  0.4476  0.1676
 6181SOL    HW130005   3.653   3.828  17.241 -1.4027 -0.9634  0.7899
 6181SOL    HW230006   3.728   3.843  17.367  0.3687  2.3717  0.6339
 6182SOL     OW30007   2.821   0.963   3.840  0.4119  0.1734  0.0106
 6182SOL    HW130008   2.910   0.979   3.809  0.9522 -0.7655  1.0821
 6182SOL    HW230009   2.773   1.037   3.802 -1.9706 -0.6909  1.2719
 6183SOL     OW30010   3.710   4.187   2.393  0.2392  0.4829  0.1790
 6183SOL    HW130011   3.617   4.190   2.415 -0.3016 -3.3305 -1.5423
 6183SOL    HW230012   3.749   4.205   2.479  0.6167  0.9077 -0.0838
 6184SOL     OW30013   0.247   1.729  17.037  0.3074 -0.1336  0.5686
 6184SOL    HW130014   0.238   1.644  17.081 -1.5530  1.1546  2.6729
 6184SOL    HW230015   0.213   1.792  17.100 -1.9674  1.5182 -2.3326
 6185SOL     OW30016   1.322   1.327  14.388  0.3582 -0.5358  0.1456
 6185SOL    HW130017   1.311   1.280  14.305 -0.9459  0.3173 -0.1594
 6185SOL    HW230018   1.386   1.277  14.438  0.1743  1.5476  2.3987
 6186SOL     OW30019   2.654   1.844  10.660 -0.4627 -0.0656 -0.2912
 6186SOL    HW130020   2.566   1.807  10.653 -0.3497 -0.4065  0.0982
 6186SOL    HW230021   2.641   1.935  10.634 -1.1877 -1.3806 -4.6125
 6187SOL     OW30022   4.050   2.938   5.705  0.3297 -0.7840  0.1593
 6187SOL    HW130023   4.124   2.985   5.744  0.0753 -0.9170  0.8105
 6187SOL    HW230024   4.060   2.953   5.611 -1.3670 -1.5820 -0.1497
 6188SOL     OW30025   2.101   0.155   4.218  0.0584 -0.0027 -0.0845
 6188SOL    HW130026   2.160   0.081   4.211  1.7336  1.2112  1.4115
 6188SOL    HW230027   2.080   0.182   4.128  0.3532 -0.4168 -0.2795
 6189SOL     OW30028   1.727   3.482   7.695 -0.2622  0.2917  0.7849
 6189SOL    HW130029   1.762   3.570   7.708 -1.0800  0.3174  2.9044
 6189SOL    HW230030   1.675   3.489   7.615 -0.2033 -0.8118  0.6482
 6190SOL     OW30031   4.102   1.752   2.601  0.1071  0.7706  0.0498
 6190SOL    HW130032   4.171   1.722   2.542  0.0111 -0.5254  0.5978
 6190SOL    HW230033   4.105   1.681   2.665  0.5751  1.3839  0.7066
 6191SOL     OW30034   2.739   2.835   6.275  0.5649  0.3509  0.8141
 6191SOL    HW130035   2.830   2.846   6.246 -0.2545  1.2644 -1.3561
 6191SOL    HW230036   2.695   2.850   6.191  0.3160  1.4846  1.1429
 6192SOL     OW30037   2.569   4.011  11.086  0.6326 -0.3708  0.4652
 6192SOL    HW130038   2.581   3.991  10.994  1.1451 -0.8973  0.6481
 6192SOL    HW230039   2.662   4.034  11.093  1.3981 -3.5806  0.5892
 6193SOL     OW30040   4.603   2.610   0.960  0.3250 -0.3291  0.1803
 6193SOL    HW130041   4.600   2.619   1.055 -1.0831 -1.3990  0.2385
 6193SOL    HW230042   4.551   2.681   0.923  0.6842  0.2039  0.7129
 6194SOL     OW30043   1.381   4.536   7.534 -0.0759 -0.0668  0.0965
 6194SOL    HW130044   1.305   4.584   7.566  0.5668  1.6432 -0.9586
 6194SOL    HW230045   1.435   4.542   7.612  1.4218 -0.4100 -0.9078
 6195SOL     OW30046   1.337   0.005   6.814 -0.0716 -0.4625  0.3646
 6195SOL    HW130047   1.371   0.092   6.793  1.7195 -1.1460  0.4708
 6195SOL    HW230048   1.261   0.022   6.871 -2.4113  1.1382 -3.2395
 6196SOL     OW30049   2.233   4.620  12.327  0.5484  0.8741  0.1355
 6196SOL    HW130050   2.241   4.638  12.421 -0.8790  2.2757 -0.0149
 6196SOL    HW230051   2.312   4.569  12.312 -0.6506 -0.8944 -0.1803
 6197SOL     OW30052   3.201   0.179   5.454 -0.2111  0.0701  0.1060
 6197SOL    HW130053   3.180   0.177   5.548  2.5426 -0.5188  0.6964
 6197SOL    HW230054   3.229   0.088   5.450 -0.3707  0.1104 -1.8776
 6198SOL     OW30055   0.146   4.621   0.079  0.0630  0.6758 -0.2691
 6198SOL    HW130056   0.170   4.611   0.171 -1.2242 -1.6588 -0.1756
 6198SOL    HW230057   0.199   4.697   0.057  0.5021  0.3828 -0.2401
 6199SOL     OW30058   0.766   1.515   7.246  0.1736  0.4695 -0.1114
 6199SOL    HW130059   0.807   1.548   7.326 -1.1293  0.2631  0.6498
 6199SOL    HW230060   0.791   1.583   7.183  0.9288  0.2998  0.0104
 6200SOL     OW30061   2.651   4.155   9.265  0.4456  0.1591 -0.0901
 6200SOL    HW130062   2.587   4.198   9.321  2.4104 -0.9737  3.0486
 6200SOL    HW230063   2.695   4.233   9.230 -0.1852  1.5592  2.2615
 6201SOL     OW30064   1.085   2.380  13.152  0.3829 -0.4310 -0.3341
 6201SOL    HW130065   1.006   2.401  13.201  0.5942  0.2278 -0.2732
 6201SOL    HW230066   1.058   2.426  13.072 -0.2595 -0.0540  0.1031
 6202SOL     OW30067   3.643   1.659  15.331 -0.1184 -0.4785 -0.0082
 6202SOL    HW130068   3.575   1.595  15.313 -2.5796  2.2551 -0.4452
 6202SOL    HW230069   3.719   1.624  15.284 -0.2079  1.4846 -1.6059
 6203SOL     OW30070   3.590   1.875   7.846  0.6440 -0.5164  0.2848
 6203SOL    HW130071   3.640   1.858   7.766  0.9297  0.6200  0.2262
 6203SOL    HW230072   3.599   1.799   7.904  1.3604 -0.6831 -0.0430
 6204SOL     OW30073   3.796   1.406   4.294 -0.8622  0.4185  0.1455
 6204SOL    HW130074   3.765   1.318   4.273  0.6815 -0.2523  0.6960
 6204SOL    HW230075   3.821   1.382   4.383  0.5374  0.0860 -0.3290
 6205SOL     OW30076   3.412   3.239   5.015  0.0919 -0.2612 -0.4005
 6205SOL    HW130077   3.335   3.295   5.022  0.3099 -0.1035  0.8141
 6205SOL    HW230078   3.456   3.301   4.957 -0.2532  0.5995  0.2534
 6206SOL     OW30079   0.611   2.017   5.718 -0.0613 -0.2217 -0.0120
 6206SOL    HW130080   0.546   2.080   5.686  0.9970 -0.4296 -2.6106
 6206SOL    HW230081   0.667   2.014   5.640 -0.2159 -0.1353 -0.1268
 6207SOL     OW30082   1.836   2.994   4.826  0.6895 -0.2373  0.1997
 6207SOL    HW130083   1.902   2.925   4.826  0.0924 -0.7981  1.0066
 6207SOL    HW230084   1.757   2.943   4.812  0.5090 -0.9584  4.0079
 6208SOL     OW30085   1.194   3.657  12.318  0.2929 -0.3751 -0.3848
 6208SOL    HW130086   1.224   3.701  12.397  0.7925 -1.1939 -0.1188
 6208SOL    HW230087   1.219   3.565  12.327 -3.9656 -1.4681  0.4797
 6209SOL     OW30088   3.576   4.082   6.908 -0.3209  0.3845  0.0610
 6209SOL    HW130089   3.634   4.026   6.960  0.4043  0.4903 -0.6304
 6209SOL    HW230090   3.604   4.169   6.936 -3.0296  1.6269 -1.0905
 6210SOL     OW30091   4.602   0.186   2.212  0.1984  0.1589 -0.7442
 6210SOL    HW130092   4.649   0.115   2.167  0.8386  0.3094 -0.3264
 6210SOL    HW230093   4.568   0.232   2.136 -1.6548 -0.5302 -0.3141
 6211SOL     OW30094   1.064   1.099   1.814  0.4232 -0.0281  0.3010
 6211SOL    HW130095   1.143   1.088   1.760  0.0695 -0.1806 -0.1776
 6211SOL    HW230096   1.057   1.010   1.848 -0.7948  0.2167  0.6977
 6212SOL     OW30097   4.454   0.035  10.106 -0.4850  0.1558 -0.1777
 6212SOL    HW130098   4.427   0.087  10.031 -0.3757 -0.5497 -0.7076
 6212SOL    HW230099   4.541   0.015  10.072  0.0015 -0.0987  1.2132
 6213SOL     OW30100   1.996   3.825   7.295 -0.5489 -0.5146 -0.3631
 6213SOL    HW130101   1.943   3.895   7.258 -0.2911  0.5510  1.2796
 6213SOL    HW230102   2.003   3.778   7.213 -1.2031  0.0881 -0.7632
 6214SOL     OW30103   3.489   1.910   4.435  0.2946 -0.0335 -0.1855
 6214SOL    HW130104   3.565   1.898   4.491 -1.2192 -1.8033  1.4959
 6214SOL    HW230105   3.530   1.902   4.349 -1.7273 -0.2214 -1.1358
 6215SOL     OW30106   0.636   0.875   0.475  0.8380 -0.3425  0.2853
 6215SOL    HW130107   0.554   0.843   0.515  1.9207 -1.0268  1.9610
 6215SOL    HW230108   0.610   0.855   0.385 -0.9922  3.2882  0.0041
 6216SOL     OW30109   0.746   3.177   6.917  0.1934 -0.2202  0.4250
 6216SOL    HW130110   0.715   3.215   6.999 -0.5607  1.7164 -0.7733
 6216SOL    HW230111   0.814   3.119   6.952 -0.1338 -0.7483  0.1995
 6217SOL     OW30112   4.499   0.662   0.498  0.2064  0.3623 -0.6147
 6217SOL    HW130113   4.576   0.659   0.556 -0.7284 -2.6159  0.4520
 6217SOL    HW230114   4.464   0.748   0.520 -0.2734 -0.2088  0.8892
 6218SOL     OW30115   0.041   0.928   0.523 -0.0292 -0.6066 -0.3328
 6218SOL    HW130116   0.032   1.022   0.534 -1.4288 -0.7761  0.0078
 6218SOL    HW230117   0.094   0.911   0.600  2.4992 -0.3221 -2.0063
 6219SOL     OW30118   1.152   1.668   7.928 -0.2005  0.3945 -0.5102
 6219SOL    HW130119   1.188   1.622   8.004 -0.6036 -0.1246 -0.6394
 6219SOL    HW230120   1.105   1.595   7.889 -0.7424 -0.0045  0.8863
 6220SOL     OW30121   1.338   2.594   0.702  0.0122 -0.3739 -0.2650
 6220SOL    HW130122   1.357   2.657   0.772  0.1538 -1.0542  0.3088
 6220SOL    HW230123   1.277   2.530   0.737 -0.0658 -1.1472 -1.8249
 6221SOL     OW30124   3.135   0.290  16.251  0.0262  0.2592 -0.1759
 6221SOL    HW130125   3.090   0.341  16.318  2.4007  3.3085 -0.8892
 6221SOL    HW230126   3.061   0.261  16.197 -0.0620 -0.3647  0.2723
 6222SOL     OW30127   1.134   4.658   8.374  0.1177 -0.2924 -0.8418
 6222SOL    HW130128   1.158   4.680   8.284 -0.5191  0.8949 -0.7224
 6222SOL    HW230129   1.080   0.009   8.397 -1.1713 -1.9336  1.6055
 6223SOL     OW30130   0.893   4.221   8.333  0.5011 -0.4631 -0.5030
 6223SOL    HW130131   0.914   4.290   8.395 -0.3792 -0.1983 -0.5056
 6223SOL    HW230132   0.907   4.140   8.383  2.3587 -1.3481 -2.4424
 6224SOL     OW30133   0.144   3.438   1.966 -0.3273 -0.1754 -0.2294
 6224SOL    HW130134   0.210   3.479   1.910  0.0604  0.9892  1.0591
 6224SOL    HW230135   0.194   3.413   2.044 -0.8475  4.2879  1.5192
 6225SOL     OW30136   3.002   4.124  11.517 -0.5825 -0.3273  0.3406
 6225SOL    HW130137   2.986   4.219  11.515  2.3680  0.1811  1.6927
 6225SOL    HW230138   2.922   4.094  11.474 -0.9719  0.5160  0.4710
 6226SOL     OW30139   4.317   4.585   9.101  0.1931  0.2688 -0.3571
 6226SOL    HW130140   4.403   4.564   9.066 -0.4443 -2.2464 -0.4075
 6226SOL    HW230141   4.258   4.560   9.030 -0.5001  4.1910 -1.1712
 6227SOL     OW30142   0.830   0.653   4.416  0.7418  0.4068 -0.3793
 6227SOL    HW130143   0.760   0.599   4.452  1.0593  0.4244  0.2825
 6227SOL    HW230144   0.782   0.704   4.351  0.7869 -1.6521 -2.0310
 6228SOL     OW30145   0.592   1.645   1.390  0.0098  0.2026 -0.1137
 6228SOL    HW130146   0.659   1.679   1.331  0.8130 -0.6302  0.3291
 6228SOL    HW230147   0.541   1.726   1.391 -1.0555 -0.4247 -3.2100
 6229SOL     OW30148   4.536   1.452   8.482 -0.1143 -0.2883 -0.0156
 6229SOL    HW130149   4.595   1.527   8.485 -1.2270  0.5042  2.0194
 6229SOL    HW230150   4.592   1.387   8.438  1.2450 -0.6972  2.3412
 6230SOL     OW30151   0.449   2.059   4.920  0.4195 -0.0422  0.5523
 6230SOL    HW130152   0.371   2.020   4.959  0.0438 -1.5157 -1.6718
 6230SOL    HW230153   0.421   2.071   4.829 -0.4761 -0.4431  0.7809
 6231SOL     OW30154   4.074   0.380   5.826 -0.1191  0.0212  0.2212
 6231SOL    HW130155   4.107   0.459   5.871  0.6355  0.3822 -0.9796
 6231SOL    HW230156   4.036   0.423   5.749  3.7460 -1.0591 -2.2952
 6232SOL     OW30157   0.440   3.563   4.828 -0.3686 -0.1169 -0.4277
 6232SOL    HW130158   0.369   3.616   4.791 -1.4887 -1.3542 -0.0716
 6232SOL    HW230159   0.512   3.607   4.782  0.6430 -0.1864  1.1013
 6233SOL     OW30160   3.809   1.348   5.171 -0.3030  0.2910 -0.1364
 6233SOL    HW130161   3.732   1.318   5.122 -0.8843 -0.0444  0.9841
 6233SOL    HW230162   3.837   1.262   5.205  1.0731  0.3189 -1.1972
 6234SOL     OW30163   3.671   1.369   3.505  0.0251 -0.0888  0.2089
 6234SOL    HW130164   3.638   1.409   3.586  0.7682  1.4169 -0.2517
 6234SOL    HW230165   3.624   1.286   3.516 -1.1964  0.4990 -0.6178
 6235SOL     OW30166   1.047   0.482   2.806  0.2548 -0.2142 -0.2013
 6235SOL    HW130167   1.110   0.463   2.875 -1.2280  1.1994  1.5243
 6235SOL    HW230168   1.026   0.571   2.834  1.0914 -0.1952  0.3585
 6236SOL     OW30169   3.699   0.917   8.197 -0.1629  0.0787  0.0682
 6236SOL    HW130170   3.656   0.975   8.259  0.3250 -0.1110  0.5819
 6236SOL    HW230171   3.741   0.866   8.266  0.7788 -0.1996 -0.7094
 6237SOL     OW30172   2.754   1.686   0.064  0.5529 -0.2933 -0.0439
 6237SOL    HW130173   2.759   1.600   0.023  0.6451  0.4039 -1.4799
 6237SOL    HW230174   2.812   1.730   0.003  0.7075  0.1620  0.4270
 6238SOL     OW30175   1.073   0.889   8.435  0.8573  0.6417 -0.3286
 6238SOL    HW130176   1.029   0.971   8.458 -2.3434 -2.0442  3.0080
 6238SOL    HW230177   1.002   0.830   8.412  0.6542  1.0914 -0.8526
 6239SOL     OW30178   0.542   3.242   5.197 -0.0655 -0.4429  0.3287
 6239SOL    HW130179   0.475   3.177   5.175 -1.6335  1.1846  0.3679
 6239SOL    HW230180   0.501   3.301   5.260  2.5487  0.9442  0.7170
 6240SOL     OW30181   4.424   1.016   3.929  0.1908 -1.1468  0.1695
 6240SOL    HW130182   4.373   1.069   3.868  1.0046  0.6659  1.0567
 6240SOL    HW230183   4.428   0.928   3.891 -1.7993 -2.0217  1.9115
 6241SOL     OW30184   1.885   3.627   3.497  0.0916 -0.0858  0.1011
 6241SOL    HW130185   1.932   3.547   3.477 -0.6079 -0.1433 -1.3022
 6241SOL    HW230186   1.934   3.686   3.440  1.9428 -1.1343  0.6149
 6242SOL     OW30187   0.011   2.038  10.833 -0.7995 -0.0525 -0.4552
 6242SOL    HW130188   0.025   2.099  10.906 -0.0495  0.7288 -1.2508
 6242SOL    HW230189   0.036   2.086  10.754  1.6200 -1.4281 -0.5320
 6243SOL     OW30190   0.870   2.665   5.118 -0.1521  0.2778  0.3982
 6243SOL    HW130191   0.836   2.737   5.170 -2.3318 -1.3642  1.2336
 6243SOL    HW230192   0.955   2.704   5.099 -0.6941  1.8231  1.1864
 6244SOL     OW30193   3.081   3.881   9.932 -0.0405 -0.2304 -0.0613
 6244SOL    HW130194   2.997   3.847   9.900  0.5650 -0.7545 -1.1018
 6244SOL    HW230195   3.141   3.823   9.885 -1.5896 -1.3981 -0.6326
 6245SOL     OW30196   0.640   2.776   9.543 -1.2188  0.1798 -0.2402
 6245SOL    HW130197   0.713   2.778   9.605 -1.8492 -0.0626  0.5164
 6245SOL    HW230198   0.579   2.723   9.594 -1.9911  0.7851 -0.5395
 6246SOL     OW30199   1.092   3.943   5.034 -0.2208  0.1418 -0.4409
 6246SOL    HW130200   1.049   3.893   5.103  1.6748  1.1567  1.4911
 6246SOL    HW230201   1.161   3.980   5.089 -1.3664 -1.2213  1.9029
 6247SOL     OW30202   1.574   3.838   6.520  0.2637  0.0632  0.1167
 6247SOL    HW130203   1.514   3.912   6.518  0.9495  0.6641  1.8635
 6247SOL    HW230204   1.535   3.776   6.459 -2.8907 -0.1014  2.2909
 6248SOL     OW30205   2.353   4.495   5.003  0.0583  0.4135 -0.0755
 6248SOL    HW130206   2.284   4.445   5.047  0.3286 -0.1494 -0.2874
 6248SOL    HW230207   2.420   4.427   5.005 -0.4493 -0.1631 -2.2614
 6249SOL     OW30208   3.953   0.682   7.779  0.0617 -0.2197 -0.0584
 6249SOL    HW130209   3.920   0.593   7.770  2.2701 -1.1924  1.2515
 6249SOL    HW230210   3.980   0.698   7.689 -2.3540  2.5516 -0.2763
 6250SOL     OW30211   1.238   2.671   5.266  0.5429 -0.2165 -0.3760
 6250SOL    HW130212   1.248   2.643   5.175 -0.5565 -1.1444 -0.2109
 6250SOL    HW230213   1.159   2.723   5.253  1.5930  0.7818 -2.7456
 6251SOL     OW30214   0.964   3.568   1.666  0.3711  0.0385 -0.0144
 6251SOL    HW130215   0.968   3.661   1.644  1.7926  0.9580  4.2195
 6251SOL    HW230216   0.888   3.555   1.609  0.2501  0.0278  0.1488
 6252SOL     OW30217   0.380   4.685   4.598  0.1512 -0.1190  0.5214
 6252SOL    HW130218   0.356   4.611   4.542  2.1258  0.3423 -0.9162
 6252SOL    HW230219   0.418   0.019   4.533 -1.2071 -1.6976 -1.7128
 6253SOL     OW30220   4.232   1.127   5.445 -0.2417 -0.9969 -0.3207
 6253SOL    HW130221   4.309   1.072   5.460  0.4547 -0.6597 -2.5586
 6253SOL    HW230222   4.276   1.211   5.454 -1.2820 -0.5580  0.6955
 6254SOL     OW30223   1.379   0.292   1.518  0.6465  0.2373  0.4135
 6254SOL    HW130224   1.382   0.373   1.467  1.4732 -1.0374 -1.5927
 6254SOL    HW230225   1.370   0.335   1.603  2.0375 -2.3837  1.8840
 6255SOL     OW30226   0.245   0.732   5.499 -1.1669  0.3016  0.2697
 6255SOL    HW130227   0.328   0.777   5.483 -1.0323  0.1604  0.5836
 6255SOL    HW230228   0.201   0.755   5.417 -0.4869 -1.0951 -0.5003
 6256SOL     OW30229   3.582   3.560   9.049  0.0945 -0.2429 -0.2619
 6256SOL    HW130230   3.648   3.619   9.012 -0.0333  0.4569  0.6289
 6256SOL    HW230231   3.644   3.505   9.097  0.3395 -0.3261 -0.6745
 6257SOL     OW30232   1.178   0.446   5.544 -0.3169  0.0290  0.2185
 6257SOL    HW130233   1.253   0.491   5.506 -0.8262  1.0741  0.4393
 6257SOL    HW230234   1.217   0.393   5.614 -0.0344  0.7047  0.5759
 6258SOL     OW30235   2.804   4.637   3.886 -0.5235 -0.4954  0.0197
 6258SOL    HW130236   2.807   4.617   3.792 -1.1143 -0.6303  0.0317
 6258SOL    HW230237   2.815   0.005   3.866  1.6196 -0.0081  3.5055
 6259SOL     OW30238   2.056   3.803   3.357  0.2718  0.0147  0.3396
 6259SOL    HW130239   2.101   3.859   3.420  1.0759 -1.2105  0.8407
 6259SOL    HW230240   2.072   3.838   3.269  0.6140  0.8454  0.7311
 6260SOL     OW30241   1.577   1.625  10.336  0.6764  0.4625  0.2600
 6260SOL    HW130242   1.668   1.634  10.362  0.9457 -0.4885 -0.3423
 6260SOL    HW230243   1.570   1.532  10.312 -1.6733  0.7527 -0.1598
 6261SOL     OW30244   4.567   2.287   4.641 -0.3936  0.2817 -0.7189
 6261SOL    HW130245   4.537   2.350   4.706 -0.2218  0.4336 -0.7858
 6261SOL    HW230246   4.584   2.350   4.570 -2.0599 -0.3449 -1.6836
 6262SOL     OW30247   1.106   0.856   6.604 -0.5241  0.4794  0.3364
 6262SOL    HW130248   1.067   0.845   6.518 -0.2901 -0.9795  0.4226
 6262SOL    HW230249   1.189   0.896   6.578 -2.1208  2.6291 -1.4179
 6263SOL     OW30250   0.354   0.137   8.854  0.2234  0.1209  0.0011
 6263SOL    HW130251   0.340   0.087   8.934 -0.3173 -1.4588 -1.0696
 6263SOL    HW230252   0.357   0.228   8.884 -0.1538 -0.2422  1.1228
 6264SOL     OW30253   3.977   1.662   3.819 -0.3316  0.4116 -0.0093
 6264SOL    HW130254   3.898   1.713   3.832  1.6129  3.5881 -0.7664
 6264SOL    HW230255   3.927   1.582   3.835  0.0130 -0.2616 -2.2785
 6265SOL     OW30256   0.384   1.420   8.616  0.1822 -0.6104  0.0044
 6265SOL    HW130257   0.422   1.374   8.690  0.7740 -0.6159 -0.3065
 6265SOL    HW230258   0.413   1.510   8.632  1.5851 -1.2774  1.1610
 6266SOL     OW30259   3.830   4.280   5.385 -0.4158 -0.2792 -0.0451
 6266SOL    HW130260   3.873   4.303   5.303 -2.3844 -0.5411 -1.1459
 6266SOL    HW230261   3.851   4.187   5.376 -2.1850 -0.5360 -1.4533
 6267SOL     OW30262   2.022   2.049   9.383 -0.4002 -0.3060 -0.5884
 6267SOL    HW130263   1.990   2.069   9.295 -3.0451  1.3485  0.7591
 6267SOL    HW230264   2.109   2.090   9.380 -1.3156  1.8407  2.3309
 6268SOL     OW30265   3.783   1.990   5.182  0.2235  0.3992 -0.5224
 6268SOL    HW130266   3.795   1.950   5.268  1.5249  1.0855 -0.3897
 6268SOL    HW230267   3.709   2.045   5.210 -0.2641 -2.1295  3.1697
 6269SOL     OW30268   1.475   0.074   4.206 -0.4898  0.2600 -0.3679
 6269SOL    HW130269   1.560   0.116   4.198  0.3387 -0.8265  2.7220
 6269SOL    HW230270   1.475   0.050   4.299  0.4212 -0.9870 -0.6884
 6270SOL     OW30271   2.948   4.523   8.038  0.4735  0.3211 -0.1896
 6270SOL    HW130272   2.896   4.577   7.979  2.3908  2.3746 -0.0150
 6270SOL    HW230273   2.945   4.579   8.115 -1.1939 -0.9387  0.6646
 6271SOL     OW30274   3.958   2.219  10.952  0.2838  0.4178  0.1285
 6271SOL    HW130275   4.053   2.210  10.943  0.0663 -1.9232  0.0768
 6271SOL    HW230276   3.947   2.314  10.949 -2.2052  0.0411 -1.7199
 6272SOL     OW30277   0.015   4.377   3.454 -0.2266 -0.4830 -0.5058
 6272SOL    HW130278   4.701   4.308   3.401  0.9204 -1.9038  0.5036
 6272SOL    HW230279   0.069   4.428   3.394 -1.4682  1.5267  0.0782
 6273SOL     OW30280   2.413   1.510   8.909  0.3638  0.9073 -0.1653
 6273SOL    HW130281   2.328   1.517   8.953  0.2307  0.0093 -0.2803
 6273SOL    HW230282   2.473   1.510   8.983 -0.6764 -0.1649  0.6823
 6274SOL     OW30283   1.227   2.415  12.145  0.2634  0.2464  0.1975
 6274SOL    HW130284   1.251   2.340  12.198  3.0993  0.3388 -0.9759
 6274SOL    HW230285   1.135   2.389  12.139  0.1925 -0.0341  2.7052
 6275SOL     OW30286   2.395   1.138   9.194 -0.0921 -0.0176  0.1526
 6275SOL    HW130287   2.308   1.105   9.170  0.5806 -1.7483  0.1151
 6275SOL    HW230288   2.373   1.230   9.209  0.5347  0.4495 -1.7198
 6276SOL     OW30289   4.456   2.093   0.987  0.2316  0.3225 -0.6406
 6276SOL    HW130290   4.437   2.003   1.015  0.2446  0.5866  0.2197
 6276SOL    HW230291   4.375   2.116   0.941 -0.1229 -1.1749 -0.7800
 6277SOL     OW30292   3.773   0.015   4.225  0.3151  0.4381 -0.0869
 6277SOL    HW130293   3.730   0.023   4.140 -2.6788  1.9865  1.5682
 6277SOL    HW230294   3.832   0.090   4.222  0.3953  0.4730  2.1869
 6278SOL     OW30295   1.833   4.582   3.644  0.4260  0.4393 -0.3578
 6278SOL    HW130296   1.861   4.552   3.730  0.6715 -0.8775 -0.9026
 6278SOL    HW230297   1.886   4.530   3.583 -0.9398 -0.1495 -1.0280
 6279SOL     OW30298   0.886   4.427   2.242 -0.3517 -0.3682 -0.0495
 6279SOL    HW130299   0.893   4.521   2.259 -0.3145 -0.4834  0.5656
 6279SOL    HW230300   0.945   4.404   2.314  0.7875 -1.2786 -1.2859
 6280SOL     OW30301   2.364   0.061   6.475 -0.2815  0.1115  0.3305
 6280SOL    HW130302   2.268   0.065   6.476 -0.4238 -2.6946 -1.4325
 6280SOL    HW230303   2.376   0.156   6.485 -0.0664  0.1474 -0.2766
 6281SOL     OW30304   0.377   2.188  10.941 -0.2488  0.1450  0.5662
 6281SOL    HW130305   0.395   2.118  11.004 -1.2614  0.0289  0.7213
 6281SOL    HW230306   0.382   2.268  10.992 -0.1182  0.2303  0.4173
 6282SOL     OW30307   4.527   0.122   4.082 -0.7051 -0.1560 -0.0867
 6282SOL    HW130308   4.454   0.063   4.061  0.1854 -0.9765 -0.8779
 6282SOL    HW230309   4.583   0.109   4.005 -0.1395  2.1760 -0.0606
 6283SOL     OW30310   2.714   1.971   4.480 -0.3915 -0.1471 -0.3644
 6283SOL    HW130311   2.627   1.933   4.470  0.1123 -1.9142  1.9439
 6283SOL    HW230312   2.740   1.957   4.571 -1.5526  2.6331  0.3937
 6284SOL     OW30313   0.413   2.409   7.940 -0.3513  1.0161 -0.1719
 6284SOL    HW130314   0.346   2.390   8.005  0.5509 -0.5197  0.3067
 6284SOL    HW230315   0.356   2.413   7.863  1.6022 -1.3129 -1.7469
 6285SOL     OW30316   1.227   1.724  14.128 -0.1604  0.0254  0.2239
 6285SOL    HW130317   1.132   1.714  14.122 -0.2287  0.3411  0.8220
 6285SOL    HW230318   1.241   1.784  14.054  0.1611 -0.4881 -0.1310
 6286SOL     OW30319   0.859   4.321  10.981 -0.4335  0.4090 -0.2265
 6286SOL    HW130320   0.800   4.286  11.048 -0.3573  1.8355  0.6074
 6286SOL    HW230321   0.947   4.317  11.019 -0.3920 -1.2334 -0.5156
 6287SOL     OW30322   3.760   0.857   6.927  0.1487  0.6979 -0.1369
 6287SOL    HW130323   3.732   0.772   6.961  2.7287 -0.5427 -1.0319
 6287SOL    HW230324   3.703   0.864   6.851 -0.7863  0.1724  0.5179
 6288SOL     OW30325   1.940   3.164  10.220  0.1709  0.8262 -0.1226
 6288SOL    HW130326   1.855   3.121  10.230 -0.0303  1.0934 -0.6981
 6288SOL    HW230327   1.926   3.259  10.228 -0.7627  0.5809  1.1804
 6289SOL     OW30328   4.292   0.758   8.845  0.4791 -0.5067  0.1794
 6289SOL    HW130329   4.303   0.810   8.766  0.0981 -1.4109 -0.4648
 6289SOL    HW230330   4.380   0.726   8.865  0.2624 -2.3123 -1.8274
 6290SOL     OW30331   4.229   0.756  15.488  0.8136  0.8750 -0.4324
 6290SOL    HW130332   4.244   0.776  15.580 -2.5422 -0.1575  0.3367
 6290SOL    HW230333   4.289   0.684  15.469 -0.6866 -0.9098  1.6605
 6291SOL     OW30334   1.849   0.743   8.569 -0.3131  0.0269  0.0893
 6291SOL    HW130335   1.811   0.672   8.516 -0.7568 -1.6193  2.5965
 6291SOL    HW230336   1.802   0.715   8.648  0.4451  0.5143  0.7157
 6292SOL     OW30337   4.700   3.995   9.377 -0.1015 -0.1108 -0.0850
 6292SOL    HW130338   4.707   3.985   9.282 -0.5530  2.7980 -0.4133
 6292SOL    HW230339   4.712   3.903   9.399  0.1706 -0.5209 -1.9876
 6293SOL     OW30340   1.471   3.233   6.812  0.1310  0.0010 -0.2701
 6293SOL    HW130341   1.478   3.252   6.718  1.4661 -1.4455 -0.4659
 6293SOL    HW230342   1.433   3.312   6.850  1.9185  0.0613  1.4055
 6294SOL     OW30343   4.148   0.094   8.767  0.3553 -0.6110  0.8792
 6294SOL    HW130344   4.226   0.041   8.784  0.3347 -0.2157  2.2579
 6294SOL    HW230345   4.150   0.138   8.852  0.3900 -0.8862  1.0216
 6295SOL     OW30346   3.331   2.292   4.811 -0.2636  0.4180  0.4032
 6295SOL    HW130347   3.366   2.209   4.780  1.3665  1.2633  0.0129
 6295SOL    HW230348   3.242   2.280   4.778  0.1635  1.4145 -1.0721
 6296SOL     OW30349   4.341   4.421   4.433  0.0764  0.3978  0.3408
 6296SOL    HW130350   4.327   4.355   4.501 -0.9525 -1.0820 -1.3113
 6296SOL    HW230351   4.248   4.442   4.428 -0.1727 -0.9746 -0.7352
 6297SOL     OW30352   2.566   3.269   9.304 -0.3471 -0.4363 -0.4376
 6297SOL    HW130353   2.648   3.300   9.268  0.5789  0.2940  2.2775
 6297SOL    HW230354   2.562   3.336   9.373 -0.5877 -1.3317  0.4214
 6298SOL     OW30355   4.104   4.612  10.547 -0.2407 -0.4560  0.0964
 6298SOL    HW130356   4.048   4.656  10.611  1.9983  0.4454  1.4426
 6298SOL    HW230357   4.042   4.587  10.478 -1.0039 -1.6151  1.2158
 6299SOL     OW30358   2.776   2.619  13.376  0.5532  0.1816  0.0690
 6299SOL    HW130359   2.725   2.605  13.456  0.1782 -0.7465 -0.3340
 6299SOL    HW230360   2.708   2.650  13.317  1.2278  1.6816  0.0800
 6300SOL     OW30361   0.941   1.777   0.257 -0.3666 -0.2958  0.6664
 6300SOL    HW130362   0.858   1.820   0.239  1.0980  1.5557 -1.5452
 6300SOL    HW230363   0.990   1.858   0.266 -2.1750  1.0445 -1.5890
 6301SOL     OW30364   2.251   1.828  16.023 -0.2279 -0.0999 -0.1523
 6301SOL    HW130365   2.250   1.848  15.929  1.0179  1.0626  0.0677
 6301SOL    HW230366   2.335   1.782  16.024 -0.4491 -0.5481 -1.9790
 6302SOL     OW30367   0.857   3.973   0.614 -0.4593  0.7768 -0.2004
 6302SOL    HW130368   0.841   3.880   0.597  2.7709  0.3736 -0.9641
 6302SOL    HW230369   0.789   3.991   0.679 -0.9222 -0.9630 -0.2032
 6303SOL     OW30370   3.631   3.650   4.002  0.5294  0.1262  0.0251
 6303SOL    HW130371   3.571   3.604   4.061 -0.1709 -0.8818 -1.4482
 6303SOL    HW230372   3.673   3.581   3.951  1.7565  1.6528 -1.0328
 6304SOL     OW30373   1.458   3.401   0.757  0.8094 -0.3877 -0.0484
 6304SOL    HW130374   1.419   3.474   0.709  0.4986  0.1968  1.0704
 6304SOL    HW230375   1.484   3.339   0.689  1.2254 -1.6930  1.2983
 6305SOL     OW30376   1.641   4.474   7.679  0.6243 -0.3166  0.8716
 6305SOL    HW130377   1.609   4.420   7.751  0.3026 -0.4403  0.6399
 6305SOL    HW230378   1.637   4.410   7.608  0.0266  0.3266  0.3117
 6306SOL     OW30379   4.338   3.121   6.659 -0.0171 -0.0518 -0.1857
 6306SOL    HW130380   4.288   3.185   6.609  0.2134 -0.5458 -1.0412
 6306SOL    HW230381   4.364   3.167   6.739 -0.9448  0.3630 -0.1302
 6307SOL     OW30382   1.248   1.533   9.020  0.0250 -0.0082 -0.1913
 6307SOL    HW130383   1.171   1.573   9.059  0.5824  1.2048 -0.3309
 6307SOL    HW230384   1.289   1.608   8.976 -0.2236  0.9024  1.1284
 6308SOL     OW30385   3.523   3.834  12.977  0.0639 -0.1743 -0.7116
 6308SOL    HW130386   3.497   3.747  12.945  2.1792 -0.2251 -2.3133
 6308SOL    HW230387   3.519   3.816  13.071 -1.0116  2.6150 -0.2436
 6309SOL     OW30388   4.469   4.699   6.649  0.7135  0.8706 -0.1282
 6309SOL    HW130389   4.492   0.045   6.708 -2.4125  1.0324  0.8971
 6309SOL    HW230390   4.459   0.018   6.565 -0.9310 -0.9339 -0.8862
 6310SOL     OW30391   3.964   2.402   4.142  0.1679  0.0123 -0.8762
 6310SOL    HW130392   4.015   2.320   4.140 -1.0306 -0.7695  0.6771
 6310SOL    HW230393   3.954   2.412   4.047  0.8715 -0.6224 -1.0255
 6311SOL     OW30394   4.335   4.101   4.190  0.2149 -0.6529 -0.2109
 6311SOL    HW130395   4.286   4.060   4.262  0.7496  0.7888  0.9710
 6311SOL    HW230396   4.301   4.056   4.112  1.0080 -1.3321 -0.1641
 6312SOL     OW30397   1.774   4.537   0.170  0.6770  0.7772  0.3935
 6312SOL    HW130398   1.801   4.475   0.237  1.2254  0.2910 -0.2790
 6312SOL    HW230399   1.807   4.487   0.096  1.4877  0.1998  1.1457
 6313SOL     OW30400   3.342   2.384   4.295 -0.2127  0.5457  0.0193
 6313SOL    HW130401   3.378   2.411   4.210 -1.6556 -0.9818 -1.0829
 6313SOL    HW230402   3.264   2.437   4.283  0.5789  1.7562  0.1952
 6314SOL     OW30403   2.990   1.430   2.318 -0.3296  0.7036  0.0557
 6314SOL    HW130404   3.063   1.381   2.279 -0.0326  2.1994 -1.2569
 6314SOL    HW230405   3.043   1.490   2.371  0.6778  1.8078 -2.2085
 6315SOL     OW30406   1.213   4.301  12.154 -0.2464 -0.3599 -0.1317
 6315SOL    HW130407   1.240   4.250  12.230 -1.3424 -0.9891 -0.1608
 6315SOL    HW230408   1.155   4.363  12.199 -0.1358 -0.2718 -0.1093
 6316SOL     OW30409   0.174   0.624   8.649 -0.2238  0.0314 -0.1267
 6316SOL    HW130410   0.130   0.607   8.566  0.9095 -1.6142 -0.3937
 6316SOL    HW230411   0.124   0.693   8.693  0.3906 -0.8632  1.9936
 6317SOL     OW30412   3.369   1.381   3.081 -0.1684 -0.2859  0.0726
 6317SOL    HW130413   3.393   1.446   3.015 -0.3652  0.1614  0.4462
 6317SOL    HW230414   3.326   1.444   3.138 -0.4038  0.1113 -0.5403
 6318SOL     OW30415   4.277   2.710   2.602 -0.5164  0.3724  1.2352
 6318SOL    HW130416   4.367   2.709   2.570 -0.9988 -0.0467 -0.1186
 6318SOL    HW230417   4.246   2.644   2.539 -1.4937  1.4465  0.5774
 6319SOL     OW30418   0.829   3.782   5.558  0.0643  0.3065 -0.3300
 6319SOL    HW130419   0.907   3.831   5.583  1.0836 -1.4419 -0.1068
 6319SOL    HW230420   0.770   3.833   5.613 -0.0447  0.0740 -0.2344
 6320SOL     OW30421   3.818   0.453   7.700 -0.0704  0.1672 -0.1979
 6320SOL    HW130422   3.862   0.368   7.711  1.1506  0.8492  0.2950
 6320SOL    HW230423   3.747   0.453   7.764 -0.1963  2.9637 -0.3459
 6321SOL     OW30424   2.497   2.616   2.680  0.4420  0.6889  0.4221
 6321SOL    HW130425   2.435   2.623   2.753  1.1060  0.1409  1.0486
 6321SOL    HW230426   2.566   2.566   2.723  1.3775  1.1319 -0.5788
 6322SOL     OW30427   3.802   2.481   9.261 -0.6344 -0.4784 -0.0768
 6322SOL    HW130428   3.838   2.468   9.173  0.7019  0.9242  0.2785
 6322SOL    HW230429   3.739   2.553   9.256 -0.4847 -0.4294 -1.4341
 6323SOL     OW30430   4.632   1.892   6.471 -0.2086 -0.0673  1.4877
 6323SOL    HW130431   4.700   1.958   6.485 -0.1231 -0.0047  0.7687
 6323SOL    HW230432   4.611   1.873   6.563 -1.5711  0.0670  1.2036
 6324SOL     OW30433   0.490   2.510  13.196 -0.5215 -0.5188 -0.0307
 6324SOL    HW130434   0.397   2.489  13.181 -0.3225 -1.5812  0.2084
 6324SOL    HW230435   0.525   2.426  13.225 -0.6253 -0.3813  0.4837
 6325SOL     OW30436   1.364   4.445  16.084  0.3621  0.0400  0.0051
 6325SOL    HW130437   1.369   4.445  15.989 -2.1253  1.6698 -0.1450
 6325SOL    HW230438   1.284   4.393  16.097  0.7237 -0.2322  1.1742
 6326SOL     OW30439   1.714   3.209   0.526  0.1132 -0.0809 -0.1044
 6326SOL    HW130440   1.764   3.272   0.579 -1.5369 -0.0732  1.4008
 6326SOL    HW230441   1.649   3.264   0.482 -1.9255 -2.4013  0.0226
 6327SOL     OW30442   0.878   0.263   2.703  0.0172 -0.0145 -0.0393
 6327SOL    HW130443   0.849   0.327   2.638  2.3618  0.0919 -0.9778
 6327SOL    HW230444   0.939   0.317   2.754 -0.6309 -0.2007  0.9281
 6328SOL     OW30445   3.619   4.008   7.729  0.5787 -0.1259  0.2134
 6328SOL    HW130446   3.603   3.918   7.757 -0.5138  0.0664  0.2071
 6328SOL    HW230447   3.549   4.054   7.775  1.3621  0.6515  0.6247
 6329SOL     OW30448   1.697   0.827   2.258  0.0833 -0.0616 -0.5867
 6329SOL    HW130449   1.626   0.888   2.278  0.3960  0.1261 -0.0441
 6329SOL    HW230450   1.660   0.749   2.299 -0.3659 -0.0532 -0.9767
 6330SOL     OW30451   4.629   0.886  11.241 -0.0532 -0.2635 -0.4238
 6330SOL    HW130452   4.535   0.898  11.251  0.0625 -0.4348  0.9152
 6330SOL    HW230453   4.630   0.813  11.303 -1.2787 -0.4131 -0.5752
 6331SOL     OW30454   0.612   0.454  11.579  0.4140 -0.2686 -0.3318
 6331SOL    HW130455   0.608   0.549  11.591  0.8566 -0.5086  1.7354
 6331SOL    HW230456   0.523   0.421  11.568  0.0068  0.2161  1.4700
 6332SOL     OW30457   0.963   3.409  12.507 -0.5050  0.1707 -0.0042
 6332SOL    HW130458   0.946   3.417  12.413 -1.7580 -0.6800  0.1426
 6332SOL    HW230459   0.876   3.379  12.533  0.6092 -2.6735  0.4318
 6333SOL     OW30460   3.249   3.132  17.298  0.4624  0.0890  0.2369
 6333SOL    HW130461   3.161   3.095  17.305  0.6540 -0.8145 -2.1525
 6333SOL    HW230462   3.267   3.138  17.204 -0.5577  0.9724  0.0855
 6334SOL     OW30463   0.426   2.891  13.143  0.5628 -0.5458 -0.1920
 6334SOL    HW130464   0.420   2.832  13.068 -2.9097  0.8572 -0.9814
 6334SOL    HW230465   0.431   2.977  13.101  2.4565 -0.4054  0.2938
 6335SOL     OW30466   1.931   3.299   6.517 -0.4105  1.0108  0.0508
 6335SOL    HW130467   1.919   3.369   6.581  0.8900  0.5561  0.7934
 6335SOL    HW230468   1.952   3.223   6.572 -1.0383  1.4638  0.9107
 6336SOL     OW30469   4.378   4.664  10.516 -0.3765 -0.4275 -0.2051
 6336SOL    HW130470   4.293   4.620  10.513 -0.6016  0.0693 -1.2381
 6336SOL    HW230471   4.377   0.001  10.590  1.1997 -0.9940  0.2666
 6337SOL     OW30472   0.659   2.224   8.152  0.6518  0.4548 -0.0042
 6337SOL    HW130473   0.675   2.227   8.057  3.5672  0.7725  0.5029
 6337SOL    HW230474   0.569   2.192   8.150  0.8153  0.0545 -1.1581
 6338SOL     OW30475   4.182   0.007   5.646  0.6708  0.0026  0.3746
 6338SOL    HW130476   4.155   0.070   5.579 -0.5719 -1.5227 -0.5221
 6338SOL    HW230477   4.179   0.065   5.723  0.5706  0.2403  0.1932
 6339SOL     OW30478   1.386   0.732   7.434  0.6446  0.1621  0.4566
 6339SOL    HW130479   1.356   0.651   7.391  1.9180  1.1097 -2.2281
 6339SOL    HW230480   1.479   0.735   7.411  0.6689  0.6335  0.6218
 6340SOL     OW30481   0.176   0.595   8.273  0.3403  0.0212  0.6163
 6340SOL    HW130482   0.269   0.610   8.256  0.2399 -0.2298 -0.1634
 6340SOL    HW230483   0.150   0.648   8.197 -0.1705  0.0140  0.7836
 6341SOL     OW30484   3.376   2.420   2.687 -0.4211 -0.0160 -0.0106
 6341SOL    HW130485   3.302   2.445   2.742 -1.4858 -1.4655 -0.8205
 6341SOL    HW230486   3.426   2.502   2.683 -1.3793  0.6156  1.0739
 6342SOL     OW30487   0.519   2.552   1.478 -0.1489  0.2056  0.0166
 6342SOL    HW130488   0.475   2.512   1.554 -0.6788 -1.6336 -1.2540
 6342SOL    HW230489   0.603   2.577   1.516 -1.6627  4.3000  0.7083
 6343SOL     OW30490   3.884   3.185   3.292  0.1115  0.0055  0.0944
 6343SOL    HW130491   3.955   3.174   3.355  0.7017  1.6690 -0.3102
 6343SOL    HW230492   3.947   3.209   3.225  1.1635  2.0294  1.8123
 6344SOL     OW30493   0.182   0.769   8.062  0.4475  0.0501  0.3897
 6344SOL    HW130494   0.274   0.779   8.084 -0.1766 -0.2561  3.2278
 6344SOL    HW230495   0.182   0.748   7.969 -0.0166 -0.3936  0.4859
 6345SOL     OW30496   1.359   1.918   1.931 -0.3966  0.0956 -0.2562
 6345SOL    HW130497   1.272   1.937   1.894  0.2639  0.1060 -1.8191
 6345SOL    HW230498   1.411   1.963   1.865  0.5668 -0.3469  0.2142
 6346SOL     OW30499   1.391   2.400   6.878  0.3565 -0.1220  0.2609
 6346SOL    HW130500   1.368   2.463   6.810 -2.0236  0.4206  1.5737
 6346SOL    HW230501   1.303   2.394   6.915 -0.0982  0.8961 -0.6520
 6347SOL     OW30502   0.459   4.000   9.625 -0.1112 -0.2341  0.0753
 6347SOL    HW130503   0.547   3.993   9.588 -1.2383  1.3886 -2.9908
 6347SOL    HW230504   0.421   3.921   9.587 -1.6085  1.2330 -1.5066
 6348SOL     OW30505   1.185   3.144   7.005  0.3437  0.5213  0.0642
 6348SOL    HW130506   1.240   3.080   6.959 -0.7207 -0.0101 -0.4720
 6348SOL    HW230507   1.113   3.085   7.026  1.0209  0.1033  1.1915
 6349SOL     OW30508   1.156   0.320   2.620 -0.1231 -0.1303 -0.5053
 6349SOL    HW130509   1.065   0.297   2.602 -0.2880 -0.0179  0.2039
 6349SOL    HW230510   1.141   0.408   2.654  2.8736  0.0595  0.3774
 6350SOL     OW30511   3.154   0.514   9.628  0.2724 -0.5761 -0.4231
 6350SOL    HW130512   3.152   0.608   9.647 -2.1917 -0.2752 -2.2266
 6350SOL    HW230513   3.212   0.481   9.696 -0.6886  0.0967  0.7177
 6351SOL     OW30514   0.171   2.564   4.062 -0.6707  0.5668 -1.0004
 6351SOL    HW130515   0.246   2.609   4.101 -0.8234  1.4396 -1.7098
 6351SOL    HW230516   0.179   2.591   3.970 -0.7630  1.3751 -0.7692
 6352SOL     OW30517   1.530   3.415   7.066  0.2917  0.4593 -0.3402
 6352SOL    HW130518   1.522   3.499   7.020 -0.8952  0.4105 -0.2216
 6352SOL    HW230519   1.437   3.399   7.083  0.4158 -0.8200 -0.9196
 6353SOL     OW30520   2.622   2.543  10.255 -0.4479  0.4586  0.5138
 6353SOL    HW130521   2.533   2.511  10.238 -0.4940  2.4461 -3.0755
 6353SOL    HW230522   2.653   2.486  10.325 -0.4394 -0.9763 -0.6673
 6354SOL     OW30523   3.047   4.094  15.095 -0.6940  0.3384 -0.3567
 6354SOL    HW130524   2.969   4.078  15.043 -1.5957  4.1303 -0.1697
 6354SOL    HW230525   3.008   4.118  15.179  0.0033 -0.4458  0.1895
 6355SOL     OW30526   0.740   1.953   4.875  0.2252 -0.6101 -0.7989
 6355SOL    HW130527   0.802   1.886   4.904 -0.6984 -1.4902 -0.8255
 6355SOL    HW230528   0.730   2.003   4.956 -2.6396  2.9006 -3.3026
 6356SOL     OW30529   1.185   0.441   2.232  0.1652 -0.8222  0.1109
 6356SOL    HW130530   1.198   0.507   2.163  0.8875 -1.3920 -0.2987
 6356SOL    HW230531   1.272   0.402   2.241  1.2162  1.5822  0.1675
 6357SOL     OW30532   2.417   4.510   6.522 -0.2111 -0.1472  0.0838
 6357SOL    HW130533   2.406   4.603   6.502  1.0197 -0.5177 -2.2392
 6357SOL    HW230534   2.375   4.460   6.452 -0.5304 -0.9562  0.8524
 6358SOL     OW30535   1.773   1.640   3.900 -0.3070  0.4613 -0.1339
 6358SOL    HW130536   1.796   1.637   3.808  2.9850  1.3758  0.6558
 6358SOL    HW230537   1.849   1.682   3.941 -0.4023 -0.8426  1.4113
 6359SOL     OW30538   4.557   1.864   6.733 -0.2050 -0.6031 -0.7730
 6359SOL    HW130539   4.469   1.846   6.768  0.2526  0.3480  0.8808
 6359SOL    HW230540   4.595   1.915   6.805  1.2883 -0.9384 -1.3292
 6360SOL     OW30541   4.610   0.034  12.479  0.0415  0.2074 -0.2906
 6360SOL    HW130542   4.548   0.014  12.548 -0.8580 -1.2360 -1.5100
 6360SOL    HW230543   4.551   0.075  12.416  2.3874  2.9161 -0.7088
 6361SOL     OW30544   1.947   2.909   2.247 -0.2165  0.2608  0.2479
 6361SOL    HW130545   1.858   2.880   2.264  0.1851  0.0612  2.0375
 6361SOL    HW230546   1.930   2.999   2.217  0.5346  1.2846  2.8455
 6362SOL     OW30547   2.763   1.552   2.179 -0.4124  0.4492  0.0965
 6362SOL    HW130548   2.826   1.521   2.245  0.4919 -1.7856 -1.7882
 6362SOL    HW230549   2.829   1.591   2.121  0.2949 -1.1832 -0.2188
 6363SOL     OW30550   2.409   4.286   8.503 -0.0202 -0.1839 -0.0942
 6363SOL    HW130551   2.427   4.378   8.520  3.2011 -0.3496 -2.5368
 6363SOL    HW230552   2.420   4.247   8.590  0.7604 -1.0923 -0.5896
 6364SOL     OW30553   3.632   1.473  16.086  0.8214  0.4266 -0.1275
 6364SOL    HW130554   3.696   1.412  16.049 -0.9579 -1.0516 -0.7321
 6364SOL    HW230555   3.645   1.554  16.036  0.2317 -0.8652 -2.3804
 6365SOL     OW30556   3.598   1.412   5.606  0.6001 -0.5379  0.6417
 6365SOL    HW130557   3.583   1.507   5.605 -0.4498 -0.7186  0.1513
 6365SOL    HW230558   3.609   1.396   5.512 -0.8257  0.9909  0.2258
 6366SOL     OW30559   3.987   0.211   3.291  0.1402 -0.4391 -0.2492
 6366SOL    HW130560   4.028   0.292   3.261  0.6362 -0.3262  0.7141
 6366SOL    HW230561   3.910   0.210   3.235 -1.0456 -0.7704  1.3698
 6367SOL     OW30562   1.092   2.676  17.199  0.0618  0.0594  0.0573
 6367SOL    HW130563   1.028   2.633  17.255  0.6465 -0.5418  0.2715
 6367SOL    HW230564   1.063   2.647  17.113 -3.1533 -0.5079  1.3506
 6368SOL     OW30565   0.216   2.597  12.483  0.2781 -0.4118  0.1425
 6368SOL    HW130566   0.231   2.662  12.414  1.3967 -1.3128 -0.4618
 6368SOL    HW230567   0.289   2.539  12.461  1.1291  0.8320 -0.3208
 6369SOL     OW30568   2.880   3.990   8.839  0.3837 -0.7972  0.2787
 6369SOL    HW130569   2.873   3.924   8.909 -1.0603  0.7093  1.5612
 6369SOL    HW230570   2.899   4.067   8.893 -0.2383  0.3043 -1.0750
 6370SOL     OW30571   4.285   3.970  10.683  0.6384 -0.1807 -0.1520
 6370SOL    HW130572   4.333   3.920  10.617 -0.1522  0.3298 -1.1267
 6370SOL    HW230573   4.259   4.038  10.621 -1.2793 -0.8052 -0.0117
 6371SOL     OW30574   4.392   4.263   9.295 -0.0408 -0.5627 -0.0098
 6371SOL    HW130575   4.458   4.323   9.330 -0.7999 -0.3843  1.1207
 6371SOL    HW230576   4.311   4.303   9.328  0.3089  0.3198 -0.2299
 6372SOL     OW30577   3.583   0.227   2.866 -0.2662 -0.2154  0.6434
 6372SOL    HW130578   3.528   0.223   2.944 -0.6008  2.0022  0.5168
 6372SOL    HW230579   3.610   0.319   2.871  0.1345 -0.1912 -2.0066
 6373SOL     OW30580   4.176   1.124   6.561  0.2977 -0.4596  0.4590
 6373SOL    HW130581   4.228   1.200   6.585  2.7741 -2.1695  0.6056
 6373SOL    HW230582   4.174   1.138   6.466  0.7611  2.3862  0.8821
 6374SOL     OW30583   1.301   1.388   6.364 -0.0686  0.3083 -0.1551
 6374SOL    HW130584   1.358   1.347   6.299  0.2136 -1.3806  1.1522
 6374SOL    HW230585   1.253   1.453   6.313 -0.1096 -1.1224 -1.9411
 6375SOL     OW30586   3.603   2.204  12.858  0.0503 -0.0820 -0.4380
 6375SOL    HW130587   3.536   2.272  12.857  0.7276  0.6263  1.8545
 6375SOL    HW230588   3.613   2.208  12.953 -0.2171 -2.3586 -0.3157
 6376SOL     OW30589   3.450   2.669   8.027  0.2883  0.3682 -0.5307
 6376SOL    HW130590   3.506   2.628   7.961  1.0655  3.1364 -1.5959
 6376SOL    HW230591   3.474   2.614   8.102  0.3671  2.6402  1.0966
 6377SOL     OW30592   0.861   4.339   3.400  0.0560 -0.8079  0.1108
 6377SOL    HW130593   0.845   4.406   3.466  0.7082  1.0136 -1.5891
 6377SOL    HW230594   0.941   4.379   3.366 -0.9143  0.7722 -0.2795
 6378SOL     OW30595   1.474   0.817   2.559 -0.3939  0.2037 -0.3184
 6378SOL    HW130596   1.466   0.845   2.468 -0.2463 -0.6689 -0.6014
 6378SOL    HW230597   1.468   0.901   2.605 -2.1748  0.6476 -1.3617
 6379SOL     OW30598   3.819   1.418   9.530 -0.6514 -0.1036  0.3776
 6379SOL    HW130599   3.778   1.488   9.580 -1.8554 -0.7670  0.3245
 6379SOL    HW230600   3.868   1.468   9.465  1.0266 -0.0142  1.7097
 6380SOL     OW30601   1.694   1.933   9.249  0.7563  0.3071 -0.5088
 6380SOL    HW130602   1.672   1.843   9.272  1.5815  0.4351  0.7256
 6380SOL    HW230603   1.664   1.981   9.326 -1.8410  1.0637 -1.9913
 6381SOL     OW30604   2.630   3.218  11.661 -0.2442 -0.5260  0.1028
 6381SOL    HW130605   2.593   3.291  11.612 -0.6187 -1.4006 -0.9378
 6381SOL    HW230606   2.573   3.217  11.737 -1.4760  3.3105 -0.7674
 6382SOL     OW30607   0.678   1.124   2.824 -0.6650 -0.1804 -0.1142
 6382SOL    HW130608   0.746   1.108   2.890  0.6364  2.8280 -0.7442
 6382SOL    HW230609   0.695   1.217   2.812  0.2801 -0.6634 -2.3907
 6383SOL     OW30610   1.251   0.143   7.401  0.3161 -0.0241 -0.1247
 6383SOL    HW130611   1.230   0.091   7.479 -2.2370  0.6955 -0.3240
 6383SOL    HW230612   1.268   0.232   7.433  0.8343 -0.1237 -0.1162
 6384SOL     OW30613   4.473   1.136   7.851  0.0979 -0.3450 -0.2279
 6384SOL    HW130614   4.443   1.051   7.816 -1.9397  1.0952 -2.0145
 6384SOL    HW230615   4.429   1.186   7.782  0.8148  0.5442 -0.0281
 6385SOL     OW30616   2.106   1.592   5.193 -0.4386 -0.7009 -0.0716
 6385SOL    HW130617   2.061   1.543   5.124 -0.2950 -0.5017 -0.3035
 6385SOL    HW230618   2.127   1.522   5.256 -0.4131 -0.7592 -0.1448
 6386SOL     OW30619   3.506   2.939   8.327  0.6778  0.2570  0.5440
 6386SOL    HW130620   3.536   2.859   8.371  0.9218  0.4534  0.7346
 6386SOL    HW230621   3.422   2.918   8.287  1.2597 -0.7505 -0.1319
 6387SOL     OW30622   0.908   4.563   8.066  0.1954 -0.4666  0.6371
 6387SOL    HW130623   0.879   4.586   8.155 -0.1468  1.0163  0.1434
 6387SOL    HW230624   0.991   4.610   8.059 -0.6115  0.9832  0.6694
 6388SOL     OW30625   0.971   3.595  10.730  0.3668  0.1966  0.0337
 6388SOL    HW130626   1.016   3.551  10.802 -1.5411 -2.1553 -0.2189
 6388SOL    HW230627   0.889   3.547  10.742  1.1652 -1.5835 -1.6359
 6389SOL     OW30628   4.028   2.402  12.013 -0.2755 -0.3536 -0.0671
 6389SOL    HW130629   4.105   2.370  12.059 -1.6350 -1.2075  1.6035
 6389SOL    HW230630   4.022   2.497  12.015  0.3834 -0.2634 -2.1693
 6390SOL     OW30631   3.599   2.686  11.841 -0.3450 -0.1912  0.1245
 6390SOL    HW130632   3.540   2.692  11.766 -1.1650  1.8750  0.9093
 6390SOL    HW230633   3.551   2.631  11.902  0.7603  0.3423  1.4886
 6391SOL     OW30634   0.045   4.124   6.496 -0.3055 -0.1639  0.0339
 6391SOL    HW130635   0.124   4.133   6.548 -0.4511  0.0828  0.2131
 6391SOL    HW230636   4.717   4.066   6.551  0.3536 -2.2477 -1.5505
 6392SOL     OW30637   3.121   1.231  14.838 -0.3916 -0.0557  0.7404
 6392SOL    HW130638   3.142   1.161  14.900  3.4515 -0.2550 -0.7955
 6392SOL    HW230639   3.200   1.247  14.787 -0.4069  1.7533  1.2679
 6393SOL     OW30640   4.038   1.512   4.260 -0.3250 -0.2204  0.2755
 6393SOL    HW130641   4.048   1.499   4.354 -1.8642  0.1520  0.4878
 6393SOL    HW230642   3.946   1.493   4.243 -0.4213 -0.5233  1.1356
 6394SOL     OW30643   1.996   1.199   5.147 -0.1524  0.0379  0.1656
 6394SOL    HW130644   1.947   1.122   5.119 -0.8600  0.2124  0.9029
 6394SOL    HW230645   1.932   1.221   5.214  0.3635 -0.2837  0.7536
 6395SOL     OW30646   3.054   1.627   3.521  0.4073  0.4894  0.2689
 6395SOL    HW130647   2.998   1.689   3.475 -0.3026  2.1031  3.2857
 6395SOL    HW230648   3.032   1.652   3.611  0.6349  2.1690 -0.1488
 6396SOL     OW30649   1.966   3.798   5.102 -0.2594 -0.4492 -0.3672
 6396SOL    HW130650   1.966   3.848   5.020  1.1685  0.8066  0.4019
 6396SOL    HW230651   2.028   3.844   5.158 -0.2504 -0.7256 -0.1529
 6397SOL     OW30652   2.252   3.307   0.791 -0.1246  0.0614  0.0953
 6397SOL    HW130653   2.260   3.296   0.696  1.3154  2.4255 -0.0546
 6397SOL    HW230654   2.169   3.261   0.804  0.0203  0.0662  1.0305
 6398SOL     OW30655   3.703   3.085   2.709 -0.0759 -0.0355 -0.0694
 6398SOL    HW130656   3.751   3.165   2.688  0.7266 -0.8066 -1.1910
 6398SOL    HW230657   3.726   3.039   2.628 -0.3199  2.2416 -1.4367
 6399SOL     OW30658   0.651   1.372   4.434  0.8581  0.6072  0.0076
 6399SOL    HW130659   0.624   1.438   4.499 -1.5417  1.6125 -1.9953
 6399SOL    HW230660   0.657   1.296   4.492  1.5107  0.0816 -0.7636
 6400SOL     OW30661   2.923   4.298   8.710  0.1238  0.3219 -0.1412
 6400SOL    HW130662   2.944   4.322   8.800 -0.0366  1.6153 -0.4437
 6400SOL    HW230663   3.006   4.254   8.694 -0.4091 -1.3385  1.6232
 6401SOL     OW30664   3.899   3.582   3.007  0.0955 -0.2065 -0.9861
 6401SOL    HW130665   3.918   3.561   2.915  0.5956 -2.2726 -0.3995
 6401SOL    HW230666   3.850   3.511   3.047 -0.5478  1.4707  1.2034
 6402SOL     OW30667   2.414   2.742   9.772 -0.2858 -0.3312 -0.5332
 6402SOL    HW130668   2.363   2.823   9.770  0.7838  0.2958 -2.7310
 6402SOL    HW230669   2.498   2.777   9.801 -0.5000 -0.3950  0.1661
 6403SOL     OW30670   0.299   4.690   3.372  0.2350 -0.1598 -0.3181
 6403SOL    HW130671   0.224   4.692   3.312  0.8472  0.1199 -1.0677
 6403SOL    HW230672   0.364   0.017   3.324  0.0164 -0.5942 -1.0934
 6404SOL     OW30673   3.642   0.985   2.765 -0.3388 -0.1606  0.1726
 6404SOL    HW130674   3.568   0.943   2.810 -0.3253 -1.1514 -0.7291
 6404SOL    HW230675   3.711   0.920   2.779  0.0031  0.5706  1.8119
 6405SOL     OW30676   0.363   1.016   5.551  0.0201  0.3800  0.1017
 6405SOL    HW130677   0.426   0.982   5.487  0.0962  0.1228  0.3123
 6405SOL    HW230678   0.358   1.108   5.523 -1.6271 -0.2466 -1.6587
 6406SOL     OW30679   3.110   1.195   2.586  0.4460  0.2101 -0.6807
 6406SOL    HW130680   3.169   1.171   2.515 -1.0912  0.2984 -2.0055
 6406SOL    HW230681   3.171   1.258   2.622 -0.1656  0.9196 -0.8846
 6407SOL     OW30682   3.932   2.396  14.054  0.5006 -0.5134  0.3833
 6407SOL    HW130683   3.867   2.326  14.047  1.4957 -1.3633 -0.3058
 6407SOL    HW230684   3.926   2.421  14.146 -0.5909  1.8919 -0.3497
 6408SOL     OW30685   3.528   0.000  14.058 -0.4385  0.3211 -0.2856
 6408SOL    HW130686   3.610   4.694  14.096 -0.6342  0.3116  0.1288
 6408SOL    HW230687   3.526   0.089  14.094  2.1085 -0.1585  1.0925
 6409SOL     OW30688   2.589   1.303  13.954 -0.0870  0.1351 -0.3373
 6409SOL    HW130689   2.524   1.232  13.947  1.1026 -0.9706 -0.1713
 6409SOL    HW230690   2.643   1.288  13.876  1.6401  0.2786  0.8330
 6410SOL     OW30691   1.925   0.456   3.889 -0.3488 -0.2708 -0.2840
 6410SOL    HW130692   1.842   0.410   3.898  1.0016 -2.5215  0.8500
 6410SOL    HW230693   1.953   0.415   3.807  0.6205  1.4819 -0.8158
 6411SOL     OW30694   0.497   3.299   2.613  0.3086 -0.3053 -0.2959
 6411SOL    HW130695   0.545   3.382   2.607 -0.1846  0.0685  0.9133
 6411SOL    HW230696   0.531   3.271   2.698 -0.5762 -0.3855  0.0241
 6412SOL     OW30697   0.358   3.444   4.132  0.1215  0.5590  0.0738
 6412SOL    HW130698   0.268   3.416   4.114 -0.5104  1.7161  1.3802
 6412SOL    HW230699   0.356   3.484   4.219  1.3591 -0.3283  0.5075
 6413SOL     OW30700   4.104   3.402  15.280 -1.3162 -0.3024  0.0350
 6413SOL    HW130701   4.026   3.347  15.273 -1.0421 -0.9125  2.0102
 6413SOL    HW230702   4.100   3.428  15.372  2.0972  0.0497  0.1042
 6414SOL     OW30703   2.132   0.673   8.519  0.2640 -0.0947  0.0697
 6414SOL    HW130704   2.037   0.688   8.521 -0.0802 -2.4164  0.2478
 6414SOL    HW230705   2.155   0.622   8.596  1.1639  3.1609  1.9557
 6415SOL     OW30706   3.888   4.685   8.376  0.0122  0.2204 -0.2071
 6415SOL    HW130707   3.842   4.693   8.293 -0.8922  1.6466  0.4318
 6415SOL    HW230708   3.820   4.638   8.425 -1.8004  3.3601  0.2637
 6416SOL     OW30709   2.461   1.654   5.688  0.2341  0.3382  0.0510
 6416SOL    HW130710   2.455   1.569   5.643 -0.4004  1.0159 -1.1322
 6416SOL    HW230711   2.402   1.640   5.761  0.2100 -0.1840 -0.0620
 6417SOL     OW30712   1.336   1.399   8.462  0.0551  0.2481 -0.6575
 6417SOL    HW130713   1.289   1.469   8.507 -0.4722  0.1421 -1.0461
 6417SOL    HW230714   1.281   1.377   8.387  0.2495  0.5718 -0.8937
 6418SOL     OW30715   2.220   3.545   7.406 -0.6685 -0.1160  0.5592
 6418SOL    HW130716   2.281   3.619   7.407 -0.1375 -0.5506 -0.3798
 6418SOL    HW230717   2.205   3.542   7.312 -0.7435  0.7124  0.5393
 6419SOL     OW30718   3.157   3.520   2.247  0.1397 -0.1958 -0.0795
 6419SOL    HW130719   3.134   3.540   2.157 -1.1760 -2.4411 -0.2566
 6419SOL    HW230720   3.109   3.441   2.271  2.2415 -0.9361  1.6936
 6420SOL     OW30721   2.365   2.082   3.007 -0.6329  0.0211  0.2857
 6420SOL    HW130722   2.433   2.104   2.943  0.1459 -2.8598  0.1277
 6420SOL    HW230723   2.316   2.165   3.002 -1.5213 -0.3430  2.7855
 6421SOL     OW30724   4.358   0.234   7.466  0.2404  0.7634 -0.2135
 6421SOL    HW130725   4.433   0.202   7.416  0.5188  4.2200 -2.0267
 6421SOL    HW230726   4.397   0.320   7.485 -0.7666  1.2684 -0.4174
 6422SOL     OW30727   0.311   3.947   3.585  0.3552 -0.2006  0.1954
 6422SOL    HW130728   0.305   3.931   3.679 -1.1881 -0.5905  0.0241
 6422SOL    HW230729   0.272   4.034   3.577 -1.1143 -0.8841 -0.0114
 6423SOL     OW30730   1.942   4.163  12.841  0.2755 -0.2438 -0.1239
 6423SOL    HW130731   2.001   4.187  12.770  0.6319 -1.6963 -0.3163
 6423SOL    HW230732   1.882   4.112  12.787 -1.0181  0.9974  0.1444
 6424SOL     OW30733   3.867   4.314   7.259 -0.9380  0.2877  0.0824
 6424SOL    HW130734   3.899   4.236   7.304 -2.0269 -0.5003 -0.5223
 6424SOL    HW230735   3.891   4.376   7.327  1.1824 -0.6665  0.2073
 6425SOL     OW30736   3.963   1.431   8.499 -0.0443 -0.2112 -0.0745
 6425SOL    HW130737   3.953   1.496   8.430 -1.8703 -0.1537  0.2496
 6425SOL    HW230738   3.999   1.477   8.575 -1.5673  0.3104  0.3258
 6426SOL     OW30739   1.180   0.630   1.383 -0.0326 -0.0001 -0.0281
 6426SOL    HW130740   1.155   0.615   1.292 -1.8587  0.6828  0.3663
 6426SOL    HW230741   1.269   0.594   1.374 -0.2194 -0.8315  1.4611
 6427SOL     OW30742   4.398   2.234   4.391  0.3736 -0.0822 -0.0362
 6427SOL    HW130743   4.459   2.299   4.358  0.2562  0.4039  0.7034
 6427SOL    HW230744   4.438   2.202   4.472  1.4378 -0.4851 -0.7248
 6428SOL     OW30745   0.869   2.283  16.851 -0.7621 -0.4643  0.1688
 6428SOL    HW130746   0.823   2.360  16.818  0.7941  0.6674  0.6379
 6428SOL    HW230747   0.959   2.305  16.824 -0.7821  0.1909  0.6493
 6429SOL     OW30748   3.308   2.218   5.578  0.1862  0.0946 -0.1340
 6429SOL    HW130749   3.217   2.236   5.557 -0.1884 -0.4221  1.0212
 6429SOL    HW230750   3.307   2.184   5.668 -0.9158  0.8439  0.1260
 6430SOL     OW30751   2.089   4.340  10.163  0.2563 -0.6240 -0.8466
 6430SOL    HW130752   2.008   4.308  10.203 -0.8225  1.4939 -1.3537
 6430SOL    HW230753   2.128   4.255  10.143  1.9542  0.1826 -0.9483
 6431SOL     OW30754   4.260   4.628   4.229  0.6561  0.0203  0.1979
 6431SOL    HW130755   4.295   4.657   4.144 -1.7688  2.2553 -0.0403
 6431SOL    HW230756   4.319   4.557   4.252  0.9961  0.6115  1.1612
 6432SOL     OW30757   4.661   3.980  10.446  0.3201  0.4182  0.0176
 6432SOL    HW130758   4.571   3.947  10.455  0.3827 -0.0132 -0.9661
 6432SOL    HW230759   4.659   4.054  10.507 -2.5996  0.4263 -0.0468
 6433SOL     OW30760   1.085   4.723   5.249 -0.1481  0.2634  0.1430
 6433SOL    HW130761   1.043   0.083   5.262  0.5922  0.7041 -0.3305
 6433SOL    HW230762   1.023   4.683   5.187  2.7270 -2.1527 -1.1869
 6434SOL     OW30763   2.609   2.524  13.993 -0.3452  0.0075 -1.0349
 6434SOL    HW130764   2.548   2.516  13.919 -2.3100 -0.6403  0.6527
 6434SOL    HW230765   2.635   2.434  14.011  3.0165  1.0306 -0.8047
 6435SOL     OW30766   3.132   1.017   4.627  0.0768 -0.1682 -0.4391
 6435SOL    HW130767   3.194   0.955   4.667 -0.1888 -0.8751 -1.1104
 6435SOL    HW230768   3.183   1.070   4.566  0.3081 -0.2678 -0.3348
 6436SOL     OW30769   0.326   0.142   7.627  0.5380  0.4788  0.8074
 6436SOL    HW130770   0.407   0.128   7.578 -0.1804  2.5052 -0.9627
 6436SOL    HW230771   0.300   0.229   7.596 -1.4140  0.1948  1.6332
 6437SOL     OW30772   1.185   1.000   8.863 -0.2437 -0.1488  0.6505
 6437SOL    HW130773   1.238   1.026   8.788  1.5017 -0.4944  1.7638
 6437SOL    HW230774   1.144   1.084   8.884  1.2445  0.6801  0.2691
 6438SOL     OW30775   1.748   4.008  17.604 -0.4750 -0.4042 -0.5174
 6438SOL    HW130776   1.718   4.093  17.573 -0.4716  1.2468  4.0514
 6438SOL    HW230777   1.842   4.019  17.591 -0.5211 -0.4452 -0.8764
 6439SOL     OW30778   4.636   1.426   3.679 -0.5447  0.2497 -0.0983
 6439SOL    HW130779   4.624   1.369   3.603  1.1608  0.8976 -0.8529
 6439SOL    HW230780   4.566   1.407   3.742 -1.1488 -1.3895 -1.2671
 6440SOL     OW30781   1.741   1.254   7.266 -0.1036 -0.1376  0.3338
 6440SOL    HW130782   1.794   1.318   7.219 -0.2000  0.8037  1.4920
 6440SOL    HW230783   1.674   1.312   7.301  0.9002  0.3520  1.4543
 6441SOL     OW30784   4.409   2.116   6.630  0.2672 -0.1696 -0.3449
 6441SOL    HW130785   4.355   2.091   6.555  0.0263  1.2323 -0.6381
 6441SOL    HW230786   4.450   2.032   6.647 -0.3683 -0.2882  0.6557
 6442SOL     OW30787   2.536   2.349  15.680 -0.1470 -0.0755  0.1781
 6442SOL    HW130788   2.546   2.379  15.770  0.3339  2.2991 -0.6482
 6442SOL    HW230789   2.563   2.431  15.638 -0.3304 -0.0298  0.1477
 6443SOL     OW30790   0.358   4.129  17.398 -0.7043  0.2888 -0.1499
 6443SOL    HW130791   0.293   4.065  17.368 -1.5839  1.4908 -0.7835
 6443SOL    HW230792   0.317   4.159  17.478 -0.4363 -0.3218  0.2189
 6444SOL     OW30793   2.126   1.203  16.675  0.1513  0.6223  0.0445
 6444SOL    HW130794   2.041   1.179  16.639  0.1738 -1.1873  1.1674
 6444SOL    HW230795   2.086   1.237  16.755  0.1688 -0.3812  0.4870
 6445SOL     OW30796   2.035   0.183   3.979  0.4073  0.1125  0.0301
 6445SOL    HW130797   1.994   0.102   3.950  0.3154  0.1140  0.1574
 6445SOL    HW230798   2.010   0.251   3.917 -1.3011  0.1582  0.7849
 6446SOL     OW30799   2.183   0.915   7.665  0.1267  0.1814  0.8317
 6446SOL    HW130800   2.153   0.909   7.574  0.0503 -0.2529  0.8825
 6446SOL    HW230801   2.156   1.004   7.685  0.1082 -0.0432  1.7835
 6447SOL     OW30802   4.636   3.183  12.983  0.4186 -0.3159 -0.2135
 6447SOL    HW130803   4.578   3.204  13.057  0.7706  1.5455 -0.4694
 6447SOL    HW230804   4.700   3.252  12.999 -0.6329  0.0430  2.4855
 6448SOL     OW30805   2.005   4.721   7.071  0.0421 -0.6210 -0.1351
 6448SOL    HW130806   2.031   4.652   7.132 -0.1034  1.1735  1.9849
 6448SOL    HW230807   2.078   0.058   7.064  0.0067 -0.5509  0.1132
 6449SOL     OW30808   2.474   3.153   8.783  0.1072 -0.2469  0.4713
 6449SOL    HW130809   2.472   3.070   8.831 -2.1407 -0.3740  0.1218
 6449SOL    HW230810   2.430   3.214   8.843 -0.3431  0.2688 -0.3901
 6450SOL     OW30811   3.195   3.312   5.513  0.2544  0.0802 -0.2645
 6450SOL    HW130812   3.164   3.279   5.429  1.3474 -0.8782 -0.2928
 6450SOL    HW230813   3.222   3.401   5.492  0.8475 -0.7166 -2.8083
 6451SOL     OW30814   1.001   1.265   2.724  0.1451  0.0391  0.0266
 6451SOL    HW130815   0.926   1.311   2.761  1.1523  0.7117  1.2165
 6451SOL    HW230816   0.956   1.239   2.644  1.1597  0.3260 -0.6359
 6452SOL     OW30817   3.595   3.436   1.893 -0.6586 -0.2612 -0.0542
 6452SOL    HW130818   3.507   3.398   1.893  0.0344 -1.8740 -3.5563
 6452SOL    HW230819   3.645   3.362   1.929  1.4153  2.1196  1.9179
 6453SOL     OW30820   1.958   1.888  11.850  0.3015  0.1726 -0.6520
 6453SOL    HW130821   1.895   1.816  11.850  0.7260 -0.2319  3.1174
 6453SOL    HW230822   1.951   1.916  11.941  3.0396 -3.9097  0.8368
 6454SOL     OW30823   1.294   2.911   2.012 -0.2390  0.3264  0.2701
 6454SOL    HW130824   1.266   2.943   1.927 -1.2247  1.4199  0.9949
 6454SOL    HW230825   1.206   2.898   2.049 -0.6009  1.9361 -0.0317
 6455SOL     OW30826   2.701   3.484   8.494  0.4353  0.9879  0.0016
 6455SOL    HW130827   2.754   3.419   8.540 -2.3845 -2.1218 -1.1442
 6455SOL    HW230828   2.627   3.507   8.551 -1.0685  0.9697 -1.9325
 6456SOL     OW30829   1.696   4.699   4.697  0.3064 -0.1575  0.0516
 6456SOL    HW130830   1.690   0.037   4.769 -1.3499  0.7221 -0.8540
 6456SOL    HW230831   1.725   4.618   4.738  1.3851 -0.7937 -1.9847
 6457SOL     OW30832   2.496   4.714  13.515  0.1887  0.6048  0.7202
 6457SOL    HW130833   2.448   0.030  13.586  1.2104  0.2294  1.6171
 6457SOL    HW230834   2.427   4.662  13.473  1.8233 -0.8470 -0.1800
 6458SOL     OW30835   2.733   1.258  13.740 -0.4287 -0.3764  0.0622
 6458SOL    HW130836   2.800   1.216  13.686  0.8177 -2.6282  3.3891
 6458SOL    HW230837   2.747   1.349  13.711  0.5770 -1.1083 -1.7445
 6459SOL     OW30838   0.797   3.881   7.394  0.2246  0.0761  0.1408
 6459SOL    HW130839   0.838   3.905   7.311  1.3115 -1.2484  0.2900
 6459SOL    HW230840   0.814   3.786   7.394 -1.1478 -0.1656  0.3421
 6460SOL     OW30841   3.876   4.088   5.682  0.2196  0.3463 -0.1751
 6460SOL    HW130842   3.962   4.128   5.695  0.9273 -0.2306 -2.9459
 6460SOL    HW230843   3.887   4.009   5.735 -1.4623  0.3440  0.1822
 6461SOL     OW30844   0.834   4.055   5.352  0.3385  0.4063 -0.4238
 6461SOL    HW130845   0.878   4.139   5.357  2.6664 -0.8939  1.2027
 6461SOL    HW230846   0.895   4.013   5.414 -0.6679 -1.0698 -0.4274
 6462SOL     OW30847   1.372   2.307   1.875 -0.1626  0.2072  0.5296
 6462SOL    HW130848   1.453   2.266   1.907  1.3983  2.6900 -0.1917
 6462SOL    HW230849   1.376   2.393   1.916 -0.7769 -0.0764  1.1852
 6463SOL     OW30850   1.096   4.315   8.163 -0.3798  0.1985 -0.2299
 6463SOL    HW130851   1.103   4.221   8.179 -0.4868  0.1683 -0.3578
 6463SOL    HW230852   1.016   4.324   8.214 -0.0827  0.6256  0.1618
 6464SOL     OW30853   0.124   0.359  17.021  0.0087  0.0954 -0.8549
 6464SOL    HW130854   0.111   0.265  17.035 -1.3739  0.2222 -1.1934
 6464SOL    HW230855   0.219   0.356  17.010  0.2987 -0.0901  1.7178
 6465SOL     OW30856   0.587   3.722  11.798  0.1117 -0.2180 -0.5709
 6465SOL    HW130857   0.549   3.704  11.712  0.7477 -0.2171 -0.8537
 6465SOL    HW230858   0.546   3.653  11.851  1.1165  0.6572  1.3354
 6466SOL     OW30859   2.224   0.284   5.431 -0.7183 -0.3210 -0.0681
 6466SOL    HW130860   2.303   0.233   5.411 -0.2216  0.4612 -0.1060
 6466SOL    HW230861   2.182   0.289   5.345  1.8410 -5.2703 -1.6495
 6467SOL     OW30862   4.289   1.630  13.888  0.7617  0.2429  0.0737
 6467SOL    HW130863   4.199   1.598  13.898  0.9545 -0.8285 -1.5473
 6467SOL    HW230864   4.337   1.548  13.900  0.0466 -0.3038 -0.7834
 6468SOL     OW30865   2.712   0.172   8.620  0.0315 -0.2714  0.5433
 6468SOL    HW130866   2.635   0.170   8.563  0.1951 -1.7539  0.3885
 6468SOL    HW230867   2.675   0.134   8.700  1.4046  1.1622  1.8691
 6469SOL     OW30868   0.690   0.738   5.429 -0.2800  0.3608 -0.2509
 6469SOL    HW130869   0.786   0.736   5.433 -0.2378  2.3597 -0.2733
 6469SOL    HW230870   0.669   0.644   5.429  2.1462 -0.1814 -3.4243
 6470SOL     OW30871   2.853   3.136   2.885 -0.1407  0.6759 -0.2891
 6470SOL    HW130872   2.935   3.175   2.917  0.9928 -2.1813  0.2772
 6470SOL    HW230873   2.879   3.148   2.794  0.4465 -0.7348 -0.3076
 6471SOL     OW30874   3.782   2.200   2.566 -0.3527  0.0288  0.6260
 6471SOL    HW130875   3.851   2.134   2.577 -0.4991 -0.6023 -2.0994
 6471SOL    HW230876   3.713   2.182   2.629 -1.7964 -1.7154 -1.4351
 6472SOL     OW30877   1.749   2.009   8.779 -0.3000  0.7056  0.2352
 6472SOL    HW130878   1.796   2.062   8.843  0.4027 -0.3813  0.5979
 6472SOL    HW230879   1.770   1.919   8.801  0.4738  0.6343 -0.7727
 6473SOL     OW30880   4.036   2.244   5.927 -0.3839  0.0407  0.3363
 6473SOL    HW130881   4.096   2.196   5.984 -0.1124  0.1302  0.1313
 6473SOL    HW230882   4.096   2.265   5.855  1.4151  0.6477  2.0127
 6474SOL     OW30883   1.070   1.604   2.784 -0.3242 -0.3573  0.0999
 6474SOL    HW130884   1.109   1.671   2.728 -3.1286  0.3640 -0.9989
 6474SOL    HW230885   1.125   1.530   2.758  0.2950  0.0806  0.1564
 6475SOL     OW30886   0.100   4.177   5.877  0.0628 -0.1577  0.3245
 6475SOL    HW130887   0.167   4.223   5.825  0.5335 -0.7245  0.4336
 6475SOL    HW230888   0.027   4.236   5.858 -1.1157 -1.5444  0.5840
 6476SOL     OW30889   3.847   3.403  15.916 -0.1464 -0.3671  0.2009
 6476SOL    HW130890   3.932   3.375  15.881  0.8249  3.3998 -0.4724
 6476SOL    HW230891   3.781   3.344  15.880 -0.6915  0.8621 -0.8137
 6477SOL     OW30892   1.680   2.377   7.247 -0.6752 -0.1943 -0.2957
 6477SOL    HW130893   1.621   2.361   7.173  0.0204 -1.3522 -0.5919
 6477SOL    HW230894   1.675   2.473   7.247  1.6774 -0.0705 -0.9649
 6478SOL     OW30895   2.866   2.789  14.512  0.5852 -0.0156 -0.0810
 6478SOL    HW130896   2.906   2.805  14.598 -0.3183  0.3002  0.2863
 6478SOL    HW230897   2.777   2.822  14.528 -0.3928 -2.0626 -1.3520
 6479SOL     OW30898   2.959   3.362   8.554 -0.8732  0.3411  0.0239
 6479SOL    HW130899   2.987   3.391   8.641  1.8250 -0.8090 -0.4318
 6479SOL    HW230900   2.966   3.443   8.503 -1.0366  0.0978 -0.3831
 6480SOL     OW30901   0.740   2.983   7.935 -0.0611  0.2944 -0.1518
 6480SOL    HW130902   0.827   2.966   7.898 -0.2199  0.0239 -0.3910
 6480SOL    HW230903   0.769   3.016   8.020 -0.1824  1.0170 -0.3905
 6481SOL     OW30904   3.871   0.099   3.527 -0.0374  0.1383 -0.5084
 6481SOL    HW130905   3.945   0.109   3.467 -0.6403 -2.4484 -1.6833
 6481SOL    HW230906   3.796   0.118   3.471  0.8204  1.5233 -1.1888
 6482SOL     OW30907   2.118   1.509   8.820  0.4450 -0.2877 -0.6464
 6482SOL    HW130908   2.062   1.442   8.781  1.1903 -1.7064  0.7275
 6482SOL    HW230909   2.160   1.461   8.891  0.4633  0.4546 -0.1619
 6483SOL     OW30910   4.028   2.597   1.237  0.6638  0.0206 -0.0870
 6483SOL    HW130911   3.947   2.550   1.214  0.1038  2.0168 -2.2120
 6483SOL    HW230912   4.061   2.555   1.316 -0.1207 -3.2713 -1.4695
 6484SOL     OW30913   0.290   0.296   4.136  0.6120 -0.6793 -0.6958
 6484SOL    HW130914   0.276   0.212   4.092 -0.4479 -1.0479  0.3513
 6484SOL    HW230915   0.196   0.311   4.145  1.0708  0.8633  1.3917
 6485SOL     OW30916   4.547   1.638   4.579  0.3770 -0.1823 -0.1934
 6485SOL    HW130917   4.548   1.630   4.674 -0.1300 -1.2875 -0.2803
 6485SOL    HW230918   4.602   1.716   4.570 -1.0934  0.8867  0.1199
 6486SOL     OW30919   4.673   4.008  12.640  0.4355 -0.1700  0.0624
 6486SOL    HW130920   4.680   3.954  12.718  1.5010  1.6353  1.2120
 6486SOL    HW230921   0.031   3.991  12.596 -0.6127 -0.1721 -1.9301
 6487SOL     OW30922   1.457   1.769   0.929  0.0945  1.1146 -0.4771
 6487SOL    HW130923   1.372   1.799   0.897  0.2388  1.4137 -0.5842
 6487SOL    HW230924   1.501   1.853   0.915  2.2483 -0.0981 -1.0828
 6488SOL     OW30925   0.682   4.603   8.892 -0.1723 -0.5643  0.3171
 6488SOL    HW130926   0.624   4.554   8.951  3.6075 -1.2980  3.4758
 6488SOL    HW230927   0.753   4.540   8.876  0.2206 -0.3874  1.3575
 6489SOL     OW30928   4.635   4.136   8.846 -0.2027 -0.4703 -0.0100
 6489SOL    HW130929   4.652   4.066   8.783  0.1942  1.2803 -1.8230
 6489SOL    HW230930   4.714   4.171   8.885  0.8601 -3.4051  0.4825
 6490SOL     OW30931   1.315   2.503   4.293  0.5626 -0.3941 -0.4997
 6490SOL    HW130932   1.394   2.551   4.317 -0.4823  0.7026  0.7776
 6490SOL    HW230933   1.281   2.501   4.383  0.2862  2.6864 -0.5144
 6491SOL     OW30934   3.445   0.097   6.154 -0.4818 -0.1458  0.0775
 6491SOL    HW130935   3.352   0.076   6.161 -0.7237  0.2621 -2.0270
 6491SOL    HW230936   3.445   0.151   6.075 -2.1924 -0.2146  0.0188
 6492SOL     OW30937   0.810   0.902   5.244 -0.0698  0.4300 -0.1870
 6492SOL    HW130938   0.833   0.824   5.194 -0.7002  2.3387 -3.4395
 6492SOL    HW230939   0.747   0.870   5.309 -1.5778  1.9850 -0.8858
 6493SOL     OW30940   1.807   1.265   4.620  0.0417  0.4781 -0.5403
 6493SOL    HW130941   1.756   1.288   4.542 -1.0219  1.7602  0.5320
 6493SOL    HW230942   1.768   1.179   4.637 -0.6214  0.9633  0.4009
 6494SOL     OW30943   1.659   4.214  13.272 -1.3352  0.6735  0.2361
 6494SOL    HW130944   1.752   4.236  13.269 -0.5645 -2.5368  0.5048
 6494SOL    HW230945   1.648   4.179  13.360  0.9674  0.3566  0.3777
 6495SOL     OW30946   0.638   4.144   2.509  0.0265  0.1510 -0.5258
 6495SOL    HW130947   0.705   4.117   2.571  0.7693 -1.7864 -2.1564
 6495SOL    HW230948   0.670   4.111   2.425 -0.8919  0.1646 -0.8830
 6496SOL     OW30949   3.916   2.083   3.838 -0.7658 -0.5854  1.3864
 6496SOL    HW130950   3.939   2.049   3.752  2.0550  1.5387  1.3321
 6496SOL    HW230951   4.004   2.091   3.876 -0.4671  2.0923  0.0951
 6497SOL     OW30952   2.162   3.587   9.800 -0.5539 -0.2815 -0.2674
 6497SOL    HW130953   2.190   3.621   9.885 -3.2177  0.0719  0.4703
 6497SOL    HW230954   2.069   3.561   9.798 -0.4601 -0.5627 -0.8425
 6498SOL     OW30955   4.429   1.643  10.925  0.1528  0.0991 -0.2423
 6498SOL    HW130956   4.410   1.622  10.834 -2.7390 -0.3713  0.4686
 6498SOL    HW230957   4.343   1.633  10.965 -0.6000  0.8170 -1.6961
 6499SOL     OW30958   4.722   4.343   1.103  0.4720 -0.3873 -0.5013
 6499SOL    HW130959   0.000   4.396   1.023  1.7397 -0.4424 -0.4927
 6499SOL    HW230960   0.042   4.401   1.164  2.0986 -3.1921  0.9576
 6500SOL     OW30961   3.609   2.425   7.368 -0.3011 -0.2444  0.1792
 6500SOL    HW130962   3.576   2.420   7.278  2.5445 -0.3804 -0.8467
 6500SOL    HW230963   3.646   2.513   7.374  1.0843 -0.8411  0.2076
 6501SOL     OW30964   0.551   1.552  13.868  0.1559  0.4385 -0.4168
 6501SOL    HW130965   0.637   1.525  13.903  0.4785  1.3569 -0.5019
 6501SOL    HW230966   0.578   1.598  13.789  3.0321  0.3585  0.5039
 6502SOL     OW30967   4.218   0.996   2.763  0.2862 -0.2486  0.1183
 6502SOL    HW130968   4.177   1.081   2.749  0.4472 -0.2208 -0.1789
 6502SOL    HW230969   4.143   0.938   2.766 -1.9014  2.5907 -0.1080
 6503SOL     OW30970   0.609   1.440  11.522 -0.2631  0.0817 -0.1667
 6503SOL    HW130971   0.687   1.495  11.519  1.2195 -1.9601  0.7736
 6503SOL    HW230972   0.588   1.453  11.614  1.2260 -1.4536  0.3938
 6504SOL     OW30973   3.925   3.895  14.959 -0.2093  0.5173  0.2985
 6504SOL    HW130974   3.885   3.928  15.039 -0.2838  1.1609 -0.0042
 6504SOL    HW230975   3.978   3.830  15.004  0.2504  1.5126  1.2029
 6505SOL     OW30976   0.986   0.529   8.597 -0.2989 -0.1715  0.2299
 6505SOL    HW130977   1.016   0.438   8.593  2.3253  0.5596  2.9611
 6505SOL    HW230978   1.069   0.577   8.601  0.1004 -0.7240 -1.7236
 6506SOL     OW30979   0.115   0.644  14.395  0.2752  0.0250  0.2876
 6506SOL    HW130980   0.118   0.556  14.358 -0.1566 -1.6753  4.2597
 6506SOL    HW230981   0.120   0.619  14.487  1.9513  1.0449  0.4753
 6507SOL     OW30982   1.065   1.330   4.420 -0.1247  0.0991  0.3867
 6507SOL    HW130983   1.108   1.313   4.337  1.1567  1.3069  0.7861
 6507SOL    HW230984   1.019   1.248   4.435 -1.5036  0.8406  0.1689
 6508SOL     OW30985   0.305   2.407   8.537  0.2679  0.0269  0.2301
 6508SOL    HW130986   0.384   2.391   8.486 -0.6231 -0.4748 -0.9769
 6508SOL    HW230987   0.305   2.339   8.604  0.3912  0.4431  0.6512
 6509SOL     OW30988   3.899   4.197   1.213  0.0259  0.0681 -0.4007
 6509SOL    HW130989   3.956   4.136   1.259 -1.1687  0.7255  1.9398
 6509SOL    HW230990   3.820   4.197   1.268 -0.3627  0.4940 -0.9607
 6510SOL     OW30991   3.997   4.135   0.966 -0.5383  0.1326 -0.0129
 6510SOL    HW130992   4.052   4.214   0.966 -0.6288  0.1928  0.5485
 6510SOL    HW230993   3.957   4.137   1.053 -0.6731  0.6742 -0.0869
 6511SOL     OW30994   0.123   2.138   7.612 -0.3920 -0.4317  0.3291
 6511SOL    HW130995   0.156   2.148   7.702 -0.1914  0.2717  0.1768
 6511SOL    HW230996   0.124   2.227   7.575  0.6642 -0.4912  0.2357
 6512SOL     OW30997   0.735   1.270  11.269 -0.5776 -0.2412 -0.5066
 6512SOL    HW130998   0.744   1.356  11.311 -1.9674 -0.4115  0.1533
 6512SOL    HW230999   0.828   1.251  11.259 -0.2656  0.8254  0.3486
 6513SOL     OW31000   2.257   2.168   9.843 -0.2226 -0.3641 -0.4214
 6513SOL    HW131001   2.351   2.175   9.854 -0.2680 -0.6060  0.1309
 6513SOL    HW231002   2.257   2.100   9.776 -0.9978  0.7991 -1.6094
 6514SOL     OW31003   2.512   4.284   9.459 -0.2934  0.6645 -0.7167
 6514SOL    HW131004   2.575   4.355   9.464  0.6393 -0.3111  1.2530
 6514SOL    HW231005   2.430   4.331   9.472  0.2280  1.0404  1.0685
 6515SOL     OW31006   1.430   1.112  16.239  0.4062  0.1433  0.7337
 6515SOL    HW131007   1.393   1.037  16.286 -1.4805  1.2894  1.0554
 6515SOL    HW231008   1.443   1.163  16.319 -0.3917 -0.5977  1.3325
 6516SOL     OW31009   3.974   0.242   7.756 -0.1416 -0.4139  0.2892
 6516SOL    HW131010   3.943   0.152   7.767 -1.6178  0.0523 -0.0908
 6516SOL    HW231011   4.051   0.235   7.699  2.1552  0.7567  3.2483
 6517SOL     OW31012   3.067   3.407   9.110  0.5913  0.1120  0.0910
 6517SOL    HW131013   3.157   3.391   9.139  0.3880 -0.1495  0.5914
 6517SOL    HW231014   3.075   3.355   9.030  0.8341  2.5139 -1.4503
 6518SOL     OW31015   0.630   2.214   7.553 -0.0128 -0.4251  0.0193
 6518SOL    HW131016   0.551   2.169   7.523 -0.7173  0.3233  0.7809
 6518SOL    HW231017   0.612   2.308   7.551  0.6667 -0.2825  0.6863
 6519SOL     OW31018   1.612   3.374   2.064  0.0651 -0.4196 -0.6605
 6519SOL    HW131019   1.575   3.405   2.146  2.0227  1.2797 -0.4269
 6519SOL    HW231020   1.661   3.449   2.031 -0.9840  0.6043  0.1435
 6520SOL     OW31021   2.814   3.736  12.261 -0.8573 -0.2636 -0.1753
 6520SOL    HW131022   2.780   3.669  12.202 -0.8906  0.5601 -1.0880
 6520SOL    HW231023   2.787   3.815  12.214 -1.3386 -0.5874 -0.4306
 6521SOL     OW31024   1.067   3.928   7.756  0.2735  0.4808 -0.8175
 6521SOL    HW131025   1.116   3.848   7.737  1.9586  1.3710 -0.2074
 6521SOL    HW231026   1.083   3.930   7.851  1.6606 -1.0009 -1.0109
 6522SOL     OW31027   3.886   3.973   8.015 -0.0303 -0.5798 -0.1201
 6522SOL    HW131028   3.916   4.011   7.932 -2.0500 -0.2369 -0.6807
 6522SOL    HW231029   3.860   3.886   7.987 -1.9376 -0.0439 -0.0247
 6523SOL     OW31030   4.337   0.469  11.432 -0.1495 -0.0829  0.6266
 6523SOL    HW131031   4.331   0.539  11.367 -1.1361 -1.4439 -0.7883
 6523SOL    HW231032   4.266   0.497  11.489  0.1952 -0.5694  1.3013
 6524SOL     OW31033   2.689   0.383   7.111 -0.2199 -0.3021  0.0843
 6524SOL    HW131034   2.637   0.313   7.072  0.3481 -1.8090  2.0442
 6524SOL    HW231035   2.637   0.385   7.191 -0.9699 -1.4991 -0.3728
 6525SOL     OW31036   3.161   1.729   9.349  0.4098  0.0265  0.5720
 6525SOL    HW131037   3.069   1.726   9.323  0.0920 -0.3523  1.7439
 6525SOL    HW231038   3.143   1.707   9.440  1.4914  1.7265  1.1879
 6526SOL     OW31039   2.418   4.355   0.954 -0.0560  0.5484  0.4058
 6526SOL    HW131040   2.392   4.444   0.978 -2.0891 -0.1113  0.6828
 6526SOL    HW231041   2.359   4.336   0.880  1.2627  0.1772 -0.5620
 6527SOL     OW31042   1.241   3.059   0.998  0.5101 -0.0623  0.0939
 6527SOL    HW131043   1.164   3.115   0.982  0.8759  0.1729 -0.8705
 6527SOL    HW231044   1.292   3.132   1.033 -0.5929 -0.4771  2.5484
 6528SOL     OW31045   0.725   0.873  16.144  0.0675 -0.8589  0.1866
 6528SOL    HW131046   0.796   0.904  16.088 -2.2707  1.1598 -1.6871
 6528SOL    HW231047   0.665   0.853  16.072 -2.1271  1.0226  1.5119
 6529SOL     OW31048   1.941   4.249   0.091  0.5368 -0.2115  0.4936
 6529SOL    HW131049   1.997   4.175   0.115  0.7278 -0.0562  0.5226
 6529SOL    HW231050   1.920   4.236  17.699  1.8584  1.8035 -0.0823
 6530SOL     OW31051   4.077   0.714   7.180 -0.2781 -0.4805  0.0847
 6530SOL    HW131052   4.132   0.644   7.145 -0.3261 -1.4305  1.9321
 6530SOL    HW231053   4.016   0.667   7.237 -0.8558 -0.5446 -0.5777
 6531SOL     OW31054   4.193   3.641   0.000 -0.4716 -0.0695 -0.4261
 6531SOL    HW131055   4.178   3.548  17.682 -1.4114  0.0661 -0.3787
 6531SOL    HW231056   4.177   3.639   0.095  0.8617 -0.3089 -0.2089
 6532SOL     OW31057   1.959   3.651   4.320 -0.1747 -0.4065  0.3727
 6532SOL    HW131058   1.903   3.711   4.368  0.6374  0.7701 -0.1407
 6532SOL    HW231059   1.902   3.575   4.313  0.3953 -0.9118  1.1982
 6533SOL     OW31060   2.138   0.382   5.178  0.0115 -0.7291 -0.1362
 6533SOL    HW131061   2.203   0.451   5.188 -1.2788  0.6483 -1.3680
 6533SOL    HW231062   2.063   0.429   5.141 -0.0778  0.7031  1.8751
 6534SOL     OW31063   0.479   2.362   4.285 -0.6530 -0.1078 -0.1287
 6534SOL    HW131064   0.493   2.313   4.366 -2.1060 -0.0308  0.1674
 6534SOL    HW231065   0.435   2.438   4.323  0.9177  1.0736 -0.6339
 6535SOL     OW31066   1.277   0.972   3.914  0.3398  0.0739 -0.0066
 6535SOL    HW131067   1.197   0.943   3.870  0.2050 -0.3767  0.5342
 6535SOL    HW231068   1.275   1.067   3.901 -0.3839  0.1094  0.3751
 6536SOL     OW31069   1.900   2.750   9.828 -0.7985  0.5955 -0.5179
 6536SOL    HW131070   1.883   2.697   9.750 -1.3163 -1.4731  0.9965
 6536SOL    HW231071   1.817   2.796   9.836 -1.4946 -0.6370 -0.6323
 6537SOL     OW31072   1.733   0.473  12.450 -0.3688  0.7358 -0.1337
 6537SOL    HW131073   1.775   0.531  12.513 -3.4452  0.0599  2.5166
 6537SOL    HW231074   1.665   0.533  12.418 -0.6573 -0.3102 -1.4820
 6538SOL     OW31075   1.451   2.920   2.265 -0.4527 -0.7884 -0.0118
 6538SOL    HW131076   1.499   3.002   2.252 -0.2399 -0.6214  1.8454
 6538SOL    HW231077   1.405   2.902   2.183 -0.0428 -0.1705 -0.3696
 6539SOL     OW31078   4.362   3.674   0.427 -0.6593  0.2015 -0.4208
 6539SOL    HW131079   4.294   3.615   0.395 -1.2691 -0.6771  2.5268
 6539SOL    HW231080   4.319   3.712   0.504  3.5108  1.1191  1.4754
 6540SOL     OW31081   0.874   0.933   2.021 -0.5021  0.2896  1.0698
 6540SOL    HW131082   0.969   0.930   2.032 -0.3865  1.8752  0.4280
 6540SOL    HW231083   0.874   0.857   1.963 -0.3395  1.1386 -0.0343
 6541SOL     OW31084   3.975   3.893   9.007 -0.5474 -0.4042 -0.4743
 6541SOL    HW131085   4.053   3.897   9.062  0.1059  1.1462 -1.5044
 6541SOL    HW231086   3.976   3.985   8.982 -1.8319 -0.4159 -0.5604
 6542SOL     OW31087   0.890   2.072   5.147  0.3986 -0.0153 -0.1577
 6542SOL    HW131088   0.979   2.061   5.114  1.1357  3.7854  0.5669
 6542SOL    HW231089   0.900   2.121   5.228  2.0559  1.1165 -1.0580
 6543SOL     OW31090   0.778   3.727   4.441 -0.2970  0.0137 -0.1298
 6543SOL    HW131091   0.831   3.773   4.376 -2.4414 -0.0263 -1.9093
 6543SOL    HW231092   0.781   3.792   4.511 -1.9919  0.4751 -0.5022
 6544SOL     OW31093   4.706   3.916  12.274  0.3816  0.5363 -0.2456
 6544SOL    HW131094   0.029   3.929  12.192 -1.0656 -0.2997 -1.2176
 6544SOL    HW231095   0.031   3.971  12.334  1.3265 -1.1273  0.5126
 6545SOL     OW31096   1.852   0.574   4.184  0.1179  0.1655 -0.8210
 6545SOL    HW131097   1.795   0.503   4.156  0.1573  0.0227 -0.5333
 6545SOL    HW231098   1.851   0.638   4.113 -0.4096  0.2456 -0.7365
 6546SOL     OW31099   4.044   2.695   6.443  0.2634  0.2552 -0.1538
 6546SOL    HW131100   4.103   2.734   6.378  2.2536 -1.5306  0.5974
 6546SOL    HW231101   3.971   2.756   6.459  0.1216 -0.2815  1.2653
 6547SOL     OW31102   2.219   1.074  17.544 -0.3496  0.1360 -0.2954
 6547SOL    HW131103   2.138   1.110  17.580 -0.6678 -0.1644 -0.7145
 6547SOL    HW231104   2.185   1.064  17.455 -0.9496 -2.4064  0.2039
 6548SOL     OW31105   2.503   4.010  12.365  0.6337 -0.1760 -0.3074
 6548SOL    HW131106   2.438   3.963  12.417 -0.8661  0.3289 -1.7116
 6548SOL    HW231107   2.545   3.936  12.321  0.1574 -0.0950 -0.9029
 6549SOL     OW31108   1.152   2.514   8.205 -0.2765 -0.0494  0.2789
 6549SOL    HW131109   1.213   2.550   8.269  0.0015 -0.2511  0.1240
 6549SOL    HW231110   1.202   2.436   8.182 -0.5729 -0.0539 -0.3445
 6550SOL     OW31111   1.484   4.539   6.959 -0.0595 -0.0139 -0.4745
 6550SOL    HW131112   1.515   4.592   7.032 -0.3373 -1.6511  0.8460
 6550SOL    HW231113   1.462   4.607   6.896  0.4829  1.7457  1.2651
 6551SOL     OW31114   3.251   0.099   2.699 -0.0337 -0.2493  0.9144
 6551SOL    HW131115   3.343   0.090   2.674 -0.6709  0.2971 -1.6628
 6551SOL    HW231116   3.249   0.193   2.717  3.3540  0.2106 -1.0057
 6552SOL     OW31117   2.391   2.729   6.464  0.1718  0.3234 -0.2751
 6552SOL    HW131118   2.387   2.688   6.377 -0.8074  0.5579 -0.3479
 6552SOL    HW231119   2.484   2.716   6.482 -0.0222  0.7253  0.9674
 6553SOL     OW31120   0.336   2.723   4.734 -0.8639  0.1526  0.0415
 6553SOL    HW131121   0.257   2.722   4.681  0.2077 -0.8115 -1.5313
 6553SOL    HW231122   0.408   2.728   4.671 -0.7906  2.8415  0.3103
 6554SOL     OW31123   4.266   0.007   2.838 -0.3696  0.0565 -0.0144
 6554SOL    HW131124   4.342   4.696   2.792 -0.0846  1.5814 -0.7173
 6554SOL    HW231125   4.205   4.683   2.781  0.1757 -0.0520 -0.5112
 6555SOL     OW31126   4.718   3.362   6.880 -0.3107 -0.1085  0.0289
 6555SOL    HW131127   0.026   3.445   6.914 -0.5013 -0.0229  0.0049
 6555SOL    HW231128   0.042   3.288   6.917 -2.4890 -2.4157 -1.6876
 6556SOL     OW31129   2.600   4.029   7.855 -0.0814  0.0639 -0.5721
 6556SOL    HW131130   2.658   4.050   7.782  0.1576  2.2325  0.2341
 6556SOL    HW231131   2.646   4.063   7.931  0.4337 -4.0456  0.9423
 6557SOL     OW31132   2.426   0.176   3.803  0.0843 -0.4109  0.0292
 6557SOL    HW131133   2.382   0.143   3.725 -0.7237 -1.0638  0.7623
 6557SOL    HW231134   2.465   0.095   3.835  2.6186  0.4076 -1.0193
 6558SOL     OW31135   1.154   1.918  13.431 -0.4548 -0.2668  0.5062
 6558SOL    HW131136   1.066   1.920  13.393  0.3009  0.1063 -1.2700
 6558SOL    HW231137   1.204   1.987  13.386  2.0593 -2.4219  0.0247
 6559SOL     OW31138   1.926   0.929   3.649  0.0860 -0.3231  0.2933
 6559SOL    HW131139   1.952   0.837   3.649  1.2017 -0.0195  3.9098
 6559SOL    HW231140   1.848   0.927   3.705  0.6991 -0.2149  1.1439
 6560SOL     OW31141   2.114   1.311   3.234 -0.4743  0.3013 -0.0005
 6560SOL    HW131142   2.102   1.317   3.329 -0.2503 -0.8168  0.1012
 6560SOL    HW231143   2.071   1.228   3.209 -1.7519  0.7277  0.7684
 6561SOL     OW31144   0.254   1.370   4.613 -0.2554 -0.5273  0.5098
 6561SOL    HW131145   0.245   1.462   4.587 -0.6865 -0.6777  0.1196
 6561SOL    HW231146   0.343   1.359   4.646  0.9136 -0.7532 -2.7021
 6562SOL     OW31147   0.718   0.629   8.213 -0.3573  0.1749 -0.6766
 6562SOL    HW131148   0.655   0.618   8.284 -1.5507  1.0825 -1.5975
 6562SOL    HW231149   0.768   0.693   8.265  1.6653 -1.1686 -0.9776
 6563SOL     OW31150   1.744   2.460  10.118 -1.0591 -0.5330 -0.7440
 6563SOL    HW131151   1.663   2.428  10.078 -0.4235  0.0910 -2.5714
 6563SOL    HW231152   1.798   2.384  10.139 -1.1950 -0.7798 -1.3057
 6564SOL     OW31153   0.735   1.923   9.635 -0.2487  0.0005  0.1755
 6564SOL    HW131154   0.676   1.879   9.696 -0.7919  0.7103  0.1625
 6564SOL    HW231155   0.688   2.007   9.628 -2.3230 -1.1927 -0.1333
 6565SOL     OW31156   0.064   1.864   9.789 -0.3241  0.6079  0.0774
 6565SOL    HW131157   0.063   1.954   9.820 -1.3892  1.1564 -1.5269
 6565SOL    HW231158   4.704   1.829   9.818  0.1901 -0.8093 -0.0954
 6566SOL     OW31159   0.153   4.209   8.966 -0.3242  0.0703 -0.0421
 6566SOL    HW131160   0.242   4.175   8.957 -0.1182  0.9215 -1.2218
 6566SOL    HW231161   0.157   4.255   9.050 -0.6762 -0.5353  0.3045
 6567SOL     OW31162   4.130   2.892   2.421 -0.5851  0.2713  0.1448
 6567SOL    HW131163   4.163   2.883   2.332  1.2456  0.7259  0.7830
 6567SOL    HW231164   4.198   2.846   2.470 -0.1271  3.9672  3.0390
 6568SOL     OW31165   0.306   3.906   6.361 -0.6698 -0.0413  0.2113
 6568SOL    HW131166   0.376   3.933   6.420 -2.8574  1.9145  1.9538
 6568SOL    HW231167   0.235   3.881   6.420 -2.3168 -0.1443 -1.8183
 6569SOL     OW31168   0.385   4.547  12.277  0.2607  0.0455 -0.2094
 6569SOL    HW131169   0.322   4.582  12.340 -1.6332 -0.8421 -1.6075
 6569SOL    HW231170   0.360   4.602  12.202  0.7718  2.1663  1.1587
 6570SOL     OW31171   3.209   0.006   7.311 -0.6990 -0.6071  0.3247
 6570SOL    HW131172   3.212   4.644   7.351  0.1071  0.4584  2.5917
 6570SOL    HW231173   3.212   0.059   7.390 -1.4071  0.8540 -0.6301
 6571SOL     OW31174   3.049   0.961   5.605  0.1222 -0.2436 -0.2263
 6571SOL    HW131175   3.076   1.048   5.635  0.1935 -0.3294 -0.0440
 6571SOL    HW231176   2.956   0.975   5.587  0.2882  1.0484 -0.1171
 6572SOL     OW31177   3.240   4.434   8.686 -0.0790  0.2513 -0.0171
 6572SOL    HW131178   3.173   4.474   8.631  1.0746  0.4772 -1.2616
 6572SOL    HW231179   3.299   4.395   8.621  1.3181  1.4812  0.5052
 6573SOL     OW31180   1.723   2.909   8.730 -0.5619 -0.2168 -0.0784
 6573SOL    HW131181   1.664   2.836   8.749  1.1936 -1.8722 -1.0698
 6573SOL    HW231182   1.812   2.884   8.753 -1.1641  0.2423  2.7294
 6574SOL     OW31183   2.576   0.700   8.307  0.8084  0.3720  0.5171
 6574SOL    HW131184   2.603   0.695   8.399 -0.0579  0.7652  0.7942
 6574SOL    HW231185   2.647   0.753   8.271  0.7948  1.4208  2.0090
 6575SOL     OW31186   2.524   1.055   0.924 -0.2151  0.0759  0.2088
 6575SOL    HW131187   2.498   0.972   0.963 -1.0344  0.3358  0.2149
 6575SOL    HW231188   2.515   1.041   0.830 -0.5189  2.8947 -0.1870
 6576SOL     OW31189   3.390   0.129   8.662  0.6623  0.1721  0.2294
 6576SOL    HW131190   3.466   0.084   8.699  0.6577  1.9979  2.4075
 6576SOL    HW231191   3.373   0.089   8.576  4.5950  0.1593 -0.5653
 6577SOL     OW31192   0.290   1.105   5.917 -0.5579 -0.4484  1.3782
 6577SOL    HW131193   0.275   1.160   5.840 -0.9660 -1.7092  0.5489
 6577SOL    HW231194   0.382   1.126   5.930 -0.7630  1.3738 -0.1247
 6578SOL     OW31195   1.440   2.060   9.180  0.1526 -0.1944  0.7690
 6578SOL    HW131196   1.445   2.149   9.144 -0.2277 -0.0526  1.0720
 6578SOL    HW231197   1.531   2.032   9.189  0.4969 -0.0558 -2.2492
 6579SOL     OW31198   1.004   0.732  10.168  0.0489 -0.1218  0.2017
 6579SOL    HW131199   1.021   0.820  10.203  0.8834 -0.4249  0.5538
 6579SOL    HW231200   1.074   0.685  10.214  0.6821  1.1929  0.5807
 6580SOL     OW31201   0.573   0.477  14.149  0.5600  0.4346 -0.3228
 6580SOL    HW131202   0.644   0.424  14.185 -0.7104 -1.1049 -0.0750
 6580SOL    HW231203   0.633   0.549  14.131  0.2500  0.0700 -2.7867
 6581SOL     OW31204   4.147   0.964   7.298 -0.6782 -0.1654 -0.4988
 6581SOL    HW131205   4.141   0.881   7.252  0.6982  0.3055 -1.5403
 6581SOL    HW231206   4.127   1.027   7.228  2.2968  0.8808 -0.4204
 6582SOL     OW31207   0.098   3.695  15.988 -0.3686  0.3625 -0.2781
 6582SOL    HW131208   0.062   3.680  16.076 -0.8573 -3.3877 -1.1324
 6582SOL    HW231209   0.067   3.784  15.970  1.0660  0.3171 -2.8702
 6583SOL     OW31210   4.013   4.261  12.370 -0.2634  0.5661 -0.5967
 6583SOL    HW131211   4.002   4.277  12.276  2.1216  2.4098 -0.5600
 6583SOL    HW231212   4.020   4.166  12.373  1.4581  0.6895 -0.3268
 6584SOL     OW31213   3.180   0.699  10.014 -0.3153  0.8822 -0.5170
 6584SOL    HW131214   3.191   0.609   9.983  1.9563  1.3016 -0.8586
 6584SOL    HW231215   3.104   0.712   9.957 -0.0346 -1.0397 -1.3339
 6585SOL     OW31216   2.832   3.059   8.700 -0.5444  0.4708  0.4289
 6585SOL    HW131217   2.763   2.993   8.690  0.7170 -0.5927 -1.2050
 6585SOL    HW231218   2.788   3.133   8.658 -1.9546  0.8536  2.5338
 6586SOL     OW31219   4.210   0.080  13.567  0.0636  0.5371  0.5265
 6586SOL    HW131220   4.126   0.044  13.595  1.5687 -0.2851  3.9821
 6586SOL    HW231221   4.181   0.124  13.487 -0.1955  0.4617  0.5791
 6587SOL     OW31222   0.455   3.231   7.710 -0.2180  0.0687 -0.1138
 6587SOL    HW131223   0.421   3.230   7.620  0.0604 -2.6037 -0.2119
 6587SOL    HW231224   0.378   3.247   7.764  0.1416  0.3067  0.3241
 6588SOL     OW31225   3.950   2.689  15.286 -0.0751 -0.0268  0.2925
 6588SOL    HW131226   3.900   2.688  15.205  1.0592 -0.7277 -0.3983
 6588SOL    HW231227   4.028   2.743  15.270 -0.8365  1.4881  1.6327
 6589SOL     OW31228   4.088   4.540   6.112  0.0561 -0.1106  0.3348
 6589SOL    HW131229   3.996   4.560   6.094 -0.4823 -2.6232  0.3609
 6589SOL    HW231230   4.097   4.605   6.182  0.8286  0.3183 -0.1613
 6590SOL     OW31231   1.929   2.388  14.562 -0.8349 -0.2372 -0.2287
 6590SOL    HW131232   1.904   2.474  14.529 -1.3397 -0.4021 -0.2829
 6590SOL    HW231233   1.910   2.400  14.655 -0.9112 -1.1363 -0.1288
 6591SOL     OW31234   3.650   1.572   4.747  0.5178 -0.7798 -0.0868
 6591SOL    HW131235   3.576   1.567   4.687 -0.6268 -2.1786  1.4654
 6591SOL    HW231236   3.605   1.550   4.828  0.2519  2.3539  0.6228
 6592SOL     OW31237   4.132   0.467   6.510  0.0459  0.3648  0.4926
 6592SOL    HW131238   4.214   0.516   6.503  0.2983 -0.2361 -0.8037
 6592SOL    HW231239   4.075   0.539   6.539 -0.2860  0.8710 -1.4340
 6593SOL     OW31240   1.842   3.563  11.263 -0.1783  0.1164  0.2410
 6593SOL    HW131241   1.803   3.621  11.329 -2.2880  0.0480 -0.9492
 6593SOL    HW231242   1.866   3.619  11.189 -1.0706  1.6011  1.0750
 6594SOL     OW31243   3.718   1.157   5.917  0.4585  0.3696  0.1767
 6594SOL    HW131244   3.746   1.070   5.944  0.8579  0.5232  0.2562
 6594SOL    HW231245   3.806   1.194   5.920  0.6461  0.1478 -1.9387
 6595SOL     OW31246   3.835   2.310   7.029  1.0507 -0.1513 -0.0369
 6595SOL    HW131247   3.753   2.345   7.062  0.6114 -0.3555 -0.9196
 6595SOL    HW231248   3.824   2.305   6.934 -0.7706  0.6456  0.1454
 6596SOL     OW31249   3.858   3.569  12.181 -0.5589 -0.5448  0.5141
 6596SOL    HW131250   3.948   3.602  12.188 -0.6611 -0.2444  0.4205
 6596SOL    HW231251   3.851   3.493  12.238 -1.6511 -0.5662  0.3572
 6597SOL     OW31252   2.288   3.080   1.001 -0.3301 -0.2778 -0.1294
 6597SOL    HW131253   2.308   3.167   0.967  1.1908 -0.4291  0.3939
 6597SOL    HW231254   2.339   3.027   0.940  1.7085  1.2783  0.2207
 6598SOL     OW31255   2.152   1.458   9.734 -0.4702  0.3319  0.2719
 6598SOL    HW131256   2.159   1.553   9.745  5.3020 -0.3745  2.7212
 6598SOL    HW231257   2.130   1.455   9.641 -0.3636  1.8367  0.1885
 6599SOL     OW31258   3.851   4.109  17.445  0.5084  0.1107  0.8291
 6599SOL    HW131259   3.942   4.115  17.414  0.7665 -0.1244  1.5475
 6599SOL    HW231260   3.852   4.130  17.538  1.4487  2.2347  0.3479
 6600SOL     OW31261   0.346   2.138  13.388 -0.1149  0.0460  0.2207
 6600SOL    HW131262   0.264   2.167  13.427 -1.0317 -3.0540  0.5879
 6600SOL    HW231263   0.374   2.073  13.453 -0.1631  1.6913  1.8679
 6601SOL     OW31264   1.368   1.110  16.641  0.3655 -0.6248 -0.9610
 6601SOL    HW131265   1.433   1.172  16.608 -0.8962  0.2314 -1.8540
 6601SOL    HW231266   1.290   1.165  16.635  0.5802 -0.1958  0.2112
 6602SOL     OW31267   0.154   3.305   7.771 -0.3207 -0.3584  0.1940
 6602SOL    HW131268   0.119   3.388   7.739  0.7799  0.0413  0.0323
 6602SOL    HW231269   0.114   3.301   7.858  0.5698  1.0495  0.6612
 6603SOL     OW31270   0.958   2.698   6.125  0.2627 -0.1240  0.1155
 6603SOL    HW131271   0.998   2.685   6.039  1.4162  1.3098  0.4491
 6603SOL    HW231272   1.026   2.751   6.165  0.3485  0.9449 -1.4421
 6604SOL     OW31273   3.567   3.244   8.408  0.5969 -0.2597 -0.5071
 6604SOL    HW131274   3.540   3.231   8.317 -1.0372 -0.4251 -0.0106
 6604SOL    HW231275   3.483   3.278   8.441  0.4895 -0.8167 -0.1957
 6605SOL     OW31276   2.448   2.088   9.343 -0.2761  0.6221 -0.2168
 6605SOL    HW131277   2.383   2.117   9.278  0.7219 -1.8422 -2.3050
 6605SOL    HW231278   2.396   2.035   9.403 -2.2110  1.1227 -1.4433
 6606SOL     OW31279   3.842   0.835   5.734  0.1424  0.3659 -0.2063
 6606SOL    HW131280   3.852   0.898   5.805 -2.3742 -1.8445  2.0980
 6606SOL    HW231281   3.874   0.887   5.660  2.6496 -1.3963 -0.3555
 6607SOL     OW31282   2.181   3.862  13.143  0.1217 -0.0258 -0.1916
 6607SOL    HW131283   2.146   3.774  13.156  2.0690 -0.6143  1.0570
 6607SOL    HW231284   2.101   3.914  13.133  0.3836  0.2998 -0.6199
 6608SOL     OW31285   1.563   3.985   4.723 -0.2775  0.7857 -0.0030
 6608SOL    HW131286   1.612   3.922   4.777  0.9515  0.6939 -1.2094
 6608SOL    HW231287   1.631   4.017   4.664 -0.0196 -0.6047 -0.4654
 6609SOL     OW31288   4.517   4.440   8.560  0.5744  0.4119  0.3197
 6609SOL    HW131289   4.557   4.527   8.565  1.8618 -0.1645  0.2010
 6609SOL    HW231290   4.600   4.398   8.536 -0.0657 -1.5346  1.4730
 6610SOL     OW31291   0.031   0.761   7.622  0.0563 -0.6505  0.0900
 6610SOL    HW131292   4.669   0.750   7.584  0.1175  0.4830 -0.3727
 6610SOL    HW231293   0.086   0.706   7.567  2.2361  1.6858 -0.0887
 6611SOL     OW31294   3.408   3.643  16.379  0.5452  0.1909 -0.0712
 6611SOL    HW131295   3.375   3.663  16.467 -1.8126  0.4493 -1.0221
 6611SOL    HW231296   3.338   3.606  16.327  1.1585 -0.4391 -0.4374
 6612SOL     OW31297   3.101   3.426  14.441 -0.0989  0.0847  0.3202
 6612SOL    HW131298   3.186   3.383  14.445  0.4541  1.4367  2.4165
 6612SOL    HW231299   3.076   3.421  14.533  0.3278 -0.7173  0.3909
 6613SOL     OW31300   3.019   2.806   2.472  0.2937 -0.3122  0.5654
 6613SOL    HW131301   2.929   2.838   2.473  0.2015 -0.5639  0.1521
 6613SOL    HW231302   3.059   2.858   2.403  0.8157  1.1948  2.0006
 6614SOL     OW31303   0.247   1.910   4.695 -0.3731 -0.4051 -0.5892
 6614SOL    HW131304   0.292   1.827   4.676  1.8697  0.1670  2.3958
 6614SOL    HW231305   0.191   1.913   4.617  0.9831 -1.4686 -1.6141
 6615SOL     OW31306   3.690   2.323  17.075 -0.1718 -0.4857 -0.7354
 6615SOL    HW131307   3.700   2.383  17.002 -1.2414 -0.2514 -0.6949
 6615SOL    HW231308   3.780   2.307  17.104 -0.1302 -2.0544 -1.7484
 6616SOL     OW31309   3.527   0.510   7.562  0.0868  0.1997  0.0205
 6616SOL    HW131310   3.497   0.498   7.652 -0.3421  2.1171  0.1314
 6616SOL    HW231311   3.550   0.420   7.541 -2.0496 -0.2079 -0.6348
 6617SOL     OW31312   3.635   3.393  16.224 -0.0661 -0.1976  0.3177
 6617SOL    HW131313   3.559   3.376  16.168 -0.9963  0.9452  1.2390
 6617SOL    HW231314   3.683   3.311  16.233 -0.8946 -0.5536  1.4475
 6618SOL     OW31315   1.807   1.079   2.145 -0.2197 -0.2527 -0.2326
 6618SOL    HW131316   1.759   0.996   2.139  1.3544 -1.3067  1.7898
 6618SOL    HW231317   1.762   1.126   2.215 -0.6939  1.1510 -1.4761
 6619SOL     OW31318   2.529   3.007   8.141 -0.2465 -0.4395 -0.2398
 6619SOL    HW131319   2.577   3.089   8.151  2.1255 -1.5875 -2.2591
 6619SOL    HW231320   2.488   3.014   8.055  0.4063  2.3462 -0.3210
 6620SOL     OW31321   3.782   3.511  15.275 -0.0790  0.0648 -0.1012
 6620SOL    HW131322   3.830   3.433  15.304 -0.9705  0.3088  2.0233
 6620SOL    HW231323   3.747   3.539  15.359 -0.2481  0.1293 -0.1911
 6621SOL     OW31324   2.168   4.077   8.804  0.2315 -0.2586  0.0510
 6621SOL    HW131325   2.074   4.063   8.821 -0.0586  1.2076 -0.3645
 6621SOL    HW231326   2.169   4.172   8.797 -0.7429 -0.2564 -0.1323
 6622SOL     OW31327   1.021   1.385   7.323 -0.0837 -0.6703 -0.4310
 6622SOL    HW131328   1.092   1.439   7.290 -1.0758  2.1215  2.0386
 6622SOL    HW231329   0.948   1.431   7.282  0.9004  1.1072 -0.1825
 6623SOL     OW31330   0.211   1.553   7.226 -0.1242 -0.3993 -0.5074
 6623SOL    HW131331   0.199   1.643   7.194  2.3757  0.5829  1.3190
 6623SOL    HW231332   0.290   1.558   7.279 -0.2185  0.1779 -0.4202
 6624SOL     OW31333   4.056   0.787   7.545  0.4635  0.5391 -0.3544
 6624SOL    HW131334   4.088   0.849   7.480 -1.0820  1.4205 -0.2814
 6624SOL    HW231335   4.017   0.847   7.608  0.0364 -0.1239  0.0125
 6625SOL     OW31336   1.632   1.186  11.510  0.2204 -0.4310  0.0823
 6625SOL    HW131337   1.556   1.208  11.563 -0.6663 -1.2630 -0.8196
 6625SOL    HW231338   1.599   1.193  11.420 -1.2106 -0.3473  0.6265
 6626SOL     OW31339   0.923   1.454   3.189 -0.1689 -0.2469 -0.0037
 6626SOL    HW131340   1.000   1.502   3.218  1.0902 -1.5996 -1.1054
 6626SOL    HW231341   0.855   1.513   3.222 -1.6218 -1.4971 -0.7542
 6627SOL     OW31342   4.593   1.972  14.615  0.0646 -0.6469 -0.3196
 6627SOL    HW131343   4.535   2.018  14.676 -0.3323  0.5855 -1.6248
 6627SOL    HW231344   4.524   1.949  14.552 -0.9775  0.2928  0.4717
 6628SOL     OW31345   1.346   0.077  13.711 -0.5061 -0.5920  0.3179
 6628SOL    HW131346   1.382   0.166  13.708 -2.2039  0.1043  0.9407
 6628SOL    HW231347   1.428   0.035  13.737 -0.6654 -1.3005 -0.3343
 6629SOL     OW31348   0.410   1.440   1.635 -0.0801 -0.2851 -0.0218
 6629SOL    HW131349   0.394   1.531   1.610 -1.1407 -0.6044 -0.4964
 6629SOL    HW231350   0.412   1.432   1.731  1.6866  2.0830  0.1277
 6630SOL     OW31351   4.620   1.917   1.380 -0.1401 -0.4463  0.3480
 6630SOL    HW131352   4.649   1.836   1.339  0.3954 -0.1834  0.2126
 6630SOL    HW231353   4.525   1.906   1.387 -0.4251  0.7809 -1.5714
 6631SOL     OW31354   0.009   4.480   2.867 -0.0546  0.8221  0.4414
 6631SOL    HW131355   4.715   4.441   2.952 -1.7251 -2.7695 -1.5572
 6631SOL    HW231356   4.653   4.471   2.816 -0.5388  3.3013  0.8164
 6632SOL     OW31357   1.692   4.675   3.301  0.5474 -0.2835  0.3357
 6632SOL    HW131358   1.649   4.651   3.383 -1.1735  1.2415 -0.1307
 6632SOL    HW231359   1.739   4.595   3.277 -0.1915 -0.8611  0.8175
 6633SOL     OW31360   3.037   3.698  10.595 -0.3505  0.1984  0.4648
 6633SOL    HW131361   2.956   3.648  10.592 -0.1329 -0.0121 -1.4705
 6633SOL    HW231362   3.059   3.715  10.504  3.1693  0.0449  1.2580
 6634SOL     OW31363   2.006   0.076   5.363 -0.0228  0.1253  0.5120
 6634SOL    HW131364   1.971   0.050   5.278  1.1640 -1.0502  0.3794
 6634SOL    HW231365   2.059   0.000   5.388 -1.2339 -1.5472 -2.0161
 6635SOL     OW31366   3.765   3.934  15.222  0.2279  0.3508 -0.2503
 6635SOL    HW131367   3.784   3.940  15.316  0.5993 -4.4596  0.0006
 6635SOL    HW231368   3.728   3.847  15.204  0.6234 -0.1600  1.3829
 6636SOL     OW31369   3.455   3.166  16.126 -0.4956  0.1588  0.2416
 6636SOL    HW131370   3.464   3.102  16.197 -0.0946 -0.7116 -0.5990
 6636SOL    HW231371   3.534   3.142  16.077 -1.1982  0.1881 -0.8995
 6637SOL     OW31372   2.328   3.393  17.689 -0.0210 -0.2188 -0.2501
 6637SOL    HW131373   2.238   3.384  17.658 -0.7986 -0.9911  2.2739
 6637SOL    HW231374   2.329   3.395   0.084 -2.5415 -1.5140 -0.2001
 6638SOL     OW31375   0.850   2.647   7.666  0.1924 -0.0044  0.3411
 6638SOL    HW131376   0.890   2.630   7.580  0.7368 -0.8546  0.7616
 6638SOL    HW231377   0.910   2.718   7.690  1.2180 -1.0456  0.8721
 6639SOL     OW31378   2.906   3.954   7.236 -0.1796 -0.6192 -0.2050
 6639SOL    HW131379   2.930   3.895   7.165  2.0543 -1.4458  1.2261
 6639SOL    HW231380   2.931   4.036   7.193 -0.6365 -0.6956 -0.6132
 6640SOL     OW31381   1.019   0.448   0.589 -0.0459 -0.9509 -0.5603
 6640SOL    HW131382   0.982   0.476   0.505  1.0796 -1.4178 -1.2205
 6640SOL    HW231383   1.064   0.527   0.619 -0.5130 -1.4513  1.4488
 6641SOL     OW31384   1.100   3.124   6.599  0.1385 -0.0059 -0.1221
 6641SOL    HW131385   1.014   3.158   6.626  0.1161  1.1359 -1.6709
 6641SOL    HW231386   1.112   3.043   6.648  0.2627  0.5453  0.7631
 6642SOL     OW31387   1.614   3.193   9.258 -0.3438 -0.4569  0.0418
 6642SOL    HW131388   1.688   3.224   9.311 -0.7938 -0.7469  0.8443
 6642SOL    HW231389   1.638   3.225   9.171  0.7921 -5.2168 -1.3773
 6643SOL     OW31390   3.009   3.543   2.587 -0.4964  0.3254  0.0590
 6643SOL    HW131391   3.025   3.455   2.620 -0.4860  0.3666  0.1620
 6643SOL    HW231392   3.087   3.580   2.627 -0.5770  1.1984 -0.6048
 6644SOL     OW31393   2.659   0.951   8.818 -0.2774  0.5313  0.5682
 6644SOL    HW131394   2.739   0.897   8.819 -0.2393  0.5662 -0.7816
 6644SOL    HW231395   2.695   1.021   8.763 -1.0170  0.9187  0.5815
 6645SOL     OW31396   0.065   3.492  12.067  0.2349 -0.2496  0.0248
 6645SOL    HW131397   4.715   3.521  12.015  0.3878  0.6399  0.3017
 6645SOL    HW231398   0.139   3.529  12.019 -0.6700  0.2959 -0.9216
 6646SOL     OW31399   3.933   2.393   1.927 -0.0290  0.2200 -0.1489
 6646SOL    HW131400   3.908   2.333   1.999 -3.5444  0.5281 -1.0911
 6646SOL    HW231401   3.871   2.465   1.937 -0.3983  0.1680 -2.1553
 6647SOL     OW31402   1.011   0.884   5.903 -0.8831  0.3461 -0.2321
 6647SOL    HW131403   0.995   0.845   5.817  0.5373 -0.9686  0.1002
 6647SOL    HW231404   1.095   0.925   5.887 -1.4131  1.3141 -0.5229
 6648SOL     OW31405   2.085   2.121   2.355 -0.2493 -0.0672 -0.7684
 6648SOL    HW131406   2.072   2.215   2.361  1.1473 -0.1112  2.7926
 6648SOL    HW231407   2.132   2.103   2.273  2.1008 -2.4194  1.1194
 6649SOL     OW31408   3.190   4.700   1.271  0.2520  0.1365 -1.0465
 6649SOL    HW131409   3.146   0.050   1.231  0.9570 -0.6971 -3.4109
 6649SOL    HW231410   3.126   4.630   1.286  0.3074 -0.5163 -3.8428
 6650SOL     OW31411   2.333   4.629   0.863  0.3580 -0.3661 -0.1430
 6650SOL    HW131412   2.342   4.660   0.773  1.9054  2.1354  0.8591
 6650SOL    HW231413   2.245   4.648   0.893  1.8877  2.1043  2.7888
 6651SOL     OW31414   4.470   0.756   7.474 -0.2065  0.0799  0.8275
 6651SOL    HW131415   4.494   0.825   7.413  0.4045  0.0262  1.0076
 6651SOL    HW231416   4.426   0.687   7.423  0.7825 -1.2511  1.7659
 6652SOL     OW31417   3.570   0.372  11.017 -0.0320  0.0650 -0.0930
 6652SOL    HW131418   3.495   0.369  11.077 -0.1773  0.4107 -0.2575
 6652SOL    HW231419   3.590   0.464  11.029 -0.7459  0.4789 -2.0294
 6653SOL     OW31420   2.912   2.531   6.782  0.4358 -0.0986 -0.3243
 6653SOL    HW131421   2.874   2.497   6.701 -2.6963  0.6654  0.8532
 6653SOL    HW231422   3.003   2.504   6.766  0.7919 -0.0476  1.6397
 6654SOL     OW31423   3.322   4.123   3.691  0.5246  0.1282 -0.6057
 6654SOL    HW131424   3.296   4.105   3.781  2.6834  2.4923  0.4968
 6654SOL    HW231425   3.351   4.039   3.656 -0.6397 -1.1914  1.5864
 6655SOL     OW31426   1.009   4.554   7.102 -0.3048  0.6163  0.8536
 6655SOL    HW131427   1.028   4.561   7.195  0.1974  0.2448  0.7808
 6655SOL    HW231428   0.917   4.527   7.109 -0.0097 -0.8482 -0.9116
 6656SOL     OW31429   3.485   3.425   3.721  0.4886 -0.8711 -0.5916
 6656SOL    HW131430   3.521   3.503   3.678 -2.2407 -1.1918 -3.4895
 6656SOL    HW231431   3.392   3.450   3.725  0.9272  0.4151  1.4349
 6657SOL     OW31432   3.352   1.450  11.835  0.2401 -0.1060 -0.2035
 6657SOL    HW131433   3.392   1.503  11.903 -1.2490  0.3208  0.3532
 6657SOL    HW231434   3.417   1.383  11.818  1.7569  1.2900  0.0809
 6658SOL     OW31435   0.420   1.391   6.362  0.1935 -0.1568  0.2332
 6658SOL    HW131436   0.409   1.353   6.275 -0.0091 -0.9750  0.6168
 6658SOL    HW231437   0.510   1.424   6.352  1.1825 -3.2843 -0.9203
 6659SOL     OW31438   1.854   0.212  15.921 -0.2053  0.0852 -0.1602
 6659SOL    HW131439   1.773   0.205  15.971 -0.2050 -1.1291 -0.3341
 6659SOL    HW231440   1.915   0.226  15.993 -1.1342 -0.6904  0.7837
 6660SOL     OW31441   0.006   2.348   0.909  0.3876  0.3481 -0.0153
 6660SOL    HW131442   4.645   2.388   0.925 -0.2917 -1.3792  0.7303
 6660SOL    HW231443   0.032   2.335   1.000  0.4201 -1.5196 -0.2922
 6661SOL     OW31444   4.094   0.477   3.451  0.1086  0.0878  0.1510
 6661SOL    HW131445   4.131   0.507   3.368 -0.0593  1.0142  0.4120
 6661SOL    HW231446   4.161   0.415   3.478  1.0722  0.8759 -0.4464
 6662SOL     OW31447   2.304   2.099   3.683 -0.5434 -0.7791  0.0074
 6662SOL    HW131448   2.294   2.104   3.588 -1.6710  0.5678  0.2017
 6662SOL    HW231449   2.380   2.156   3.695 -1.4368  0.1991  1.0342
 6663SOL     OW31450   1.271   1.494   4.798  0.0633 -0.4870  0.1081
 6663SOL    HW131451   1.205   1.559   4.819 -0.2666 -0.3319 -1.3994
 6663SOL    HW231452   1.227   1.448   4.726  2.7306 -1.4139 -0.9586
 6664SOL     OW31453   2.232   2.111   2.137 -0.2284  0.1426  0.2587
 6664SOL    HW131454   2.210   2.185   2.082 -1.9793 -0.5101  0.0829
 6664SOL    HW231455   2.304   2.147   2.188  1.3219 -0.4202 -1.5617
 6665SOL     OW31456   1.870   0.482   5.061 -0.5518  0.0122  0.2652
 6665SOL    HW131457   1.809   0.534   5.009  1.2559  0.2274 -1.6381
 6665SOL    HW231458   1.888   0.539   5.135  1.3247  0.0025 -0.1850
 6666SOL     OW31459   1.689   3.815   8.798 -0.1604  0.5414  0.4359
 6666SOL    HW131460   1.708   3.736   8.748  0.0697  0.6800  0.3062
 6666SOL    HW231461   1.604   3.792   8.835  0.3914 -2.0255  0.1499
 6667SOL     OW31462   3.224   4.339   5.090 -0.3446  0.3438  0.1295
 6667SOL    HW131463   3.156   4.338   5.157  1.2281  0.6389  1.7330
 6667SOL    HW231464   3.223   4.244   5.074 -3.3420  0.2229  1.1536
 6668SOL     OW31465   2.582   3.665   4.302  0.3581 -0.3507  0.0177
 6668SOL    HW131466   2.655   3.603   4.311 -0.3489 -1.0196  1.0581
 6668SOL    HW231467   2.607   3.757   4.305 -0.3737 -0.1001 -1.9572
 6669SOL     OW31468   2.744   4.392   9.529  0.3610 -0.1719  0.3666
 6669SOL    HW131469   2.804   4.465   9.548  0.4032 -0.3434  0.9096
 6669SOL    HW231470   2.801   4.316   9.546 -1.3083 -1.6002 -0.4647
 6670SOL     OW31471   4.534   1.805   5.498 -0.1276 -0.1593  0.4423
 6670SOL    HW131472   4.625   1.774   5.501 -0.1708 -0.3116  0.2256
 6670SOL    HW231473   4.551   1.888   5.452 -2.1365 -0.4617 -0.8395
 6671SOL     OW31474   0.731   0.360  15.891  0.4131 -0.2433  0.8360
 6671SOL    HW131475   0.725   0.367  15.796 -0.9741 -1.4031  0.8472
 6671SOL    HW231476   0.819   0.392  15.910  0.2908 -0.8062  2.3368
 6672SOL     OW31477   2.261   2.351   7.172  0.0509 -0.1235  0.1926
 6672SOL    HW131478   2.342   2.375   7.219 -0.6052  2.0420  0.2303
 6672SOL    HW231479   2.269   2.400   7.090  1.3572 -1.6289 -0.5726
 6673SOL     OW31480   2.755   2.640  10.033 -0.4487 -0.2984  0.5390
 6673SOL    HW131481   2.708   2.607  10.110 -0.7121  0.4868  0.7182
 6673SOL    HW231482   2.833   2.660  10.084  0.1487 -2.0383  0.2929
 6674SOL     OW31483   2.730   4.089   6.863  0.1220  0.1750  0.7630
 6674SOL    HW131484   2.797   4.140   6.817  0.1581  1.8071  2.6384
 6674SOL    HW231485   2.719   4.139   6.944 -0.7513 -1.9828  1.9867
 6675SOL     OW31486   2.388   0.067   4.772  0.1787 -0.7400  0.2493
 6675SOL    HW131487   2.407   0.148   4.821 -1.8743 -0.9696  1.3824
 6675SOL    HW231488   2.480   0.041   4.767  0.2506 -0.5451  0.5636
 6676SOL     OW31489   1.061   4.390   7.543  0.4128 -0.4603  0.9593
 6676SOL    HW131490   1.026   4.339   7.470  1.1911  0.1237  0.1702
 6676SOL    HW231491   1.110   4.328   7.596 -1.3303 -0.0573  3.0373
 6677SOL     OW31492   0.025   1.838  11.640 -0.1822 -0.0896 -0.1571
 6677SOL    HW131493   4.684   1.811  11.576  0.2913 -3.1366  0.6429
 6677SOL    HW231494   4.717   1.927  11.651  0.1039 -0.0396  0.2855
 6678SOL     OW31495   3.715   2.376  11.794 -0.1570 -0.5661  0.0758
 6678SOL    HW131496   3.649   2.344  11.855 -1.4630 -1.8828 -2.0484
 6678SOL    HW231497   3.659   2.414  11.727  0.4649 -2.1873 -1.3673
 6679SOL     OW31498   0.989   0.762   6.367  0.0364 -0.0804  0.0575
 6679SOL    HW131499   0.900   0.795   6.357  0.2430  0.4134 -0.2108
 6679SOL    HW231500   1.002   0.722   6.281  1.5260 -1.1092  0.7738
 6680SOL     OW31501   0.213   1.253   3.233 -0.1855 -0.3236  0.1465
 6680SOL    HW131502   0.129   1.232   3.192 -0.1071 -2.4054  1.1024
 6680SOL    HW231503   0.265   1.275   3.155 -2.0590  2.0100 -0.4468
 6681SOL     OW31504   2.579   0.265  17.234 -0.0565 -0.5697  0.2185
 6681SOL    HW131505   2.661   0.260  17.283  1.5774 -0.1675 -2.4578
 6681SOL    HW231506   2.522   0.217  17.294  2.1174 -0.4616  2.4052
 6682SOL     OW31507   4.479   4.039  13.527  0.9393  0.3653 -0.3561
 6682SOL    HW131508   4.534   4.033  13.449  2.1770 -2.5550  0.7267
 6682SOL    HW231509   4.504   4.122  13.567 -0.3739  0.6515 -0.1305
 6683SOL     OW31510   0.427   2.670  15.866 -0.0479 -0.1803  0.1152
 6683SOL    HW131511   0.449   2.763  15.871 -3.4130  0.5346  1.8525
 6683SOL    HW231512   0.454   2.653  15.956 -0.4605 -1.8948 -0.0995
 6684SOL     OW31513   2.087   2.533   9.511  0.2416 -0.0000 -0.2258
 6684SOL    HW131514   2.045   2.577   9.437 -0.4740  1.3067  0.9650
 6684SOL    HW231515   2.167   2.585   9.518 -0.4633  1.0096  0.3020
 6685SOL     OW31516   1.363   2.740   7.826  0.5233  0.1449  0.0378
 6685SOL    HW131517   1.399   2.658   7.795  0.5355  0.5466 -1.0175
 6685SOL    HW231518   1.318   2.708   7.905  0.3821  0.6773  0.1777
 6686SOL     OW31519   2.622   4.120   8.220 -0.2820  0.0098  0.0876
 6686SOL    HW131520   2.655   4.186   8.281 -0.1274  1.2368 -1.3167
 6686SOL    HW231521   2.587   4.183   8.157 -1.7664 -0.4642  0.4216
 6687SOL     OW31522   4.049   1.985  11.229  0.2636 -0.3613  0.5087
 6687SOL    HW131523   4.099   2.048  11.177  2.3440 -0.7049  2.1249
 6687SOL    HW231524   3.992   1.958  11.155 -0.0943  2.0609 -0.0834
 6688SOL     OW31525   3.269   0.939   3.251  0.8409  0.3042 -0.1095
 6688SOL    HW131526   3.360   0.970   3.250  0.3245  1.8012 -0.0962
 6688SOL    HW231527   3.242   0.985   3.171  2.6784  1.7765  0.1146
 6689SOL     OW31528   4.045   1.347  17.409 -0.2887  0.0536  0.0585
 6689SOL    HW131529   3.982   1.365  17.339  1.4809 -0.3433 -1.6444
 6689SOL    HW231530   4.116   1.301  17.363  0.7913  1.6784  0.1075
 6690SOL     OW31531   4.603   1.074   9.728  0.0636  0.5071  0.1799
 6690SOL    HW131532   4.643   1.002   9.777 -0.0052 -0.2557 -0.8797
 6690SOL    HW231533   4.514   1.041   9.717  0.5979  0.5019 -4.1948
 6691SOL     OW31534   3.286   3.235  15.853  0.2586 -0.0578  0.6853
 6691SOL    HW131535   3.215   3.274  15.800  0.1117 -2.7135 -1.0584
 6691SOL    HW231536   3.288   3.307  15.916  0.5851  1.3096 -0.8886
 6692SOL     OW31537   0.911   1.132   6.596 -0.0144 -0.0660  0.5021
 6692SOL    HW131538   0.878   1.054   6.641  1.1528 -0.5373  0.5417
 6692SOL    HW231539   0.949   1.097   6.515  1.3191 -0.5319  1.3187
 6693SOL     OW31540   0.248   0.131   0.800  0.3375  0.5073 -0.1351
 6693SOL    HW131541   0.228   0.065   0.866 -0.9705  0.7378 -0.2908
 6693SOL    HW231542   0.269   0.211   0.849  0.5443  0.5622 -0.3120
 6694SOL     OW31543   0.812   3.844  13.873  0.3205 -0.8502  0.0596
 6694SOL    HW131544   0.901   3.832  13.907  0.7661 -0.9313 -1.1350
 6694SOL    HW231545   0.826   3.843  13.778 -0.1522 -4.0065  0.0282
 6695SOL     OW31546   1.473   0.785   3.896  0.3459 -0.5907 -0.4249
 6695SOL    HW131547   1.402   0.722   3.888 -0.6260  0.3112  1.2419
 6695SOL    HW231548   1.428   0.869   3.898  0.9730 -0.2254 -1.3038
 6696SOL     OW31549   0.771   2.906   6.080 -0.2098  0.6441  0.0938
 6696SOL    HW131550   0.813   2.834   6.127 -1.2601 -0.4295 -0.6084
 6696SOL    HW231551   0.829   2.979   6.099  1.2586 -0.0224 -1.8315
 6697SOL     OW31552   1.875   4.271   6.634  0.4252 -0.0010  0.3444
 6697SOL    HW131553   1.894   4.292   6.725  0.6641 -0.4583  0.4008
 6697SOL    HW231554   1.873   4.176   6.640 -0.8190 -0.0575 -0.9237
 6698SOL     OW31555   4.542   0.907  15.212 -0.0580 -0.7360  0.3893
 6698SOL    HW131556   4.586   0.827  15.183 -0.1233 -0.1805 -1.2788
 6698SOL    HW231557   4.450   0.883  15.218 -0.7390  2.1395  1.6604
 6699SOL     OW31558   1.390   1.082  16.905 -0.2761 -0.3803  0.2853
 6699SOL    HW131559   1.295   1.090  16.913 -0.2859 -1.1633  0.8449
 6699SOL    HW231560   1.394   1.084  16.809  1.6337  1.5574  0.4064
 6700SOL     OW31561   0.494   3.754   6.214  0.6507  0.1993 -0.4256
 6700SOL    HW131562   0.573   3.808   6.224  0.4638  0.2561  0.8344
 6700SOL    HW231563   0.433   3.812   6.261  1.9298  1.9956 -0.9757
 6701SOL     OW31564   2.679   3.716   4.835 -1.0715  0.8152  0.6646
 6701SOL    HW131565   2.683   3.810   4.849  0.2121  0.7113  0.9408
 6701SOL    HW231566   2.696   3.721   4.741 -1.3718 -1.6947  0.4629
 6702SOL     OW31567   0.307   2.918  10.391  0.3911  0.3274 -0.3566
 6702SOL    HW131568   0.217   2.948  10.407  0.5333  0.0870  0.8411
 6702SOL    HW231569   0.356   2.955  10.464  1.7377  2.0206 -2.1257
 6703SOL     OW31570   2.028   1.885   8.607  0.0587  0.1315  0.0525
 6703SOL    HW131571   2.084   1.961   8.622  1.2711 -0.6724 -0.3537
 6703SOL    HW231572   2.003   1.895   8.515  0.7086  1.5066  0.0297
 6704SOL     OW31573   2.181   3.369   1.164  0.0627 -0.3520 -0.9632
 6704SOL    HW131574   2.159   3.462   1.173  0.2689 -0.3022 -0.9839
 6704SOL    HW231575   2.257   3.372   1.105  1.6269 -0.0565  1.0608
 6705SOL     OW31576   0.745   1.819  14.006 -0.0857  0.2570 -0.1212
 6705SOL    HW131577   0.793   1.901  14.019  0.3679  0.1679 -1.3020
 6705SOL    HW231578   0.795   1.767  13.944  0.1500 -0.3996  0.6200
 6706SOL     OW31579   0.456   4.544   5.667  0.3295  0.0066  0.0456
 6706SOL    HW131580   0.499   4.609   5.611  0.8628 -0.3724  0.0082
 6706SOL    HW231581   0.439   4.601   5.742  2.1160 -0.8423  1.0900
 6707SOL     OW31582   3.978   4.253  12.781  0.1340 -0.0508  0.3268
 6707SOL    HW131583   4.031   4.199  12.841  1.2205  1.6685  0.9355
 6707SOL    HW231584   3.969   4.191  12.710  0.9009 -0.1295  0.2965
 6708SOL     OW31585   2.063   3.072   6.689  0.5644 -0.3520  0.5206
 6708SOL    HW131586   2.071   2.985   6.649 -2.5374 -0.3144 -0.1778
 6708SOL    HW231587   2.039   3.054   6.780  1.3631 -0.9202  0.6235
 6709SOL     OW31588   4.551   3.047   5.466  0.2494 -0.0563 -0.6398
 6709SOL    HW131589   4.604   2.980   5.424  3.5631  0.4141  2.8073
 6709SOL    HW231590   4.523   3.008   5.549 -0.4850  0.6020 -0.5789
 6710SOL     OW31591   4.571   4.163   3.367  0.0805  0.4106  0.4997
 6710SOL    HW131592   4.639   4.114   3.320  1.5365  0.5142  2.4858
 6710SOL    HW231593   4.525   4.086   3.400  0.7859  0.2560  1.1271
 6711SOL     OW31594   1.472   4.362   8.370 -0.1345  0.0417  0.2161
 6711SOL    HW131595   1.559   4.346   8.333  0.2744 -0.0823  1.2336
 6711SOL    HW231596   1.502   4.380   8.460  1.0361  1.6669 -0.4998
 6712SOL     OW31597   0.756   4.255  12.407 -0.1469  0.7392 -0.2177
 6712SOL    HW131598   0.788   4.338  12.441  2.8351  0.3213 -2.0236
 6712SOL    HW231599   0.816   4.233  12.335 -2.5051 -1.8000 -1.4124
 6713SOL     OW31600   4.075   2.914  10.738  0.2878  0.2996  0.2885
 6713SOL    HW131601   3.995   2.950  10.776 -0.9103 -2.2605  0.2156
 6713SOL    HW231602   4.048   2.866  10.660  1.6229  3.1638 -1.9124
 6714SOL     OW31603   4.692   3.151  10.916  0.0154 -0.3845 -0.0929
 6714SOL    HW131604   4.688   3.092  10.841 -1.2698 -0.7306  0.2508
 6714SOL    HW231605   4.709   3.089  10.986  1.1440  0.7342  0.6234
 6715SOL     OW31606   0.025   1.685   4.220 -0.0260  0.3538  0.4754
 6715SOL    HW131607   0.031   1.594   4.250  0.1479  0.9671  2.2958
 6715SOL    HW231608   0.114   1.718   4.208  0.5021 -1.3999 -0.4301
 6716SOL     OW31609   1.296   2.330   5.555 -0.2694 -0.5194 -0.3902
 6716SOL    HW131610   1.221   2.350   5.498 -0.8244 -2.4542 -0.3388
 6716SOL    HW231611   1.272   2.242   5.583 -2.1713  0.5692  1.3664
 6717SOL     OW31612   0.216   4.121  10.404  0.0707 -0.4022  0.7730
 6717SOL    HW131613   0.163   4.166  10.470 -0.6882  1.6737 -1.2383
 6717SOL    HW231614   0.164   4.040  10.402 -0.4676 -0.0809  2.0666
 6718SOL     OW31615   2.616   1.713   6.860  0.0573  0.6899 -0.0651
 6718SOL    HW131616   2.661   1.768   6.924  0.1626  1.1099 -0.4912
 6718SOL    HW231617   2.693   1.669   6.825  0.3870 -0.6333  2.3398
 6719SOL     OW31618   2.869   4.274   3.023  0.5838 -0.4788 -0.2923
 6719SOL    HW131619   2.799   4.339   3.022  0.5967 -0.5331 -4.2486
 6719SOL    HW231620   2.829   4.215   2.960 -2.1805 -0.4059  1.3814
 6720SOL     OW31621   2.247   2.798   8.894  0.0976 -0.0027 -0.2205
 6720SOL    HW131622   2.302   2.723   8.914 -0.1248 -0.9365 -3.2075
 6720SOL    HW231623   2.315   2.865   8.907 -0.7022  0.9318 -0.8066
 6721SOL     OW31624   1.911   4.394   9.143 -0.1338  0.0374 -0.2676
 6721SOL    HW131625   1.839   4.382   9.204 -0.3641 -0.3179 -0.6176
 6721SOL    HW231626   1.909   4.310   9.097  3.1106  1.1915 -2.5468
 6722SOL     OW31627   3.299   3.386   8.068 -0.0817  0.2853 -0.4963
 6722SOL    HW131628   3.261   3.466   8.106 -0.6409 -0.5597  0.7284
 6722SOL    HW231629   3.227   3.324   8.060  0.1810  0.2842 -2.7174
 6723SOL     OW31630   3.995   1.471   1.347  0.4689  0.7718  0.0164
 6723SOL    HW131631   3.957   1.434   1.427 -1.8881 -0.2622 -1.5884
 6723SOL    HW231632   3.937   1.430   1.283  0.2709  0.9228  0.1002
 6724SOL     OW31633   2.036   4.008   5.465  0.7116  0.1369 -0.6304
 6724SOL    HW131634   2.059   3.917   5.486  0.9932  0.1399 -0.9354
 6724SOL    HW231635   2.061   4.055   5.545  1.1759 -1.9939  0.4801
 6725SOL     OW31636   3.307   2.959  15.902 -0.2162  0.2035  0.4040
 6725SOL    HW131637   3.310   3.046  15.862 -1.5885  0.2805  0.4597
 6725SOL    HW231638   3.368   2.955  15.975 -0.2677 -0.6605  0.4037
 6726SOL     OW31639   0.854   2.515   5.570 -0.0687 -0.2059  1.0206
 6726SOL    HW131640   0.879   2.491   5.659  1.8314 -1.2393  0.2198
 6726SOL    HW231641   0.939   2.538   5.532 -0.5852  0.0664  0.0394
 6727SOL     OW31642   0.515   4.585   4.838 -0.1055  0.2875  0.0485
 6727SOL    HW131643   0.482   4.663   4.883 -0.9340 -0.2731  0.4280
 6727SOL    HW231644   0.501   4.605   4.746  1.6591 -1.0402 -0.5103
 6728SOL     OW31645   2.102   2.628  11.404 -0.7359  0.1439 -0.3227
 6728SOL    HW131646   2.093   2.562  11.335 -1.8118  0.0937 -0.1338
 6728SOL    HW231647   2.117   2.573  11.481 -0.4405  0.4352 -0.1711
 6729SOL     OW31648   1.963   0.107   7.954 -0.9331 -0.4008 -0.1264
 6729SOL    HW131649   1.973   0.202   7.955  3.1917 -0.8277  0.5815
 6729SOL    HW231650   2.055   0.081   7.945 -0.0664  1.4349  3.1144
 6730SOL     OW31651   3.882   1.799  14.423 -0.8161  0.4873 -0.2862
 6730SOL    HW131652   3.883   1.887  14.387  0.0712  1.2638  1.6135
 6730SOL    HW231653   3.892   1.740  14.349 -0.2338  1.3463 -0.8930
 6731SOL     OW31654   2.304   0.946   3.828 -0.4868  0.3248 -0.5075
 6731SOL    HW131655   2.288   0.857   3.798 -2.2839  0.5219 -0.1720
 6731SOL    HW231656   2.229   0.955   3.887 -0.9359  0.3974 -1.0840
 6732SOL     OW31657   2.051   2.293   7.329 -0.2058  0.0972  0.0601
 6732SOL    HW131658   2.103   2.270   7.406  2.1836 -0.0474 -1.5638
 6732SOL    HW231659   2.118   2.321   7.266  0.0057  0.2580  0.3579
 6733SOL     OW31660   1.934   4.087   4.065  0.3549 -0.2000 -0.4558
 6733SOL    HW131661   1.936   4.158   4.002  0.5896 -2.4494 -2.9685
 6733SOL    HW231662   2.027   4.078   4.084  0.7077  1.4730 -1.4400
 6734SOL     OW31663   0.073   1.010  13.500  0.1166  0.8441 -0.2480
 6734SOL    HW131664   4.714   0.972  13.526  0.1771  1.5670  0.9875
 6734SOL    HW231665   0.030   1.068  13.437  1.7756 -0.2501 -2.3649
 6735SOL     OW31666   1.379   4.014   6.511 -1.1813  0.4719  0.0091
 6735SOL    HW131667   1.318   3.941   6.524 -0.5077  0.0172  0.6299
 6735SOL    HW231668   1.321   4.070   6.459  0.9828  2.7240  0.0437
 6736SOL     OW31669   4.035   1.153   3.258 -0.0925 -0.0933 -0.6827
 6736SOL    HW131670   3.952   1.194   3.235  1.3161  1.2443 -3.3933
 6736SOL    HW231671   4.028   1.094   3.183  0.4251 -4.7464  2.9047
 6737SOL     OW31672   2.763   0.400  11.461 -0.2895 -0.2743 -0.4118
 6737SOL    HW131673   2.813   0.364  11.534 -1.3744  1.7113  1.3148
 6737SOL    HW231674   2.677   0.409  11.502 -0.6777  2.9323 -1.8929
 6738SOL     OW31675   0.731   0.622   7.266 -0.2355 -0.6159 -0.3463
 6738SOL    HW131676   0.755   0.659   7.351  0.5371  1.3379 -1.4130
 6738SOL    HW231677   0.799   0.557   7.246  0.7267  0.2619  0.0439
 6739SOL     OW31678   4.396   4.214  11.375  0.7460 -0.1137 -0.1427
 6739SOL    HW131679   4.360   4.129  11.403 -1.6067  0.1007 -2.4402
 6739SOL    HW231680   4.364   4.264  11.450  1.4027  0.1182 -0.0259
 6740SOL     OW31681   3.121   0.380  11.515 -0.0691 -0.1933  0.0755
 6740SOL    HW131682   3.042   0.354  11.563  1.1177 -3.3114  0.3479
 6740SOL    HW231683   3.186   0.362  11.584  2.1858  1.2054 -1.7026
 6741SOL     OW31684   2.250   3.818   3.044  0.3028  0.2180 -0.2946
 6741SOL    HW131685   2.182   3.846   2.984 -0.7236  1.1102  1.2866
 6741SOL    HW231686   2.300   3.771   2.977  0.4533 -0.4374  0.2717
 6742SOL     OW31687   0.396   1.401   7.903  0.0171 -0.1637  0.3743
 6742SOL    HW131688   0.426   1.467   7.965 -1.2587  1.4752 -0.7293
 6742SOL    HW231689   0.305   1.397   7.934 -1.1972 -1.8684 -3.3801
 6743SOL     OW31690   4.331   0.170   5.322  0.0791  0.2181  0.0473
 6743SOL    HW131691   4.368   0.118   5.393  3.3973 -0.6856 -2.3155
 6743SOL    HW231692   4.380   0.252   5.331  2.7466 -1.3723 -0.0161
 6744SOL     OW31693   2.717   1.299  14.200  0.2230  0.2040 -0.1276
 6744SOL    HW131694   2.677   1.292  14.113 -0.1038  0.5564 -0.0036
 6744SOL    HW231695   2.758   1.385  14.205  0.5435 -0.0336  1.4531
 6745SOL     OW31696   4.643   2.222   8.269 -0.0603 -0.0217  0.2734
 6745SOL    HW131697   4.642   2.242   8.176 -1.9802  3.1528  0.9921
 6745SOL    HW231698   4.561   2.258   8.301 -0.6755 -1.0621 -0.1395
 6746SOL     OW31699   4.535   4.175   5.004  0.5637 -0.7062  0.2365
 6746SOL    HW131700   4.510   4.130   5.084  0.9635 -1.2530  0.0549
 6746SOL    HW231701   4.593   4.238   5.047 -0.1938  1.5578 -2.0557
 6747SOL     OW31702   0.476   0.670   0.596 -0.5144 -0.8397  0.0590
 6747SOL    HW131703   0.548   0.638   0.650 -1.6121 -0.8373  1.5277
 6747SOL    HW231704   0.416   0.596   0.583 -0.0043 -1.3377  0.5398
 6748SOL     OW31705   0.696   0.252   8.167  0.8294 -0.3073  0.5179
 6748SOL    HW131706   0.736   0.337   8.187  1.9966 -1.4706  3.0345
 6748SOL    HW231707   0.761   0.215   8.108 -0.0882 -0.5069 -0.3693
 6749SOL     OW31708   2.766   2.513  14.352 -0.3403 -0.2311 -0.2794
 6749SOL    HW131709   2.800   2.488  14.438 -0.5965 -0.8482 -0.3607
 6749SOL    HW231710   2.837   2.564  14.313  0.5631 -0.5782  0.9302
 6750SOL     OW31711   0.936   3.601  14.359  0.1742  0.2489 -0.3958
 6750SOL    HW131712   0.938   3.511  14.394 -0.5477  0.6610  0.7091
 6750SOL    HW231713   0.885   3.643  14.428 -0.8291  0.8388 -1.5046
 6751SOL     OW31714   0.478   0.815   7.701  0.5330  0.0081  0.2261
 6751SOL    HW131715   0.448   0.854   7.783  0.5195  0.8221 -0.1598
 6751SOL    HW231716   0.427   0.735   7.688  0.8015  0.0766 -1.2651
 6752SOL     OW31717   0.898   4.718   7.798 -0.1464 -0.2846  0.6630
 6752SOL    HW131718   0.834   0.063   7.784  0.3618 -0.3630 -2.0844
 6752SOL    HW231719   0.852   4.677   7.871  1.6457 -0.1932  1.8352
 6753SOL     OW31720   0.088   2.625   7.544 -0.1907 -0.4852  0.0815
 6753SOL    HW131721   0.139   2.643   7.465 -1.1882  1.2112 -0.1706
 6753SOL    HW231722   0.033   2.702   7.556 -1.2855 -1.3685  0.7713
 6754SOL     OW31723   3.175   3.892   7.293  0.6805  0.0382 -0.4272
 6754SOL    HW131724   3.085   3.923   7.279 -0.0587 -1.9174  0.0439
 6754SOL    HW231725   3.232   3.929   7.226 -0.0655 -0.2415 -1.2181
 6755SOL     OW31726   2.503   2.420   7.291  0.4469  0.4609 -0.3682
 6755SOL    HW131727   2.505   2.511   7.322 -0.7699  0.3045  0.1817
 6755SOL    HW231728   2.594   2.392   7.285 -0.3402 -2.6622  2.1671
 6756SOL     OW31729   3.773   1.041  13.213  0.2225  0.0349 -0.2428
 6756SOL    HW131730   3.750   0.956  13.174  1.1736 -0.2764 -0.1291
 6756SOL    HW231731   3.832   1.083  13.149 -0.5443  1.7935  0.2216
 6757SOL     OW31732   3.004   1.815   7.138  0.1770  0.0389 -0.4360
 6757SOL    HW131733   3.015   1.877   7.210  2.4345  3.7361 -4.0278
 6757SOL    HW231734   3.010   1.882   7.070 -2.5315 -0.9602 -1.6936
 6758SOL     OW31735   0.191   3.237  13.106  0.6718 -0.4887 -0.3119
 6758SOL    HW131736   0.174   3.307  13.043 -0.1318  0.2902  0.7688
 6758SOL    HW231737   0.142   3.269  13.182  1.6373 -1.1927  0.6094
 6759SOL     OW31738   2.590   2.254   3.466  0.1535 -0.1126 -0.2050
 6759SOL    HW131739   2.511   2.300   3.437 -0.0419 -1.2558 -1.4546
 6759SOL    HW231740   2.580   2.241   3.560  2.3697 -1.3170 -0.1349
 6760SOL     OW31741   4.161   3.485  14.115  0.0879  0.4940 -0.2542
 6760SOL    HW131742   4.249   3.519  14.098  0.0636  0.4617 -0.4471
 6760SOL    HW231743   4.115   3.538  14.051 -0.4847 -2.6278 -2.4596
 6761SOL     OW31744   3.097   3.306   3.991 -0.4195 -0.1515 -0.0542
 6761SOL    HW131745   3.067   3.304   3.900 -0.0442  1.0923 -0.2060
 6761SOL    HW231746   3.108   3.400   3.998  0.5471 -0.1963 -1.0304
 6762SOL     OW31747   3.820   0.717   8.355  0.0031 -0.8459 -0.0132
 6762SOL    HW131748   3.901   0.748   8.315 -0.0397 -0.5154  0.1555
 6762SOL    HW231749   3.836   0.740   8.446 -0.7494  0.7108 -0.2641
 6763SOL     OW31750   3.191   3.394   3.473 -0.3161 -0.3711 -0.4844
 6763SOL    HW131751   3.241   3.367   3.396  4.4478  1.9051  1.7820
 6763SOL    HW231752   3.227   3.481   3.487  0.2552 -0.7199  0.2389
 6764SOL     OW31753   1.980   0.237   4.467 -0.2886 -0.1378 -0.7488
 6764SOL    HW131754   1.988   0.155   4.514 -1.2813 -0.1826 -0.6480
 6764SOL    HW231755   1.967   0.215   4.374  0.9652 -1.5203 -0.5753
 6765SOL     OW31756   1.465   3.123  12.710 -0.4604 -0.1343 -0.5511
 6765SOL    HW131757   1.509   3.207  12.719  0.0073 -0.5349  0.9288
 6765SOL    HW231758   1.548   3.076  12.711 -0.6399 -0.4457 -0.1258
 6766SOL     OW31759   2.198   1.183   2.875  0.1339 -0.2978  0.0129
 6766SOL    HW131760   2.138   1.117   2.909 -1.4874  0.9529 -0.3692
 6766SOL    HW231761   2.146   1.254   2.837 -1.4265 -1.3720  0.1401
 6767SOL     OW31762   4.239   2.294  12.138 -0.1168  0.1800 -0.2107
 6767SOL    HW131763   4.253   2.200  12.129 -1.4321 -0.0297 -0.1379
 6767SOL    HW231764   4.308   2.305  12.203 -0.0530  1.4454 -0.4842
 6768SOL     OW31765   2.885   2.372  10.292 -0.2799  0.3881  0.1299
 6768SOL    HW131766   2.940   2.319  10.235  0.1726  1.3655 -0.3277
 6768SOL    HW231767   2.844   2.428  10.226 -0.8405 -0.5757 -0.3583
 6769SOL     OW31768   0.826   4.586   4.874  0.3957  0.8459 -0.3309
 6769SOL    HW131769   0.823   4.573   4.779  1.5066 -1.9488  0.0234
 6769SOL    HW231770   0.733   4.609   4.882 -0.5084 -3.0114  0.2453
 6770SOL     OW31771   0.977   2.264   9.256  0.4873  0.3745 -0.0211
 6770SOL    HW131772   1.018   2.297   9.335  2.1107  1.6312 -1.3999
 6770SOL    HW231773   0.906   2.205   9.285 -0.1974  0.5344 -1.3374
 6771SOL     OW31774   1.660   2.813   9.695 -0.4129 -0.1486 -0.4466
 6771SOL    HW131775   1.678   2.755   9.621  0.7626  1.0914 -1.1229
 6771SOL    HW231776   1.665   2.899   9.654 -1.8270  0.4995  0.7345
 6772SOL     OW31777   2.517   1.876  14.285 -0.3454  0.3324 -0.4696
 6772SOL    HW131778   2.479   1.915  14.206 -0.9002 -0.5187 -0.6152
 6772SOL    HW231779   2.593   1.934  14.281  1.9490 -2.6529  0.0872
 6773SOL     OW31780   4.414   3.285   6.883 -0.6819  0.6981 -0.4888
 6773SOL    HW131781   4.365   3.359   6.918 -1.4697  1.1677 -2.6369
 6773SOL    HW231782   4.501   3.315   6.857 -1.1829  0.4715 -2.3809
 6774SOL     OW31783   4.586   2.251   2.781  0.0205  0.2837  0.0608
 6774SOL    HW131784   4.617   2.259   2.872 -1.1564 -0.2152  0.5001
 6774SOL    HW231785   4.530   2.174   2.790 -0.2390  0.4802  0.1101
 6775SOL     OW31786   3.051   2.710  15.030 -0.1678 -0.3438 -0.2063
 6775SOL    HW131787   3.073   2.647  14.962 -0.4851 -1.3298  0.6163
 6775SOL    HW231788   3.107   2.785  15.007 -0.0804 -0.5321 -0.6088
 6776SOL     OW31789   4.025   3.591  16.748  0.7273  0.3468  0.1151
 6776SOL    HW131790   4.043   3.580  16.655 -0.2399 -0.1073 -0.0236
 6776SOL    HW231791   3.929   3.589  16.742  0.8497  1.3966 -2.2254
 6777SOL     OW31792   4.202   1.489   7.068 -0.7167 -0.4449  0.4078
 6777SOL    HW131793   4.237   1.425   7.007 -3.3366 -0.7832 -0.7328
 6777SOL    HW231794   4.111   1.496   7.038 -0.3337  0.8012 -0.4589
 6778SOL     OW31795   2.691   0.048  14.875 -0.2965  0.8698  0.0639
 6778SOL    HW131796   2.749   0.029  14.949  0.9022 -0.0586 -1.1013
 6778SOL    HW231797   2.633   4.697  14.879 -1.1545  1.6440  2.2209
 6779SOL     OW31798   2.740   3.899  11.684  0.0029  0.0513  0.0554
 6779SOL    HW131799   2.815   3.923  11.738  2.0276 -0.2465 -2.5964
 6779SOL    HW231800   2.751   3.947  11.602 -0.0376  1.1238  0.6881
 6780SOL     OW31801   2.727   3.510  11.753  0.1710  0.7404  0.1941
 6780SOL    HW131802   2.738   3.507  11.658  1.0881  0.7611  0.3001
 6780SOL    HW231803   2.633   3.523  11.763  0.4057  2.6446  0.0199
 6781SOL     OW31804   2.458   4.199   8.951  0.4214 -0.0202  0.2566
 6781SOL    HW131805   2.399   4.174   9.023 -1.6248 -1.1026 -1.8092
 6781SOL    HW231806   2.410   4.189   8.869  2.5166  2.1500 -1.2344
 6782SOL     OW31807   0.645   2.053   4.257 -0.0143 -0.3527 -0.5296
 6782SOL    HW131808   0.609   2.103   4.331 -1.8517  0.5349 -2.0125
 6782SOL    HW231809   0.727   2.027   4.298  0.1025  1.5288  0.4068
 6783SOL     OW31810   4.382   3.430   4.491  0.5781  0.2678  0.3585
 6783SOL    HW131811   4.317   3.375   4.534  2.2077 -0.4518  1.8960
 6783SOL    HW231812   4.356   3.515   4.525 -1.1620  0.3602 -1.2259
 6784SOL     OW31813   0.152   1.543   7.852 -0.1339  0.3946 -0.2488
 6784SOL    HW131814   0.136   1.569   7.762 -1.0734  1.0963  0.1209
 6784SOL    HW231815   0.134   1.449   7.840 -1.1243  0.4421  0.7835
 6785SOL     OW31816   2.019   4.608   4.564  0.2256  0.1689  0.0575
 6785SOL    HW131817   1.955   4.545   4.598  0.8488  0.3433  1.5317
 6785SOL    HW231818   2.073   4.634   4.638 -2.3820  2.4676  1.1255
 6786SOL     OW31819   3.173   2.825   8.412 -0.7211 -0.3334 -0.0927
 6786SOL    HW131820   3.136   2.912   8.426  0.0339  0.2400 -1.6339
 6786SOL    HW231821   3.215   2.836   8.327 -1.3130  1.4574 -0.1425
 6787SOL     OW31822   2.160   3.714  17.054 -0.0808 -0.0335  0.5687
 6787SOL    HW131823   2.159   3.673  16.967  1.2940 -0.5875  0.8228
 6787SOL    HW231824   2.090   3.775  17.031 -0.6602 -1.3136 -1.0853
 6788SOL     OW31825   3.530   0.173   7.249 -0.4679  0.1646  0.1265
 6788SOL    HW131826   3.467   0.124   7.196  0.1271  1.4930 -1.8416
 6788SOL    HW231827   3.615   0.136   7.224 -0.1115  0.3586  1.0535
 6789SOL     OW31828   2.116   0.356   3.399 -0.3629  0.1234 -0.2305
 6789SOL    HW131829   2.037   0.312   3.368  1.6531 -2.3190 -1.9699
 6789SOL    HW231830   2.181   0.316   3.340 -0.0727  2.2891 -1.3779
 6790SOL     OW31831   0.217   2.706   5.944 -0.0229  0.2091  0.2418
 6790SOL    HW131832   0.236   2.785   5.994  0.5838  2.0064 -2.8158
 6790SOL    HW231833   0.296   2.701   5.890 -0.2067 -2.1249  0.1765
 6791SOL     OW31834   0.159   1.089   9.395 -0.3772 -0.1444 -0.1126
 6791SOL    HW131835   0.248   1.079   9.359 -0.1396  2.6119 -0.2434
 6791SOL    HW231836   0.104   1.078   9.318  0.4546  3.0511 -1.1601
 6792SOL     OW31837   1.689   2.084   4.614  0.3583 -0.9887  0.8035
 6792SOL    HW131838   1.743   2.130   4.550  0.8755 -2.1275  0.4067
 6792SOL    HW231839   1.754   2.022   4.647 -2.1433 -4.4923 -0.8609
 6793SOL     OW31840   1.213   3.686   7.829  0.6055 -0.0457  0.1283
 6793SOL    HW131841   1.280   3.704   7.895 -1.4674 -0.3018  2.3359
 6793SOL    HW231842   1.206   3.595   7.858  2.6483 -1.0704 -2.5949
 6794SOL     OW31843   1.695   3.875   9.394 -0.1579 -0.6131  0.3265
 6794SOL    HW131844   1.641   3.951   9.415  2.9216  1.4112  0.9660
 6794SOL    HW231845   1.622   3.816   9.374 -0.9713  0.5747 -0.1593
 6795SOL     OW31846   2.952   4.109   2.682 -0.1971 -0.1945 -0.4920
 6795SOL    HW131847   2.996   4.026   2.663 -0.9703 -1.0967  1.6762
 6795SOL    HW231848   3.031   4.151   2.718 -0.0602 -1.1700  0.3503
 6796SOL     OW31849   0.084   2.830   8.768  0.7642  0.0726  0.6324
 6796SOL    HW131850   0.001   2.869   8.740  1.9768  1.4748 -0.9874
 6796SOL    HW231851   0.053   2.759   8.824  1.5123 -1.2994 -0.6999
 6797SOL     OW31852   0.482   0.941   2.965 -0.3599  0.1300  0.5100
 6797SOL    HW131853   0.537   0.995   2.910 -0.2953 -3.2550 -2.7386
 6797SOL    HW231854   0.398   0.957   2.922  0.3343  2.1958 -0.0552
 6798SOL     OW31855   1.377   0.311   2.985 -0.1503  0.6049 -0.7186
 6798SOL    HW131856   1.435   0.385   3.003  0.2495  0.0059  0.4231
 6798SOL    HW231857   1.437   0.237   2.974 -2.7134 -1.8461  1.8120
 6799SOL     OW31858   0.249   3.162   0.083 -0.1061 -0.5254  0.1161
 6799SOL    HW131859   0.324   3.117   0.122  0.0333 -0.6217 -0.2571
 6799SOL    HW231860   0.209   3.092   0.032  1.4657  0.7878 -2.9481
 6800SOL     OW31861   4.289   3.441   3.955 -0.0505  0.2049 -0.1989
 6800SOL    HW131862   4.244   3.416   3.875  1.0635 -0.1450 -0.7252
 6800SOL    HW231863   4.376   3.409   3.930 -0.2906  0.3209 -1.1934
 6801SOL     OW31864   3.687   3.796   6.379 -0.3084  0.7324  0.4455
 6801SOL    HW131865   3.596   3.826   6.387 -0.5369  0.6018 -1.8091
 6801SOL    HW231866   3.704   3.815   6.287 -1.0855  3.1569  0.7918
 6802SOL     OW31867   2.624   1.481   3.362  0.1458 -0.2276  0.0703
 6802SOL    HW131868   2.536   1.444   3.364  0.8340 -1.7820  2.4853
 6802SOL    HW231869   2.617   1.546   3.292  0.7617 -0.5121 -0.2640
 6803SOL     OW31870   3.617   0.563   1.181 -0.0281 -0.0644 -0.3265
 6803SOL    HW131871   3.618   0.512   1.261 -0.9479  0.2959 -0.0876
 6803SOL    HW231872   3.565   0.509   1.121 -0.8403  0.0082  0.3091
 6804SOL     OW31873   2.162   4.541   5.482  0.1959  0.0453 -0.7585
 6804SOL    HW131874   2.145   4.534   5.576  0.8263  0.9207 -0.5812
 6804SOL    HW231875   2.086   4.496   5.445 -1.0553  0.6683  1.0886
 6805SOL     OW31876   1.526   3.615   5.773  0.2676 -0.2356  0.1937
 6805SOL    HW131877   1.467   3.601   5.847  1.5426 -0.0680  1.2523
 6805SOL    HW231878   1.611   3.643   5.807 -0.5392  0.5078  1.6364
 6806SOL     OW31879   1.577   0.760   1.447 -0.1227 -0.2808 -0.2809
 6806SOL    HW131880   1.595   0.787   1.357  0.1414  1.1321  0.1880
 6806SOL    HW231881   1.639   0.689   1.462 -0.2554 -0.3775 -0.1903
 6807SOL     OW31882   1.528   2.908   5.102  0.4510  0.4524  0.1156
 6807SOL    HW131883   1.594   2.840   5.090  0.8733  1.3388 -2.5556
 6807SOL    HW231884   1.561   2.979   5.048 -1.3186 -0.5984 -2.3884
 6808SOL     OW31885   2.413   1.813   3.413 -0.4172 -0.0717 -0.1249
 6808SOL    HW131886   2.452   1.844   3.332  0.6896 -0.3322  0.3108
 6808SOL    HW231887   2.379   1.728   3.386 -0.6526  0.9530 -3.0813
 6809SOL     OW31888   0.011   1.192   1.358 -0.7764  0.0249 -0.0569
 6809SOL    HW131889   0.044   1.214   1.271  0.8161 -2.4581 -0.0866
 6809SOL    HW231890   0.073   1.220   1.426 -1.3881  2.0388 -0.3546
 6810SOL     OW31891   3.910   1.319  10.471 -0.1641  0.3717  0.4868
 6810SOL    HW131892   3.891   1.401  10.426 -1.4422 -0.3162 -0.2252
 6810SOL    HW231893   3.995   1.301  10.429  0.6115 -0.6988  2.5286
 6811SOL     OW31894   0.730   0.790   7.493  0.3950 -0.4073 -0.1185
 6811SOL    HW131895   0.732   0.870   7.439 -0.6209 -0.6693 -0.5471
 6811SOL    HW231896   0.652   0.812   7.543  0.6816 -0.5569  0.3878
 6812SOL     OW31897   1.171   2.300   2.270 -0.2629  0.9971  0.3062
 6812SOL    HW131898   1.167   2.255   2.186  0.0730 -1.4833  1.6155
 6812SOL    HW231899   1.220   2.381   2.252 -3.3872  3.0703  1.0262
 6813SOL     OW31900   1.561   0.074   3.068 -0.4535 -0.1678  0.0631
 6813SOL    HW131901   1.655   0.068   3.084 -0.7897 -1.4374  1.6295
 6813SOL    HW231902   1.539   0.009   3.136 -1.6414 -0.0840 -0.2517
 6814SOL     OW31903   4.267   2.923   4.728  0.3162  0.2932  0.0918
 6814SOL    HW131904   4.350   2.952   4.766 -0.0762 -1.3444  2.2080
 6814SOL    HW231905   4.245   2.841   4.772  1.7612 -0.5636 -0.7647
 6815SOL     OW31906   1.221   2.981  16.238  0.1598 -0.1545  0.3813
 6815SOL    HW131907   1.179   3.036  16.172 -0.1307 -1.2277 -0.3266
 6815SOL    HW231908   1.299   3.031  16.262  0.2309  0.2684 -0.7246
 6816SOL     OW31909   3.289   1.925   0.776 -0.4092 -0.3315 -0.1783
 6816SOL    HW131910   3.196   1.901   0.779 -0.1606 -1.1214  1.3713
 6816SOL    HW231911   3.299   1.954   0.686  1.9775  0.7345  0.4226
 6817SOL     OW31912   4.361   2.210   5.450 -0.1021 -0.4333  0.6622
 6817SOL    HW131913   4.268   2.219   5.432  0.2001 -0.8099 -1.0676
 6817SOL    HW231914   4.352   2.135   5.509  1.0964 -0.3803  0.9312
 6818SOL     OW31915   4.136   3.790   5.896  0.0056 -0.2968  0.2240
 6818SOL    HW131916   4.178   3.724   5.842  0.9759  0.2471  0.3147
 6818SOL    HW231917   4.177   3.783   5.982 -0.8612  0.2028  0.6823
 6819SOL     OW31918   1.932   2.191   8.316 -0.0104 -0.4735 -0.3311
 6819SOL    HW131919   2.017   2.235   8.323  0.7758 -2.3031  1.5688
 6819SOL    HW231920   1.894   2.225   8.235  0.9188  0.0347 -0.5558
 6820SOL     OW31921   0.076   2.604   4.604 -0.0575  0.0581 -0.3415
 6820SOL    HW131922   0.104   2.682   4.557  1.7749 -1.2284 -1.3864
 6820SOL    HW231923   4.706   2.606   4.611 -0.0315  0.8902 -0.1933
 6821SOL     OW31924   0.868   2.984   9.299  0.2424  0.2260 -0.5894
 6821SOL    HW131925   0.856   3.076   9.277 -2.0907  0.3988  1.3398
 6821SOL    HW231926   0.819   2.985   9.382  0.0941 -0.7225 -0.6618
 6822SOL     OW31927   0.690   2.187   3.990 -0.0680  0.0590 -0.2053
 6822SOL    HW131928   0.679   2.276   3.959 -0.7865 -0.0272 -0.1973
 6822SOL    HW231929   0.639   2.183   4.071 -0.3215  1.6686 -0.2997
 6823SOL     OW31930   3.716   1.236   8.668  0.1716 -0.2226  0.2207
 6823SOL    HW131931   3.787   1.173   8.659  3.1198  3.2138 -0.6634
 6823SOL    HW231932   3.644   1.182   8.635 -0.9644  1.7519 -0.5359
 6824SOL     OW31933   4.546   2.697   2.572 -0.2696  0.8410 -0.3112
 6824SOL    HW131934   4.599   2.695   2.493 -0.9364  2.1789 -0.7848
 6824SOL    HW231935   4.614   2.709   2.639  0.2613 -1.3156 -0.4638
 6825SOL     OW31936   3.242   3.803   4.967  0.7525  0.1171 -0.1678
 6825SOL    HW131937   3.263   3.764   5.052  1.1477  0.2064 -0.2240
 6825SOL    HW231938   3.326   3.796   4.923  1.0049 -0.7752  0.4552
 6826SOL     OW31939   0.190   4.684   5.535  0.2189  0.0367 -0.5144
 6826SOL    HW131940   0.123   0.028   5.523 -0.0544 -0.2387 -0.5668
 6826SOL    HW231941   0.233   4.702   5.618  2.5542 -1.1737 -1.4805
 6827SOL     OW31942   3.429   4.113   7.886  0.5830 -0.9506 -0.0433
 6827SOL    HW131943   3.339   4.083   7.902  0.4103 -1.1607 -1.3931
 6827SOL    HW231944   3.397   4.194   7.846  2.1156 -0.1646  0.3271
 6828SOL     OW31945   2.945   2.429  14.046  0.1636  0.2431  0.1382
 6828SOL    HW131946   2.875   2.495  14.052  1.3600  1.5971 -0.9472
 6828SOL    HW231947   3.008   2.460  13.981  1.5809 -0.3164  1.2466
 6829SOL     OW31948   2.312   4.259   0.414  0.2840  0.3181  0.3991
 6829SOL    HW131949   2.336   4.308   0.493  1.7747  0.5438 -0.1798
 6829SOL    HW231950   2.373   4.185   0.422 -1.4354 -1.1391  0.0321
 6830SOL     OW31951   3.954   2.060   7.146  0.1680  0.2580  0.0417
 6830SOL    HW131952   3.894   2.135   7.139 -0.7691 -0.6530 -1.6286
 6830SOL    HW231953   3.907   1.989   7.190  0.5226 -0.6707 -1.0722
 6831SOL     OW31954   3.135   0.997   6.977 -0.2657 -0.0275 -0.0505
 6831SOL    HW131955   3.230   0.990   6.990  0.2012  3.1942 -1.6069
 6831SOL    HW231956   3.123   1.086   6.944 -2.4358 -0.2044  0.2768
 6832SOL     OW31957   4.257   1.826   2.829  0.1271  0.1634  0.3845
 6832SOL    HW131958   4.235   1.785   2.913 -0.1515 -0.6390 -0.0757
 6832SOL    HW231959   4.188   1.791   2.773  1.7777  0.2518 -1.6567
 6833SOL     OW31960   0.465   2.185   6.858 -0.4879  0.6669  0.6500
 6833SOL    HW131961   0.491   2.123   6.790 -0.6526 -0.5207  1.6599
 6833SOL    HW231962   0.550   2.212   6.893 -0.1848 -2.9857  2.8664
 6834SOL     OW31963   0.508   2.015   3.805  0.5317 -0.1783 -0.5038
 6834SOL    HW131964   0.550   2.043   3.887 -0.3700 -0.7207  0.1372
 6834SOL    HW231965   0.477   1.927   3.822  0.6463 -0.1452 -0.1244
 6835SOL     OW31966   3.680   1.434   7.473  0.1548 -0.4207 -0.4969
 6835SOL    HW131967   3.675   1.339   7.482  0.5369 -0.4774 -0.8796
 6835SOL    HW231968   3.631   1.467   7.549 -0.8427  0.5199 -1.5480
 6836SOL     OW31969   0.258   1.710   1.582  1.0052  0.4990  0.1102
 6836SOL    HW131970   0.301   1.783   1.535  1.0370 -0.6908 -1.7221
 6836SOL    HW231971   0.190   1.768   1.615 -0.6956 -1.0434 -0.7274
 6837SOL     OW31972   0.834   3.928   4.630 -0.2614  0.2102  0.6712
 6837SOL    HW131973   0.904   3.886   4.679  0.0858 -1.7358 -1.4603
 6837SOL    HW231974   0.822   4.014   4.669  1.0857  1.0978 -0.8639
 6838SOL     OW31975   1.744   2.094   6.368 -0.1052 -0.2319 -0.3770
 6838SOL    HW131976   1.832   2.064   6.349  0.9272 -0.6082  4.8855
 6838SOL    HW231977   1.771   2.134   6.451  1.1938 -0.2406 -0.7978
 6839SOL     OW31978   0.798   4.664   5.888  0.2202  0.8149  0.4396
 6839SOL    HW131979   0.741   4.624   5.822  0.5457  1.2145 -0.0892
 6839SOL    HW231980   0.877   4.664   5.833 -0.1213  6.8000 -0.0786
 6840SOL     OW31981   0.314   4.392   7.736  0.1649 -0.1210 -0.7306
 6840SOL    HW131982   0.246   4.357   7.794  0.6738  0.7248  0.3788
 6840SOL    HW231983   0.367   4.447   7.794 -0.8685  1.3189 -1.1600
 6841SOL     OW31984   3.145   0.180   4.639 -0.0546 -0.4734  0.1380
 6841SOL    HW131985   3.222   0.159   4.691  0.1811  0.1999  0.0632
 6841SOL    HW231986   3.078   0.201   4.704 -1.3937 -0.4604 -1.2582
 6842SOL     OW31987   4.044   0.791  16.262 -0.3891  0.2059 -0.0517
 6842SOL    HW131988   3.976   0.855  16.244 -0.4262 -0.0330 -0.7676
 6842SOL    HW231989   3.997   0.711  16.286 -2.6530  2.2548  2.3870
 6843SOL     OW31990   4.109   4.024   1.907  0.2663  0.2950 -0.2125
 6843SOL    HW131991   4.063   4.082   1.845  0.5163 -0.3355 -0.9871
 6843SOL    HW231992   4.095   4.078   1.985  3.2804  0.7559  0.0356
 6844SOL     OW31993   0.492   4.602   0.297  0.1159 -0.2224 -0.3061
 6844SOL    HW131994   0.495   4.671   0.230  1.8380  1.1318  1.1698
 6844SOL    HW231995   0.582   4.614   0.327 -0.0063 -0.0757 -0.0016
 6845SOL     OW31996   2.095   1.970  16.335 -0.0559 -0.6959  0.2146
 6845SOL    HW131997   2.184   1.938  16.324  0.3972  0.4913  0.3548
 6845SOL    HW231998   2.049   1.939  16.257 -1.6601  1.8559  0.1510
 6846SOL     OW31999   1.731   3.501   6.154 -0.3336 -0.0055  0.0073
 6846SOL    HW132000   1.810   3.551   6.135 -1.6140  2.2681  0.6898
 6846SOL    HW232001   1.701   3.478   6.067  0.9743 -4.1232  0.6263
 6847SOL     OW32002   4.341   2.366  13.798 -0.0451  0.4514 -0.5385
 6847SOL    HW132003   4.378   2.356  13.886  0.2007  0.2301 -0.6657
 6847SOL    HW232004   4.254   2.401  13.814 -0.0882  0.3406 -0.5282
 6848SOL     OW32005   3.480   0.703   8.448  0.3496  0.6225  0.0241
 6848SOL    HW132006   3.464   0.688   8.355  1.4436 -2.6384  0.3719
 6848SOL    HW232007   3.477   0.615   8.484  0.2822  0.6033 -0.0286
 6849SOL     OW32008   1.256   1.897   9.916 -0.2514  0.0847  0.1768
 6849SOL    HW132009   1.321   1.830   9.939 -1.2674 -1.0433 -0.2360
 6849SOL    HW232010   1.178   1.843   9.899 -0.7022  0.9680 -0.5565
 6850SOL     OW32011   1.388   2.725   3.669  0.0104 -0.0788 -0.2606
 6850SOL    HW132012   1.386   2.687   3.757  0.0778  0.6715  0.0638
 6850SOL    HW232013   1.423   2.646   3.626 -0.1387 -1.5548  2.2920
 6851SOL     OW32014   3.122   2.199   1.981 -0.3063 -0.0711 -0.4278
 6851SOL    HW132015   3.205   2.242   2.002 -0.3309 -0.8932  1.3672
 6851SOL    HW232016   3.083   2.251   1.912 -0.2181  1.5275  0.7319
 6852SOL     OW32017   4.380   3.083  17.351  0.0534  0.0462 -0.6441
 6852SOL    HW132018   4.382   2.991  17.378 -1.7487  0.3012  0.3226
 6852SOL    HW232019   4.318   3.122  17.413 -1.7600 -3.0783 -0.4370
 6853SOL     OW32020   3.493   2.200   4.468 -0.5081 -0.7587  0.2501
 6853SOL    HW132021   3.443   2.248   4.401 -1.2326 -1.1344  0.5212
 6853SOL    HW232022   3.481   2.107   4.450  0.3171 -0.6444 -0.8747
 6854SOL     OW32023   2.914   0.701   4.293  0.5215  0.2000 -0.0595
 6854SOL    HW132024   2.855   0.633   4.324 -2.2963  1.9131 -1.7486
 6854SOL    HW232025   2.886   0.691   4.202  0.8080  1.3617 -0.2754
 6855SOL     OW32026   1.561   3.669   8.368 -0.0151 -0.9488 -0.6600
 6855SOL    HW132027   1.610   3.682   8.287 -0.5061  2.2483 -0.4228
 6855SOL    HW232028   1.598   3.584   8.393  1.7249 -0.2186 -0.7743
 6856SOL     OW32029   0.786   3.936   8.208  0.0645 -0.0478  0.0364
 6856SOL    HW132030   0.821   3.978   8.287  1.7646 -0.7834 -0.3180
 6856SOL    HW232031   0.848   3.953   8.137  0.0842  2.8913  0.7580
 6857SOL     OW32032   0.537   0.988   5.007  0.5301  0.4116  0.1019
 6857SOL    HW132033   0.570   0.927   4.941 -0.5198  0.5378 -0.5447
 6857SOL    HW232034   0.451   0.948   5.020  0.4744  0.1032 -1.1970
 6858SOL     OW32035   0.980   0.846   8.776  0.0822 -0.7722  0.1955
 6858SOL    HW132036   0.947   0.920   8.725 -1.6182 -2.5777 -1.3432
 6858SOL    HW232037   1.053   0.885   8.824 -0.8364  0.0671  0.9053
 6859SOL     OW32038   4.020   3.617   3.897 -0.5032 -0.2539 -1.1265
 6859SOL    HW132039   4.094   3.586   3.949  0.0309  1.3383 -0.9523
 6859SOL    HW232040   3.986   3.534   3.863  1.5881 -1.3032 -0.6341
 6860SOL     OW32041   4.081   0.352  12.863 -0.1129 -0.1721  0.4959
 6860SOL    HW132042   4.069   0.259  12.884  0.4570  0.2945  2.9485
 6860SOL    HW232043   4.032   0.395  12.934 -1.3763  0.4207 -0.7400
 6861SOL     OW32044   1.300   2.964   5.271  0.0193 -0.2367  0.1478
 6861SOL    HW132045   1.325   3.056   5.281 -2.2970  0.2313  1.5184
 6861SOL    HW232046   1.358   2.924   5.206 -0.6695 -0.3416 -0.3889
 6862SOL     OW32047   1.107   2.085  17.692  0.2706 -0.2934  0.0237
 6862SOL    HW132048   1.023   2.131  17.685 -0.4958 -1.5836  0.5666
 6862SOL    HW232049   1.130   2.122   0.076  0.5568  0.7462 -0.5142
 6863SOL     OW32050   1.731   0.223  17.201  0.2659  0.4226 -0.1503
 6863SOL    HW132051   1.771   0.295  17.151 -0.0128  0.8129  0.1862
 6863SOL    HW232052   1.645   0.231  17.160 -0.1508 -1.4673  0.3794
 6864SOL     OW32053   2.608   2.771  15.972  0.0948 -0.6054 -0.2146
 6864SOL    HW132054   2.656   2.694  16.002 -1.1002 -0.4062  2.2317
 6864SOL    HW232055   2.520   2.733  15.962 -0.4906  0.9605 -1.0156
 6865SOL     OW32056   3.421   2.799   0.401 -0.6725  0.0845 -0.1066
 6865SOL    HW132057   3.341   2.845   0.429 -0.7793  1.0455 -1.9904
 6865SOL    HW232058   3.474   2.797   0.480 -2.9425  3.3287  1.5245
 6866SOL     OW32059   1.233   0.636   8.570  0.3309  0.1677 -0.1967
 6866SOL    HW132060   1.199   0.725   8.560 -0.9924 -0.6640 -3.1087
 6866SOL    HW232061   1.255   0.608   8.481 -0.9292  1.4849 -0.9214
 6867SOL     OW32062   1.512   2.562  12.096  0.0800  0.0301 -0.5869
 6867SOL    HW132063   1.420   2.537  12.082 -0.2003  0.3640  0.6453
 6867SOL    HW232064   1.547   2.487  12.143  0.1027 -0.3712 -1.2543
 6868SOL     OW32065   2.759   2.409   5.306 -0.2058  0.0032  0.6952
 6868SOL    HW132066   2.731   2.341   5.367  0.7377 -0.7544  0.2965
 6868SOL    HW232067   2.826   2.354   5.264  0.5140  1.7957 -0.5129
 6869SOL     OW32068   1.987   4.707  16.579  0.7502 -0.1667  0.1478
 6869SOL    HW132069   1.978   0.021  16.492 -1.2851 -1.2260 -0.1148
 6869SOL    HW232070   2.010   0.056  16.635  1.3927  0.2216 -0.6315
 6870SOL     OW32071   4.041   0.688  17.188 -0.1359 -0.4902  0.5986
 6870SOL    HW132072   4.087   0.609  17.158  0.8788  0.1189  0.5339
 6870SOL    HW232073   4.112   0.727  17.239  0.1248  0.3111 -0.3641
 6871SOL     OW32074   3.844   2.238   2.141 -0.2071  0.2331 -0.2134
 6871SOL    HW132075   3.852   2.143   2.128 -0.8372  0.0295  0.9028
 6871SOL    HW232076   3.750   2.236   2.159 -0.2408 -1.6064 -0.5599
 6872SOL     OW32077   0.411   3.128   3.185  0.0253  0.2171  0.1419
 6872SOL    HW132078   0.418   3.218   3.219 -2.5511 -0.1999  1.7309
 6872SOL    HW232079   0.493   3.118   3.136 -0.7277 -1.0593 -0.8499
 6873SOL     OW32080   4.449   0.038  16.760  0.0441  0.1774  0.2973
 6873SOL    HW132081   4.493   4.681  16.736  0.3292  0.3616  0.1845
 6873SOL    HW232082   4.357   0.014  16.753 -0.5517  2.1928  1.2770
 6874SOL     OW32083   2.048   4.160  14.128 -0.1125  0.1055  0.1395
 6874SOL    HW132084   2.032   4.078  14.173  0.7250 -1.4676 -2.3980
 6874SOL    HW232085   1.964   4.187  14.090 -0.5842  2.1560  2.6692
 6875SOL     OW32086   3.451   0.768   9.813  0.4541 -0.0191 -0.1971
 6875SOL    HW132087   3.361   0.800   9.805  1.1250  2.3831  1.9121
 6875SOL    HW232088   3.487   0.766   9.725  0.8961  0.5713 -0.0327
 6876SOL     OW32089   3.420   2.493   4.577 -0.3775  0.1500  0.1557
 6876SOL    HW132090   3.404   2.403   4.606  0.9002  0.5404  2.0792
 6876SOL    HW232091   3.390   2.485   4.486 -5.9602  0.6315  1.9684
 6877SOL     OW32092   1.752   1.728  10.091  0.0251  0.3463  0.5488
 6877SOL    HW132093   1.795   1.777  10.022 -1.8985 -0.6383 -1.3474
 6877SOL    HW232094   1.746   1.797  10.158  0.3236  1.0344 -0.1316
 6878SOL     OW32095   4.232   1.985   6.472  0.4774  0.1399  0.0827
 6878SOL    HW132096   4.172   1.980   6.398  0.8440  1.6671 -0.3228
 6878SOL    HW232097   4.210   1.901   6.512 -0.7928  0.7209  0.6235
 6879SOL     OW32098   3.399   2.453   5.277 -0.7475  0.3472  0.4262
 6879SOL    HW132099   3.314   2.420   5.248 -0.6063 -1.3081  1.8645
 6879SOL    HW232100   3.456   2.377   5.262 -1.7130 -0.3946  0.5160
 6880SOL     OW32101   0.194   4.274   5.454  0.2610  0.5480 -0.4139
 6880SOL    HW132102   0.181   4.338   5.384  1.1759  1.6359  0.4124
 6880SOL    HW232103   0.139   4.314   5.522 -0.1747 -2.8196  1.2441
 6881SOL     OW32104   0.144   1.230   1.126 -0.0521  0.2260  0.0059
 6881SOL    HW132105   0.165   1.227   1.033 -2.7533  1.2351 -0.6088
 6881SOL    HW232106   0.224   1.199   1.169  0.2455  0.1783 -0.5861
 6882SOL     OW32107   2.063   3.674   2.243 -0.0696 -0.3641 -0.1269
 6882SOL    HW132108   2.158   3.672   2.235  0.0763  2.2656  1.0471
 6882SOL    HW232109   2.054   3.727   2.322  0.4416 -0.8978  0.2918
 6883SOL     OW32110   0.302   2.032  10.701  0.0506 -0.0779  0.5497
 6883SOL    HW132111   0.228   2.065  10.649  1.6101  1.2814 -0.8250
 6883SOL    HW232112   0.278   2.063  10.788  2.3362  0.8020  0.8678
 6884SOL     OW32113   3.067   2.147   4.250 -0.2350  0.1344  0.5676
 6884SOL    HW132114   3.095   2.238   4.255 -0.7941  0.2905  0.9635
 6884SOL    HW232115   2.972   2.157   4.255 -0.3340  0.8540 -3.0576
 6885SOL     OW32116   3.551   4.548   5.715 -0.3407  0.4478 -0.0826
 6885SOL    HW132117   3.518   4.471   5.668  0.4741  0.5878 -0.8717
 6885SOL    HW232118   3.514   4.615   5.657 -1.0969  2.7021  2.9959
 6886SOL     OW32119   0.806   1.121   1.853  0.0158  0.5745 -0.2314
 6886SOL    HW132120   0.897   1.133   1.825  0.4212 -1.5094  0.1960
 6886SOL    HW232121   0.811   1.072   1.934  1.2985  1.1135  0.0181
 6887SOL     OW32122   4.519   3.559   3.684 -0.1055  0.0784  0.3222
 6887SOL    HW132123   4.464   3.597   3.616 -0.7430  0.8858  1.2877
 6887SOL    HW232124   4.595   3.616   3.673  1.6102 -1.7536  2.6914
 6888SOL     OW32125   2.578   2.584   8.373  0.1780  0.4621  0.4429
 6888SOL    HW132126   2.567   2.629   8.457 -1.0739 -0.7333  0.9077
 6888SOL    HW232127   2.489   2.567   8.344  0.3232 -1.5226  1.1816
 6889SOL     OW32128   2.956   4.665   6.903 -0.4773 -0.5317 -0.0069
 6889SOL    HW132129   2.964   4.722   6.980 -1.5609 -0.7419  0.2611
 6889SOL    HW232130   2.920   4.721   6.834 -0.2695 -1.4912 -0.8929
 6890SOL     OW32131   0.533   1.930  12.692 -0.2949  0.6338  0.2983
 6890SOL    HW132132   0.584   1.874  12.634 -1.7803  0.3975 -0.7841
 6890SOL    HW232133   0.493   1.997  12.637 -0.9104 -1.8849 -2.3256
 6891SOL     OW32134   3.151   3.845   8.647  0.2847 -0.2584  0.0512
 6891SOL    HW132135   3.121   3.761   8.680 -1.8311  0.3824 -0.2365
 6891SOL    HW232136   3.238   3.839   8.687  0.0653 -2.2282  0.2057
 6892SOL     OW32137   2.339   1.006  10.633  0.0521 -0.1554  0.8465
 6892SOL    HW132138   2.347   1.102  10.635 -0.2107 -0.1319  0.8720
 6892SOL    HW232139   2.301   0.991  10.720 -1.9166 -2.5236 -0.4150
 6893SOL     OW32140   2.762   0.397   2.799 -0.3899 -0.2355 -0.0402
 6893SOL    HW132141   2.725   0.472   2.845 -0.0831  0.6236 -1.1834
 6893SOL    HW232142   2.708   0.391   2.720 -0.7019 -0.6662  0.2046
 6894SOL     OW32143   1.863   4.203   7.659  0.2157 -0.1178  0.3936
 6894SOL    HW132144   1.797   4.154   7.708  0.1960 -0.0737  0.4113
 6894SOL    HW232145   1.836   4.195   7.568  1.4951  2.7060 -0.2332
 6895SOL     OW32146   4.007   0.511  10.971  0.6697 -0.1438  0.7916
 6895SOL    HW132147   3.975   0.447  10.907  0.6867  2.5958 -1.9480
 6895SOL    HW232148   3.939   0.509  11.037  0.8542 -0.1778  0.9805
 6896SOL     OW32149   4.459   0.171  10.345  0.1603 -0.0245  0.2157
 6896SOL    HW132150   4.435   0.118  10.270 -1.8607  0.5165  0.4806
 6896SOL    HW232151   4.426   0.122  10.421  2.0879 -0.5173  0.7310
 6897SOL     OW32152   3.953   4.184   2.219  0.2834 -0.4891  0.7593
 6897SOL    HW132153   3.862   4.203   2.242  0.5231  1.2017  0.3251
 6897SOL    HW232154   3.993   4.208   2.303 -0.1884 -0.0346  0.8566
 6898SOL     OW32155   1.906   2.543   3.885 -0.0111  0.7518 -0.0205
 6898SOL    HW132156   1.864   2.462   3.917  1.8118 -0.8713 -1.7113
 6898SOL    HW232157   1.977   2.512   3.829  0.5279  1.2162  0.4076
 6899SOL     OW32158   2.316   1.559   2.876 -0.0780  0.1295  0.4304
 6899SOL    HW132159   2.344   1.649   2.893  0.8488  0.5551 -3.2119
 6899SOL    HW232160   2.379   1.525   2.812 -0.1952  0.5298  0.1013
 6900SOL     OW32161   2.399   2.786   4.288 -0.0951 -0.0468 -0.0051
 6900SOL    HW132162   2.316   2.824   4.259 -0.0497 -0.8557 -1.1885
 6900SOL    HW232163   2.416   2.828   4.373 -0.0288  0.2373 -0.1604
 6901SOL     OW32164   4.117   3.156   3.438 -0.2214  0.5673  0.2513
 6901SOL    HW132165   4.190   3.144   3.498 -0.8092  0.8346  1.0141
 6901SOL    HW232166   4.160   3.133   3.355  0.2193 -0.3297  0.7286
 6902SOL     OW32167   3.124   0.672   6.340  0.0401 -0.2522 -0.8900
 6902SOL    HW132168   3.190   0.736   6.316 -0.6480  1.1762  1.0371
 6902SOL    HW232169   3.040   0.708   6.310 -0.2836 -0.1306  0.1621
 6903SOL     OW32170   4.668   1.192  13.344  0.1599  0.1119  0.0526
 6903SOL    HW132171   4.582   1.203  13.303  0.6720 -0.0361 -1.0700
 6903SOL    HW232172   4.722   1.237  13.278 -0.0425  1.8650  1.0696
 6904SOL     OW32173   4.457   0.932   5.281  0.2228  0.0182  0.6999
 6904SOL    HW132174   4.507   0.876   5.221  0.1292  0.0478  0.5964
 6904SOL    HW232175   4.376   0.887   5.303 -0.2031  1.3752  1.9245
 6905SOL     OW32176   2.438   2.345   3.693 -0.0738 -0.6782  0.1774
 6905SOL    HW132177   2.500   2.374   3.760  0.2533 -1.0550  0.0337
 6905SOL    HW232178   2.361   2.401   3.707 -0.7523 -1.4589 -0.4576
 6906SOL     OW32179   4.612   1.553  11.859 -0.5075  0.7205 -0.1505
 6906SOL    HW132180   4.684   1.609  11.888 -0.2133  0.3076 -0.0778
 6906SOL    HW232181   4.577   1.606  11.788 -0.7281 -2.0723 -2.1085
 6907SOL     OW32182   3.374   3.870   1.224  0.6707  0.4000 -0.1110
 6907SOL    HW132183   3.351   3.956   1.191 -2.4661  0.9512  3.4873
 6907SOL    HW232184   3.367   3.814   1.146  0.4572  2.1849 -1.3655
 6908SOL     OW32185   4.077   1.923   6.885  0.2437  0.3825  0.3470
 6908SOL    HW132186   4.007   1.973   6.842  1.8086  1.5489 -0.8277
 6908SOL    HW232187   4.075   1.969   6.969  1.7850 -1.3714  1.3318
 6909SOL     OW32188   3.083   3.797   4.173 -0.4358  0.4141  0.1155
 6909SOL    HW132189   3.067   3.857   4.246  0.0468  0.3904  0.2411
 6909SOL    HW232190   3.035   3.840   4.102 -0.4806 -0.0744 -0.1504
 6910SOL     OW32191   2.973   2.510   7.874  0.2970 -0.5843 -0.0110
 6910SOL    HW132192   3.005   2.581   7.817 -0.6444  0.0644  0.2788
 6910SOL    HW232193   2.898   2.548   7.919  1.4581 -0.8211  2.1222
 6911SOL     OW32194   3.411   0.420   4.959 -0.3069 -0.1457  0.1805
 6911SOL    HW132195   3.384   0.464   4.878  1.8745  2.0799  0.6766
 6911SOL    HW232196   3.494   0.379   4.934  1.0287  3.5779 -1.4687
 6912SOL     OW32197   4.318   3.194   0.824  0.2205 -0.4240 -0.4137
 6912SOL    HW132198   4.240   3.155   0.863  1.6649 -2.0526  0.7936
 6912SOL    HW232199   4.388   3.131   0.838 -0.2816 -0.9079 -0.1062
 6913SOL     OW32200   3.736   1.638   4.130 -0.3104  0.0157 -0.1114
 6913SOL    HW132201   3.779   1.597   4.055  0.3674 -0.8763  0.7420
 6913SOL    HW232202   3.730   1.570   4.197 -0.9089 -0.7497 -0.9493
 6914SOL     OW32203   3.115   3.527  12.646 -0.2258  0.0665 -1.3734
 6914SOL    HW132204   3.139   3.620  12.650  2.0302 -0.5345 -0.5655
 6914SOL    HW232205   3.087   3.523  12.555  1.5614 -1.1971 -1.8781
 6915SOL     OW32206   0.777   3.890   6.518 -0.1488 -0.0398  0.1374
 6915SOL    HW132207   0.870   3.892   6.542  0.2656 -2.1373 -1.3903
 6915SOL    HW232208   0.756   3.797   6.520  2.4972 -0.6231  1.0084
 6916SOL     OW32209   3.530   4.327   6.431 -0.5363 -0.6217 -0.4506
 6916SOL    HW132210   3.447   4.354   6.394 -1.8696 -2.0865  1.4599
 6916SOL    HW232211   3.565   4.270   6.362  2.3405 -1.5410  1.7526
 6917SOL     OW32212   3.655   3.812   5.329 -0.2449  0.1554 -0.0191
 6917SOL    HW132213   3.707   3.753   5.384  0.5455 -1.5198 -2.5606
 6917SOL    HW232214   3.619   3.859   5.404  2.7946  0.3986  1.3055
 6918SOL     OW32215   2.329   0.403   6.826 -0.1874  0.2897  0.4032
 6918SOL    HW132216   2.424   0.406   6.827 -0.1388 -1.1068  0.7689
 6918SOL    HW232217   2.309   0.494   6.848 -1.3435  0.0169  0.5243
 6919SOL     OW32218   4.004   0.312   9.967 -0.3283 -0.4958  0.4693
 6919SOL    HW132219   3.980   0.402   9.987  1.0937  0.0029 -0.0209
 6919SOL    HW232220   4.094   0.301   9.998 -0.2320 -1.5121 -0.1658
 6920SOL     OW32221   0.956   3.286  10.672  0.2063  0.0066 -0.7151
 6920SOL    HW132222   0.976   3.307  10.763  1.8123  0.3493 -1.1608
 6920SOL    HW232223   1.035   3.311  10.624 -0.3268  1.6005 -0.7440
 6921SOL     OW32224   2.394   1.944   0.048 -0.0032  0.1254 -0.7305
 6921SOL    HW132225   2.448   2.022   0.057  0.0966  0.1192 -1.3075
 6921SOL    HW232226   2.425   1.883   0.116 -1.2111 -0.7610 -0.9527
 6922SOL     OW32227   3.581   1.799  17.587 -0.3343 -0.1245  0.2401
 6922SOL    HW132228   3.610   1.730  17.527  0.3892  0.6297 -0.2790
 6922SOL    HW232229   3.657   1.858  17.584  0.7814 -1.5584  0.8926
 6923SOL     OW32230   1.003   3.807   9.370  0.6376  0.4312  0.2379
 6923SOL    HW132231   0.932   3.819   9.307 -0.0662 -0.1481  0.9339
 6923SOL    HW232232   0.975   3.759   9.448  0.2422  1.4262  0.7087
 6924SOL     OW32233   2.156   4.626   3.081 -0.0698 -0.4130  0.1405
 6924SOL    HW132234   2.063   4.624   3.061 -0.1762 -3.2381  0.7819
 6924SOL    HW232235   2.203   4.597   3.003 -0.5577 -0.3422 -0.1772
 6925SOL     OW32236   4.717   4.394   3.146  0.6347  0.1869 -0.2852
 6925SOL    HW132237   4.629   4.378   3.113  1.0350 -0.4091 -1.0410
 6925SOL    HW232238   0.037   4.312   3.126  2.1008  1.1938 -1.1017
 6926SOL     OW32239   3.872   4.434   1.106 -0.5202 -0.5302  0.4000
 6926SOL    HW132240   3.829   4.403   1.026 -1.6371 -1.1167  1.2138
 6926SOL    HW232241   3.885   4.352   1.154  0.7683 -0.3279  0.3819
 6927SOL     OW32242   3.912   1.204   4.712  0.0379  0.2868  0.0399
 6927SOL    HW132243   3.955   1.270   4.766 -0.6079 -0.2047  1.1624
 6927SOL    HW232244   3.890   1.261   4.638 -1.4800 -0.6348 -0.2229
 6928SOL     OW32245   3.264   3.618   4.266  0.2153  0.4553 -0.0064
 6928SOL    HW132246   3.189   3.668   4.234 -0.0600  1.1350  1.7366
 6928SOL    HW232247   3.220   3.544   4.308 -0.4934 -0.0346 -1.5944
 6929SOL     OW32248   2.896   2.416  15.376  0.2352  0.3569 -0.3736
 6929SOL    HW132249   2.853   2.350  15.431 -0.7443  1.0387 -0.3242
 6929SOL    HW232250   2.982   2.423  15.418  0.0642 -0.7452  0.1728
 6930SOL     OW32251   1.904   2.319   4.901 -0.3728  0.0863 -0.8327
 6930SOL    HW132252   1.843   2.258   4.944 -0.0133 -0.0861 -0.5656
 6930SOL    HW232253   1.930   2.272   4.822 -2.8658  0.8354 -2.0926
 6931SOL     OW32254   0.870   1.604   5.853 -0.4242 -0.4513  0.0595
 6931SOL    HW132255   0.923   1.679   5.880 -0.7999 -0.1453 -0.0364
 6931SOL    HW232256   0.844   1.566   5.937 -3.5123  2.0858  0.2804
 6932SOL     OW32257   2.918   3.785   7.455  0.5774 -0.2318  0.3248
 6932SOL    HW132258   2.928   3.846   7.382  0.5945  1.9138  2.1036
 6932SOL    HW232259   2.990   3.809   7.513  1.2814  2.5427 -1.7037
 6933SOL     OW32260   1.159   2.032   5.104 -0.1754  0.0492  0.3859
 6933SOL    HW132261   1.219   1.998   5.037 -2.1050  0.6692 -1.6409
 6933SOL    HW232262   1.173   1.957   5.162 -0.4572  0.4522  0.9716
 6934SOL     OW32263   3.412   0.975   6.989 -0.4244 -0.3438 -0.0491
 6934SOL    HW132264   3.412   0.897   7.045  1.0416  0.6536  1.3329
 6934SOL    HW232265   3.451   1.042   7.045 -0.5003  0.2568 -0.7097
 6935SOL     OW32266   1.344   2.721   7.191 -0.6322 -0.0383  0.2442
 6935SOL    HW132267   1.369   2.630   7.199 -0.2011 -0.0868 -1.5327
 6935SOL    HW232268   1.309   2.726   7.101  1.5588  2.0236 -0.4828
 6936SOL     OW32269   2.954   4.723   8.474  0.7426 -0.1627 -0.0659
 6936SOL    HW132270   2.859   0.008   8.470  0.6452 -0.0031  2.4589
 6936SOL    HW232271   2.976   4.630   8.479  0.2568 -0.4405 -3.1449
 6937SOL     OW32272   4.004   4.455  13.482  0.0923  0.2056 -0.6790
 6937SOL    HW132273   3.987   4.420  13.394 -1.1755  2.1955 -1.2153
 6937SOL    HW232274   4.048   4.380  13.523 -0.6303 -0.3097 -0.8467
 6938SOL     OW32275   4.069   3.536   3.552  0.5566 -0.0945 -0.2725
 6938SOL    HW132276   4.083   3.532   3.458 -0.4147 -0.5472 -0.3977
 6938SOL    HW232277   3.976   3.515   3.556  0.5727 -0.3514 -1.4728
 6939SOL     OW32278   1.357   0.380   7.551  0.2082 -0.2730 -0.1991
 6939SOL    HW132279   1.333   0.454   7.607  1.4392 -1.0653  1.3888
 6939SOL    HW232280   1.445   0.363   7.585  0.8707  4.4725  0.4688
 6940SOL     OW32281   0.338   0.822  11.697  0.0288  0.1889  0.5367
 6940SOL    HW132282   0.364   0.862  11.780 -1.4740  0.3397  0.9449
 6940SOL    HW232283   0.357   0.899  11.643 -0.4452 -0.3244 -0.3557
 6941SOL     OW32284   2.916   0.498   3.153 -0.1458 -0.2084 -0.0606
 6941SOL    HW132285   2.824   0.503   3.128  0.0894  0.0804 -0.8488
 6941SOL    HW232286   2.914   0.436   3.226 -1.6141 -0.7408 -0.5475
 6942SOL     OW32287   4.366   1.860   5.982 -0.0464 -0.1279  0.0637
 6942SOL    HW132288   4.414   1.809   5.917  1.2543  1.3201 -0.1184
 6942SOL    HW232289   4.283   1.814   5.972  1.4155 -2.3567 -1.6611
 6943SOL     OW32290   1.659   4.029   9.942 -0.1477 -0.0446  0.3135
 6943SOL    HW132291   1.608   4.047   9.863 -0.9494  1.4210  1.1610
 6943SOL    HW232292   1.587   3.983   9.984 -0.4241  1.9392  2.0112
 6944SOL     OW32293   2.198   4.127  14.471  0.5211 -0.1427 -0.6397
 6944SOL    HW132294   2.220   4.049  14.420  0.0084 -2.2288  2.3208
 6944SOL    HW232295   2.190   4.194  14.404 -1.7740 -2.1250 -2.3539
 6945SOL     OW32296   3.324   2.950   3.378 -0.1100  0.2380 -0.6514
 6945SOL    HW132297   3.417   2.956   3.360  0.0114  3.5116  1.0865
 6945SOL    HW232298   3.317   2.855   3.379 -0.8491  0.2979 -0.0924
 6946SOL     OW32299   3.998   1.637  17.558 -0.0581 -0.2389 -0.1004
 6946SOL    HW132300   4.048   1.573  17.507  2.0593  2.3905 -1.3032
 6946SOL    HW232301   3.986   1.702  17.490  2.3358  1.2631  0.8912
 6947SOL     OW32302   1.561   2.228   7.768  0.7174 -0.2393  0.0846
 6947SOL    HW132303   1.470   2.199   7.763  1.1417 -1.7972  1.3889
 6947SOL    HW232304   1.583   2.259   7.680  1.4832 -0.3021  0.2626
 6948SOL     OW32305   2.791   2.003   8.072 -0.0289  0.4828  0.0809
 6948SOL    HW132306   2.885   1.992   8.089 -0.6374 -2.8099  1.2687
 6948SOL    HW232307   2.749   1.982   8.156 -1.3210 -0.4709 -0.8122
 6949SOL     OW32308   3.030   2.936  15.920 -0.5919  0.3620  0.2217
 6949SOL    HW132309   3.024   3.024  15.884  0.1805 -0.3428 -1.6222
 6949SOL    HW232310   3.123   2.914  15.919 -0.5496  0.5947 -0.7764
 6950SOL     OW32311   0.897   0.204   6.101 -0.1662  0.1073  0.1291
 6950SOL    HW132312   0.944   0.208   6.017  1.8825  0.6179  1.3083
 6950SOL    HW232313   0.888   0.108   6.100  0.8391  0.0242 -1.4141
 6951SOL     OW32314   2.183   2.490   8.028 -0.8769  0.0559 -0.3277
 6951SOL    HW132315   2.187   2.413   8.085 -2.0808  1.5293  1.7305
 6951SOL    HW232316   2.230   2.557   8.077 -0.6656 -0.8593  0.7222
 6952SOL     OW32317   3.588   3.164   7.410 -0.4287  0.4362  0.0568
 6952SOL    HW132318   3.612   3.211   7.490  2.0088 -0.7631  0.0327
 6952SOL    HW232319   3.495   3.185   7.403 -0.1512  1.6639  0.0927
 6953SOL     OW32320   1.632   1.984   3.214 -0.4127 -0.5408  0.1133
 6953SOL    HW132321   1.572   2.057   3.229 -0.0804 -0.2854  0.1912
 6953SOL    HW232322   1.678   2.025   3.142  0.3138  2.7903  2.4906
 6954SOL     OW32323   1.822   2.103   9.076  0.1719  0.2330 -0.0660
 6954SOL    HW132324   1.783   2.021   9.107 -0.0581  0.3834  0.0481
 6954SOL    HW232325   1.915   2.087   9.092 -0.5248 -2.6643  1.1571
 6955SOL     OW32326   2.632   3.414   6.257  0.1807 -0.0382 -0.0588
 6955SOL    HW132327   2.608   3.322   6.270  2.2775 -0.7023 -0.9128
 6955SOL    HW232328   2.545   3.455   6.258  0.3368  0.3076 -1.1789
 6956SOL     OW32329   2.559   1.313   0.121  0.2307  0.6649 -0.4211
 6956SOL    HW132330   2.581   1.348   0.208  1.9346 -3.7206  0.9220
 6956SOL    HW232331   2.509   1.232   0.129 -0.2897  1.0960  0.8118
 6957SOL     OW32332   3.997   2.213   1.221 -0.3460 -0.1354 -0.0214
 6957SOL    HW132333   3.953   2.216   1.306  0.9865 -0.5907  0.6904
 6957SOL    HW232334   4.069   2.275   1.226 -0.3871 -0.1534  0.7731
 6958SOL     OW32335   2.438   4.491  12.514  0.0053 -0.4741  0.5908
 6958SOL    HW132336   2.442   4.442  12.432 -2.3213  2.5350 -1.3252
 6958SOL    HW232337   2.409   4.417  12.568 -1.6689  2.0690  3.2292
 6959SOL     OW32338   0.621   2.895   0.122 -0.3212  0.1691  0.0760
 6959SOL    HW132339   0.570   2.918   0.044  0.6823  4.1149  0.5397
 6959SOL    HW232340   0.713   2.882   0.101  0.2246  0.2061  2.4761
 6960SOL     OW32341   0.751   0.574   0.657  0.3284  0.0402  0.0479
 6960SOL    HW132342   0.777   0.656   0.614 -2.9166  1.2126  0.3200
 6960SOL    HW232343   0.836   0.532   0.667 -1.0433 -2.6828  0.3695
 6961SOL     OW32344   3.634   2.474  10.931  0.0210  0.0101  0.7561
 6961SOL    HW132345   3.713   2.479  10.877 -0.6964 -2.3014 -0.5446
 6961SOL    HW232346   3.681   2.478  11.014  0.6180 -0.9615  0.4663
 6962SOL     OW32347   0.723   0.786   8.868 -0.3831 -0.1468  0.2924
 6962SOL    HW132348   0.683   0.760   8.785  1.8407 -4.1616  0.4499
 6962SOL    HW232349   0.815   0.788   8.844 -1.1518 -0.4835 -2.7500
 6963SOL     OW32350   3.327   1.567   7.881  0.1968  0.0354  0.7237
 6963SOL    HW132351   3.240   1.569   7.840 -0.1267  0.9762  1.4279
 6963SOL    HW232352   3.319   1.506   7.955  3.3328 -0.4444  0.6254
 6964SOL     OW32353   1.589   4.263   2.482  0.2035  0.1207  0.2997
 6964SOL    HW132354   1.548   4.255   2.568 -0.4809 -1.6243 -0.1890
 6964SOL    HW232355   1.657   4.325   2.508 -0.6084  1.1515 -0.0389
 6965SOL     OW32356   1.185   3.209   9.015  0.1757 -0.3213  0.2422
 6965SOL    HW132357   1.186   3.233   9.108  2.8703 -3.4022  1.0019
 6965SOL    HW232358   1.218   3.121   9.030 -1.0857 -0.1890  3.6279
 6966SOL     OW32359   4.102   2.977   3.002  0.0778 -0.6432 -0.0617
 6966SOL    HW132360   4.021   2.930   3.022 -0.3495 -0.2221 -0.7973
 6966SOL    HW232361   4.136   2.910   2.942 -0.6315 -0.1140 -1.0508
 6967SOL     OW32362   0.198   2.190  16.998 -0.1843 -0.3778 -0.2310
 6967SOL    HW132363   0.131   2.259  16.997  1.0074  0.7878  0.5886
 6967SOL    HW232364   0.280   2.238  16.999 -0.7307  0.4989  1.6724
 6968SOL     OW32365   1.525   1.239   1.302 -0.1195 -0.5439  0.3588
 6968SOL    HW132366   1.431   1.251   1.289 -0.2965  0.0404  2.1396
 6968SOL    HW232367   1.535   1.157   1.349  1.3085 -1.2944 -1.2627
 6969SOL     OW32368   1.657   2.966   4.429 -0.1170  0.2979  0.4026
 6969SOL    HW132369   1.725   3.027   4.455  1.0569 -0.9875  0.3542
 6969SOL    HW232370   1.603   3.028   4.380 -4.1036 -2.4462  1.2921
 6970SOL     OW32371   3.976   3.152   2.430 -0.1998  0.2029 -0.5912
 6970SOL    HW132372   4.025   3.072   2.450  1.8026  2.1756  2.3863
 6970SOL    HW232373   4.032   3.172   2.355  4.0256 -0.4678  2.3632
 6971SOL     OW32374   1.162   4.146   7.600  0.1537 -0.3721  0.2432
 6971SOL    HW132375   1.115   4.087   7.659 -0.8010  0.6186  0.4768
 6971SOL    HW232376   1.219   4.087   7.550  0.2409 -0.2864  0.2411
 6972SOL     OW32377   4.433   0.614   3.769  0.1518  0.1543  0.3039
 6972SOL    HW132378   4.409   0.682   3.706  0.3464 -0.3044 -0.2757
 6972SOL    HW232379   4.378   0.543   3.734 -0.5499  0.2722  1.1839
 6973SOL     OW32380   0.429   4.252   8.889 -0.0831  0.5744 -0.3222
 6973SOL    HW132381   0.445   4.277   8.798 -1.8326  0.2573 -0.7047
 6973SOL    HW232382   0.423   4.340   8.926 -0.7240  1.0874 -1.6852
 6974SOL     OW32383   3.148   4.147   6.335  0.0117 -0.3244 -0.2717
 6974SOL    HW132384   3.237   4.137   6.300 -0.0257  1.0549 -0.7909
 6974SOL    HW232385   3.108   4.061   6.327  0.7768 -0.5245 -2.0270
 6975SOL     OW32386   4.564   0.850  17.128  0.5118  0.0229 -0.2115
 6975SOL    HW132387   4.639   0.791  17.118  1.7507  1.8374 -1.5584
 6975SOL    HW232388   4.511   0.812  17.058 -3.0194  2.3573  1.2470
 6976SOL     OW32389   1.760   2.306   5.774 -0.6508 -0.2251  0.0871
 6976SOL    HW132390   1.718   2.251   5.840  0.5316  0.2554  1.2425
 6976SOL    HW232391   1.682   2.340   5.731 -1.0601  0.0306  1.0237
 6977SOL     OW32392   0.271   1.553   1.038  0.1191 -0.6619  1.2006
 6977SOL    HW132393   0.306   1.639   1.063  0.0993 -0.4118  0.3797
 6977SOL    HW232394   0.292   1.510   1.121 -1.2288  0.4242  2.0946
 6978SOL     OW32395   2.980   1.663  17.300  0.0044 -0.4712  0.1034
 6978SOL    HW132396   3.042   1.698  17.237 -0.8530 -1.9056 -1.5602
 6978SOL    HW232397   2.909   1.643  17.239 -1.8410  0.7529  1.8191
 6979SOL     OW32398   3.307   4.040   2.307 -0.3737 -0.1164 -0.3970
 6979SOL    HW132399   3.392   4.000   2.326 -0.5862  0.2005  1.2168
 6979SOL    HW232400   3.281   3.991   2.229 -3.1491  1.2235 -0.3057
 6980SOL     OW32401   2.818   0.899  16.974  0.1202  0.0465  0.3473
 6980SOL    HW132402   2.749   0.934  16.918  0.5304  0.0782 -0.1402
 6980SOL    HW232403   2.896   0.913  16.920  0.9304  1.1868  1.7898
 6981SOL     OW32404   1.384   1.249  11.610  0.1465  0.3042 -1.1958
 6981SOL    HW132405   1.306   1.299  11.634  0.5012  0.2020  0.2095
 6981SOL    HW232406   1.343   1.163  11.609 -1.8627  1.2516 -0.0515
 6982SOL     OW32407   1.811   2.182  16.386 -0.0663  0.0292 -0.2127
 6982SOL    HW132408   1.828   2.252  16.323  0.4516  1.5457  1.6238
 6982SOL    HW232409   1.733   2.214  16.430 -0.7946 -0.7776 -0.9130
 6983SOL     OW32410   3.078   4.500   6.723  0.0799 -0.0971  0.1556
 6983SOL    HW132411   3.133   4.445   6.777 -0.0284  0.0718  0.4369
 6983SOL    HW232412   3.032   4.546   6.794  0.7918  0.9660 -0.0702
 6984SOL     OW32413   0.361   3.320  15.398  0.3956  0.3404  0.2089
 6984SOL    HW132414   0.440   3.271  15.422 -0.0190 -0.4814 -0.0958
 6984SOL    HW232415   0.417   3.383  15.351  1.5662 -0.7559  0.1232
 6985SOL     OW32416   4.369   1.359  15.061  0.2681  0.1064 -0.2168
 6985SOL    HW132417   4.434   1.290  15.066  2.5341  2.3054  0.8341
 6985SOL    HW232418   4.291   1.318  15.097 -0.9401  1.0414 -1.7491
 6986SOL     OW32419   2.099   2.670   9.988  0.2734  0.1195 -0.7134
 6986SOL    HW132420   2.018   2.700   9.947  0.8293  1.9502 -0.4420
 6986SOL    HW232421   2.127   2.594   9.936  1.9221  0.9568 -1.0363
 6987SOL     OW32422   1.261   2.295   9.315  0.3750 -0.2502  0.0367
 6987SOL    HW132423   1.227   2.378   9.347  0.9283 -0.6499  1.6964
 6987SOL    HW232424   1.235   2.305   9.224  3.5126  1.7793 -0.6038
 6988SOL     OW32425   1.633   2.482   4.172  0.0369 -0.6811  0.3555
 6988SOL    HW132426   1.684   2.444   4.100  1.1862 -0.3485  0.9973
 6988SOL    HW232427   1.633   2.577   4.155  1.5641 -0.5074  1.3108
 6989SOL     OW32428   2.848   4.628   9.239 -0.0310 -0.1995 -0.4827
 6989SOL    HW132429   2.824   4.613   9.331 -0.9277  3.1267 -0.1726
 6989SOL    HW232430   2.778   4.671   9.191  1.2237  2.3297 -0.0485
 6990SOL     OW32431   3.518   3.617   1.261 -0.3408  0.2634  0.2641
 6990SOL    HW132432   3.457   3.683   1.229 -0.1641  0.0527 -0.4998
 6990SOL    HW232433   3.537   3.641   1.351 -0.5965  0.9738  0.1233
 6991SOL     OW32434   1.072   4.149   9.294 -0.8269  0.3595  0.5571
 6991SOL    HW132435   0.977   4.143   9.307 -0.7482 -1.8701  0.1077
 6991SOL    HW232436   1.107   4.108   9.373 -1.0897  0.3784  0.6856
 6992SOL     OW32437   4.654   2.901  12.495 -0.4610  0.1817 -0.0929
 6992SOL    HW132438   4.613   2.969  12.550 -0.7401  1.4111 -1.8330
 6992SOL    HW232439   4.708   2.957  12.441  2.8722 -1.0959  1.9308
 6993SOL     OW32440   1.085   4.524   6.675 -0.4519 -0.1750  0.1340
 6993SOL    HW132441   1.110   4.482   6.757  0.2525 -0.8106 -0.4131
 6993SOL    HW232442   1.001   4.481   6.659 -0.3220 -0.7599  1.0224
 6994SOL     OW32443   3.020   3.583   3.933 -0.0726  0.1985  0.0061
 6994SOL    HW132444   3.023   3.679   3.935 -1.2241  0.2333 -0.0264
 6994SOL    HW232445   2.932   3.570   3.967  0.2167  2.4794  1.5882
 6995SOL     OW32446   0.473   0.970  14.184  0.3932  0.2916 -0.0383
 6995SOL    HW132447   0.456   0.910  14.256  2.3549 -1.0218 -0.6770
 6995SOL    HW232448   0.413   1.039  14.212 -1.3688 -0.4706 -1.8801
 6996SOL     OW32449   0.215   2.384   8.111 -0.0911 -0.1338  0.6089
 6996SOL    HW132450   0.225   2.476   8.139 -1.0625 -0.1070  0.8748
 6996SOL    HW232451   0.155   2.355   8.180  0.2817 -0.7293  0.6731
 6997SOL     OW32452   0.725   2.543  16.136  0.3115  0.0634 -0.0667
 6997SOL    HW132453   0.657   2.606  16.113  1.5888  0.5094 -2.6121
 6997SOL    HW232454   0.728   2.485  16.059 -1.2896 -1.0161  0.6902
 6998SOL     OW32455   3.544   0.898   6.756 -0.1379  0.2992  0.1900
 6998SOL    HW132456   3.557   0.987   6.723  0.4852  0.1247 -0.0334
 6998SOL    HW232457   3.489   0.917   6.831 -0.1722 -0.1776  0.2882
 6999SOL     OW32458   0.620   0.505  13.877 -0.5602 -0.2398 -0.0626
 6999SOL    HW132459   0.575   0.468  13.953 -0.5616 -0.6781 -0.2754
 6999SOL    HW232460   0.548   0.554  13.837 -0.1215 -0.6700 -1.4098
 7000SOL     OW32461   4.663   1.139   8.725  0.6846  0.4255  0.0405
 7000SOL    HW132462   4.611   1.172   8.652 -0.0140 -0.9730 -0.0923
 7000SOL    HW232463   4.627   1.188   8.799  0.1670  2.3270 -1.4744
 7001SOL     OW32464   0.902   0.171   2.036 -0.0664  0.2101  0.0404
 7001SOL    HW132465   0.885   0.077   2.028  0.8764  0.0174  0.2673
 7001SOL    HW232466   0.946   0.175   2.121  3.7901  2.8492 -2.0485
 7002SOL     OW32467   0.872   0.543   1.475 -0.0564 -0.7321  0.1524
 7002SOL    HW132468   0.960   0.574   1.453 -0.3958  0.6387  0.7154
 7002SOL    HW232469   0.824   0.626   1.476 -0.2389 -0.8022 -2.9483
 7003SOL     OW32470   3.747   3.593   7.426  0.0318  0.2092 -0.4422
 7003SOL    HW132471   3.653   3.605   7.437 -0.3003 -0.5883 -2.4223
 7003SOL    HW232472   3.756   3.522   7.489  0.6815  0.8295  0.1801
 7004SOL     OW32473   2.160   2.848  11.569 -0.2512  0.3197 -0.4157
 7004SOL    HW132474   2.146   2.760  11.534 -1.2771 -0.3238  1.6106
 7004SOL    HW232475   2.072   2.882  11.554 -0.0555  0.4212 -1.3807
 7005SOL     OW32476   4.656   2.093   3.016  0.2485  0.1875 -0.3683
 7005SOL    HW132477   4.619   2.008   2.992 -0.4957 -0.0496  1.5667
 7005SOL    HW232478   0.010   2.061   3.061 -0.0143  0.0551 -0.0057
 7006SOL     OW32479   2.052   1.337   3.521 -0.3828  0.3496 -0.1331
 7006SOL    HW132480   2.120   1.301   3.579 -0.0581 -0.5940 -1.1029
 7006SOL    HW232481   1.972   1.309   3.565 -0.8221  0.2046 -1.0323
 7007SOL     OW32482   4.564   4.007   7.411  0.6333  0.3179  0.0762
 7007SOL    HW132483   4.593   4.008   7.502 -1.2104  1.0353  0.6592
 7007SOL    HW232484   4.580   3.917   7.382 -1.6924 -0.2144  0.4538
 7008SOL     OW32485   0.384   3.271   9.921  0.6357  0.4532 -0.3003
 7008SOL    HW132486   0.342   3.334   9.863 -0.8922  0.1105  0.4463
 7008SOL    HW232487   0.382   3.328   9.997 -0.4762 -0.0854  0.0819
 7009SOL     OW32488   0.023   1.362   7.091  0.0369 -0.4892  0.2025
 7009SOL    HW132489   4.673   1.415   7.117 -1.1946 -0.5685 -3.1435
 7009SOL    HW232490   0.091   1.418   7.128  1.4538 -2.1933  0.1849
 7010SOL     OW32491   1.747   0.165   9.577 -0.0756  0.3609  0.0888
 7010SOL    HW132492   1.794   0.081   9.569  2.0664  1.5790 -0.1584
 7010SOL    HW232493   1.714   0.157   9.666  1.0168 -0.0218  0.4686
 7011SOL     OW32494   4.455   3.971   5.633 -0.0047 -0.7764  0.5828
 7011SOL    HW132495   4.372   3.942   5.596 -1.0463  0.6780  1.8004
 7011SOL    HW232496   4.419   4.028   5.701  0.7897  0.4270 -0.0073
 7012SOL     OW32497   0.114   2.484   2.229 -0.2374 -0.5551  0.4540
 7012SOL    HW132498   0.054   2.468   2.156 -1.7230  1.5153  1.2054
 7012SOL    HW232499   0.169   2.549   2.184 -2.0146  0.7413  0.1571
 7013SOL     OW32500   1.012   1.049   4.392 -0.2705 -0.4521 -0.7542
 7013SOL    HW132501   0.963   1.070   4.312 -0.2965  0.0961 -0.5994
 7013SOL    HW232502   1.084   0.999   4.353  0.0754  0.2840 -1.0716
 7014SOL     OW32503   1.302   1.378   1.873  0.1322  0.1768 -0.3387
 7014SOL    HW132504   1.285   1.301   1.818  0.4019 -1.5100  1.9323
 7014SOL    HW232505   1.259   1.447   1.822  2.3288  1.8919  0.1510
 7015SOL     OW32506   3.049   0.798   6.676 -0.2149  0.3396  1.0136
 7015SOL    HW132507   3.138   0.796   6.639 -1.1950  0.3417 -1.3746
 7015SOL    HW232508   3.036   0.891   6.696  0.2851  0.5285  0.4727
 7016SOL     OW32509   1.049   0.164   9.145 -0.1383  0.6994  0.3829
 7016SOL    HW132510   1.099   0.108   9.205 -1.3906 -1.3418 -0.4757
 7016SOL    HW232511   1.113   0.232   9.125 -0.1971  1.2366  2.0531
 7017SOL     OW32512   3.336   0.676   1.334  0.2379 -0.5011  0.1858
 7017SOL    HW132513   3.304   0.588   1.314 -1.3844  0.2156 -0.3693
 7017SOL    HW232514   3.253   0.724   1.334  0.6602  0.2258 -0.8222
 7018SOL     OW32515   4.269   3.008   0.571 -0.2354 -0.4018 -0.2380
 7018SOL    HW132516   4.314   3.015   0.656  0.0604 -1.7443 -0.2823
 7018SOL    HW232517   4.309   3.084   0.530 -1.1260  0.2388  0.0692
 7019SOL     OW32518   2.003   1.953   3.228  0.4242  0.4657  1.4238
 7019SOL    HW132519   2.043   2.039   3.217  1.0181  0.1967  1.4636
 7019SOL    HW232520   1.960   1.964   3.313 -0.4897 -0.3873  1.0709
 7020SOL     OW32521   1.033   1.235   9.730  0.2666 -0.1278 -0.4386
 7020SOL    HW132522   1.035   1.297   9.657  1.7355  1.0184  0.5896
 7020SOL    HW232523   1.124   1.209   9.740  0.5696  1.3864  0.8251
 7021SOL     OW32524   2.982   3.929   8.162 -0.1781 -0.4353  0.1646
 7021SOL    HW132525   3.040   3.939   8.086 -1.7662  0.9433 -0.8768
 7021SOL    HW232526   2.971   3.834   8.158  1.4837 -0.6346  0.5578
 7022SOL     OW32527   2.966   4.682  15.454  0.0948  0.0288  0.4277
 7022SOL    HW132528   2.953   4.628  15.532  0.1712 -0.0776  0.3673
 7022SOL    HW232529   2.959   0.040  15.500 -1.0448  0.3141 -0.2673
 7023SOL     OW32530   3.975   2.845   9.237  0.3762  0.0965 -0.3789
 7023SOL    HW132531   4.045   2.866   9.299  0.1823 -1.1284  0.2606
 7023SOL    HW232532   4.006   2.888   9.157  1.4115 -0.4550 -0.2780
 7024SOL     OW32533   0.908   1.850   1.785  0.2669 -0.6876 -0.1564
 7024SOL    HW132534   0.864   1.863   1.701 -0.4003  1.2657  0.4870
 7024SOL    HW232535   0.826   1.850   1.834  0.3650  1.7426  0.0386
 7025SOL     OW32536   2.722   1.475  17.553 -0.0783 -0.0341 -0.5925
 7025SOL    HW132537   2.815   1.454  17.552  0.2402  1.3594  0.6268
 7025SOL    HW232538   2.679   1.395  17.521  0.7265 -0.6334 -0.1593
 7026SOL     OW32539   4.307   0.189  14.767 -0.0280  0.1032 -0.1397
 7026SOL    HW132540   4.247   0.257  14.797  0.1908  0.6054 -0.8148
 7026SOL    HW232541   4.333   0.145  14.847  1.2599 -1.5035 -1.4376
 7027SOL     OW32542   1.226   0.875  13.173 -0.2040  0.1135  0.1017
 7027SOL    HW132543   1.257   0.788  13.147 -1.3921  0.3075 -1.9534
 7027SOL    HW232544   1.249   0.926  13.096  0.9881 -0.1346  0.2998
 7028SOL     OW32545   2.417   4.252   3.607  0.5751  0.0347 -0.4907
 7028SOL    HW132546   2.420   4.219   3.697  1.4022  0.4077 -0.3728
 7028SOL    HW232547   2.386   4.180   3.552 -0.2240  1.0042 -1.3059
 7029SOL     OW32548   4.485   0.897   8.071  0.2502 -0.2282  0.0569
 7029SOL    HW132549   4.543   0.940   8.009 -0.7128  1.0684  0.0627
 7029SOL    HW232550   4.408   0.876   8.019  0.9329 -2.0160 -0.2539
 7030SOL     OW32551   4.431   2.416   9.417 -0.5612 -0.5949 -1.0725
 7030SOL    HW132552   4.437   2.336   9.469  0.2592  0.7085  0.8238
 7030SOL    HW232553   4.386   2.479   9.473 -0.5921  1.1551 -3.0779
 7031SOL     OW32554   4.431   0.453   6.743 -1.1239  0.3148  0.4521
 7031SOL    HW132555   4.366   0.403   6.693 -0.3981  0.7757 -0.9452
 7031SOL    HW232556   4.378   0.524   6.779 -0.7539  1.7304 -1.8125
 7032SOL     OW32557   4.229   1.679   8.738  0.4671  0.4903 -0.0621
 7032SOL    HW132558   4.243   1.719   8.824 -0.2164  1.2324 -0.2849
 7032SOL    HW232559   4.303   1.721   8.694  0.2029 -0.0635 -1.0342
 7033SOL     OW32560   3.005   1.767   8.562 -0.5353 -0.2137  0.3409
 7033SOL    HW132561   2.935   1.730   8.616 -1.7642 -0.8101 -1.6706
 7033SOL    HW232562   2.993   1.721   8.479 -1.8942  0.5437  0.1089
 7034SOL     OW32563   0.697   2.453  12.331  0.4481  0.5220 -0.0953
 7034SOL    HW132564   0.786   2.437  12.301  1.0154  0.7136  1.4886
 7034SOL    HW232565   0.707   2.548  12.331 -0.4377  0.6190 -1.2475
 7035SOL     OW32566   4.600   1.551   6.788  0.0138 -0.3189  0.1552
 7035SOL    HW132567   4.581   1.633   6.741  2.1796  1.8025  3.0118
 7035SOL    HW232568   4.687   1.562   6.825  0.3500 -0.1889 -0.6845
 7036SOL     OW32569   1.848   1.909   0.715  1.1431  0.7691  0.7817
 7036SOL    HW132570   1.847   1.823   0.756  2.1373 -0.5808 -2.0536
 7036SOL    HW232571   1.918   1.947   0.768  0.3108 -2.9430  4.5284
 7037SOL     OW32572   0.490   1.497   3.427 -0.1918 -0.7447  0.3365
 7037SOL    HW132573   0.503   1.404   3.441  0.1364 -0.4756  1.8066
 7037SOL    HW232574   0.412   1.513   3.374  1.2440 -0.4052 -1.6907
 7038SOL     OW32575   2.666   2.519   9.632 -0.8179  0.0415 -0.0536
 7038SOL    HW132576   2.731   2.570   9.681  0.4657 -0.5310 -1.1567
 7038SOL    HW232577   2.697   2.555   9.549 -0.9698  1.9346  0.7153
 7039SOL     OW32578   1.733   3.392  14.882  0.9243 -0.2207 -0.1998
 7039SOL    HW132579   1.813   3.438  14.908  1.1562 -0.3649 -0.6583
 7039SOL    HW232580   1.665   3.452  14.912  1.4650 -0.0632  0.7190
 7040SOL     OW32581   3.637   3.727   9.427  0.7986  0.3114  0.5793
 7040SOL    HW132582   3.628   3.768   9.341 -0.3796 -0.1411  0.4871
 7040SOL    HW232583   3.552   3.754   9.463  1.3647  0.4958  1.7415
 7041SOL     OW32584   2.072   3.419  11.315 -0.8958 -1.0356  0.7701
 7041SOL    HW132585   1.998   3.473  11.290  0.5244  0.6774  0.2173
 7041SOL    HW232586   2.113   3.466  11.388  2.1715 -2.3586 -0.0729
 7042SOL     OW32587   1.241   0.182   7.945  0.7286 -0.2434  1.1519
 7042SOL    HW132588   1.334   0.175   7.921  0.7176  0.5038  0.8920
 7042SOL    HW232589   1.250   0.202   8.038  0.1822 -2.1512  1.6257
 7043SOL     OW32590   1.855   2.105   9.597 -0.4142 -0.0072 -0.2629
 7043SOL    HW132591   1.861   2.023   9.646  2.8274  0.1364 -0.4266
 7043SOL    HW232592   1.897   2.074   9.517  1.0294  0.4401  0.3189
 7044SOL     OW32593   1.178   0.675   2.058  0.0477  0.3325 -0.4519
 7044SOL    HW132594   1.144   0.763   2.075  0.1903 -0.0515  1.7454
 7044SOL    HW232595   1.210   0.694   1.969  2.1557 -0.2770  0.1863
 7045SOL     OW32596   4.419   0.228   9.478 -0.3191  0.4114 -0.8121
 7045SOL    HW132597   4.445   0.185   9.396  0.0995  0.5380 -0.7469
 7045SOL    HW232598   4.416   0.153   9.538  0.2940  1.3840  0.4373
 7046SOL     OW32599   0.343   4.346   0.333  0.0074  0.3555 -0.4123
 7046SOL    HW132600   0.381   4.262   0.358  0.8790 -0.0085 -2.9379
 7046SOL    HW232601   0.411   4.385   0.278 -1.5120  0.5748 -2.1603
 7047SOL     OW32602   1.402   1.593   6.521  0.2766  0.6073 -0.4395
 7047SOL    HW132603   1.364   1.513   6.484  3.8915 -1.0044 -0.7208
 7047SOL    HW232604   1.494   1.567   6.522  0.6780  2.0711  0.2807
 7048SOL     OW32605   4.634   0.699  11.052 -0.7609 -0.2191  0.0550
 7048SOL    HW132606   4.627   0.777  11.107  0.0609 -0.5406  0.6255
 7048SOL    HW232607   4.723   0.707  11.019 -1.1161 -0.5688 -0.9788
 7049SOL     OW32608   4.016   0.260  12.078  0.3211  0.5860  0.1762
 7049SOL    HW132609   4.080   0.310  12.026 -0.0468  0.8412 -0.0284
 7049SOL    HW232610   4.069   0.240  12.155  0.4629  1.9059  0.4170
 7050SOL     OW32611   3.067   0.412   3.790 -0.4809  0.0414  0.2590
 7050SOL    HW132612   3.058   0.489   3.735  1.1515 -0.4553 -0.7161
 7050SOL    HW232613   3.061   0.348   3.719  0.3061 -1.0586  1.1877
 7051SOL     OW32614   3.816   0.160   4.969 -0.4634 -0.6320  0.0883
 7051SOL    HW132615   3.839   0.123   4.883 -1.6615 -0.2504 -0.3999
 7051SOL    HW232616   3.731   0.117   4.977  0.1464 -1.9099 -0.2513
 7052SOL     OW32617   0.162   3.270   8.813 -0.7137 -0.5171 -0.1085
 7052SOL    HW132618   0.195   3.182   8.797  0.6851 -0.0407  0.2131
 7052SOL    HW232619   0.241   3.312   8.845 -0.6438 -0.1967 -0.7151
 7053SOL     OW32620   1.135   3.040   0.173  0.3969 -0.2976 -0.5251
 7053SOL    HW132621   1.221   3.016   0.140  1.8604  1.0110  2.3243
 7053SOL    HW232622   1.154   3.031   0.267 -0.3830  2.8405 -0.0597
 7054SOL     OW32623   1.274   2.330   4.609  0.2350 -0.2877  0.1088
 7054SOL    HW132624   1.206   2.397   4.612 -1.4315 -1.8701 -2.1241
 7054SOL    HW232625   1.280   2.303   4.701  1.5444  1.1679  0.4571
 7055SOL     OW32626   3.863   1.115   7.529 -0.2381  0.0894 -0.1454
 7055SOL    HW132627   3.848   1.199   7.486  1.0132 -0.2352 -1.2185
 7055SOL    HW232628   3.830   1.045   7.473 -0.0846 -0.6481  0.6852
 7056SOL     OW32629   1.287   1.781  13.640  0.2862  0.0336 -0.1171
 7056SOL    HW132630   1.246   1.859  13.603  0.4831  0.4231  0.4924
 7056SOL    HW232631   1.376   1.800  13.609  0.6625 -1.0117  0.3041
 7057SOL     OW32632   2.012   1.672  11.572  0.3488  0.5439 -0.7125
 7057SOL    HW132633   2.011   1.630  11.658 -0.1231  0.4708 -0.7504
 7057SOL    HW232634   2.081   1.737  11.584 -0.3117  1.3962 -1.5332
 7058SOL     OW32635   4.518   1.449   0.077  0.2358 -0.0600  0.2779
 7058SOL    HW132636   4.516   1.542   0.100 -0.3056  0.5393 -2.2349
 7058SOL    HW232637   4.595   1.408   0.116 -0.3936 -0.7563  0.8044
 7059SOL     OW32638   0.239   2.723  13.249 -0.0276  0.0731  0.1312
 7059SOL    HW132639   0.258   2.773  13.170 -0.1038 -0.3458 -0.1507
 7059SOL    HW232640   0.269   2.635  13.229 -1.7432 -0.4484 -0.1780
 7060SOL     OW32641   1.869   0.966   1.539 -0.8357 -0.0541 -0.2481
 7060SOL    HW132642   1.958   0.976   1.572 -0.5566  0.4138 -1.1698
 7060SOL    HW232643   1.887   0.918   1.458 -1.6009  2.8367 -2.1376
 7061SOL     OW32644   2.590   3.073   9.501 -0.0829 -0.4468  0.5019
 7061SOL    HW132645   2.539   3.139   9.454  0.9624  0.4161  0.5706
 7061SOL    HW232646   2.658   3.121   9.549  0.6679 -0.2511 -0.7720
 7062SOL     OW32647   2.665   2.309   1.475  0.2548  0.2171  0.3685
 7062SOL    HW132648   2.646   2.216   1.464 -0.4999  0.3979  0.2014
 7062SOL    HW232649   2.760   2.301   1.489  0.2998 -0.8044 -0.5434
 7063SOL     OW32650   3.467   3.518   8.312 -0.1874  0.3155 -0.0054
 7063SOL    HW132651   3.479   3.583   8.381 -0.7860  0.3641  0.0522
 7063SOL    HW232652   3.394   3.474   8.355  0.4064 -0.9031 -0.2310
 7064SOL     OW32653   3.734   4.453   4.271  0.3697  0.4019 -0.5005
 7064SOL    HW132654   3.757   4.431   4.181  2.8430 -0.4960  0.3366
 7064SOL    HW232655   3.794   4.524   4.295 -0.3873  0.4692  1.1909
 7065SOL     OW32656   3.535   2.176   5.010 -0.0577 -0.3646 -0.5294
 7065SOL    HW132657   3.600   2.152   4.944  1.0518  0.0070  0.4399
 7065SOL    HW232658   3.485   2.250   4.975 -0.1792 -0.4936 -0.6315
 7066SOL     OW32659   0.754   0.015   2.781  0.0595 -0.5370 -0.2730
 7066SOL    HW132660   0.813   0.076   2.737  0.5885 -0.5644  0.4028
 7066SOL    HW232661   0.695   4.716   2.710  0.9112  0.4991 -1.3275
 7067SOL     OW32662   4.245   2.283   6.964 -0.3786 -0.6692  0.7623
 7067SOL    HW132663   4.334   2.254   6.946 -0.7178 -2.0499  1.3121
 7067SOL    HW232664   4.203   2.290   6.878  0.9441 -2.0970  0.0134
 7068SOL     OW32665   0.648   1.115  17.536  0.5253  0.8400 -0.2556
 7068SOL    HW132666   0.628   1.205  17.562 -1.5869  0.7617 -1.6337
 7068SOL    HW232667   0.707   1.088  17.606  1.3042  2.5458 -0.2572
 7069SOL     OW32668   4.465   4.629  13.697  0.1042  0.1542 -0.0627
 7069SOL    HW132669   4.428   4.689  13.633 -0.1394  0.2045  0.1218
 7069SOL    HW232670   4.533   4.672  13.748  3.2766 -0.6667 -3.6392
 7070SOL     OW32671   0.777   2.792  13.675  0.2136 -0.2712 -0.4813
 7070SOL    HW132672   0.800   2.790  13.768  1.4634 -0.2620 -0.7983
 7070SOL    HW232673   0.820   2.870  13.641  0.2208 -0.8702 -1.8321
 7071SOL     OW32674   0.746   0.235   7.420 -0.3871  0.2205  0.5392
 7071SOL    HW132675   0.819   0.296   7.431  0.6662 -0.9685  0.2028
 7071SOL    HW232676   0.751   0.205   7.329  0.3224  2.5348 -0.1757
 7072SOL     OW32677   1.813   1.655  13.228 -0.0907 -0.5446  0.4527
 7072SOL    HW132678   1.802   1.584  13.164 -2.5282 -2.1144  2.6485
 7072SOL    HW232679   1.909   1.652  13.221  0.0148 -0.4715  1.8309
 7073SOL     OW32680   2.621   2.252  13.946  0.3142 -0.0778 -0.3291
 7073SOL    HW132681   2.697   2.196  13.929  0.0390 -0.8879  1.1188
 7073SOL    HW232682   2.584   2.189  14.008 -1.3084  0.3295 -0.8824
 7074SOL     OW32683   2.059   1.119  10.984  0.2264 -0.4877  0.0911
 7074SOL    HW132684   1.977   1.124  11.034  0.4594  3.7975  0.0683
 7074SOL    HW232685   2.107   1.047  11.026  0.6912 -0.6010 -0.6364
 7075SOL     OW32686   3.871   4.008   5.340 -0.6129 -0.0475  0.6900
 7075SOL    HW132687   3.799   3.944   5.336 -1.3346  0.8207 -0.1047
 7075SOL    HW232688   3.937   3.946   5.372 -0.9501 -0.8612 -0.1700
 7076SOL     OW32689   0.895   2.477  16.327  0.3283  0.4550  0.1346
 7076SOL    HW132690   0.834   2.404  16.340  2.3189 -1.5637 -1.7289
 7076SOL    HW232691   0.838   2.529  16.272  0.4097  0.7663  0.3462
 7077SOL     OW32692   3.562   3.562   8.757  0.5512  0.2948  0.3448
 7077SOL    HW132693   3.610   3.479   8.752 -0.2348  0.0060 -2.9749
 7077SOL    HW232694   3.627   3.606   8.811  1.7881 -0.0253 -0.8887
 7078SOL     OW32695   0.210   0.201  13.888 -0.0442  0.6887  0.4942
 7078SOL    HW132696   0.203   0.119  13.936 -0.6437 -1.1672 -2.7445
 7078SOL    HW232697   0.273   0.255  13.936 -0.0630 -0.0862  1.3810
 7079SOL     OW32698   4.435   0.916   6.031 -0.2615 -0.6009 -0.1791
 7079SOL    HW132699   4.473   0.990   5.984  0.2362 -1.0538 -0.4930
 7079SOL    HW232700   4.515   0.889   6.075 -0.6962  0.4791  1.2599
 7080SOL     OW32701   2.363   2.650  14.884 -0.2548 -0.7780  0.3580
 7080SOL    HW132702   2.352   2.720  14.820 -1.9877 -0.2981  1.1851
 7080SOL    HW232703   2.441   2.607  14.847 -0.9494 -3.3039  1.8291
 7081SOL     OW32704   2.995   2.060   6.970 -0.5957 -0.3506  0.2409
 7081SOL    HW132705   2.921   2.112   6.937 -0.6603 -0.0670  0.8198
 7081SOL    HW232706   3.023   2.003   6.899 -0.4153  1.7283 -1.3482
 7082SOL     OW32707   2.793   3.810   9.025  0.1375 -0.5270  0.1685
 7082SOL    HW132708   2.878   3.790   9.062  0.7316 -0.7889 -1.3526
 7082SOL    HW232709   2.736   3.740   9.058 -0.6060  0.2410  0.5210
 7083SOL     OW32710   1.116   0.673  12.356 -0.2899  0.6632 -0.5351
 7083SOL    HW132711   1.113   0.658  12.261 -0.5935 -0.6462 -0.3236
 7083SOL    HW232712   1.210   0.683  12.366 -0.4983  1.8226  0.2981
 7084SOL     OW32713   0.967   2.370  13.399 -0.1106 -0.2624 -0.4491
 7084SOL    HW132714   1.017   2.347  13.477  2.6925  1.9127 -1.5998
 7084SOL    HW232715   0.943   2.462  13.410 -0.1948 -0.1912 -1.2192
 7085SOL     OW32716   1.431   4.325  14.880 -0.3566 -0.2824 -0.0152
 7085SOL    HW132717   1.513   4.294  14.841 -1.0075 -1.1226 -0.7101
 7085SOL    HW232718   1.364   4.302  14.817  0.0980 -0.0756 -0.5716
 7086SOL     OW32719   2.460   2.753   0.924  0.5093 -0.1098 -0.0173
 7086SOL    HW132720   2.521   2.800   0.867  1.7726  2.0142  3.0587
 7086SOL    HW232721   2.515   2.678   0.948  0.8938  0.4596  0.8807
 7087SOL     OW32722   1.822   0.834   4.333  0.2173  0.2412  0.2881
 7087SOL    HW132723   1.731   0.844   4.305  1.0270  0.7170 -2.1835
 7087SOL    HW232724   1.839   0.741   4.322 -0.6561  0.0274  0.7558
 7088SOL     OW32725   3.191   2.248  12.315 -0.0355 -0.1967 -0.7186
 7088SOL    HW132726   3.137   2.182  12.271 -1.5975  0.7702 -0.2644
 7088SOL    HW232727   3.129   2.304  12.362 -0.4083 -0.1410 -1.2695
 7089SOL     OW32728   2.177   1.441  13.926 -0.7270  0.6204  0.0860
 7089SOL    HW132729   2.128   1.400  13.855 -0.5656  1.9155 -0.7864
 7089SOL    HW232730   2.168   1.536  13.914 -1.7066  0.9577  3.5123
 7090SOL     OW32731   3.813   1.190   2.811  0.3167 -0.0899  0.2621
 7090SOL    HW132732   3.735   1.137   2.799 -0.2141  0.8756 -0.5102
 7090SOL    HW232733   3.827   1.187   2.906 -1.5448  0.3698  0.5367
 7091SOL     OW32734   4.514   3.149   1.773  0.1638  0.6953 -0.3248
 7091SOL    HW132735   4.512   3.230   1.723 -2.1235 -0.6527 -2.4145
 7091SOL    HW232736   4.601   3.163   1.812  0.2737  0.1275 -0.3612
 7092SOL     OW32737   4.257   1.690  14.940 -0.0926  0.2294 -0.3851
 7092SOL    HW132738   4.303   1.670  15.021 -1.0690  0.1605  0.1484
 7092SOL    HW232739   4.315   1.650  14.875  0.8271 -0.5954  0.9400
 7093SOL     OW32740   0.212   3.009   3.556 -0.5615  0.1062  0.3736
 7093SOL    HW132741   0.298   3.011   3.599 -0.2810  0.2293 -0.1887
 7093SOL    HW232742   0.232   2.930   3.505 -0.2299 -0.3811  1.2425
 7094SOL     OW32743   1.293   1.314  10.794  0.2572  0.3297  0.0394
 7094SOL    HW132744   1.379   1.291  10.758  0.5471  0.7306  0.4804
 7094SOL    HW232745   1.265   1.389  10.743  1.8570  1.9666  1.5833
 7095SOL     OW32746   0.129   3.558   7.648  0.1092 -0.2738  0.5227
 7095SOL    HW132747   0.198   3.581   7.585  1.0459 -2.4664  0.7582
 7095SOL    HW232748   0.087   3.644   7.646  0.0974 -0.2812  0.4506
 7096SOL     OW32749   3.004   1.878   5.887  0.1916  0.1314  0.1770
 7096SOL    HW132750   2.964   1.933   5.820 -0.0412  0.8466  0.8991
 7096SOL    HW232751   3.072   1.841   5.831 -1.5652  1.4117 -2.8035
 7097SOL     OW32752   3.088   0.580   5.386  0.3565 -0.0035  0.4257
 7097SOL    HW132753   3.053   0.498   5.350  0.1997  0.1499  0.2330
 7097SOL    HW232754   3.070   0.642   5.316 -0.4143 -0.7289 -0.0133
 7098SOL     OW32755   0.234   4.128   0.527  0.5848 -0.0096 -1.0553
 7098SOL    HW132756   0.308   4.078   0.561 -0.0993 -0.4513 -0.1997
 7098SOL    HW232757   0.195   4.054   0.480  0.7924 -0.6759 -0.1981
 7099SOL     OW32758   0.228   2.732   3.106  0.6173 -0.3031  0.0424
 7099SOL    HW132759   0.196   2.813   3.146 -2.5842 -1.3536 -0.3130
 7099SOL    HW232760   0.319   2.754   3.089 -0.1247  2.2165 -0.6169
 7100SOL     OW32761   0.325   0.600   0.216 -0.0494 -0.2813 -0.2851
 7100SOL    HW132762   0.299   0.525   0.271  1.0913  1.8538  3.1741
 7100SOL    HW232763   0.255   0.663   0.234 -0.9893 -1.2215 -0.6333
 7101SOL     OW32764   3.519   1.856   7.300 -1.0421  0.2936  0.4419
 7101SOL    HW132765   3.546   1.768   7.273  1.2702  0.9379  0.6001
 7101SOL    HW232766   3.579   1.897   7.237  0.0824  0.1828  1.4296
 7102SOL     OW32767   0.363   0.321   9.780  0.4025  0.4539 -0.0225
 7102SOL    HW132768   0.434   0.303   9.719 -1.3116 -1.2648 -1.4921
 7102SOL    HW232769   0.404   0.380   9.844  1.8886 -0.1421 -0.4329
 7103SOL     OW32770   1.060   1.361   6.641  0.5225  0.0225  0.1247
 7103SOL    HW132771   1.010   1.284   6.616 -0.8335  1.4329 -1.5056
 7103SOL    HW232772   1.126   1.307   6.684  0.2573  1.0108  1.7921
 7104SOL     OW32773   0.372   4.289   3.984  0.0013 -0.6618 -0.4538
 7104SOL    HW132774   0.298   4.235   3.956  1.7243 -2.8136 -0.8900
 7104SOL    HW232775   0.402   4.228   4.050  0.2735 -2.3836 -2.1613
 7105SOL     OW32776   3.561   1.001  11.490 -0.4563  0.1057 -0.1699
 7105SOL    HW132777   3.584   0.927  11.434  1.2215 -0.8578  1.7635
 7105SOL    HW232778   3.567   0.972  11.581 -0.6528 -0.8782 -0.4723
 7106SOL     OW32779   3.065   1.026   3.751  0.1914 -0.1468 -0.0580
 7106SOL    HW132780   3.142   0.986   3.791 -0.3212 -1.8761 -0.8236
 7106SOL    HW232781   3.088   1.008   3.660  0.3068 -2.2782  0.3963
 7107SOL     OW32782   3.831   1.441   4.554 -0.1486  0.0238 -0.2518
 7107SOL    HW132783   3.909   1.497   4.563 -1.4117  1.5257  1.3593
 7107SOL    HW232784   3.774   1.481   4.620 -1.3660 -1.9169 -0.1547
 7108SOL     OW32785   2.153   0.346   9.142 -0.2110 -0.0683  0.2776
 7108SOL    HW132786   2.202   0.264   9.137 -2.9857 -1.8124  1.2921
 7108SOL    HW232787   2.144   0.351   9.237 -0.9439  0.5956  0.1780
 7109SOL     OW32788   3.897   0.661  13.204 -0.0900  0.5041 -0.1146
 7109SOL    HW132789   3.979   0.689  13.166 -1.2720  1.2620 -2.0991
 7109SOL    HW232790   3.899   0.571  13.172 -0.9856  0.8818 -1.2270
 7110SOL     OW32791   2.919   0.756   0.353 -0.0451 -0.3013 -0.4071
 7110SOL    HW132792   2.885   0.763   0.264  1.0461  0.3015 -0.7798
 7110SOL    HW232793   2.848   0.805   0.395 -1.9961 -2.0179 -1.6964
 7111SOL     OW32794   1.521   4.234   3.573 -0.3211 -0.7261  0.1630
 7111SOL    HW132795   1.490   4.149   3.543  0.1858 -1.3715  1.4896
 7111SOL    HW232796   1.588   4.257   3.509  0.0770  4.2922  2.3763
 7112SOL     OW32797   4.613   0.057  13.899  0.0188  0.3747  0.4121
 7112SOL    HW132798   4.599   0.126  13.964  0.0755  0.8288 -0.0552
 7112SOL    HW232799   4.708   0.050  13.908  0.0266  0.6879  0.5758
 7113SOL     OW32800   0.772   3.452   7.595  0.0219 -0.1032 -0.6287
 7113SOL    HW132801   0.762   3.440   7.689  0.8220  1.6377 -0.3286
 7113SOL    HW232802   0.776   3.546   7.579  3.9560 -0.1616  0.1202
 7114SOL     OW32803   1.250   3.526   3.567  0.7901  0.4304 -0.7340
 7114SOL    HW132804   1.230   3.435   3.545 -0.3813  0.5467 -0.1796
 7114SOL    HW232805   1.283   3.568   3.487  0.3641  0.5660 -0.8432
 7115SOL     OW32806   0.331   4.368  14.403  0.6092 -0.4948 -0.7598
 7115SOL    HW132807   0.347   4.417  14.484  0.3292 -1.2629 -0.2458
 7115SOL    HW232808   0.293   4.288  14.440 -2.0364  1.0530 -0.1115
 7116SOL     OW32809   0.369   0.232   3.079 -0.8491  0.2316 -0.2002
 7116SOL    HW132810   0.344   0.168   3.013 -0.3268 -0.0384 -0.1397
 7116SOL    HW232811   0.404   0.301   3.023  0.0708  0.7771  1.0329
 7117SOL     OW32812   0.446   0.843   5.999 -0.0815 -0.2128  0.1415
 7117SOL    HW132813   0.387   0.848   6.074  0.4266 -3.0926  0.7272
 7117SOL    HW232814   0.397   0.885   5.928  1.0024 -0.4512 -0.7421
 7118SOL     OW32815   3.022   2.443  13.768  0.3090  0.0688  0.0016
 7118SOL    HW132816   2.970   2.370  13.734  1.6255 -0.3206 -1.1570
 7118SOL    HW232817   3.027   2.499  13.691  1.0078 -1.4955 -1.0909
 7119SOL     OW32818   3.923   4.525   8.018 -0.1560 -0.1409 -0.0321
 7119SOL    HW132819   4.009   4.564   8.034 -0.5172  0.2673  0.9049
 7119SOL    HW232820   3.936   4.468   7.942  0.4716  0.7251 -0.5755
 7120SOL     OW32821   2.986   3.088   0.775 -0.3768 -0.1042 -0.2497
 7120SOL    HW132822   2.903   3.132   0.753  1.2038  3.2948  0.6645
 7120SOL    HW232823   3.045   3.110   0.703 -0.4964  0.6255 -0.1185
 7121SOL     OW32824   4.048   2.399  12.800  0.5423 -0.8343  1.0039
 7121SOL    HW132825   3.974   2.386  12.859  0.1467 -0.8049  0.5167
 7121SOL    HW232826   4.066   2.307  12.780 -0.3278 -0.9780  0.8930
 7122SOL     OW32827   0.672   0.328   8.997  0.0928  0.0601 -0.6031
 7122SOL    HW132828   0.745   0.290   9.047 -0.9009 -0.6441  0.3088
 7122SOL    HW232829   0.640   0.365   9.079 -0.0756  0.0198 -0.6511
 7123SOL     OW32830   3.070   2.452  12.036  0.5896 -0.0351 -0.2492
 7123SOL    HW132831   3.085   2.531  11.984 -1.4672 -1.2023 -2.5888
 7123SOL    HW232832   3.163   2.432  12.048  0.9150  1.1992 -0.6790
 7124SOL     OW32833   2.266   3.509   5.347  0.4467  0.1057  0.3040
 7124SOL    HW132834   2.355   3.504   5.381  0.4879 -1.2034  0.0008
 7124SOL    HW232835   2.285   3.521   5.254  0.2665  0.0118  0.2540
 7125SOL     OW32836   4.259   3.137  12.639 -0.0661  0.3313 -0.2633
 7125SOL    HW132837   4.226   3.101  12.721 -0.3313 -1.5036 -1.1747
 7125SOL    HW232838   4.341   3.177  12.667  0.6037 -1.7603  0.8001
 7126SOL     OW32839   2.601   4.045   8.751  0.4967 -0.2301  0.0561
 7126SOL    HW132840   2.687   4.018   8.781  0.1441  0.7480  2.0047
 7126SOL    HW232841   2.558   4.061   8.836  2.1807  0.4006  0.7873
 7127SOL     OW32842   3.876   2.415   2.839 -0.3542  0.1144 -0.2924
 7127SOL    HW132843   3.836   2.497   2.871  2.5266  1.8462 -1.1146
 7127SOL    HW232844   3.832   2.419   2.754 -1.5442  0.4812  0.3321
 7128SOL     OW32845   1.175   0.515   3.074 -0.1981  0.0656  0.4792
 7128SOL    HW132846   1.103   0.486   3.131 -1.5148  0.0944 -1.1752
 7128SOL    HW232847   1.249   0.474   3.118  0.5398  0.6585 -0.2254
 7129SOL     OW32848   4.047   2.597   7.688  0.3462  0.0100  0.7775
 7129SOL    HW132849   3.989   2.663   7.725  1.4462  2.3140 -1.6557
 7129SOL    HW232850   4.073   2.640   7.607 -2.9462  1.6242  0.5841
 7130SOL     OW32851   3.770   4.571   3.606  0.2714 -0.1899 -0.4591
 7130SOL    HW132852   3.704   4.594   3.541  0.1840  0.7594 -0.0368
 7130SOL    HW232853   3.804   4.660   3.620 -0.1875 -0.2164  0.7994
 7131SOL     OW32854   2.862   1.474   8.006 -0.1584  0.1395 -0.1961
 7131SOL    HW132855   2.810   1.542   8.050  0.0132  1.0124 -1.3187
 7131SOL    HW232856   2.795   1.408   7.990 -1.9484  1.7851  0.3830
 7132SOL     OW32857   1.837   2.061   7.615  0.5989 -0.0673  0.0069
 7132SOL    HW132858   1.790   2.144   7.628  1.5202  0.2978  0.9808
 7132SOL    HW232859   1.769   2.015   7.566 -1.5433  0.1753  2.7017
 7133SOL     OW32860   0.527   3.480  11.904  0.5998  0.4466  0.0629
 7133SOL    HW132861   0.485   3.397  11.885 -0.0736  0.5135  1.2469
 7133SOL    HW232862   0.616   3.452  11.925  1.2505  1.2200 -1.6305
 7134SOL     OW32863   4.187   4.638   8.065  0.4661  0.3067  0.3888
 7134SOL    HW132864   4.236   4.652   8.146  0.5967 -0.4651  0.4486
 7134SOL    HW232865   4.215   4.717   8.019 -2.7113  0.6159 -0.9805
 7135SOL     OW32866   1.518   1.917   5.567  0.4338 -0.1748  0.8489
 7135SOL    HW132867   1.521   1.920   5.662  2.4882 -1.3288  0.8401
 7135SOL    HW232868   1.476   1.831   5.562 -1.1876  0.6083  1.2997
 7136SOL     OW32869   2.354   4.152  11.707  0.4712 -0.0437  0.2692
 7136SOL    HW132870   2.292   4.082  11.727 -1.1824  1.4784  0.4641
 7136SOL    HW232871   2.441   4.121  11.734  0.1813 -0.4093  0.7758
 7137SOL     OW32872   4.676   1.997   6.008  0.5813 -0.0346 -0.1762
 7137SOL    HW132873   4.598   1.993   6.063  0.8376 -0.4434  0.1689
 7137SOL    HW232874   0.020   1.964   6.067 -0.2322 -0.2719  0.6519
 7138SOL     OW32875   0.293   0.910   0.648  0.1327  0.0124 -0.7852
 7138SOL    HW132876   0.321   0.962   0.724  1.4983 -2.3205  0.3147
 7138SOL    HW232877   0.370   0.853   0.649 -0.1877 -0.4253 -1.0328
 7139SOL     OW32878   0.576   0.499   9.834  0.7348  0.5522  0.0511
 7139SOL    HW132879   0.587   0.523   9.926  1.4419 -0.7887  0.3229
 7139SOL    HW232880   0.651   0.549   9.804  1.0376 -0.2088 -0.4595
 7140SOL     OW32881   2.770   4.036  11.438  0.4348 -0.2673 -0.3299
 7140SOL    HW132882   2.733   3.981  11.370 -1.9707  0.2114  0.5770
 7140SOL    HW232883   2.743   4.123  11.409  1.4345  0.5755  1.2179
 7141SOL     OW32884   0.935   3.498   9.029 -0.3795  0.2545 -0.0473
 7141SOL    HW132885   0.931   3.406   9.003  0.0250  0.3872 -0.5801
 7141SOL    HW232886   0.849   3.512   9.069  0.1206 -2.9185  2.1189
 7142SOL     OW32887   1.814   1.847   2.591  0.0265  0.4113  0.1840
 7142SOL    HW132888   1.846   1.868   2.503 -0.2343  0.7825  0.1801
 7142SOL    HW232889   1.846   1.914   2.650  1.5516  1.4999 -1.8744
 7143SOL     OW32890   4.439   0.996   5.624 -0.2720 -0.4049  0.3323
 7143SOL    HW132891   4.414   1.080   5.663  1.4532 -0.1287  0.8549
 7143SOL    HW232892   4.533   0.993   5.640 -0.4100  0.6578  1.3576
 7144SOL     OW32893   2.757   1.511  15.479 -0.2513  0.3818 -0.1031
 7144SOL    HW132894   2.662   1.511  15.488 -0.4239 -0.5789 -1.8243
 7144SOL    HW232895   2.787   1.578  15.540  1.1037 -1.4665  1.2637
 7145SOL     OW32896   3.810   4.335   8.210 -0.6864 -0.2170  0.5550
 7145SOL    HW132897   3.829   4.402   8.144  1.4284  0.3269  1.7096
 7145SOL    HW232898   3.744   4.278   8.169  0.6369 -1.0801 -0.3891
 7146SOL     OW32899   2.208   3.811   4.011 -0.1459  0.2792  0.3152
 7146SOL    HW132900   2.270   3.742   3.990 -0.8506 -0.6987  1.4557
 7146SOL    HW232901   2.129   3.767   3.979 -1.0084  2.0438 -0.0378
 7147SOL     OW32902   1.340   4.275  10.169  0.0286 -0.6774  0.0445
 7147SOL    HW132903   1.348   4.337  10.241 -1.8147 -1.0308  0.5444
 7147SOL    HW232904   1.431   4.278  10.139 -0.7070  1.0311 -2.0229
 7148SOL     OW32905   4.140   0.146  16.902  0.4521 -0.0308  0.1354
 7148SOL    HW132906   4.145   0.051  16.918  0.4856  0.2308  1.6631
 7148SOL    HW232907   4.073   0.173  16.965 -0.7904 -2.3003 -0.2097
 7149SOL     OW32908   4.592   4.462   8.104 -0.4245  0.2941  0.5223
 7149SOL    HW132909   4.667   4.479   8.048 -0.5279 -2.1745 -0.3776
 7149SOL    HW232910   4.603   4.539   8.159  0.3988  0.8702 -0.4534
 7150SOL     OW32911   4.157   0.476   4.107 -0.0670 -0.2300  0.5943
 7150SOL    HW132912   4.154   0.571   4.095 -0.8237 -0.0256  2.3480
 7150SOL    HW232913   4.157   0.445   4.017 -1.4785  0.9213  0.2024
 7151SOL     OW32914   3.109   2.444   7.607 -0.0022 -0.0090  0.0396
 7151SOL    HW132915   3.083   2.381   7.674  0.8266  0.7916  1.1135
 7151SOL    HW232916   3.172   2.396   7.552  0.2388  1.2879 -0.8060
 7152SOL     OW32917   4.365   4.545  11.901 -0.2566  0.2314 -0.0664
 7152SOL    HW132918   4.424   4.497  11.844  0.0644  0.4941  0.0451
 7152SOL    HW232919   4.409   4.541  11.986  0.1683  1.2708 -0.2338
 7153SOL     OW32920   0.668   1.087   5.714 -0.4115 -0.2166  0.1520
 7153SOL    HW132921   0.651   0.993   5.719  0.4541 -0.1415  5.0181
 7153SOL    HW232922   0.663   1.100   5.619  4.4201  0.3794 -0.0147
 7154SOL     OW32923   1.734   1.712   8.029 -0.4095 -0.7757 -0.0007
 7154SOL    HW132924   1.716   1.775   8.099 -0.7867 -0.1350 -0.6760
 7154SOL    HW232925   1.757   1.776   7.962 -0.4933 -0.8927 -0.1420
 7155SOL     OW32926   3.739   3.825  12.195 -0.6149  0.6205 -0.3294
 7155SOL    HW132927   3.784   3.741  12.203 -1.4290  0.2707  0.6186
 7155SOL    HW232928   3.708   3.820  12.105 -0.9606 -0.0715 -0.1736
 7156SOL     OW32929   3.257   2.162  11.714 -0.2644 -0.0536  0.0525
 7156SOL    HW132930   3.292   2.251  11.714  0.2958 -0.2723  0.0567
 7156SOL    HW232931   3.329   2.111  11.676  0.3375  0.5081  0.4507
 7157SOL     OW32932   2.110   3.671   1.430 -0.1940  0.1332 -0.2124
 7157SOL    HW132933   2.121   3.628   1.346  3.0943  0.8195 -0.1124
 7157SOL    HW232934   2.089   3.760   1.401  1.5673  0.6490  0.1379
 7158SOL     OW32935   3.857   3.869   5.878 -0.3587 -0.6996 -0.0911
 7158SOL    HW132936   3.950   3.849   5.890  0.1051  1.7238  0.4032
 7158SOL    HW232937   3.828   3.778   5.878 -0.2621 -0.7319 -0.6631
 7159SOL     OW32938   1.173   0.753   8.034 -0.7068 -0.2217 -0.5043
 7159SOL    HW132939   1.146   0.682   7.975 -1.0588 -0.2846 -0.2659
 7159SOL    HW232940   1.185   0.822   7.968 -1.2753  0.0494 -0.3258
 7160SOL     OW32941   2.185   0.682   0.572 -0.1206 -0.1003 -0.3828
 7160SOL    HW132942   2.173   0.587   0.564 -0.7725 -0.1230  0.8505
 7160SOL    HW232943   2.169   0.717   0.485 -0.8596  2.1698  0.6752
 7161SOL     OW32944   1.835   4.264  13.687 -0.0862 -0.6647  0.3550
 7161SOL    HW132945   1.823   4.183  13.637 -0.3738  0.2591 -1.0940
 7161SOL    HW232946   1.921   4.261  13.730 -0.6655 -1.2122  1.4690
 7162SOL     OW32947   3.380   2.885   1.906 -0.5980 -0.1725 -0.2306
 7162SOL    HW132948   3.374   2.976   1.878  1.3554 -0.4935 -1.6643
 7162SOL    HW232949   3.287   2.863   1.899 -0.6284 -0.7859  1.8725
 7163SOL     OW32950   0.887   1.980  15.642  0.0054  0.0618 -0.2376
 7163SOL    HW132951   0.934   2.053  15.682 -0.0391 -1.8111  3.1998
 7163SOL    HW232952   0.886   2.003  15.549  3.4912  1.3891  0.0497
 7164SOL     OW32953   1.959   1.467  14.462 -0.2016  0.0652 -0.6663
 7164SOL    HW132954   1.878   1.511  14.489  0.8127 -0.3435  2.9142
 7164SOL    HW232955   1.947   1.418  14.381 -1.4264 -0.6283 -0.0663
 7165SOL     OW32956   1.000   4.148   5.992  0.5869 -0.1164 -0.0985
 7165SOL    HW132957   0.961   4.126   6.077  0.9901 -1.0493 -0.1490
 7165SOL    HW232958   0.931   4.162   5.927  1.0604  1.1255 -0.3346
 7166SOL     OW32959   1.238   3.805  15.314 -0.4600 -0.0990 -0.2567
 7166SOL    HW132960   1.192   3.818  15.398 -1.1566  0.5472 -0.7354
 7166SOL    HW232961   1.207   3.875  15.256  1.2927 -0.0244 -1.0950
 7167SOL     OW32962   3.577   1.629  14.952  0.2228 -0.0613 -0.5528
 7167SOL    HW132963   3.646   1.594  15.009 -0.9171 -0.2336  0.7334
 7167SOL    HW232964   3.514   1.562  14.979 -1.3760  1.9962  0.8673
 7168SOL     OW32965   3.135   1.749  12.841  0.5780 -0.4078 -0.6340
 7168SOL    HW132966   3.115   1.719  12.753 -2.6023 -1.7163  0.5558
 7168SOL    HW232967   3.231   1.748  12.844  0.5240 -3.8148  0.7518
 7169SOL     OW32968   4.537   4.248   2.136 -0.0072 -0.4383  0.5325
 7169SOL    HW132969   4.605   4.251   2.204 -1.1103  0.2169  1.5899
 7169SOL    HW232970   4.517   4.340   2.120 -1.3732 -0.7871  0.2733
 7170SOL     OW32971   2.895   0.465  11.944  0.0624 -0.0220  0.2862
 7170SOL    HW132972   2.965   0.522  11.913  0.3121  0.2748  1.3891
 7170SOL    HW232973   2.907   0.478  12.038 -0.1617  0.2588  0.2780
 7171SOL     OW32974   2.605   2.564  11.186 -0.4779  0.2066 -0.1866
 7171SOL    HW132975   2.639   2.508  11.116  4.7036  1.0732  1.6306
 7171SOL    HW232976   2.601   2.645  11.136  6.5558  0.8856  0.3539
 7172SOL     OW32977   4.507   1.481   7.165  0.4511 -0.8559  0.6152
 7172SOL    HW132978   4.449   1.405   7.163  1.8037 -1.8899  0.3868
 7172SOL    HW232979   4.449   1.556   7.160 -0.1106 -1.1562  2.4605
 7173SOL     OW32980   4.442   2.378   4.904  0.3515  0.3105  0.2771
 7173SOL    HW132981   4.461   2.292   4.943  0.2458 -0.2468 -0.9203
 7173SOL    HW232982   4.347   2.384   4.906  0.1441 -2.5334 -0.3363
 7174SOL     OW32983   3.296   0.418   3.984  0.4474  0.2592 -0.1227
 7174SOL    HW132984   3.250   0.379   3.909 -0.9120  0.4525  0.6312
 7174SOL    HW232985   3.386   0.401   3.955 -0.4282 -0.2709 -2.5750
 7175SOL     OW32986   2.670   1.328   5.568  0.0124 -0.2528  0.4620
 7175SOL    HW132987   2.600   1.393   5.578 -0.2215 -0.2495 -1.1152
 7175SOL    HW232988   2.694   1.347   5.477  0.6915 -0.0428  0.6809
 7176SOL     OW32989   0.564   1.881   2.306 -0.0102  0.1294 -0.0470
 7176SOL    HW132990   0.575   1.821   2.380 -2.0207 -2.5314 -1.8830
 7176SOL    HW232991   0.601   1.835   2.230 -0.0807  0.0353 -0.0254
 7177SOL     OW32992   0.921   0.748  15.440  0.0088  0.4277  0.6449
 7177SOL    HW132993   0.900   0.707  15.356  0.2703  0.3005  0.6415
 7177SOL    HW232994   0.994   0.807  15.421  1.0605 -1.7525 -2.0744
 7178SOL     OW32995   0.335   3.455   2.441  0.1161 -0.0865  0.2913
 7178SOL    HW132996   0.388   3.532   2.462  0.2563 -0.7722  2.4564
 7178SOL    HW232997   0.337   3.411   2.526 -0.3908  0.9249  0.8328
 7179SOL     OW32998   3.913   2.706   2.758  0.2776 -0.7403  0.3537
 7179SOL    HW132999   3.879   2.776   2.703 -1.5140  0.0865  2.4825
 7179SOL    HW233000   3.998   2.735   2.790 -0.5399  1.0832  0.8664
 7180SOL     OW33001   0.600   1.144   0.488  0.0396  0.6876  0.1227
 7180SOL    HW133002   0.631   1.053   0.488 -0.3962  0.5400  0.8119
 7180SOL    HW233003   0.620   1.171   0.577  2.1225  0.5867 -0.3122
 7181SOL     OW33004   0.963   0.423   7.572 -0.7494 -0.3789 -0.2668
 7181SOL    HW133005   0.998   0.355   7.629  0.7167  1.2074  0.7445
 7181SOL    HW233006   0.897   0.468   7.624  1.8990  1.8913  1.1450
 7182SOL     OW33007   1.893   3.742  11.060  0.1757 -0.1603  0.2348
 7182SOL    HW133008   1.812   3.771  11.018 -0.9043 -2.1075  0.9878
 7182SOL    HW233009   1.958   3.736  10.990  1.4832  0.9807  1.3470
 7183SOL     OW33010   1.666   3.125   4.993 -0.0926 -0.0969  0.4975
 7183SOL    HW133011   1.753   3.091   4.970 -0.7945 -2.4548  1.2740
 7183SOL    HW233012   1.688   3.217   5.007 -2.0820  0.7538 -1.9487
 7184SOL     OW33013   1.472   4.217   6.653  0.0269 -0.1599  0.1029
 7184SOL    HW133014   1.451   4.129   6.621  0.6566 -0.6616  1.0835
 7184SOL    HW233015   1.427   4.221   6.737 -1.7094  0.2205 -0.8458
 7185SOL     OW33016   0.868   3.988   7.144  0.5366 -0.3965 -0.2618
 7185SOL    HW133017   0.867   4.063   7.085 -0.5709  1.3205  1.9310
 7185SOL    HW233018   0.799   3.932   7.109 -1.5678  1.0909  1.5778
 7186SOL     OW33019   4.111   2.500   5.539  0.1697 -0.3989 -0.0890
 7186SOL    HW133020   4.111   2.592   5.567  0.0012 -0.4329  0.0160
 7186SOL    HW233021   4.026   2.478   5.577  0.1590 -0.3874 -0.1065
 7187SOL     OW33022   0.060   0.178   0.498 -0.1359  0.0770  0.1978
 7187SOL    HW133023   0.019   0.226   0.570 -1.1448  0.5196 -0.6690
 7187SOL    HW233024   0.151   0.208   0.500  0.1743 -0.8076 -0.7033
 7188SOL     OW33025   0.942   3.378  14.520 -0.0012  0.1655  0.1141
 7188SOL    HW133026   1.008   3.309  14.523 -3.5237 -3.2250 -0.0534
 7188SOL    HW233027   0.864   3.326  14.539 -0.6717  0.2764 -2.2826
 7189SOL     OW33028   2.173   4.081   0.238  0.2222 -0.3933  0.0092
 7189SOL    HW133029   2.238   4.042   0.179  1.2093  0.9630  0.1870
 7189SOL    HW233030   2.215   4.143   0.297  0.6776  0.5677 -1.3182
 7190SOL     OW33031   1.098   2.563   5.462 -0.7776 -0.6858  0.1466
 7190SOL    HW133032   1.150   2.590   5.387  1.4742  0.1305  2.0257
 7190SOL    HW233033   1.149   2.586   5.539  0.3426 -1.3195 -0.4091
 7191SOL     OW33034   3.921   1.436   7.198 -0.0853  0.2376  0.6946
 7191SOL    HW133035   4.005   1.421   7.240  1.1226 -0.8369 -2.0453
 7191SOL    HW233036   3.953   1.473   7.115 -1.2611 -0.2134  0.0385
 7192SOL     OW33037   2.727   4.312   8.385 -0.0248  0.2619 -0.3875
 7192SOL    HW133038   2.705   4.326   8.477  1.6298  3.1508 -0.4327
 7192SOL    HW233039   2.715   4.395   8.339  0.7575 -0.1875 -1.4312
 7193SOL     OW33040   0.655   0.726  11.621 -0.2237 -0.5884  0.1568
 7193SOL    HW133041   0.700   0.804  11.589 -2.2899 -0.1165 -1.6362
 7193SOL    HW233042   0.606   0.759  11.696 -0.1433 -1.9783  0.8258
 7194SOL     OW33043   0.637   0.886   4.774 -0.2766 -0.0923 -0.2428
 7194SOL    HW133044   0.714   0.914   4.725 -0.1204 -1.9218 -1.0696
 7194SOL    HW233045   0.572   0.873   4.705  0.6645 -2.7295 -0.6352
 7195SOL     OW33046   1.274   4.186   6.021 -0.5750  0.1678 -0.1864
 7195SOL    HW133047   1.180   4.198   6.012 -0.6203  0.1325  0.2043
 7195SOL    HW233048   1.284   4.156   6.112 -1.8721  2.0808  0.5870
 7196SOL     OW33049   4.610   3.669   6.244 -0.0700 -0.0920  0.7534
 7196SOL    HW133050   4.633   3.577   6.261  0.0205 -0.4230 -1.1184
 7196SOL    HW233051   4.535   3.680   6.303 -1.8035 -0.5504 -1.3303
 7197SOL     OW33052   3.387   2.728  11.692  0.0260  0.7466 -0.3607
 7197SOL    HW133053   3.434   2.804  11.659  2.5584 -0.3463  0.7033
 7197SOL    HW233054   3.313   2.729  11.632 -0.0179  0.4149 -0.3117
 7198SOL     OW33055   3.266   1.078  11.885  0.2995  0.0419  0.6103
 7198SOL    HW133056   3.277   1.102  11.977  0.7444  2.2777 -0.0234
 7198SOL    HW233057   3.224   1.154  11.845  1.6869 -0.3074 -1.4726
 7199SOL     OW33058   3.796   1.643   8.901 -0.1390 -0.6469 -0.3172
 7199SOL    HW133059   3.814   1.616   8.991 -0.0154 -1.0146 -0.4526
 7199SOL    HW233060   3.792   1.738   8.918  2.0303 -0.6336  0.1459
 7200SOL     OW33061   1.898   4.133  10.730 -0.5725 -0.1443 -0.2595
 7200SOL    HW133062   1.932   4.046  10.752  0.3799 -0.7130 -3.8554
 7200SOL    HW233063   1.855   4.169  10.807  0.1094  0.8295 -0.3287
 7201SOL     OW33064   3.577   4.658   4.717 -0.1011  0.0814  0.3053
 7201SOL    HW133065   3.611   4.584   4.766  2.1310  1.3026  0.6241
 7201SOL    HW233066   3.637   4.669   4.644  2.1546  0.3916  2.2080
 7202SOL     OW33067   0.852   4.257   7.725 -0.2151  0.0596 -0.2989
 7202SOL    HW133068   0.886   4.214   7.647  1.7859  0.8350  0.1377
 7202SOL    HW233069   0.921   4.320   7.746  1.1161 -1.1484 -1.0294
 7203SOL     OW33070   2.195   0.584   3.567 -0.3014 -0.0442 -0.1950
 7203SOL    HW133071   2.269   0.600   3.510  0.2174 -1.0847  0.1881
 7203SOL    HW233072   2.167   0.500   3.531  1.6180 -0.6361 -0.2531
 7204SOL     OW33073   0.753   2.267   6.465 -0.1289  0.2417 -0.2213
 7204SOL    HW133074   0.733   2.190   6.517 -2.4194  0.4004 -0.8633
 7204SOL    HW233075   0.680   2.323   6.493  1.2581  1.7701  0.3639
 7205SOL     OW33076   1.516   1.321   8.769 -0.3529  0.0397 -0.2928
 7205SOL    HW133077   1.512   1.409   8.732 -0.6619 -0.0778 -0.5401
 7205SOL    HW233078   1.424   1.294   8.772 -0.7926  1.4959 -0.9325
 7206SOL     OW33079   0.951   1.376  14.246 -0.1517  0.3585 -0.1722
 7206SOL    HW133080   1.041   1.353  14.224 -0.1247 -0.8244  1.2459
 7206SOL    HW233081   0.950   1.330  14.329 -0.1741 -1.0829 -0.9695
 7207SOL     OW33082   0.103   0.955   2.340  1.1665  0.7384  0.6011
 7207SOL    HW133083   0.184   0.981   2.296  2.1029 -0.2479  1.7510
 7207SOL    HW233084   0.134   0.878   2.389  1.9098  1.9501  2.0379
 7208SOL     OW33085   1.634   4.325   8.854  0.0614 -0.1295 -0.6176
 7208SOL    HW133086   1.549   4.292   8.883  0.2373  0.1021  0.1571
 7208SOL    HW233087   1.692   4.304   8.927  0.8857  0.6820 -1.0354
 7209SOL     OW33088   2.390   4.723   7.287 -0.5484 -0.2058 -0.1629
 7209SOL    HW133089   2.343   0.065   7.237 -0.2709 -1.1754 -1.7392
 7209SOL    HW233090   2.460   4.707   7.224 -0.2858 -0.8529  0.2895
 7210SOL     OW33091   3.519   1.586  11.026 -0.5591 -0.7794 -0.1226
 7210SOL    HW133092   3.569   1.644  11.083  1.7456 -0.4901 -2.4076
 7210SOL    HW233093   3.523   1.500  11.069  1.8265 -0.4741  0.2823
 7211SOL     OW33094   3.784   1.179   7.251  0.0993 -0.6763 -0.1820
 7211SOL    HW133095   3.822   1.112   7.194  1.9032  0.2462 -0.0456
 7211SOL    HW233096   3.822   1.258   7.213  1.8488 -0.7966  1.3075
 7212SOL     OW33097   0.161   0.688   9.737  0.2700 -0.7479 -0.5264
 7212SOL    HW133098   0.132   0.720   9.652  0.7526 -0.4225 -0.5674
 7212SOL    HW233099   0.106   0.748   9.787  0.3954  0.2165 -1.5460
 7213SOL     OW33100   4.296   2.850   7.983  0.8382  0.0244 -0.0923
 7213SOL    HW133101   4.214   2.900   7.990 -0.2439 -1.8118  0.5347
 7213SOL    HW233102   4.267   2.760   8.000  2.0558 -0.1747  0.8655
 7214SOL     OW33103   2.114   0.316   7.304  0.2373  0.0443 -0.2063
 7214SOL    HW133104   2.083   0.399   7.340  0.3537  0.5434 -1.2533
 7214SOL    HW233105   2.032   0.269   7.285 -0.8668  2.2686 -0.9192
 7215SOL     OW33106   3.915   4.352  14.137 -0.4136 -0.4181  0.4295
 7215SOL    HW133107   3.906   4.321  14.227  0.0420 -0.3532  0.5002
 7215SOL    HW233108   3.847   4.296  14.100 -1.1738  0.6845  0.1553
 7216SOL     OW33109   2.632   4.519  15.042 -0.1048 -0.3803 -0.4744
 7216SOL    HW133110   2.582   4.442  15.069  0.2735 -0.6431 -0.5094
 7216SOL    HW233111   2.682   4.535  15.122 -0.8710 -0.3126 -0.0189
 7217SOL     OW33112   2.257   1.686   5.447  0.1204 -0.0056  0.2973
 7217SOL    HW133113   2.233   1.691   5.354 -0.6360 -4.3723  0.2343
 7217SOL    HW233114   2.342   1.729   5.444  0.5279 -0.9383 -1.2441
 7218SOL     OW33115   1.663   3.675   2.928 -0.3976 -0.0297 -0.3123
 7218SOL    HW133116   1.624   3.604   2.878 -1.3105 -0.7141  1.3948
 7218SOL    HW233117   1.629   3.752   2.883  0.1076 -1.4325 -3.1126
 7219SOL     OW33118   3.520   3.808  15.637  0.3686  0.3140  0.3827
 7219SOL    HW133119   3.440   3.790  15.687 -0.3006  1.4412 -0.2522
 7219SOL    HW233120   3.509   3.903  15.635  1.7329  0.4907  1.8440
 7220SOL     OW33121   1.717   1.883   6.952 -0.4995 -0.0467 -0.0101
 7220SOL    HW133122   1.679   1.820   7.013  0.6419  0.4789  1.2341
 7220SOL    HW233123   1.791   1.828   6.928  0.5807  1.7387 -0.7609
 7221SOL     OW33124   2.021   2.374   8.545 -0.3655 -0.2635 -0.3143
 7221SOL    HW133125   1.943   2.323   8.525 -1.2277  0.1907  1.9764
 7221SOL    HW233126   2.037   2.423   8.464 -1.4629 -0.0188 -0.3795
 7222SOL     OW33127   4.173   2.915  15.588 -0.2791  0.7463 -0.0145
 7222SOL    HW133128   4.109   2.845  15.572  0.1153  0.0754  1.3199
 7222SOL    HW233129   4.125   2.995  15.567 -2.8659 -1.0381 -0.9268
 7223SOL     OW33130   2.943   0.421   5.042  0.1116 -0.3064  0.0866
 7223SOL    HW133131   2.881   0.477   5.087  0.3861 -1.4748  1.9354
 7223SOL    HW233132   2.979   0.380   5.121 -0.2888  1.5765  1.2379
 7224SOL     OW33133   4.719   3.242   6.169 -0.1163  0.1395 -0.3972
 7224SOL    HW133134   4.684   3.298   6.238 -2.1236 -0.9089 -0.5569
 7224SOL    HW233135   0.020   3.158   6.206 -0.9679  1.0752  2.3032
 7225SOL     OW33136   0.019   2.329   4.071 -0.1645 -0.0894  0.2247
 7225SOL    HW133137   0.081   2.393   4.104 -0.5440 -0.3021  1.3570
 7225SOL    HW233138   0.050   2.314   3.982 -1.1490 -1.1029  0.0527
 7226SOL     OW33139   3.650   2.119   3.975  0.0319 -0.6431  0.3662
 7226SOL    HW133140   3.639   2.166   4.058 -0.4034  0.0560 -0.0903
 7226SOL    HW233141   3.740   2.143   3.951 -0.7343  1.3291 -0.5483
 7227SOL     OW33142   1.384   2.602  13.633  0.1931 -0.0672 -0.1830
 7227SOL    HW133143   1.366   2.513  13.661  0.1401 -0.3273 -1.0354
 7227SOL    HW233144   1.299   2.643  13.650 -0.0039 -1.5706  2.3239
 7228SOL     OW33145   0.120   2.937   9.302 -0.2764 -0.2280 -0.2123
 7228SOL    HW133146   0.205   2.951   9.345 -1.4334  1.1020  1.6493
 7228SOL    HW233147   0.091   2.849   9.328 -1.3796 -0.5261 -2.5163
 7229SOL     OW33148   2.986   0.383  12.207 -0.8340 -0.2672  0.1218
 7229SOL    HW133149   3.012   0.306  12.157  0.9267 -0.5040  1.4222
 7229SOL    HW233150   3.069   0.413  12.243 -1.5199 -0.1814  1.6405
 7230SOL     OW33151   2.164   1.363  11.670 -0.1029 -0.5617  0.0455
 7230SOL    HW133152   2.126   1.380  11.584 -2.0767 -1.6308  0.6967
 7230SOL    HW233153   2.138   1.433  11.729  3.3340  1.7377 -1.1879
 7231SOL     OW33154   4.201   0.479  16.351 -0.1037 -0.1657 -0.4164
 7231SOL    HW133155   4.232   0.444  16.434 -0.2558  0.5351 -0.0564
 7231SOL    HW233156   4.273   0.530  16.316  0.5812  0.9783  2.6301
 7232SOL     OW33157   0.857   2.807  13.252 -0.3647  0.5797  0.1036
 7232SOL    HW133158   0.776   2.797  13.302 -0.1280  2.6367  0.8938
 7232SOL    HW233159   0.845   2.899  13.231  0.0313 -0.2560 -3.8741
 7233SOL     OW33160   4.220   2.335   8.054 -0.4331  0.1829 -0.2775
 7233SOL    HW133161   4.153   2.303   7.993 -1.1180  1.9367 -0.4363
 7233SOL    HW233162   4.205   2.280   8.131  2.1046 -2.0175 -1.3398
 7234SOL     OW33163   3.595   4.639   6.288  0.2476  0.3636  0.2900
 7234SOL    HW133164   3.558   4.698   6.223 -1.1880  2.0713  2.6350
 7234SOL    HW233165   3.530   4.570   6.301  2.2808 -1.5248  0.4216
 7235SOL     OW33166   0.136   1.867   4.937 -0.8363 -0.3834 -1.2605
 7235SOL    HW133167   0.054   1.915   4.931 -1.4258 -1.1931  0.3155
 7235SOL    HW233168   0.194   1.889   4.864 -0.1178  0.1572 -0.5325
 7236SOL     OW33169   2.741   1.835   0.868  0.8023  0.6703  0.1620
 7236SOL    HW133170   2.734   1.797   0.780 -3.0639 -0.0243  0.7630
 7236SOL    HW233171   2.696   1.768   0.920  0.8314 -0.2656 -1.0273
 7237SOL     OW33172   0.282   0.929   9.033 -0.1481 -0.1670 -0.0120
 7237SOL    HW133173   0.344   0.980   9.085  3.1726 -3.1221 -1.0940
 7237SOL    HW233174   0.284   0.965   8.944  1.6767 -0.9272 -0.2911
 7238SOL     OW33175   4.379   2.129   5.078 -0.2121 -0.1452  0.1183
 7238SOL    HW133176   4.337   2.049   5.112  1.3386 -0.8712  0.3078
 7238SOL    HW233177   4.301   2.184   5.084 -0.7109 -0.7261 -0.9161
 7239SOL     OW33178   0.859   3.972   8.484 -0.9602 -0.5093  0.0832
 7239SOL    HW133179   0.955   3.964   8.482 -0.8370  1.2001 -0.8040
 7239SOL    HW233180   0.849   4.048   8.542 -0.4256  0.6229 -1.2928
 7240SOL     OW33181   2.317   3.108  10.719 -0.2132  0.2087  0.2987
 7240SOL    HW133182   2.245   3.067  10.766  0.6615 -0.6073  0.9262
 7240SOL    HW233183   2.335   3.032  10.664 -2.1761 -0.0885  0.0810
 7241SOL     OW33184   0.138   0.422  13.666  0.5803 -0.1506  0.5543
 7241SOL    HW133185   0.090   0.359  13.612 -1.9184 -0.3395  3.0148
 7241SOL    HW233186   0.161   0.359  13.734  0.6884 -1.5517 -0.7832
 7242SOL     OW33187   0.571   3.460  12.727  0.2176 -0.2260 -0.2723
 7242SOL    HW133188   0.568   3.429  12.818  1.6242 -0.7121 -0.3842
 7242SOL    HW233189   0.622   3.396  12.678 -0.3275 -0.7393 -0.1748
 7243SOL     OW33190   3.251   2.443  14.125  0.3551  0.4413 -0.1193
 7243SOL    HW133191   3.271   2.382  14.054 -3.0578 -0.7706 -0.0520
 7243SOL    HW233192   3.195   2.508  14.083 -1.0542  0.0452  1.1489
 7244SOL     OW33193   4.501   3.851  11.861  0.4779  0.5175  0.6609
 7244SOL    HW133194   4.442   3.900  11.803 -1.2448 -2.4659 -0.1221
 7244SOL    HW233195   4.530   3.787  11.796 -2.7636  0.2917 -0.5903
 7245SOL     OW33196   0.376   0.983  10.345 -0.7358  0.3129  0.5385
 7245SOL    HW133197   0.286   0.983  10.378 -0.6073  2.4191  0.8880
 7245SOL    HW233198   0.409   0.901  10.382  2.5442  1.6284  0.5469
 7246SOL     OW33199   0.126   2.354   9.214 -0.2726  0.0530  0.1814
 7246SOL    HW133200   0.131   2.269   9.258  1.6794 -0.5057 -1.0958
 7246SOL    HW233201   0.035   2.343   9.188 -0.4067 -1.3385  1.2580
 7247SOL     OW33202   3.144   3.066  15.392 -0.1873  0.0585  0.3462
 7247SOL    HW133203   3.090   3.133  15.434 -0.8925  0.2299 -0.8345
 7247SOL    HW233204   3.196   3.111  15.325  2.1870 -0.0151  2.1621
 7248SOL     OW33205   4.398   0.214   2.985  0.0014  0.1033 -0.5358
 7248SOL    HW133206   4.347   0.173   2.915 -1.0787  1.8707 -0.7665
 7248SOL    HW233207   4.485   0.186   2.957  0.0562 -0.2322 -0.0354
 7249SOL     OW33208   0.752   2.496  16.735  0.0967 -0.4607  0.5155
 7249SOL    HW133209   0.663   2.481  16.705 -0.2238  1.5321  0.4735
 7249SOL    HW233210   0.767   2.587  16.709 -0.0034 -0.2660  1.1382
 7250SOL     OW33211   2.555   0.829  12.897  0.1188 -0.2133  0.4723
 7250SOL    HW133212   2.510   0.801  12.817 -0.9089 -3.9675  2.3315
 7250SOL    HW233213   2.643   0.812  12.865 -1.0292 -1.8261 -1.8803
 7251SOL     OW33214   1.879   2.427   8.154  0.3157  0.0644  0.2699
 7251SOL    HW133215   1.848   2.502   8.204  0.0786 -0.1405  0.4308
 7251SOL    HW233216   1.968   2.454   8.130  0.7789 -0.9418  0.8334
 7252SOL     OW33217   1.987   3.671  13.026 -0.6654 -0.6039 -1.0213
 7252SOL    HW133218   1.919   3.725  12.986 -0.0850  1.6591  1.0281
 7252SOL    HW233219   2.045   3.654  12.952  2.3085  2.8829  0.5098
 7253SOL     OW33220   4.129   2.721   4.408 -0.0868  0.0617 -0.4513
 7253SOL    HW133221   4.057   2.755   4.461 -1.4594  0.1990 -2.4295
 7253SOL    HW233222   4.101   2.630   4.403  0.2350 -0.0463 -0.3251
 7254SOL     OW33223   4.391   2.283   1.559 -0.8025 -0.2843  0.1277
 7254SOL    HW133224   4.377   2.368   1.516 -1.3157 -0.4177  0.0318
 7254SOL    HW233225   4.321   2.281   1.625 -0.5407 -0.2968  0.4016
 7255SOL     OW33226   4.478   2.967  12.734 -0.4982 -0.2981 -0.8386
 7255SOL    HW133227   4.409   2.903  12.749 -3.2243  2.7296 -0.5658
 7255SOL    HW233228   4.554   2.930  12.779 -1.1046 -1.2035 -0.5566
 7256SOL     OW33229   2.230   2.446   9.203  0.2426 -0.3232 -0.5030
 7256SOL    HW133230   2.173   2.501   9.150 -0.7287 -1.9253 -1.1194
 7256SOL    HW233231   2.277   2.516   9.248  0.7041 -0.6625 -0.4495
 7257SOL     OW33232   3.718   4.260   1.626  0.0105  0.6386 -0.2484
 7257SOL    HW133233   3.806   4.290   1.649  0.4725 -0.7853 -0.1375
 7257SOL    HW233234   3.661   4.313   1.681  0.9732 -0.8451  2.1662
 7258SOL     OW33235   1.433   0.314  11.945  0.0716 -0.0328  0.2939
 7258SOL    HW133236   1.373   0.321  12.020 -0.8613  1.2461 -0.5758
 7258SOL    HW233237   1.486   0.390  11.970  2.5510 -1.1941 -1.3960
 7259SOL     OW33238   4.647   2.845   3.349  0.2698  0.3922 -0.6035
 7259SOL    HW133239   4.661   2.938   3.367 -1.4069  0.7200 -0.9619
 7259SOL    HW233240   4.724   2.804   3.389  0.5711  0.7219 -0.8474
 7260SOL     OW33241   0.857   1.839   4.143  0.1976 -0.4918  0.7035
 7260SOL    HW133242   0.901   1.923   4.154 -0.8579  0.1379  0.0771
 7260SOL    HW233243   0.857   1.819   4.237 -0.0077  0.1553  0.8352
 7261SOL     OW33244   2.927   3.508   2.962 -0.2921  0.7917 -0.0275
 7261SOL    HW133245   2.835   3.508   2.938 -0.5684  1.3136  1.0452
 7261SOL    HW233246   2.921   3.432   3.020 -0.6678 -0.8849 -2.2680
 7262SOL     OW33247   0.211   0.903   6.605 -0.5871  0.1434  0.5355
 7262SOL    HW133248   0.189   0.837   6.539 -0.9485  0.4404  0.3545
 7262SOL    HW233249   0.144   0.880   6.670 -2.3131  0.2031 -1.1980
 7263SOL     OW33250   3.957   3.313   3.958  0.0844  0.0690  0.2780
 7263SOL    HW133251   4.000   3.252   3.897  0.3993  1.3995 -0.8467
 7263SOL    HW233252   3.937   3.248   4.025  0.7916 -0.7291 -0.2776
 7264SOL     OW33253   3.401   2.217   0.749 -0.0199  0.0036  0.0668
 7264SOL    HW133254   3.439   2.304   0.733 -2.7505  1.1605 -0.0760
 7264SOL    HW233255   3.410   2.181   0.660 -0.3372 -0.8979  0.4011
 7265SOL     OW33256   1.086   2.880   8.178 -0.0124 -0.2886  0.5886
 7265SOL    HW133257   1.066   2.829   8.257 -0.0034  0.6798  1.2209
 7265SOL    HW233258   1.119   2.960   8.218  0.2148  0.0794 -0.3441
 7266SOL     OW33259   3.788   2.912   5.804 -0.6129  0.5711 -0.8672
 7266SOL    HW133260   3.883   2.905   5.808 -0.6619  0.6282  0.6190
 7266SOL    HW233261   3.769   2.946   5.717 -0.0335  1.7649 -0.5256
 7267SOL     OW33262   0.240   3.131  12.718 -0.2963 -0.2496 -0.3029
 7267SOL    HW133263   0.213   3.039  12.719  0.5193 -0.5017 -1.9051
 7267SOL    HW233264   0.169   3.171  12.668  1.7958  2.6453 -0.9526
 7268SOL     OW33265   3.095   0.520   6.721 -0.5049 -0.2692 -0.0731
 7268SOL    HW133266   3.034   0.593   6.711 -1.3900 -1.2262 -1.6529
 7268SOL    HW233267   3.146   0.551   6.795  0.2232 -0.3655 -0.5351
 7269SOL     OW33268   3.336   3.371   6.099 -0.3272 -0.4741  0.5800
 7269SOL    HW133269   3.323   3.450   6.047  0.0856 -0.1078  1.0433
 7269SOL    HW233270   3.383   3.401   6.177 -0.0791  1.0832 -0.1692
 7270SOL     OW33271   2.264   4.091  10.897  0.6393  0.2920  0.5170
 7270SOL    HW133272   2.311   4.008  10.896  0.6940  0.3060  2.3662
 7270SOL    HW233273   2.308   4.120  10.817 -1.9358 -0.3711 -1.1471
 7271SOL     OW33274   3.995   0.424   8.633 -0.3571 -0.1739  0.1728
 7271SOL    HW133275   3.983   0.389   8.721  2.6399  2.2760  1.5671
 7271SOL    HW233276   3.918   0.385   8.592 -0.7868  1.2498 -0.3816
 7272SOL     OW33277   0.258   1.585  11.866 -0.5900  0.0820  0.1422
 7272SOL    HW133278   0.242   1.500  11.908  0.1557 -0.2692 -0.2961
 7272SOL    HW233279   0.350   1.601  11.888  0.0120 -2.6355 -0.4581
 7273SOL     OW33280   1.221   3.319   2.327  0.1541 -0.5267  0.0876
 7273SOL    HW133281   1.235   3.233   2.288  0.4757 -0.8999  1.0053
 7273SOL    HW233282   1.211   3.285   2.416 -2.9091 -0.4863 -0.2410
 7274SOL     OW33283   1.997   3.674   6.049  0.0636  0.0586 -0.2562
 7274SOL    HW133284   2.047   3.593   6.047 -0.9852 -0.6140  0.4926
 7274SOL    HW233285   2.062   3.741   6.066  0.6727 -0.4315 -0.6550
 7275SOL     OW33286   0.153   1.542   3.026  0.1873 -0.2863  0.4137
 7275SOL    HW133287   0.100   1.513   2.952 -2.7566  2.0083  1.6418
 7275SOL    HW233288   0.233   1.493   3.007 -0.6961 -1.6001  0.1258
 7276SOL     OW33289   0.354   0.626   3.645  0.5349  0.1493 -0.2223
 7276SOL    HW133290   0.448   0.608   3.646  0.3981 -0.6117 -1.3256
 7276SOL    HW233291   0.353   0.710   3.598 -0.4231  0.4763  0.4017
 7277SOL     OW33292   3.384   2.320   7.135  0.2380  0.0316  0.4585
 7277SOL    HW133293   3.308   2.378   7.135  0.8768  0.8715 -0.9177
 7277SOL    HW233294   3.454   2.380   7.108  1.6759 -1.2981  1.2618
 7278SOL     OW33295   1.545   1.054   9.399 -0.3828 -0.4399  0.1667
 7278SOL    HW133296   1.507   1.023   9.481  1.2449  0.5158  1.2773
 7278SOL    HW233297   1.537   1.150   9.395 -1.5146 -0.5547 -0.3167
 7279SOL     OW33298   2.858   1.970   1.642 -0.3352  0.2452 -0.2020
 7279SOL    HW133299   2.785   2.015   1.598  2.4017  3.4067 -1.5471
 7279SOL    HW233300   2.815   1.891   1.674 -1.1846  0.7381 -0.1182
 7280SOL     OW33301   4.632   2.222   2.147  0.2177 -0.3044 -0.0202
 7280SOL    HW133302   4.672   2.308   2.142  1.2328 -0.7326  0.6485
 7280SOL    HW233303   4.587   2.228   2.231 -0.0183 -0.9509 -0.0930
 7281SOL     OW33304   0.090   2.134   9.832  0.1313 -0.1845  0.3295
 7281SOL    HW133305   0.139   2.205   9.790 -2.5093  2.3452  1.4847
 7281SOL    HW233306   0.139   2.127   9.914 -0.3475 -1.5281  0.4966
 7282SOL     OW33307   2.986   2.019  17.601 -0.0111  0.5837 -0.4742
 7282SOL    HW133308   2.942   2.003  17.684 -1.6180  0.9338 -1.2697
 7282SOL    HW233309   3.075   2.039  17.632  0.7014  0.1241 -2.2280
 7283SOL     OW33310   4.485   3.614   0.175  0.2041 -0.5783  0.8887
 7283SOL    HW133311   4.433   3.653   0.245 -0.6302 -0.7606  0.3615
 7283SOL    HW233312   4.481   3.521   0.195  0.9704 -0.4547  1.6115
 7284SOL     OW33313   0.256   2.301   5.900  0.0527  0.2130  0.2673
 7284SOL    HW133314   0.173   2.320   5.857 -0.0741  2.0427  1.3304
 7284SOL    HW233315   0.273   2.370   5.965 -1.0404  2.4067 -1.7534
 7285SOL     OW33316   0.444   2.978  17.611 -0.1500  0.5818  0.3923
 7285SOL    HW133317   0.476   2.922  17.541  0.0292  1.8177 -0.5010
 7285SOL    HW233318   0.350   2.963  17.605 -0.0399  1.1306 -2.3410
 7286SOL     OW33319   3.641   3.217   3.719  0.2751  0.1315 -0.0702
 7286SOL    HW133320   3.582   3.292   3.724 -0.7119 -0.5330 -1.7760
 7286SOL    HW233321   3.578   3.160   3.676  1.5748 -1.9074  0.7317
 7287SOL     OW33322   1.162   0.405   5.272  0.5658 -0.1676  0.0862
 7287SOL    HW133323   1.120   0.322   5.248  0.7053  0.4895 -2.4352
 7287SOL    HW233324   1.161   0.401   5.368 -1.5095  0.8361  0.0847
 7288SOL     OW33325   3.990   3.353  14.944 -0.5344  0.0501 -0.6065
 7288SOL    HW133326   4.006   3.258  14.947  0.3567  0.3261  3.7393
 7288SOL    HW233327   4.051   3.380  15.013 -1.6387  1.1319 -0.0560
 7289SOL     OW33328   2.257   1.533  10.196 -0.5938  0.3576  0.0496
 7289SOL    HW133329   2.177   1.579  10.220 -2.5284 -2.0847 -1.7777
 7289SOL    HW233330   2.320   1.586  10.245  0.1738 -0.9592  0.4827
 7290SOL     OW33331   2.945   2.424   2.972  0.4904  0.1856 -0.6257
 7290SOL    HW133332   2.963   2.331   2.987  0.9566  0.1438 -1.4490
 7290SOL    HW233333   2.908   2.449   3.056 -0.4201 -2.5559 -0.1979
 7291SOL     OW33334   2.978   4.418   6.479 -0.3729  0.2986 -0.2419
 7291SOL    HW133335   3.048   4.458   6.532 -1.6440 -0.1076  1.7419
 7291SOL    HW233336   3.019   4.343   6.436 -0.3783 -0.0698  0.3793
 7292SOL     OW33337   2.745   1.990   9.242 -0.5964 -0.0114  0.1675
 7292SOL    HW133338   2.791   1.919   9.288  0.0484 -1.4435 -2.6377
 7292SOL    HW233339   2.671   1.944   9.202 -0.0971  0.2107 -1.0028
 7293SOL     OW33340   0.770   1.118   5.090 -0.0077  0.0833 -0.5460
 7293SOL    HW133341   0.688   1.086   5.053  0.1090 -0.4480 -0.3356
 7293SOL    HW233342   0.799   1.051   5.151 -0.7284  0.9274  0.7138
 7294SOL     OW33343   2.981   3.403   5.094  0.1838 -0.5120  0.5580
 7294SOL    HW133344   2.965   3.468   5.163 -3.0622 -0.0964 -0.6057
 7294SOL    HW233345   2.906   3.412   5.037  0.4473  0.2632  0.3316
 7295SOL     OW33346   3.457   1.882   3.300  0.2992 -0.1264  0.6672
 7295SOL    HW133347   3.499   1.877   3.214 -2.0835  1.1543 -0.5876
 7295SOL    HW233348   3.483   1.797   3.334  1.6926  0.4939  1.1378
 7296SOL     OW33349   3.350   3.159   1.844 -0.1611  0.3506  0.2041
 7296SOL    HW133350   3.349   3.249   1.813 -1.0035  1.2047  2.7402
 7296SOL    HW233351   3.409   3.170   1.918 -0.8657 -1.4562  1.0410
 7297SOL     OW33352   2.439   0.700   0.662  0.5191  0.3862  0.0188
 7297SOL    HW133353   2.354   0.673   0.627  0.7092  0.0276 -0.1669
 7297SOL    HW233354   2.432   0.783   0.708 -0.8539  1.7268 -2.6153
 7298SOL     OW33355   2.560   4.258   1.144 -0.4418 -0.1050 -0.2260
 7298SOL    HW133356   2.542   4.168   1.117 -0.4036 -0.2694  0.3031
 7298SOL    HW233357   2.517   4.300   1.070 -0.8212 -0.0293  0.0360
 7299SOL     OW33358   2.496   4.537   8.645  0.0550  0.0626  0.1778
 7299SOL    HW133359   2.556   4.463   8.633  0.0386  0.0231  0.3346
 7299SOL    HW233360   2.543   4.588   8.711 -0.1057 -0.7965  0.9570
 7300SOL     OW33361   2.843   1.778   3.399  0.0974  0.1435 -0.2312
 7300SOL    HW133362   2.771   1.789   3.460 -0.2369  0.0131 -0.5977
 7300SOL    HW233363   2.880   1.866   3.389 -1.8079  1.1732  1.9875
 7301SOL     OW33364   1.374   3.958  12.191 -0.2277 -0.3681 -0.1117
 7301SOL    HW133365   1.387   3.863  12.188  0.9666 -0.1916 -0.4905
 7301SOL    HW233366   1.414   3.991  12.111 -0.2385  0.6368  0.3042
 7302SOL     OW33367   4.153   0.438  16.102 -0.1188 -0.9270  0.0868
 7302SOL    HW133368   4.244   0.407  16.092  0.7474  1.3113  1.0370
 7302SOL    HW233369   4.154   0.444  16.197 -0.6489  0.1413  0.0224
 7303SOL     OW33370   0.584   3.244   2.855  0.0844 -0.7166 -0.0390
 7303SOL    HW133371   0.571   3.305   2.927  0.8805 -1.1670  0.4917
 7303SOL    HW233372   0.674   3.213   2.866  0.2016 -0.0694  0.8496
 7304SOL     OW33373   2.171   3.887   3.600 -0.1763 -0.1116 -0.2965
 7304SOL    HW133374   2.162   3.797   3.631  0.3337  0.6565  2.0595
 7304SOL    HW233375   2.094   3.935   3.630  1.0585 -0.0629  2.7956
 7305SOL     OW33376   3.155   0.794  17.148 -0.4105 -0.5122 -0.6722
 7305SOL    HW133377   3.098   0.852  17.097 -0.4283  0.9391  1.0333
 7305SOL    HW233378   3.240   0.826  17.116  0.4085 -2.0177  0.0383
 7306SOL     OW33379   2.338   1.132   8.643  0.6719 -0.0985 -0.1132
 7306SOL    HW133380   2.317   1.100   8.555  1.7196  0.1916 -0.4768
 7306SOL    HW233381   2.367   1.223   8.633 -1.3066  0.3622 -1.4976
 7307SOL     OW33382   1.828   1.093  14.141  0.2339 -0.0702 -0.0539
 7307SOL    HW133383   1.795   1.113  14.053  0.2388 -0.4047 -0.1334
 7307SOL    HW233384   1.750   1.066  14.190  0.0874  2.5741  1.1638
 7308SOL     OW33385   4.372   3.815   4.005 -0.1837  0.5787 -0.1451
 7308SOL    HW133386   4.468   3.807   4.005 -0.3557 -1.5411 -0.2896
 7308SOL    HW233387   4.357   3.751   4.074  1.2182  1.6411  1.1528
 7309SOL     OW33388   1.032   1.348   6.204  0.0164  0.3444  0.0371
 7309SOL    HW133389   0.975   1.357   6.280  0.7245 -2.5637  0.9038
 7309SOL    HW233390   1.098   1.416   6.195  2.3703 -1.8918  0.2947
 7310SOL     OW33391   1.146   0.942   2.066 -0.7595 -0.6891  0.5732
 7310SOL    HW133392   1.198   1.022   2.070 -0.6225 -0.5659 -3.6632
 7310SOL    HW233393   1.135   0.947   2.161 -0.0902 -0.5925  0.6452
 7311SOL     OW33394   3.490   1.376  15.315  0.5370 -0.3627 -0.4715
 7311SOL    HW133395   3.472   1.403  15.225 -0.2186  1.1706  0.1358
 7311SOL    HW233396   3.435   1.299  15.330 -1.2569  0.9543 -0.1739
 7312SOL     OW33397   3.881   1.159   5.383 -0.5272 -0.2462  0.5415
 7312SOL    HW133398   3.910   1.224   5.447 -1.0022 -0.3949  0.9027
 7312SOL    HW233399   3.828   1.101   5.438 -0.8687  1.4608  2.0050
 7313SOL     OW33400   2.528   1.681   7.170 -0.4079 -0.4620  0.4255
 7313SOL    HW133401   2.594   1.737   7.130 -0.0647 -2.3522 -1.6534
 7313SOL    HW233402   2.456   1.742   7.185  0.3842  1.0880 -2.2488
 7314SOL     OW33403   1.582   4.508  12.709 -0.5911 -0.4508 -0.2944
 7314SOL    HW133404   1.490   4.516  12.734 -0.7107 -3.4369  0.2304
 7314SOL    HW233405   1.580   4.432  12.652  0.5974 -1.8240  1.5051
 7315SOL     OW33406   1.045   1.229   2.277 -0.5722  0.0668 -0.2505
 7315SOL    HW133407   1.111   1.282   2.321  0.1130 -0.2799 -0.8723
 7315SOL    HW233408   1.060   1.258   2.187 -0.1498  1.0704  0.1366
 7316SOL     OW33409   3.459   1.635  17.061  1.3939  0.6209 -0.6430
 7316SOL    HW133410   3.396   1.628  17.134  0.6018  1.0830 -1.2891
 7316SOL    HW233411   3.478   1.728  17.062  3.9925  0.0999 -2.1653
 7317SOL     OW33412   4.194   1.295   6.319  0.5142  0.3344  0.2089
 7317SOL    HW133413   4.245   1.360   6.369 -0.8314 -0.9235  3.2014
 7317SOL    HW233414   4.253   1.288   6.243 -1.8381 -1.0253 -1.4718
 7318SOL     OW33415   1.002   3.864   3.472  0.5972  0.0952  0.3272
 7318SOL    HW133416   0.926   3.906   3.511  0.8424  0.9735 -0.1380
 7318SOL    HW233417   1.065   3.913   3.524  1.7611 -2.1292  1.0047
 7319SOL     OW33418   1.207   0.057   4.490 -0.6661  0.1347 -0.0817
 7319SOL    HW133419   1.164   0.132   4.531 -0.2416  0.4693 -0.2430
 7319SOL    HW233420   1.282   0.052   4.549 -2.7270  1.4073  2.6396
 7320SOL     OW33421   0.712   4.349   6.024 -0.0433 -0.3761 -0.5882
 7320SOL    HW133422   0.621   4.349   5.993  1.1608  3.4171 -4.1023
 7320SOL    HW233423   0.767   4.360   5.947 -0.6395  2.9937 -0.5267
 7321SOL     OW33424   0.176   1.982   8.173 -0.0434  0.3465  0.1132
 7321SOL    HW133425   0.088   2.006   8.201  0.4439  2.0250  0.2187
 7321SOL    HW233426   0.165   1.895   8.135 -0.4783  0.0713  0.8792
 7322SOL     OW33427   1.036   2.191  15.265  0.5870  0.1521  0.1774
 7322SOL    HW133428   0.961   2.234  15.306 -0.3582  0.2268 -1.6693
 7322SOL    HW233429   1.025   2.206  15.171  0.4908  1.9147  0.4524
 7323SOL     OW33430   1.914   2.566  15.536  0.3170  0.0174  0.5810
 7323SOL    HW133431   1.935   2.476  15.510 -0.6473  0.7253 -2.6427
 7323SOL    HW233432   1.990   2.619  15.512 -0.1971  0.3663 -0.2638
 7324SOL     OW33433   1.472   2.978  11.350  0.3139  0.3572  0.0702
 7324SOL    HW133434   1.565   2.989  11.327 -0.3695  1.0460 -2.3623
 7324SOL    HW233435   1.466   2.886  11.374 -0.2751 -0.1341 -1.9491
 7325SOL     OW33436   3.830   0.411   3.424 -0.6286 -0.1159  0.1540
 7325SOL    HW133437   3.853   0.363   3.345 -1.2072 -1.0355  0.5436
 7325SOL    HW233438   3.917   0.430   3.460  0.2580 -2.0631 -0.9428
 7326SOL     OW33439   2.425   3.047   7.899  0.6383  0.0493  0.4546
 7326SOL    HW133440   2.509   3.004   7.880  0.8229 -0.4852  2.5509
 7326SOL    HW233441   2.353   2.996   7.860  1.6192 -1.5866  0.7763
 7327SOL     OW33442   4.158   0.134   5.867 -0.4255  0.3510  0.9716
 7327SOL    HW133443   4.116   0.220   5.859  2.0546  1.4737 -0.2281
 7327SOL    HW233444   4.091   0.088   5.917 -0.7439  0.0151  0.2432
 7328SOL     OW33445   0.787   2.557   1.554  0.0005  0.0513  0.4585
 7328SOL    HW133446   0.824   2.633   1.510 -0.0715  0.3246  0.8686
 7328SOL    HW233447   0.865   2.529   1.600  1.4799 -0.5393 -2.3940
 7329SOL     OW33448   1.908   4.338   5.015 -0.0476 -0.1365 -0.2328
 7329SOL    HW133449   1.869   4.335   5.102 -1.6816  3.1089 -0.8690
 7329SOL    HW233450   1.990   4.295   5.042 -0.6857 -0.4639  1.1469
 7330SOL     OW33451   2.532   2.897   3.774 -0.0190 -0.3804  0.5561
 7330SOL    HW133452   2.597   2.845   3.728  1.5287  0.5406  1.7070
 7330SOL    HW233453   2.579   2.951   3.838 -0.2767  0.1540  0.2989
 7331SOL     OW33454   4.435   1.347   2.588 -0.1784 -0.5815  0.0103
 7331SOL    HW133455   4.348   1.315   2.564 -0.1415 -1.2068  0.7133
 7331SOL    HW233456   4.500   1.307   2.531  0.8508  0.9493  0.1127
 7332SOL     OW33457   0.782   3.728  12.041  0.7870 -0.6392  0.2465
 7332SOL    HW133458   0.777   3.802  11.980 -1.5792 -0.4681  0.6534
 7332SOL    HW233459   0.693   3.695  12.050  1.0022 -0.5113  2.7937
 7333SOL     OW33460   3.046   4.651  12.483  0.4225  0.3615 -0.2501
 7333SOL    HW133461   3.073   4.572  12.437 -0.8703 -0.9880  1.2853
 7333SOL    HW233462   3.106   4.669  12.555  0.6455 -0.6683 -0.1767
 7334SOL     OW33463   0.717   3.550   8.059 -0.1492  0.3301  0.2107
 7334SOL    HW133464   0.796   3.497   8.048 -0.1981 -0.1506  2.0404
 7334SOL    HW233465   0.679   3.506   8.135 -0.3014 -1.8692 -1.1541
 7335SOL     OW33466   0.270   1.549  13.036  0.1862 -0.1690  0.0077
 7335SOL    HW133467   0.258   1.544  12.941  0.7960  0.7166 -0.1171
 7335SOL    HW233468   0.295   1.459  13.055 -0.0500 -0.7559 -2.3651
 7336SOL     OW33469   0.774   1.228   4.652 -0.3565 -0.0767  0.0357
 7336SOL    HW133470   0.849   1.286   4.638 -1.2379  0.5208 -2.1069
 7336SOL    HW233471   0.818   1.172   4.716 -1.6350  0.7144  1.6003
 7337SOL     OW33472   1.755   4.133   8.565  0.2063  0.8476  0.4193
 7337SOL    HW133473   1.779   4.064   8.503 -0.6297  1.0701 -0.1547
 7337SOL    HW233474   1.661   4.116   8.574 -0.4065  1.9497 -3.8086
 7338SOL     OW33475   2.452   0.129  13.739 -0.1636 -0.2905  0.6110
 7338SOL    HW133476   2.393   0.174  13.679  0.9404  1.1717  0.6229
 7338SOL    HW233477   2.386   0.116  13.808 -1.0004 -1.1952 -0.3649
 7339SOL     OW33478   2.372   1.489   9.953  0.3040 -0.3540 -0.4074
 7339SOL    HW133479   2.322   1.415   9.919 -0.1920 -0.1684 -0.0731
 7339SOL    HW233480   2.340   1.504  10.042  1.2578  0.4575 -0.1958
 7340SOL     OW33481   1.855   2.564   9.627  0.7537  0.0355 -0.3910
 7340SOL    HW133482   1.937   2.553   9.578  0.9033 -0.5913 -0.0012
 7340SOL    HW233483   1.856   2.490   9.687  1.6041  0.1816 -0.2203
 7341SOL     OW33484   0.771   3.777   3.892  0.1540  0.3183 -0.1568
 7341SOL    HW133485   0.775   3.771   3.796 -1.7841 -0.4217 -0.1978
 7341SOL    HW233486   0.864   3.779   3.910  0.3386 -0.3778 -1.0359
 7342SOL     OW33487   2.372   0.329   4.596 -0.5897  0.1691 -0.4508
 7342SOL    HW133488   2.404   0.239   4.593 -0.5048  0.2467 -1.6008
 7342SOL    HW233489   2.331   0.342   4.511 -0.0587 -0.4886 -0.7995
 7343SOL     OW33490   2.575   2.594   5.986  0.0762  0.1991 -0.5991
 7343SOL    HW133491   2.629   2.673   5.983  0.6719 -0.1918 -0.2121
 7343SOL    HW233492   2.622   2.534   5.929 -0.3898 -1.3852  0.6942
 7344SOL     OW33493   1.646   4.166   5.693 -0.0425 -0.0813 -0.2870
 7344SOL    HW133494   1.700   4.090   5.717  0.8064  0.7937  0.5565
 7344SOL    HW233495   1.678   4.176   5.604 -4.9941 -1.8026 -2.2964
 7345SOL     OW33496   2.695   1.923   5.995 -0.0164  0.2558  0.3658
 7345SOL    HW133497   2.600   1.927   5.987  0.1515  0.4610 -1.4820
 7345SOL    HW233498   2.722   1.843   5.948 -1.9288  0.5889 -1.2946
 7346SOL     OW33499   1.480   3.182   8.726  0.1558  0.4415 -0.0596
 7346SOL    HW133500   1.574   3.165   8.723 -0.0082 -0.4858 -0.0515
 7346SOL    HW233501   1.461   3.194   8.634 -1.4603 -0.6821  0.1201
 7347SOL     OW33502   3.759   4.642   6.908 -0.2719  1.2399  0.0153
 7347SOL    HW133503   3.831   4.702   6.890 -0.7456  2.0839  0.9000
 7347SOL    HW233504   3.704   4.658   6.831 -0.3382  0.6105 -0.0673
 7348SOL     OW33505   0.439   1.042  11.568 -0.1811 -0.1827 -0.0108
 7348SOL    HW133506   0.523   1.063  11.611 -1.1797  0.3443  1.6929
 7348SOL    HW233507   0.448   1.095  11.489 -1.2252 -0.0915 -0.0612
 7349SOL     OW33508   1.705   0.894   9.739  0.1489 -0.4140  0.2836
 7349SOL    HW133509   1.660   0.894   9.824 -2.5493 -0.3877 -1.1503
 7349SOL    HW233510   1.796   0.878   9.763  0.9605 -0.5123 -2.8474
 7350SOL     OW33511   4.019   1.468  15.792 -0.2178  0.5294 -0.3831
 7350SOL    HW133512   4.052   1.404  15.855  0.7283  1.1044 -0.3034
 7350SOL    HW233513   4.091   1.530  15.795  0.7735 -0.6596  0.2371
 7351SOL     OW33514   3.477   0.219   3.140  1.0850  0.3466 -0.4791
 7351SOL    HW133515   3.421   0.142   3.132  0.9551  0.5086 -1.1284
 7351SOL    HW233516   3.410   0.282   3.112  0.1614  0.0500  1.0672
 7352SOL     OW33517   1.256   3.061  11.188 -0.0271  0.2672 -0.6275
 7352SOL    HW133518   1.262   3.033  11.097 -1.6577  1.4238 -1.0934
 7352SOL    HW233519   1.343   3.031  11.215  0.5446  0.1708 -2.5870
 7353SOL     OW33520   1.944   1.313   4.281 -0.3015 -0.1433 -0.2870
 7353SOL    HW133521   1.960   1.235   4.334  2.3507 -0.4149 -1.4877
 7353SOL    HW233522   1.860   1.344   4.314 -0.1716 -0.0790 -0.0152
 7354SOL     OW33523   1.763   3.885   4.896  0.4980 -0.4306  0.4047
 7354SOL    HW133524   1.700   3.917   4.961 -1.5462 -0.0664 -1.7468
 7354SOL    HW233525   1.836   3.947   4.893  0.4475 -0.3743  0.3529
 7355SOL     OW33526   0.639   3.190   9.228  0.0968 -0.1855  0.1627
 7355SOL    HW133527   0.595   3.106   9.213  0.7743 -0.0549 -2.4758
 7355SOL    HW233528   0.660   3.181   9.321  2.0471 -0.9485 -0.3535
 7356SOL     OW33529   4.695   0.065  17.586 -0.6691 -0.3088 -0.6635
 7356SOL    HW133530   4.701   4.696  17.605  2.2582 -0.2832 -1.4526
 7356SOL    HW233531   4.619   0.080  17.531 -0.3465  0.5207 -0.8841
 7357SOL     OW33532   0.429   0.575   7.311 -0.1473 -0.2499 -0.2835
 7357SOL    HW133533   0.522   0.594   7.297  0.0902 -2.1541 -1.1829
 7357SOL    HW233534   0.393   0.587   7.223  3.3923  1.1297 -1.5749
 7358SOL     OW33535   1.054   0.469  11.728  0.1069  0.1360 -0.1997
 7358SOL    HW133536   1.105   0.549  11.736 -0.1134  0.3149 -0.5924
 7358SOL    HW233537   1.042   0.465  11.633 -2.2095 -1.3508  0.1545
 7359SOL     OW33538   3.690   2.279   4.206  0.8856  0.0711  0.0045
 7359SOL    HW133539   3.610   2.330   4.193  1.1140  0.6066  0.7222
 7359SOL    HW233540   3.762   2.342   4.205  2.2894 -1.5411  0.0359
 7360SOL     OW33541   3.912   0.152   6.439  0.0365 -0.3239 -0.1147
 7360SOL    HW133542   3.957   0.191   6.364 -0.6995 -2.7479 -1.8352
 7360SOL    HW233543   3.975   0.087   6.473  0.4864  0.5023  0.6382
 7361SOL     OW33544   1.251   0.594   4.729  0.8437  0.1892 -0.4459
 7361SOL    HW133545   1.248   0.682   4.766  4.1386 -0.5027  1.4835
 7361SOL    HW233546   1.162   0.560   4.738  0.2123  2.2952  1.2967
 7362SOL     OW33547   0.788   2.185   5.413  0.2827 -0.0246 -0.6818
 7362SOL    HW133548   0.693   2.177   5.405  0.1827 -0.4343  0.8321
 7362SOL    HW233549   0.802   2.278   5.397 -0.8104  0.1631 -0.5450
 7363SOL     OW33550   3.613   0.623   7.064 -0.3854  0.4199  0.4470
 7363SOL    HW133551   3.608   0.582   6.978 -3.0174  1.2275  0.2083
 7363SOL    HW233552   3.641   0.556   7.126 -0.9226  0.6733  0.9684
 7364SOL     OW33553   1.432   4.650   7.235  0.3840 -0.3321 -0.3791
 7364SOL    HW133554   1.502   4.702   7.275 -1.0713 -0.2698  2.1091
 7364SOL    HW233555   1.400   4.606   7.314 -1.3024  0.3813 -0.6554
 7365SOL     OW33556   2.755   3.460   3.303 -0.1106  0.7614 -0.4659
 7365SOL    HW133557   2.745   3.554   3.292 -1.4030  0.7825  0.8692
 7365SOL    HW233558   2.674   3.433   3.260 -0.1679 -1.2721  0.9408
 7366SOL     OW33559   0.758   0.795   3.359 -0.4908  0.1825  0.4243
 7366SOL    HW133560   0.772   0.701   3.348 -1.7660 -0.2501  2.5252
 7366SOL    HW233561   0.780   0.822   3.269 -0.4581  1.0339  0.6875
 7367SOL     OW33562   0.434   3.980   9.176 -0.0637  0.2069  0.3488
 7367SOL    HW133563   0.373   4.013   9.242  0.8327  3.2167 -0.3416
 7367SOL    HW233564   0.481   3.923   9.236  0.2794 -0.3102 -0.4098
 7368SOL     OW33565   2.191   3.399  13.037  0.0997  0.2455 -0.0538
 7368SOL    HW133566   2.262   3.421  12.978 -1.1611 -1.1647 -2.0680
 7368SOL    HW233567   2.209   3.462  13.107 -0.9924 -0.2693  0.6924
 7369SOL     OW33568   0.045   0.128   6.154 -0.2754  0.0714  0.2217
 7369SOL    HW133569   0.087   0.069   6.090  0.9283  3.0713 -1.7770
 7369SOL    HW233570   0.035   0.064   6.224  0.3629 -1.5149 -1.1310
 7370SOL     OW33571   0.161   2.253   3.276  0.6848  0.6119  0.3488
 7370SOL    HW133572   0.235   2.208   3.318 -1.1070 -3.0952 -0.4538
 7370SOL    HW233573   0.162   2.342   3.312 -0.6942  0.7894 -0.0762
 7371SOL     OW33574   1.837   4.411   8.531 -0.9678 -0.2987 -0.0764
 7371SOL    HW133575   1.932   4.408   8.539 -0.7952  0.9294 -1.4469
 7371SOL    HW233576   1.814   4.323   8.560  0.2499 -0.0956  1.4974
 7372SOL     OW33577   1.345   2.634   9.356 -0.8587 -0.8229 -0.7530
 7372SOL    HW133578   1.374   2.598   9.439 -1.8827 -2.7160 -1.2052
 7372SOL    HW233579   1.416   2.697   9.345 -2.9708  1.9011  1.0347
 7373SOL     OW33580   1.531   4.078  10.641 -0.4615 -0.4486  0.2579
 7373SOL    HW133581   1.600   4.047  10.582 -0.2739  0.1995  0.1346
 7373SOL    HW233582   1.448   4.042  10.610 -0.9674  2.0185 -1.2186
 7374SOL     OW33583   4.391   3.840  13.288  0.4283  0.4378 -0.2873
 7374SOL    HW133584   4.339   3.907  13.333 -0.8833 -0.9849  0.3347
 7374SOL    HW233585   4.476   3.883  13.284  0.0547  1.4364  2.2832
 7375SOL     OW33586   0.328   0.701   1.669 -0.7768 -0.4791 -0.1282
 7375SOL    HW133587   0.403   0.719   1.613 -0.2499  0.4527  0.8774
 7375SOL    HW233588   0.375   0.633   1.717 -2.1395 -1.5224 -0.2898
 7376SOL     OW33589   3.688   3.264   5.713 -1.0117  0.8039  0.3098
 7376SOL    HW133590   3.613   3.251   5.656 -0.3886  1.3495 -0.6458
 7376SOL    HW233591   3.748   3.259   5.639  1.2199  1.9633  2.0361
 7377SOL     OW33592   2.474   1.381   8.391 -0.3851 -0.4279  0.1149
 7377SOL    HW133593   2.477   1.375   8.486  0.9698 -0.8475  0.0388
 7377SOL    HW233594   2.378   1.376   8.385 -0.1668 -1.1271 -2.6158
 7378SOL     OW33595   3.216   2.722   3.640  0.4402 -0.2756  0.6656
 7378SOL    HW133596   3.308   2.747   3.645  0.0189  0.7653  3.3883
 7378SOL    HW233597   3.215   2.627   3.636  0.2757 -0.2250 -0.3892
 7379SOL     OW33598   2.320   3.495   3.072 -0.5402  0.4439 -0.3892
 7379SOL    HW133599   2.289   3.586   3.073  3.1301  1.6947  1.8415
 7379SOL    HW233600   2.242   3.443   3.092 -0.3645  0.2567 -0.1943
 7380SOL     OW33601   4.257   2.070   7.477  0.0588  0.0560  0.0811
 7380SOL    HW133602   4.239   2.090   7.385 -0.4985 -0.4187  0.0814
 7380SOL    HW233603   4.349   2.095   7.487  0.0452  0.1163  0.0559
 7381SOL     OW33604   3.275   4.340   7.776 -0.3243  0.2268  0.4059
 7381SOL    HW133605   3.309   4.407   7.716  1.7357 -1.0037  0.2261
 7381SOL    HW233606   3.191   4.332   7.730 -0.2642  1.3158  0.0927
 7382SOL     OW33607   4.340   2.544   6.796 -0.5880 -0.3802  0.7753
 7382SOL    HW133608   4.330   2.536   6.891  0.0852 -1.0887  0.7922
 7382SOL    HW233609   4.307   2.633   6.783 -1.4284 -0.7951  0.0600
 7383SOL     OW33610   0.370   0.207   2.703 -0.1587  0.4467  0.0967
 7383SOL    HW133611   0.336   0.126   2.741  0.4543  2.0684  4.0539
 7383SOL    HW233612   0.288   0.247   2.675  0.3883  1.4839 -0.0412
 7384SOL     OW33613   0.237   2.838   0.292  0.0122  0.0346 -0.3865
 7384SOL    HW133614   0.251   2.833   0.387 -2.2610  1.1253  0.0305
 7384SOL    HW233615   0.267   2.926   0.271 -0.6495  0.1300 -0.9226
 7385SOL     OW33616   1.805   1.527   8.622 -0.1928 -0.2487  0.1883
 7385SOL    HW133617   1.762   1.459   8.570 -0.7893  0.6021 -0.4230
 7385SOL    HW233618   1.768   1.610   8.593  0.9176 -0.9410 -3.2185
 7386SOL     OW33619   1.471   3.167   8.136 -1.0561 -0.5292  0.0688
 7386SOL    HW133620   1.437   3.121   8.059 -0.3649  1.4349 -1.4413
 7386SOL    HW233621   1.479   3.102   8.205  0.5579 -1.5576 -1.0670
 7387SOL     OW33622   2.312   0.300  15.667 -0.1072  0.2646  0.2937
 7387SOL    HW133623   2.254   0.310  15.592  1.9371 -1.6968 -1.5524
 7387SOL    HW233624   2.399   0.308  15.629 -0.6450  1.4789 -0.6497
 7388SOL     OW33625   2.670   3.894   9.341  0.5231 -0.3286 -0.4849
 7388SOL    HW133626   2.755   3.888   9.382  0.4730  0.9860 -0.2066
 7388SOL    HW233627   2.654   3.984   9.311  1.3844 -0.2276 -0.6334
 7389SOL     OW33628   1.830   4.622   4.026  0.6074 -0.0743 -0.2495
 7389SOL    HW133629   1.741   4.589   4.016  0.6028 -0.1853  0.1582
 7389SOL    HW233630   1.828   4.663   4.112  0.4254  0.0529 -0.3158
 7390SOL     OW33631   0.277   1.282   4.932 -0.2059 -0.2753 -0.7778
 7390SOL    HW133632   0.346   1.304   4.870  0.7863 -0.8377  0.1258
 7390SOL    HW233633   0.227   1.364   4.939 -0.0075 -0.3344  1.4045
 7391SOL     OW33634   0.920   0.916   0.872 -0.1367  0.3446 -0.0085
 7391SOL    HW133635   0.881   0.878   0.793 -3.4085  0.1770  1.6654
 7391SOL    HW233636   0.882   1.003   0.877  0.6283  0.7851 -2.1674
 7392SOL     OW33637   1.868   2.576   3.079 -0.6874  0.4987  0.1363
 7392SOL    HW133638   1.790   2.631   3.072 -0.7036  0.3473 -0.8670
 7392SOL    HW233639   1.929   2.639   3.117  0.4223 -1.6622  2.0038
 7393SOL     OW33640   1.410   1.524  15.003  0.1609  0.6656  0.4233
 7393SOL    HW133641   1.402   1.429  15.002  1.5122  0.5590 -1.4735
 7393SOL    HW233642   1.371   1.542  15.088 -0.8305 -0.3443  0.1694
 7394SOL     OW33643   1.093   0.770   9.878  0.4284  0.5612  0.5000
 7394SOL    HW133644   1.054   0.775   9.965 -2.1041 -0.2865 -0.6040
 7394SOL    HW233645   1.151   0.847   9.878  0.9632  0.1812 -2.3778
 7395SOL     OW33646   0.090   0.163   5.697 -0.0967  0.1934 -0.1531
 7395SOL    HW133647   0.103   0.232   5.763  3.9499  0.0183 -0.7653
 7395SOL    HW233648   0.069   0.218   5.622 -2.7004  1.2042  1.3160
 7396SOL     OW33649   0.397   0.321  17.058  0.2292  0.7116 -0.1987
 7396SOL    HW133650   0.481   0.296  17.020 -1.1252  1.3787 -3.5921
 7396SOL    HW233651   0.394   0.255  17.127 -0.3631  2.0797  1.1045
 7397SOL     OW33652   4.600   1.625   1.616 -0.3688 -0.4502 -0.6515
 7397SOL    HW133653   4.619   1.570   1.692  0.2265 -0.7296 -1.0080
 7397SOL    HW233654   4.660   1.584   1.554  2.3556  3.6442 -0.7416
 7398SOL     OW33655   3.723   4.606  13.272  0.4718  0.3553 -0.6500
 7398SOL    HW133656   3.793   4.562  13.225  1.0419  0.9303 -0.3321
 7398SOL    HW233657   3.688   4.530  13.319 -2.0987  1.6256 -0.4782
 7399SOL     OW33658   3.245   4.362   0.515 -0.2915 -0.2659  0.3429
 7399SOL    HW133659   3.164   4.352   0.565  0.9041 -0.3819  2.2608
 7399SOL    HW233660   3.286   4.276   0.529  0.4511  0.0897  0.3344
 7400SOL     OW33661   2.614   4.508   0.782  0.0947 -0.1424 -0.4910
 7400SOL    HW133662   2.532   4.509   0.832 -0.9176 -0.5742 -2.1610
 7400SOL    HW233663   2.626   4.603   0.769 -0.4027  0.0352  0.3410
 7401SOL     OW33664   2.894   2.885   3.078  0.5812 -0.8505 -0.1248
 7401SOL    HW133665   2.885   2.977   3.053 -0.6132 -0.5566  1.3716
 7401SOL    HW233666   2.955   2.898   3.150  0.9813  0.7508 -0.7605
 7402SOL     OW33667   0.944   2.600  16.963 -0.3509  0.2321 -0.1788
 7402SOL    HW133668   0.995   2.550  16.899 -0.2198 -0.6389  0.5977
 7402SOL    HW233669   0.857   2.589  16.923  0.1430  0.1680 -1.2331
 7403SOL     OW33670   2.396   1.255  15.664 -0.5787  0.0988 -0.1659
 7403SOL    HW133671   2.339   1.317  15.618 -1.4148  0.4979  1.3900
 7403SOL    HW233672   2.446   1.205  15.600 -2.0699  0.1382 -1.3509
 7404SOL     OW33673   0.502   4.433   9.071  0.1584 -0.1001  0.1651
 7404SOL    HW133674   0.574   4.383   9.110 -0.1960 -1.2906 -0.7131
 7404SOL    HW233675   0.450   4.454   9.149 -0.0264  0.8498 -0.2143
 7405SOL     OW33676   2.762   3.489   4.910  0.1088 -0.4132  0.1486
 7405SOL    HW133677   2.675   3.467   4.943 -0.4736  1.0624 -0.3690
 7405SOL    HW233678   2.741   3.564   4.853 -0.0066 -0.8759 -0.4189
 7406SOL     OW33679   2.905   4.270   4.695  0.1762 -0.6853  0.2126
 7406SOL    HW133680   2.949   4.339   4.646 -2.5135  1.8171  1.2545
 7406SOL    HW233681   2.975   4.234   4.749  0.2199  0.2678  0.8060
 7407SOL     OW33682   2.715   0.776  17.508  0.3484 -0.1689 -0.0932
 7407SOL    HW133683   2.759   0.776  17.423  1.0173 -0.0535  0.2583
 7407SOL    HW233684   2.645   0.838  17.487 -0.8414 -0.9020  1.6508
 7408SOL     OW33685   3.291   4.149  15.003  0.6647  0.5229  0.5693
 7408SOL    HW133686   3.308   4.243  15.014  1.1525  0.3828  1.0413
 7408SOL    HW233687   3.213   4.133  15.057  0.0948 -1.8375 -1.0046
 7409SOL     OW33688   3.171   1.371   4.714  0.5120  0.4722 -0.1613
 7409SOL    HW133689   3.171   1.396   4.807 -1.9247  0.0302 -0.0430
 7409SOL    HW233690   3.145   1.279   4.719 -0.8698  0.9195  0.7342
 7410SOL     OW33691   3.595   1.156  11.043  1.0532  0.5316  0.5081
 7410SOL    HW133692   3.603   1.217  11.116 -3.2305 -0.9000  2.1837
 7410SOL    HW233693   3.622   1.213  10.971 -0.5078  1.1182  0.3931
 7411SOL     OW33694   4.395   3.500  12.794  0.0172 -0.3564  0.0883
 7411SOL    HW133695   4.314   3.509  12.844  0.9239  1.5932  1.2098
 7411SOL    HW233696   4.391   3.581  12.743  0.2415 -1.1531 -1.2127
 7412SOL     OW33697   3.205   1.769   3.889 -0.3298 -0.1949  0.1986
 7412SOL    HW133698   3.134   1.713   3.922 -0.8950  0.3800 -0.0487
 7412SOL    HW233699   3.261   1.769   3.967  0.5617 -1.3944 -0.4259
 7413SOL     OW33700   1.540   1.783   0.652  0.1900  0.1908 -0.9573
 7413SOL    HW133701   1.629   1.807   0.680  0.5226  0.9211 -2.6017
 7413SOL    HW233702   1.489   1.777   0.733 -1.4557  0.5373 -1.9736
 7414SOL     OW33703   4.248   4.228   3.744  0.0269  0.1125 -0.0933
 7414SOL    HW133704   4.171   4.171   3.735 -0.6365  0.9488  0.3302
 7414SOL    HW233705   4.310   4.165   3.708  1.5016  1.0886  0.7621
 7415SOL     OW33706   1.948   1.285   8.788  0.5656 -0.1071 -0.3888
 7415SOL    HW133707   1.867   1.269   8.837  1.7841 -2.6470  0.8202
 7415SOL    HW233708   1.916   1.299   8.699 -0.8754 -0.3363  0.0903
 7416SOL     OW33709   3.239   0.772   5.684  0.8724  0.2207  0.4391
 7416SOL    HW133710   3.193   0.852   5.659  1.5957  0.3931 -0.3219
 7416SOL    HW233711   3.237   0.779   5.780  1.2758  2.4438  0.2779
 7417SOL     OW33712   2.090   2.269   2.669 -0.1758 -0.0146 -0.4165
 7417SOL    HW133713   2.099   2.356   2.629 -0.0864  0.1502 -0.0417
 7417SOL    HW233714   2.117   2.290   2.759  0.6436 -2.0049 -0.2050
 7418SOL     OW33715   0.786   1.813   5.296  0.3632 -0.2821 -1.0901
 7418SOL    HW133716   0.715   1.750   5.279 -1.2212  1.0490  0.5784
 7418SOL    HW233717   0.759   1.891   5.248  1.4087  0.8723  0.1927
 7419SOL     OW33718   2.783   2.939   7.087 -0.0251  0.1045 -0.1415
 7419SOL    HW133719   2.757   3.029   7.109 -2.0115 -0.2637 -0.9523
 7419SOL    HW233720   2.876   2.943   7.068  0.0782  2.3603  0.8970
 7420SOL     OW33721   1.139   3.274   3.547 -0.0720 -0.7510  0.3738
 7420SOL    HW133722   1.148   3.232   3.461 -2.9110  2.0169 -1.2714
 7420SOL    HW233723   1.051   3.247   3.572  0.0383  1.1324  2.7706
 7421SOL     OW33724   3.280   3.619   8.831 -0.3833  0.3427 -0.2195
 7421SOL    HW133725   3.332   3.541   8.814  1.5762  1.4152  0.9566
 7421SOL    HW233726   3.346   3.688   8.831 -0.4611  0.4131  0.6457
 7422SOL     OW33727   2.464   0.099   5.855 -0.4810 -0.1819  0.0303
 7422SOL    HW133728   2.540   0.042   5.868  0.0399  0.6457  0.5804
 7422SOL    HW233729   2.477   0.132   5.766  0.9182 -1.3151 -0.1701
 7423SOL     OW33730   3.000   1.643   5.273  0.8197 -0.8019 -0.3297
 7423SOL    HW133731   2.997   1.549   5.256  1.3301 -0.6415 -1.3165
 7423SOL    HW233732   3.074   1.681   5.226 -1.5206 -0.1378 -3.3955
 7424SOL     OW33733   3.768   2.172  16.786  0.2160 -0.5308  0.2453
 7424SOL    HW133734   3.843   2.113  16.795  0.4805 -0.5538 -2.2798
 7424SOL    HW233735   3.705   2.107  16.818  0.5898 -1.6445 -1.2801
 7425SOL     OW33736   3.727   0.308  12.698 -0.1113  0.0921  0.0361
 7425SOL    HW133737   3.683   0.360  12.631 -1.9717 -0.1914  1.0222
 7425SOL    HW233738   3.801   0.285  12.642 -1.6803 -0.8308 -1.6534
 7426SOL     OW33739   1.186   0.133  11.160 -0.3483  0.0617 -0.2641
 7426SOL    HW133740   1.122   0.064  11.145 -0.8453  0.0758  1.8441
 7426SOL    HW233741   1.255   0.098  11.103 -1.0743 -1.2964 -0.3202
 7427SOL     OW33742   3.977   1.189   3.570 -0.4973 -0.0493  0.2630
 7427SOL    HW133743   3.995   1.112   3.515 -0.5829  0.4707 -0.4952
 7427SOL    HW233744   3.954   1.248   3.498 -0.4365  0.8972  1.0278
 7428SOL     OW33745   1.128   1.896  10.694  1.0943  0.4640 -0.4628
 7428SOL    HW133746   1.143   1.974  10.747 -1.2590  0.8374 -0.3633
 7428SOL    HW233747   1.209   1.855  10.726  0.6377  0.4756  0.6973
 7429SOL     OW33748   4.007   0.158   2.883 -0.0043  0.3489  0.0765
 7429SOL    HW133749   3.985   0.186   2.794 -0.0256 -2.6854 -0.9069
 7429SOL    HW233750   4.086   0.105   2.875 -0.3356 -0.1689  0.2085
 7430SOL     OW33751   4.593   4.228  16.250  0.3334 -0.6754  0.0104
 7430SOL    HW133752   4.533   4.198  16.182 -2.0334  0.8073  1.4124
 7430SOL    HW233753   4.521   4.258  16.306 -0.8454  0.2813 -2.0371
 7431SOL     OW33754   1.460   3.618   4.149  0.0521  0.3234  0.5246
 7431SOL    HW133755   1.501   3.632   4.234 -1.9474  0.5959  1.4474
 7431SOL    HW233756   1.369   3.639   4.172  0.1870  1.4529  0.0048
 7432SOL     OW33757   3.361   2.707   9.159 -0.0276 -0.3523  0.0832
 7432SOL    HW133758   3.269   2.697   9.132 -0.2713  2.4956 -0.0765
 7432SOL    HW233759   3.390   2.623   9.124  1.9964  0.1955  0.4476
 7433SOL     OW33760   2.416   0.064   5.345 -0.1563  0.0744 -0.6299
 7433SOL    HW133761   2.375   0.037   5.263 -2.6874  0.4653  0.4784
 7433SOL    HW233762   2.440   4.700   5.374  1.4554  0.8613  0.4517
 7434SOL     OW33763   0.047   3.987  16.886  0.6975  0.4559 -0.4175
 7434SOL    HW133764   0.129   3.937  16.890  0.4791  0.1382  0.1768
 7434SOL    HW233765   0.054   4.045  16.962 -0.2541  0.3746 -0.2761
 7435SOL     OW33766   0.257   0.627   4.546  0.0928 -0.3776 -0.5075
 7435SOL    HW133767   0.289   0.542   4.514  1.1907  0.3247 -1.2510
 7435SOL    HW233768   0.166   0.632   4.516  0.3204 -1.4739 -1.3701
 7436SOL     OW33769   0.595   1.747   6.620  0.5469 -0.5129  1.2986
 7436SOL    HW133770   0.681   1.735   6.581 -0.9703  2.0622 -2.7665
 7436SOL    HW233771   0.588   1.667   6.673  0.8797 -2.0871 -1.0753
 7437SOL     OW33772   1.574   2.458  13.315 -0.1894  0.1908 -0.3813
 7437SOL    HW133773   1.489   2.502  13.308  0.0571  0.5182 -1.3061
 7437SOL    HW233774   1.557   2.372  13.277  1.4863 -0.8008  1.1115
 7438SOL     OW33775   4.587   4.711   8.587 -0.3044  0.2117 -0.0696
 7438SOL    HW133776   4.639   0.016   8.662  2.8644 -1.5864 -1.5447
 7438SOL    HW233777   4.609   0.060   8.531 -0.2634 -1.3868 -2.1363
 7439SOL     OW33778   1.296   2.325   7.404  0.0680  0.1238  0.5315
 7439SOL    HW133779   1.226   2.306   7.466 -1.4662  1.0683 -0.9038
 7439SOL    HW233780   1.349   2.374   7.466  0.8159  0.3282 -0.2726
 7440SOL     OW33781   1.563   0.969   3.261 -0.5128  0.2683 -0.4288
 7440SOL    HW133782   1.637   0.927   3.305  0.9131  1.8083 -1.3845
 7440SOL    HW233783   1.613   1.039   3.220  2.1445 -1.4673 -0.1276
 7441SOL     OW33784   2.685   4.596  12.190  0.1948  0.2036  0.0492
 7441SOL    HW133785   2.753   4.648  12.233  0.2623  2.1790 -2.4442
 7441SOL    HW233786   2.605   4.648  12.204  0.4135  0.1300  1.6021
 7442SOL     OW33787   0.944   1.940   7.805 -0.0732 -0.2682 -0.3682
 7442SOL    HW133788   0.905   2.013   7.853 -0.8730 -0.9474  0.0099
 7442SOL    HW233789   0.980   1.888   7.878  0.4624  0.8392  0.1654
 7443SOL     OW33790   4.493   4.319   7.622 -0.8059 -0.3902 -1.2920
 7443SOL    HW133791   4.512   4.400   7.670 -0.5043 -0.7929 -0.7366
 7443SOL    HW233792   4.530   4.260   7.688 -0.2260 -1.2612 -2.4088
 7444SOL     OW33793   4.527   1.193  16.574 -0.2184 -0.0426  0.4939
 7444SOL    HW133794   4.539   1.272  16.521  1.2930 -0.8525 -0.3620
 7444SOL    HW233795   4.614   1.158  16.557 -0.7153 -1.3635  0.7128
 7445SOL     OW33796   2.677   3.171   1.394  0.4778  0.0869 -0.7038
 7445SOL    HW133797   2.589   3.204   1.407  0.1279 -0.8014 -0.7916
 7445SOL    HW233798   2.681   3.170   1.298  0.4256  0.5833 -0.7119
 7446SOL     OW33799   2.042   4.068  17.552 -0.4323  0.1523  0.2815
 7446SOL    HW133800   2.047   4.065  17.456 -1.0388 -1.0646  0.2846
 7446SOL    HW233801   2.129   4.098  17.580  0.0865 -0.2129 -0.9118
 7447SOL     OW33802   3.131   0.903   7.754 -0.0052 -0.0898 -0.3531
 7447SOL    HW133803   3.095   0.945   7.675 -1.4145 -0.4960  0.0689
 7447SOL    HW233804   3.077   0.944   7.822  0.8764  1.4006 -0.5468
 7448SOL     OW33805   1.140   4.021  11.773 -0.7298  0.0797 -0.7282
 7448SOL    HW133806   1.149   4.098  11.829 -2.2877  1.1644 -1.9676
 7448SOL    HW233807   1.228   4.024  11.735 -0.0700  2.4723  0.9571
 7449SOL     OW33808   0.001   0.755   1.559  0.0732  0.3868  0.3323
 7449SOL    HW133809   4.635   0.772   1.584 -0.9911 -2.7315 -1.4371
 7449SOL    HW233810   0.042   0.776   1.643 -0.4278 -0.0838  0.6898
 7450SOL     OW33811   2.102   2.909   3.439 -0.1323 -0.5921  0.4059
 7450SOL    HW133812   2.020   2.954   3.458 -0.1476 -0.2759 -0.4222
 7450SOL    HW233813   2.158   2.985   3.422 -1.5904  0.3584 -0.1603
 7451SOL     OW33814   1.812   0.103   0.007  0.2674  0.0860  0.1117
 7451SOL    HW133815   1.763   0.125  17.628  2.6383  0.4115 -1.2797
 7451SOL    HW233816   1.889   0.061  17.670  0.2718 -1.5009  1.9056
 7452SOL     OW33817   0.749   1.847   7.652 -0.0424  0.0372 -0.2583
 7452SOL    HW133818   0.709   1.796   7.723 -0.6307 -0.9502 -1.3119
 7452SOL    HW233819   0.815   1.889   7.708 -0.1682 -1.4507  1.0130
 7453SOL     OW33820   4.256   3.647  17.180  0.6145 -0.1339 -0.0017
 7453SOL    HW133821   4.342   3.632  17.219  0.4531  0.7041  0.6563
 7453SOL    HW233822   4.224   3.565  17.219 -0.2130  0.0658 -0.2535
 7454SOL     OW33823   2.157   4.509   1.609  0.2521 -0.7541  0.0462
 7454SOL    HW133824   2.188   4.426   1.644 -1.4688 -1.8297 -0.9431
 7454SOL    HW233825   2.237   4.558   1.627  0.3143 -1.0269  0.5078
 7455SOL     OW33826   4.017   1.116  15.418  0.4803  0.0329 -0.2367
 7455SOL    HW133827   3.997   1.193  15.470 -0.6163  2.0584 -3.6208
 7455SOL    HW233828   3.938   1.120  15.365  0.6308 -1.2484 -0.5678
 7456SOL     OW33829   4.292   3.320   4.723 -0.0755  0.0893 -0.1694
 7456SOL    HW133830   4.231   3.247   4.726  0.8480 -0.6198  0.9283
 7456SOL    HW233831   4.332   3.314   4.809 -0.3653  0.5551 -0.0035
 7457SOL     OW33832   2.094   3.745   5.510 -0.4309  0.6040  0.5804
 7457SOL    HW133833   2.002   3.733   5.488 -0.0248 -2.2779  0.4984
 7457SOL    HW233834   2.124   3.661   5.542 -0.0971  0.0543 -1.1961
 7458SOL     OW33835   3.750   1.831  16.191 -0.4250 -0.0967  0.1997
 7458SOL    HW133836   3.717   1.821  16.281 -0.8371 -1.3638 -0.0873
 7458SOL    HW233837   3.844   1.837  16.203 -0.0719 -1.7252 -1.6444
 7459SOL     OW33838   3.154   1.416   3.347  0.2298  0.2618  0.0843
 7459SOL    HW133839   3.124   1.488   3.403  0.2293  0.3039  0.0288
 7459SOL    HW233840   3.071   1.385   3.311  1.6637 -0.5137 -2.5508
 7460SOL     OW33841   3.848   4.567   6.252 -0.3946 -0.7853 -0.0663
 7460SOL    HW133842   3.762   4.605   6.269  0.2417 -0.2197  2.0214
 7460SOL    HW233843   3.819   4.495   6.196  0.9713 -1.4475  0.0677
 7461SOL     OW33844   4.650   2.193   1.598 -0.0727  0.3767 -0.6138
 7461SOL    HW133845   4.668   2.213   1.506  0.7183  3.2698  0.1575
 7461SOL    HW233846   4.555   2.194   1.589 -0.2331 -2.9172  0.8856
 7462SOL     OW33847   3.324   0.375   1.362 -0.3362  0.5278  0.4707
 7462SOL    HW133848   3.347   0.290   1.399 -0.7082  0.0199 -0.4923
 7462SOL    HW233849   3.261   0.344   1.297  0.1150 -2.8693  1.6629
 7463SOL     OW33850   4.051   4.039   7.801  0.8910 -0.4081  0.2983
 7463SOL    HW133851   4.115   4.111   7.801  0.2879  0.1238 -0.5432
 7463SOL    HW233852   3.997   4.077   7.732  0.0721 -0.9848  0.6175
 7464SOL     OW33853   0.640   1.829   6.145 -0.2031  0.2478  0.3959
 7464SOL    HW133854   0.702   1.895   6.114 -0.2005 -0.7607 -1.7583
 7464SOL    HW233855   0.612   1.801   6.058 -0.8840 -0.0082  0.6944
 7465SOL     OW33856   4.039   3.806   5.371  0.1171 -0.0683 -0.1957
 7465SOL    HW133857   4.047   3.759   5.288  0.9010 -1.9697  0.9614
 7465SOL    HW233858   4.076   3.747   5.437  0.6211  2.9487  2.2395
 7466SOL     OW33859   2.881   2.963  10.070 -0.4094 -0.3699  0.3662
 7466SOL    HW133860   2.808   3.024  10.080  0.9081  1.4032 -0.8759
 7466SOL    HW233861   2.878   2.962   9.974  0.5217  0.3050  0.3405
 7467SOL     OW33862   3.232   4.645  13.846  0.1370 -0.4936  0.1363
 7467SOL    HW133863   3.173   4.570  13.856 -2.1432  1.0025 -2.2420
 7467SOL    HW233864   3.231   4.655  13.751  2.6640  0.6726  0.2174
 7468SOL     OW33865   3.432   1.394   8.089  0.4826 -0.3927  0.1823
 7468SOL    HW133866   3.372   1.383   8.163  1.1642  0.7040  0.9120
 7468SOL    HW233867   3.413   1.318   8.034 -1.0418 -0.1459  0.3789
 7469SOL     OW33868   0.155   4.354   9.181 -0.2023 -0.2937 -0.2288
 7469SOL    HW133869   0.125   4.394   9.263  0.6127  0.5030 -0.3175
 7469SOL    HW233870   0.190   4.432   9.138  0.7336 -0.6469 -0.1067
 7470SOL     OW33871   1.027   3.447   5.485  0.1205  0.2120 -0.1400
 7470SOL    HW133872   0.945   3.411   5.452  0.6717 -2.1395  1.0413
 7470SOL    HW233873   0.997   3.493   5.564 -1.0452  1.6418 -1.4169
 7471SOL     OW33874   2.132   1.248  13.431  0.0888 -0.2646 -0.7915
 7471SOL    HW133875   2.083   1.224  13.352  0.6999 -1.7883 -0.7180
 7471SOL    HW233876   2.179   1.167  13.451 -1.0818  0.0252  3.0223
 7472SOL     OW33877   4.657   2.565  12.875 -0.1702 -0.0352  0.2449
 7472SOL    HW133878   4.649   2.469  12.874 -4.4185  0.3049 -0.2112
 7472SOL    HW233879   4.666   2.586  12.782  1.4904  0.9413  0.6265
 7473SOL     OW33880   2.056   4.555  14.183 -0.1595  0.1456  0.4941
 7473SOL    HW133881   2.122   4.486  14.198 -0.8758 -1.0004 -1.5803
 7473SOL    HW233882   2.019   4.563  14.271 -0.2650  0.9069  0.3796
 7474SOL     OW33883   2.068   1.926   6.699  0.0058 -0.3144 -0.7920
 7474SOL    HW133884   2.112   1.926   6.614  1.9320  2.2203  0.2177
 7474SOL    HW233885   1.987   1.882   6.671  0.0661 -1.3658  0.7025
 7475SOL     OW33886   0.528   0.352  13.652 -0.2030  0.0058 -0.4676
 7475SOL    HW133887   0.511   0.268  13.608 -0.9028 -1.2599  2.2158
 7475SOL    HW233888   0.553   0.329  13.741 -0.6564  0.9706 -0.0983
 7476SOL     OW33889   0.762   2.254   1.066  0.2099  0.3934  0.0384
 7476SOL    HW133890   0.830   2.221   1.007 -1.5150 -0.2841 -1.5754
 7476SOL    HW233891   0.795   2.241   1.155  1.4045 -1.1548 -0.6469
 7477SOL     OW33892   4.046   3.837   8.544 -0.3652  0.1010  0.2708
 7477SOL    HW133893   3.999   3.769   8.593  1.5809 -0.9546  0.6759
 7477SOL    HW233894   4.133   3.822   8.580 -0.4641  0.2866  0.5952
 7478SOL     OW33895   0.528   1.644   5.008  0.2712 -0.2789  0.2108
 7478SOL    HW133896   0.545   1.675   5.097  0.6050  1.2294 -0.3796
 7478SOL    HW233897   0.461   1.702   4.972  0.1609  0.7751  2.1206
 7479SOL     OW33898   2.959   3.782   2.929 -0.5255  0.3548 -0.2420
 7479SOL    HW133899   2.901   3.762   2.857  1.0518  2.7055 -2.1848
 7479SOL    HW233900   2.959   3.694   2.966  1.2541  0.8634  1.0080
 7480SOL     OW33901   0.400   2.325  10.702  0.0270  0.5467  0.2357
 7480SOL    HW133902   0.406   2.275  10.784 -2.9385  0.3901  0.3574
 7480SOL    HW233903   0.454   2.278  10.639 -0.3970  0.8048 -0.3147
 7481SOL     OW33904   2.674   4.033   7.321 -0.8657 -0.3318 -0.2788
 7481SOL    HW133905   2.744   3.983   7.278 -1.0197 -0.2385 -0.6377
 7481SOL    HW233906   2.598   3.996   7.276 -0.3172 -0.8462 -0.7839
 7482SOL     OW33907   0.496   2.806   4.532  0.3198  0.0752  0.4095
 7482SOL    HW133908   0.569   2.806   4.595  1.2846 -0.8621 -0.7036
 7482SOL    HW233909   0.471   2.898   4.544  1.1356  0.2037  1.1970
 7483SOL     OW33910   2.889   2.943  16.691  0.3206  0.1816  0.4700
 7483SOL    HW133911   2.981   2.969  16.684 -0.0685  0.9713 -1.7171
 7483SOL    HW233912   2.839   3.022  16.673  0.6782  0.2310 -0.3110
 7484SOL     OW33913   2.160   1.982   3.874  0.0234 -0.3810 -0.4738
 7484SOL    HW133914   2.170   1.887   3.873  0.2148 -0.3504 -2.1813
 7484SOL    HW233915   2.202   2.009   3.792  1.9721  1.1894  1.0654
 7485SOL     OW33916   1.753   3.808  12.955 -0.0583  0.1721  0.1385
 7485SOL    HW133917   1.726   3.858  12.877 -1.5915  0.0430  0.5888
 7485SOL    HW233918   1.710   3.725  12.934 -1.3570  0.3082  2.3315
 7486SOL     OW33919   0.904   1.954  13.314  0.1609 -0.0354  0.0119
 7486SOL    HW133920   0.884   2.040  13.280 -0.1867 -0.8745 -1.8710
 7486SOL    HW233921   0.842   1.914  13.253  0.9054 -1.3207  0.0903
 7487SOL     OW33922   2.064   0.474   7.714 -0.4438 -0.4514 -0.0586
 7487SOL    HW133923   2.064   0.447   7.806  2.7359  2.0657  0.7081
 7487SOL    HW233924   2.004   0.408   7.681  1.7151 -1.2954 -2.2491
 7488SOL     OW33925   4.611   3.605   2.727  0.3360  0.3506 -0.9744
 7488SOL    HW133926   4.605   3.567   2.815  1.3796 -1.7814 -1.8237
 7488SOL    HW233927   4.694   3.564   2.704  0.1732 -1.0517  0.9471
 7489SOL     OW33928   4.619   3.179  14.609  0.2631 -0.2266  0.2225
 7489SOL    HW133929   4.712   3.184  14.589 -0.5103 -2.1014 -3.8579
 7489SOL    HW233930   4.616   3.232  14.689 -1.9215  0.7204 -0.4879
 7490SOL     OW33931   1.592   3.172   2.310  0.0429 -0.6652  0.4978
 7490SOL    HW133932   1.672   3.169   2.361 -0.2270  2.8739  1.1164
 7490SOL    HW233933   1.558   3.262   2.310 -1.3052 -1.1770 -1.6201
 7491SOL     OW33934   2.908   3.194   7.983 -0.3870 -0.0061  0.1472
 7491SOL    HW133935   2.951   3.216   8.065 -0.8676 -0.0707  0.4169
 7491SOL    HW233936   2.925   3.277   7.938 -0.1532 -1.2272 -2.0308
 7492SOL     OW33937   1.685   2.606   9.132  0.5389  0.3974  0.1840
 7492SOL    HW133938   1.714   2.695   9.152  0.3687  0.2712  1.0049
 7492SOL    HW233939   1.647   2.572   9.213  0.6258 -1.8641 -0.7263
 7493SOL     OW33940   3.769   2.056   4.365 -0.2266  0.2337  0.5077
 7493SOL    HW133941   3.740   2.134   4.317 -0.0063  0.9642  1.5477
 7493SOL    HW233942   3.789   2.088   4.453  3.3090  1.5097 -0.7505
 7494SOL     OW33943   1.689   1.635  15.735  0.0527 -0.1373  0.4140
 7494SOL    HW133944   1.617   1.636  15.798  1.7290 -0.1036  2.3577
 7494SOL    HW233945   1.653   1.581  15.664 -1.7979  2.6697 -0.7675
 7495SOL     OW33946   3.513   4.440   8.788  0.1485 -0.0401 -0.3590
 7495SOL    HW133947   3.419   4.421   8.788  0.1725 -0.1884  1.0179
 7495SOL    HW233948   3.513   4.511   8.853 -0.0517 -0.8621  0.5336
 7496SOL     OW33949   2.363   0.636  16.931  0.1136 -0.4413 -0.1787
 7496SOL    HW133950   2.439   0.694  16.931  2.0614 -2.9810 -1.6448
 7496SOL    HW233951   2.332   0.638  17.021 -2.4964  1.7041 -1.0990
 7497SOL     OW33952   4.450   3.128   5.784  0.3632 -0.1033 -0.6404
 7497SOL    HW133953   4.516   3.059   5.779 -1.2931 -1.6575 -0.9411
 7497SOL    HW233954   4.506   3.180   5.842  0.6581 -2.4150  1.1532
 7498SOL     OW33955   3.793   0.284   6.907  0.3042 -0.2523 -0.3802
 7498SOL    HW133956   3.807   0.289   6.812 -0.1141 -0.2865 -0.4429
 7498SOL    HW233957   3.858   0.348   6.939  0.1043  0.2619 -1.0043
 7499SOL     OW33958   2.600   2.962  14.887  0.3909 -0.5241 -0.3931
 7499SOL    HW133959   2.505   2.959  14.893  0.3015  2.1271 -0.8371
 7499SOL    HW233960   2.627   3.037  14.939  3.5354 -2.2032  0.3980
 7500SOL     OW33961   1.573   3.166   7.202  0.4958 -0.3264 -0.1996
 7500SOL    HW133962   1.565   3.255   7.168 -2.4625 -0.1969  0.8215
 7500SOL    HW233963   1.495   3.158   7.258  1.8043  0.5551  1.7457
 7501SOL     OW33964   2.961   0.198   7.984 -0.5637  0.1620  0.3558
 7501SOL    HW133965   2.969   0.237   8.071 -0.7569  0.7372  0.1177
 7501SOL    HW233966   2.881   0.242   7.955  0.9668  0.6159 -3.0971
 7502SOL     OW33967   1.433   0.539  16.122  0.2164 -0.0150 -0.2528
 7502SOL    HW133968   1.452   0.615  16.067 -0.1261  0.2375 -0.0146
 7502SOL    HW233969   1.339   0.543  16.139  0.1461 -2.2092 -0.1453
 7503SOL     OW33970   0.435   1.318   7.635  0.4002  0.2281  0.1333
 7503SOL    HW133971   0.527   1.336   7.618 -0.0607  0.9403 -1.6812
 7503SOL    HW233972   0.424   1.354   7.723  0.6361 -2.3199  1.2088
 7504SOL     OW33973   0.166   0.199   0.021 -0.3451  0.3927 -0.2761
 7504SOL    HW133974   0.086   0.171  17.677 -0.8410  1.3410  0.0213
 7504SOL    HW233975   0.164   0.294   0.011  2.2288  0.4547 -0.2478
 7505SOL     OW33976   2.384   4.200   5.768  0.4072 -0.5186 -0.5458
 7505SOL    HW133977   2.338   4.122   5.801 -0.3017 -0.3318 -1.0912
 7505SOL    HW233978   2.399   4.245   5.851  2.1787  1.4544 -1.9157
 7506SOL     OW33979   0.112   2.146   9.393 -0.1192 -0.1967  0.1638
 7506SOL    HW133980   0.205   2.150   9.413 -0.6044  0.4115  2.2606
 7506SOL    HW233981   0.065   2.100   9.462  0.1058 -2.3771 -1.1372
 7507SOL     OW33982   1.351   1.589   9.904 -0.5915 -0.4044  0.0417
 7507SOL    HW133983   1.284   1.584   9.836 -2.6476  1.8599  1.9037
 7507SOL    HW233984   1.316   1.530   9.970 -0.0398 -0.0947  0.6184
 7508SOL     OW33985   2.043   3.646   0.640  0.2985  0.6149  0.1517
 7508SOL    HW133986   2.111   3.640   0.573  0.1661  0.9287 -0.0121
 7508SOL    HW233987   1.985   3.710   0.599 -0.3436 -1.0627 -1.5318
 7509SOL     OW33988   3.856   3.397   7.918 -0.1269  0.0638  0.3699
 7509SOL    HW133989   3.764   3.421   7.910  0.5050  2.2962 -0.4780
 7509SOL    HW233990   3.880   3.390   7.825  0.4250 -0.5621  0.5621
 7510SOL     OW33991   1.250   4.432  16.931 -0.2266  0.1931 -0.0769
 7510SOL    HW133992   1.159   4.438  16.959  0.1965  0.0377  1.3052
 7510SOL    HW233993   1.249   4.504  16.867 -2.1582 -0.7802 -1.1267
 7511SOL     OW33994   2.258   2.640   2.822 -0.5591 -0.3473  0.2962
 7511SOL    HW133995   2.181   2.604   2.777  0.1164 -0.9750 -0.3773
 7511SOL    HW233996   2.222   2.682   2.900 -2.5675 -0.0123 -0.8214
 7512SOL     OW33997   0.857   4.221   6.989 -0.3219 -0.2991  0.7875
 7512SOL    HW133998   0.772   4.265   6.990 -0.1437  0.0937 -0.4441
 7512SOL    HW233999   0.912   4.258   7.058  0.3282  0.6607 -0.2496
 7513SOL     OW34000   1.206   1.760   8.838 -0.5578 -0.8875  0.1475
 7513SOL    HW134001   1.149   1.837   8.840  0.1160 -0.3312 -1.7029
 7513SOL    HW234002   1.155   1.702   8.781 -1.8057  0.7841 -0.4248
 7514SOL     OW34003   3.821   2.455   3.501  0.0708  0.3392  0.1706
 7514SOL    HW134004   3.731   2.422   3.494 -0.0941  0.8232  0.0386
 7514SOL    HW234005   3.805   2.534   3.551 -0.0660 -0.4300  1.3340
 7515SOL     OW34006   4.536   3.270   7.746 -1.2459 -0.0895 -0.2189
 7515SOL    HW134007   4.578   3.286   7.831 -0.9352  0.8959 -0.5603
 7515SOL    HW234008   4.528   3.354   7.701  0.3828  0.2051  0.0279
 7516SOL     OW34009   0.233   2.323   6.798 -0.3142 -0.0848  0.1842
 7516SOL    HW134010   0.314   2.275   6.813 -0.2547 -0.7963 -2.4574
 7516SOL    HW234011   0.173   2.251   6.778 -0.1396  0.2203 -1.4110
 7517SOL     OW34012   0.947   3.656   7.311  0.1544  0.6684 -0.1158
 7517SOL    HW134013   1.003   3.615   7.377  1.6692 -0.8105 -2.3172
 7517SOL    HW234014   1.007   3.663   7.237  1.7741 -2.7002  0.8760
 7518SOL     OW34015   4.478   1.173   1.458  0.4495  0.0265  0.9393
 7518SOL    HW134016   4.558   1.162   1.406 -0.6584 -0.8821 -0.5667
 7518SOL    HW234017   4.516   1.181   1.545 -1.0299 -0.1496  1.6018
 7519SOL     OW34018   0.080   0.509   3.681  0.3460  0.2099  0.4553
 7519SOL    HW134019   0.165   0.552   3.671 -0.0753  1.7293  3.7562
 7519SOL    HW234020   0.053   0.513   3.589 -0.4695  3.2010  0.8483
 7520SOL     OW34021   1.076   2.973   3.871 -0.1002  0.6908  0.0626
 7520SOL    HW134022   1.020   3.024   3.931 -1.8172 -0.5143 -0.5355
 7520SOL    HW234023   1.073   2.888   3.914  3.5166 -0.3167 -1.7440
 7521SOL     OW34024   3.977   1.688   1.578 -0.3602 -0.3032  0.3456
 7521SOL    HW134025   4.066   1.668   1.608 -0.7809  0.5029  2.1802
 7521SOL    HW234026   3.958   1.618   1.516 -1.9265  0.3256  0.0974
 7522SOL     OW34027   4.658   0.608  13.674 -0.6650 -0.3498  0.2843
 7522SOL    HW134028   4.586   0.546  13.666  0.4234 -1.4873 -0.7111
 7522SOL    HW234029   0.008   0.548  13.677  0.8204  1.4338 -1.8383
 7523SOL     OW34030   4.623   1.698   6.137  0.1441 -0.1709 -0.2192
 7523SOL    HW134031   4.702   1.748   6.119 -0.4691  1.3287  1.3189
 7523SOL    HW234032   4.621   1.648   6.055 -0.7139 -0.7508  0.1516
 7524SOL     OW34033   4.379   3.961  16.792  0.3073  0.2861  0.6527
 7524SOL    HW134034   4.361   3.870  16.816 -0.9616  0.4564  0.3594
 7524SOL    HW234035   4.338   4.005  16.867  0.2313  1.6335 -0.1773
 7525SOL     OW34036   1.165   1.610   3.246  0.4484  0.1647 -0.1054
 7525SOL    HW134037   1.204   1.648   3.325  0.6790 -1.1605  0.4282
 7525SOL    HW234038   1.246   1.584   3.203  0.2320  1.5754 -1.3392
 7526SOL     OW34039   3.491   3.399  13.779  0.5391  0.2392  0.4215
 7526SOL    HW134040   3.563   3.418  13.718 -0.6019  0.9087 -0.7218
 7526SOL    HW234041   3.442   3.479  13.760  0.6549  0.4293  0.9520
 7527SOL     OW34042   4.548   3.301  14.340  0.4643  0.8044 -0.4112
 7527SOL    HW134043   4.599   3.280  14.262  0.3730 -1.0061  0.0082
 7527SOL    HW234044   4.614   3.297  14.410 -0.9094 -1.7305  0.7424
 7528SOL     OW34045   3.466   1.563   4.157  0.1943  0.8090 -0.2062
 7528SOL    HW134046   3.534   1.627   4.138  0.4100  0.6476  0.0270
 7528SOL    HW234047   3.474   1.501   4.084  0.5298 -0.9659  1.3336
 7529SOL     OW34048   0.467   4.530   9.316 -0.1599 -0.3789 -0.2645
 7529SOL    HW134049   0.505   4.503   9.400 -2.5473  1.1689  1.3226
 7529SOL    HW234050   0.492   4.621   9.299 -1.3052  0.1866  1.1370
 7530SOL     OW34051   2.986   1.418   9.829 -0.0539  1.0358  0.1683
 7530SOL    HW134052   2.903   1.400   9.784  0.2571  0.6028 -0.2462
 7530SOL    HW234053   3.026   1.475   9.763 -0.1092  0.0891 -0.6805
 7531SOL     OW34054   1.575   1.424  16.678  0.3566  0.2917  0.2237
 7531SOL    HW134055   1.485   1.436  16.708  0.2698  2.0673 -0.6849
 7531SOL    HW234056   1.615   1.404  16.762 -0.6059  0.2125  0.6579
 7532SOL     OW34057   4.107   1.982   8.348  0.2778  0.3306 -0.0390
 7532SOL    HW134058   4.081   1.994   8.257  1.9468 -2.1627 -0.8494
 7532SOL    HW234059   4.021   1.996   8.389  0.7902  1.7688  0.5408
 7533SOL     OW34060   2.436   4.149  16.281  0.0783  0.4085 -0.1482
 7533SOL    HW134061   2.450   4.236  16.319 -2.2566  0.7639 -0.1589
 7533SOL    HW234062   2.351   4.156  16.239  0.1458 -0.3313 -0.4140
 7534SOL     OW34063   1.155   0.654   9.513 -0.1126  0.1443  0.3237
 7534SOL    HW134064   1.186   0.743   9.529 -0.1310  0.3429 -0.8014
 7534SOL    HW234065   1.069   0.670   9.474 -0.0522 -0.2167  0.0476
 7535SOL     OW34066   2.886   3.837   5.184 -0.0089 -0.1980  0.2430
 7535SOL    HW134067   2.867   3.828   5.277  0.6024  2.1579  0.6112
 7535SOL    HW234068   2.848   3.758   5.145 -2.1291  1.0790 -0.2989
 7536SOL     OW34069   3.539   0.642  11.095  0.0382 -0.4735  0.0562
 7536SOL    HW134070   3.552   0.671  11.005 -0.0964 -3.7586 -1.0026
 7536SOL    HW234071   3.444   0.637  11.103 -0.0550 -1.2618 -1.6614
 7537SOL     OW34072   2.248   4.662   3.956 -0.2952  0.0401 -0.1621
 7537SOL    HW134073   2.340   4.643   3.934 -0.5592 -1.1284 -0.2607
 7537SOL    HW234074   2.254   4.679   4.050  1.2648 -4.6159  0.5669
 7538SOL     OW34075   2.649   2.876   9.830 -0.2429  0.3177  0.1495
 7538SOL    HW134076   2.691   2.962   9.835  0.9856 -0.3520  1.3266
 7538SOL    HW234077   2.724   2.829   9.796  1.0360  1.0295  2.0158
 7539SOL     OW34078   2.590   2.370   4.922 -0.1028 -0.6512  0.0820
 7539SOL    HW134079   2.526   2.367   4.852  1.6036 -1.2278 -1.4586
 7539SOL    HW234080   2.549   2.378   5.008  1.3928  0.6520  0.6855
 7540SOL     OW34081   1.240   0.915   4.764 -0.3804  0.0118 -0.0375
 7540SOL    HW134082   1.208   0.982   4.825 -0.2852  0.8675 -0.9193
 7540SOL    HW234083   1.257   0.964   4.683 -0.2697  0.7460  0.4225
 7541SOL     OW34084   2.224   0.527   6.001 -0.4080 -0.4065  0.3506
 7541SOL    HW134085   2.220   0.490   6.090 -1.2847 -0.0338  0.4615
 7541SOL    HW234086   2.153   0.477   5.961  0.4681 -0.8412 -0.6532
 7542SOL     OW34087   2.157   2.185   5.184  0.4890  0.1021 -0.6234
 7542SOL    HW134088   2.215   2.137   5.125  1.1606  2.0120 -1.4898
 7542SOL    HW234089   2.188   2.166   5.273  0.8581  1.0295 -0.5566
 7543SOL     OW34090   3.389   4.609   1.067  0.2126 -0.3054 -0.2631
 7543SOL    HW134091   3.326   4.591   0.997 -0.5828  0.2632  0.3041
 7543SOL    HW234092   3.326   4.635   1.135  0.6671  1.1358 -0.3955
 7544SOL     OW34093   2.877   3.033  15.214 -0.5926 -0.1804 -0.1583
 7544SOL    HW134094   2.901   2.941  15.221 -0.4558 -0.1290  0.0400
 7544SOL    HW234095   2.966   3.064  15.227 -0.6362  0.0691 -0.4509
 7545SOL     OW34096   1.220   0.322   1.107  0.0371  0.2191 -0.2621
 7545SOL    HW134097   1.201   0.302   1.016 -1.2272  2.1194 -0.3946
 7545SOL    HW234098   1.164   0.397   1.124  0.2156  0.2569  0.1659
 7546SOL     OW34099   4.301   3.723  16.904  0.1384  0.0677 -0.5568
 7546SOL    HW134100   4.267   3.637  16.879 -2.2877  1.4845 -2.1380
 7546SOL    HW234101   4.317   3.715  16.998  0.4365 -2.2231 -0.7912
 7547SOL     OW34102   1.171   0.701   1.788  0.3932  0.9527 -0.0660
 7547SOL    HW134103   1.121   0.704   1.707  2.0643  0.5975 -1.1160
 7547SOL    HW234104   1.249   0.746   1.754  0.2807 -0.4341 -2.1264
 7548SOL     OW34105   1.063   3.055   7.905 -0.4007 -0.3651  0.2482
 7548SOL    HW134106   1.153   3.088   7.915 -1.1605  1.6945  0.1843
 7548SOL    HW234107   1.048   3.028   7.996 -1.0968 -1.0230 -0.0685
 7549SOL     OW34108   1.107   0.919  15.358 -0.0881 -0.0648 -0.2480
 7549SOL    HW134109   1.100   1.014  15.353 -1.1353 -0.1550 -0.4964
 7549SOL    HW234110   1.161   0.900  15.281  0.8971 -0.7018  0.6007
 7550SOL     OW34111   0.253   2.796   6.955  0.0080  0.6058 -0.2794
 7550SOL    HW134112   0.329   2.846   6.984 -0.1318  0.0211  1.0822
 7550SOL    HW234113   0.189   2.836   7.015  1.2656  1.1527  0.6974
 7551SOL     OW34114   3.943   3.064   8.079  0.8094  0.5088  0.1522
 7551SOL    HW134115   3.848   3.064   8.085  0.7175  0.4817 -1.2834
 7551SOL    HW234116   3.972   3.005   8.149  0.3847  1.3690  1.0625
 7552SOL     OW34117   1.873   3.151   4.441 -0.6851 -0.6214 -0.4300
 7552SOL    HW134118   1.935   3.079   4.449  1.1018  0.8263 -1.1093
 7552SOL    HW234119   1.892   3.204   4.519  1.3662 -0.9019 -0.7366
 7553SOL     OW34120   2.300   0.302   7.491  0.3064 -0.5521  0.2185
 7553SOL    HW134121   2.241   0.312   7.416  0.2431  2.4991  0.6949
 7553SOL    HW234122   2.314   0.391   7.522  3.0049 -0.5375 -1.0696
 7554SOL     OW34123   2.215   0.710   8.823 -0.1589  0.2520  0.2600
 7554SOL    HW134124   2.216   0.706   8.919 -0.1252 -0.6769  0.2167
 7554SOL    HW234125   2.262   0.793   8.817 -1.9572  1.4666  3.0215
 7555SOL     OW34126   3.568   0.141   5.679 -0.3185  0.1103  0.1250
 7555SOL    HW134127   3.551   0.215   5.620 -1.8031  2.1444  3.1032
 7555SOL    HW234128   3.662   0.133   5.693  0.1016 -1.5130 -3.5044
 7556SOL     OW34129   0.850   3.665   4.926 -0.0090  0.3941 -0.2117
 7556SOL    HW134130   0.773   3.720   4.945 -1.1354 -1.0403 -0.5711
 7556SOL    HW234131   0.908   3.728   4.883  2.8141 -2.8073 -1.0656
 7557SOL     OW34132   2.639   1.659   0.633  0.0232  0.1025  0.0954
 7557SOL    HW134133   2.676   1.640   0.546  1.8892 -2.0539  1.3540
 7557SOL    HW234134   2.544   1.663   0.623  0.1363 -0.8494 -1.3399
 7558SOL     OW34135   2.418   1.611   9.684  0.3887  0.8005  0.2078
 7558SOL    HW134136   2.356   1.571   9.745 -0.1088  0.7844 -0.3105
 7558SOL    HW234137   2.350   1.662   9.640 -0.5986  0.3192  1.1753
 7559SOL     OW34138   1.123   0.716   0.864 -0.2488 -0.6387 -0.1061
 7559SOL    HW134139   1.144   0.711   0.771  1.8402  2.0394  0.2241
 7559SOL    HW234140   1.079   0.800   0.854  2.7723  0.9729  0.3234
 7560SOL     OW34141   4.333   2.164  11.595 -0.2701  0.0977  0.6180
 7560SOL    HW134142   4.411   2.119  11.627  0.4974  0.7454 -0.3343
 7560SOL    HW234143   4.282   2.098  11.549 -0.1830  3.4952 -4.3941
 7561SOL     OW34144   3.805   1.483   1.878 -0.0926  0.7486 -0.4548
 7561SOL    HW134145   3.765   1.518   1.957  2.5280  0.6744  0.8917
 7561SOL    HW234146   3.896   1.488   1.907  0.6582  1.1522 -2.8898
 7562SOL     OW34147   1.449   0.272   2.256 -0.4977  0.2759  0.2654
 7562SOL    HW134148   1.542   0.296   2.252 -0.6479  0.9761  1.3295
 7562SOL    HW234149   1.450   0.192   2.202 -1.1272  0.8551 -0.6065
 7563SOL     OW34150   1.597   2.384   6.102  0.3764  0.2968  0.2274
 7563SOL    HW134151   1.587   2.296   6.138 -1.7115  0.0076 -1.0427
 7563SOL    HW234152   1.550   2.370   6.020  1.5144 -1.3086 -0.1420
 7564SOL     OW34153   0.269   0.400   3.461  0.1404 -0.4674  0.5630
 7564SOL    HW134154   0.237   0.345   3.531  0.3107 -2.5486 -0.9782
 7564SOL    HW234155   0.266   0.488   3.498  1.0477 -0.2184  0.0449
 7565SOL     OW34156   2.977   1.634   4.000 -0.3266 -0.0385  0.0608
 7565SOL    HW134157   2.964   1.598   4.088  2.0466 -1.2228 -0.0642
 7565SOL    HW234158   2.974   1.558   3.942  1.8692 -0.8233  0.9585
 7566SOL     OW34159   4.150   1.602   7.515  0.6165  0.2748 -0.0804
 7566SOL    HW134160   4.135   1.538   7.585  1.7139  0.1635  0.0567
 7566SOL    HW234161   4.157   1.687   7.557  0.0193  0.9211 -1.2879
 7567SOL     OW34162   1.398   3.656  14.691  0.0954  0.1753 -0.0794
 7567SOL    HW134163   1.434   3.612  14.614  0.0887  2.3412 -1.3164
 7567SOL    HW234164   1.306   3.656  14.662 -0.5406  1.4070  1.8879
 7568SOL     OW34165   2.132   3.364   8.494  0.4464 -0.0325 -0.2642
 7568SOL    HW134166   2.062   3.386   8.432 -0.5417 -3.7417 -0.4639
 7568SOL    HW234167   2.197   3.313   8.444  0.0656  0.0445 -0.8362
 7569SOL     OW34168   1.762   4.442   3.103  0.1786 -0.1462 -0.3647
 7569SOL    HW134169   1.672   4.411   3.108  0.2508 -0.2210  0.5815
 7569SOL    HW234170   1.757   4.493   3.023 -2.0304  0.2195  0.0126
 7570SOL     OW34171   3.742   1.830   8.132 -0.1956 -0.1520  0.0541
 7570SOL    HW134172   3.689   1.751   8.120  0.9705 -1.1035  1.2236
 7570SOL    HW234173   3.685   1.878   8.192 -0.8089 -0.9044  0.0822
 7571SOL     OW34174   2.577   3.910   6.724  0.0608 -0.5142 -0.0061
 7571SOL    HW134175   2.492   3.954   6.726  0.0655 -0.5913  1.6790
 7571SOL    HW234176   2.625   3.958   6.791 -2.2749  0.1651  1.1755
 7572SOL     OW34177   3.595   3.059   7.162  0.2165 -0.6411  0.4851
 7572SOL    HW134178   3.592   3.086   7.253  0.4734  0.5507  0.1429
 7572SOL    HW234179   3.691   3.058   7.157  0.1350 -1.5649 -0.9280
 7573SOL     OW34180   0.561   3.397   3.633  0.3297 -0.3603  0.1722
 7573SOL    HW134181   0.587   3.310   3.662  1.8781  0.5384  1.4993
 7573SOL    HW234182   0.543   3.432   3.720  0.6705 -3.3304  1.4358
 7574SOL     OW34183   1.639   1.377  14.133  0.2516  0.1800  0.1845
 7574SOL    HW134184   1.662   1.382  14.040 -2.2844  2.1931 -0.3403
 7574SOL    HW234185   1.584   1.453  14.150 -0.4894 -0.7325  1.7974
 7575SOL     OW34186   3.515   0.114   5.059 -0.3803 -0.1907 -0.2338
 7575SOL    HW134187   3.433   0.154   5.032 -0.8341 -0.6460  0.4619
 7575SOL    HW234188   3.490   0.021   5.057 -0.2848 -0.2514  1.2745
 7576SOL     OW34189   1.161   3.713   7.554  0.5083 -0.2733  0.4695
 7576SOL    HW134190   1.202   3.683   7.635 -0.5974  1.4440  1.6722
 7576SOL    HW234191   1.162   3.632   7.503 -2.1196 -0.0382  0.0247
 7577SOL     OW34192   0.989   2.977   8.764  0.7629  0.0390 -0.2868
 7577SOL    HW134193   1.058   3.027   8.722  1.1045  1.8145  2.4257
 7577SOL    HW234194   1.037   2.966   8.846 -1.0796 -2.9015  0.3957
 7578SOL     OW34195   1.919   3.986   9.845 -0.1336  0.1033  0.0712
 7578SOL    HW134196   1.926   3.934   9.765 -0.8682 -0.9310  0.6765
 7578SOL    HW234197   1.824   3.978   9.857 -0.2648  1.0301 -0.3560
 7579SOL     OW34198   3.585   3.297  15.827 -0.2963 -0.5937  0.2170
 7579SOL    HW134199   3.617   3.257  15.747  0.0149 -0.5673  0.3275
 7579SOL    HW234200   3.490   3.294  15.818 -0.2625 -2.9304  0.7394
 7580SOL     OW34201   2.408   1.437   8.651  0.7316  0.1219 -0.2231
 7580SOL    HW134202   2.378   1.525   8.629  1.1204  0.0628 -1.0031
 7580SOL    HW234203   2.423   1.442   8.746 -1.0386 -0.4463  0.0857
 7581SOL     OW34204   4.011   4.608   6.517 -0.4660  0.3159  0.3991
 7581SOL    HW134205   4.096   4.575   6.488 -0.9919 -2.1447  1.6429
 7581SOL    HW234206   3.962   4.612   6.435  1.0787 -0.4568 -0.5586
 7582SOL     OW34207   1.666   1.815   6.393 -0.4901 -0.3585 -1.0639
 7582SOL    HW134208   1.661   1.905   6.362 -1.0464  0.6828  2.0156
 7582SOL    HW234209   1.598   1.777   6.338 -2.0777 -0.5079  1.0176
 7583SOL     OW34210   2.673   0.195   0.540 -0.1530 -0.1275  0.2223
 7583SOL    HW134211   2.634   0.150   0.615  3.3765 -2.0038  0.9689
 7583SOL    HW234212   2.597   0.247   0.516 -0.8474 -2.1442 -1.9640
 7584SOL     OW34213   1.522   3.516  11.876  0.1871  0.2082 -0.9793
 7584SOL    HW134214   1.475   3.513  11.959 -2.9455 -0.3538 -2.7818
 7584SOL    HW234215   1.520   3.424  11.853  0.2871  0.5502 -2.3325
 7585SOL     OW34216   2.104   2.402  12.580  0.3858 -0.0567 -0.0685
 7585SOL    HW134217   2.110   2.495  12.558 -1.9228  0.1083 -0.0366
 7585SOL    HW234218   2.083   2.400  12.673 -0.9540 -0.0902 -0.3699
 7586SOL     OW34219   3.736   0.102  15.297  0.4261 -0.0548  0.4494
 7586SOL    HW134220   3.737   0.139  15.209  1.2685  0.4803  0.6752
 7586SOL    HW234221   3.688   0.022  15.279 -2.2299  1.6251  0.1847
 7587SOL     OW34222   4.472   1.229  16.892  0.3319  0.2903 -0.3861
 7587SOL    HW134223   4.515   1.232  16.977 -1.9305 -0.3328  0.7814
 7587SOL    HW234224   4.489   1.141  16.857 -0.4417  0.6107 -1.5853
 7588SOL     OW34225   2.915   4.549  15.674 -0.2214 -0.2220  0.2353
 7588SOL    HW134226   2.935   4.457  15.694 -1.4075 -0.4658  0.2918
 7588SOL    HW234227   2.825   4.568  15.701 -0.0701 -2.6243  2.4070
 7589SOL     OW34228   1.959   4.176   2.658  0.3571 -0.1688 -0.2877
 7589SOL    HW134229   1.923   4.263   2.642 -0.3364 -0.5216 -0.6693
 7589SOL    HW234230   1.895   4.121   2.612 -0.8192 -0.1526  1.3321
 7590SOL     OW34231   3.662   1.453   3.179 -0.6022  0.0905  0.3140
 7590SOL    HW134232   3.623   1.499   3.104  1.1385 -0.6785 -1.0624
 7590SOL    HW234233   3.620   1.503   3.249 -0.5986  0.1756  0.2554
 7591SOL     OW34234   4.720   4.061  14.298  0.0603 -0.1800 -0.0185
 7591SOL    HW134235   0.056   4.128  14.269 -1.9592  0.7656 -2.0408
 7591SOL    HW234236   4.639   4.083  14.253  0.5853  2.3320  0.2923
 7592SOL     OW34237   0.803   0.585   6.982  0.0337 -0.0349 -0.2531
 7592SOL    HW134238   0.754   0.623   7.054  0.7580 -1.5674  1.0506
 7592SOL    HW234239   0.773   0.635   6.906  0.5571 -0.4730 -0.7524
 7593SOL     OW34240   2.763   1.770   7.447 -0.4397 -1.1957 -0.0827
 7593SOL    HW134241   2.722   1.856   7.457 -0.7803 -1.3777  0.1048
 7593SOL    HW234242   2.818   1.776   7.525  1.3314 -0.3664 -1.3926
 7594SOL     OW34243   4.485   2.770   1.733 -0.0361  0.4033  0.0416
 7594SOL    HW134244   4.551   2.824   1.688  0.3975  1.4307  1.8806
 7594SOL    HW234245   4.400   2.809   1.712 -0.1919  0.2512  0.3994
 7595SOL     OW34246   4.138   3.843   9.786  0.4400  0.0846  0.3708
 7595SOL    HW134247   4.057   3.828   9.737 -1.3707 -1.6371  3.8584
 7595SOL    HW234248   4.141   3.934   9.816 -0.0566 -0.1702  1.1973
 7596SOL     OW34249   2.069   1.557  11.834  0.0374  0.9523  0.4469
 7596SOL    HW134250   2.137   1.587  11.895 -0.4522 -0.8114  1.8767
 7596SOL    HW234251   2.034   1.480  11.879 -0.6709 -0.4906 -2.5803
 7597SOL     OW34252   3.349   3.237   7.122  0.7282 -0.0811  0.4882
 7597SOL    HW134253   3.372   3.150   7.090 -0.2691 -0.5865  1.1412
 7597SOL    HW234254   3.340   3.228   7.217 -0.2065  0.8592  0.4859
 7598SOL     OW34255   2.900   0.006   4.684  0.1617  0.4329 -0.2945
 7598SOL    HW134256   2.946   4.666   4.738 -0.1558 -0.5664 -1.2047
 7598SOL    HW234257   2.866   0.058   4.756  0.4063  1.3104 -0.8219
 7599SOL     OW34258   0.351   1.431   3.706  0.0557 -0.7087 -0.4452
 7599SOL    HW134259   0.367   1.367   3.775  2.2158  1.1923  0.8282
 7599SOL    HW234260   0.434   1.479   3.707 -1.2762  1.4996  3.0636
 7600SOL     OW34261   3.508   2.447   4.064 -0.0065 -0.2887 -0.3349
 7600SOL    HW134262   3.495   2.379   3.998 -0.6574 -0.6985  0.2241
 7600SOL    HW234263   3.506   2.523   4.005  0.1616  1.1563  1.5442
 7601SOL     OW34264   0.740   3.809   3.610  0.4229 -0.0629 -0.6282
 7601SOL    HW134265   0.657   3.768   3.584 -0.2949  1.5584 -0.9235
 7601SOL    HW234266   0.714   3.885   3.662  0.1512 -0.9680  0.5610
 7602SOL     OW34267   1.520   1.967  13.994  0.4621  0.0255 -0.0600
 7602SOL    HW134268   1.527   2.028  13.921 -1.3482  0.8602  0.4517
 7602SOL    HW234269   1.433   1.928  13.984 -0.5307  1.8867  1.3246
 7603SOL     OW34270   1.654   2.670  15.533 -0.0238 -0.3592  0.3358
 7603SOL    HW134271   1.645   2.686  15.627 -0.8027 -1.5065  0.4508
 7603SOL    HW234272   1.743   2.636  15.530 -0.6393 -1.8545 -0.9649
 7604SOL     OW34273   0.029   0.935   4.324  0.2031  0.1924 -0.3834
 7604SOL    HW134274   0.091   1.008   4.321 -1.5467  1.7365  1.3283
 7604SOL    HW234275   0.007   0.951   4.415 -0.6284  0.2496 -0.5986
 7605SOL     OW34276   4.680   1.043   4.549  0.1197 -0.8830  0.2079
 7605SOL    HW134277   4.584   1.041   4.546  0.1034 -0.6926  0.6572
 7605SOL    HW234278   4.692   1.104   4.622 -0.0523  0.4116 -0.8366
 7606SOL     OW34279   4.148   4.064  13.216  0.5685 -0.7235 -0.7675
 7606SOL    HW134280   4.073   4.014  13.247  0.7281  0.4578  1.5322
 7606SOL    HW234281   4.185   4.080  13.303  0.9871 -1.1332 -0.8661
 7607SOL     OW34282   2.844   2.247  10.815  0.2134  0.5629 -0.2080
 7607SOL    HW134283   2.933   2.278  10.834 -0.0799  1.2927 -0.0255
 7607SOL    HW234284   2.844   2.241  10.720  4.2211 -2.9649  0.0062
 7608SOL     OW34285   0.268   1.574   3.283 -0.2788 -0.4277  0.4385
 7608SOL    HW134286   0.199   1.535   3.230  0.2192 -0.1925 -0.3834
 7608SOL    HW234287   0.286   1.657   3.238  0.5402 -0.9866 -0.2612
 7609SOL     OW34288   1.597   1.046   4.146  0.2616 -0.2061 -0.5838
 7609SOL    HW134289   1.507   1.036   4.177  0.2135 -3.4696 -1.7590
 7609SOL    HW234290   1.622   0.959   4.116  1.9528 -0.0423  0.3410
 7610SOL     OW34291   0.304   3.229   3.891 -1.4865  0.5433 -0.4101
 7610SOL    HW134292   0.357   3.184   3.825 -0.7428 -0.9229  1.1853
 7610SOL    HW234293   0.307   3.319   3.859  1.3131  1.1874  1.6204
 7611SOL     OW34294   0.843   0.315  15.425 -0.3604 -0.2946 -0.4390
 7611SOL    HW134295   0.886   0.231  15.443  0.7345  0.1802 -0.8394
 7611SOL    HW234296   0.848   0.312  15.329  0.8240 -0.3688 -0.3816
 7612SOL     OW34297   1.868   3.463   3.994 -0.4143  0.1523 -0.1189
 7612SOL    HW134298   1.934   3.394   3.995 -1.2059 -0.5519  4.6522
 7612SOL    HW234299   1.856   3.478   4.088 -0.0613 -1.0082  0.1153
 7613SOL     OW34300   4.396   1.890   3.176 -0.4084 -0.1617 -0.1565
 7613SOL    HW134301   4.346   1.956   3.126  0.1004  0.9878  0.8399
 7613SOL    HW234302   4.333   1.819   3.191 -2.1709  1.3508 -0.3015
 7614SOL     OW34303   3.086   3.237  15.131  0.4273  0.2933  0.4468
 7614SOL    HW134304   3.176   3.247  15.162  0.6346  0.6234 -0.2638
 7614SOL    HW234305   3.056   3.326  15.115 -1.1792 -0.5374 -1.0949
 7615SOL     OW34306   0.049   3.542  11.192 -0.3146  0.0711  0.0725
 7615SOL    HW134307   0.103   3.584  11.126  1.6414 -1.2782  0.8156
 7615SOL    HW234308   0.001   3.615  11.231 -1.7326  0.7667 -3.0352
 7616SOL     OW34309   3.992   1.618   7.864 -0.5169 -0.5066 -0.5311
 7616SOL    HW134310   4.076   1.644   7.827 -0.8514  1.8436  0.3507
 7616SOL    HW234311   3.988   1.696   7.920  2.0690  0.5236 -1.7698
 7617SOL     OW34312   3.240   0.189   4.998 -0.1201  0.0032 -0.3026
 7617SOL    HW134313   3.271   0.138   4.923 -1.0010 -1.3315  0.2401
 7617SOL    HW234314   3.238   0.274   4.953 -0.6014  0.0434 -0.2034
 7618SOL     OW34315   3.594   4.605  15.223 -0.5066  0.0678 -0.0032
 7618SOL    HW134316   3.567   4.631  15.135  1.0369 -0.2100 -0.5620
 7618SOL    HW234317   3.557   4.516  15.220  0.6801 -0.3505 -1.9485
 7619SOL     OW34318   3.452   2.853   6.773 -0.0707 -0.6454  0.0457
 7619SOL    HW134319   3.517   2.920   6.796 -0.1909  0.1009 -1.8446
 7619SOL    HW234320   3.373   2.888   6.815 -0.6268 -0.7917 -0.8847
 7620SOL     OW34321   0.933   4.215  16.916 -0.8317  0.2389 -0.0023
 7620SOL    HW134322   0.858   4.253  16.960 -0.8596  0.0312  0.1300
 7620SOL    HW234323   0.901   4.172  16.837 -0.3307  1.3298 -0.7945
 7621SOL     OW34324   2.086   0.218  12.445 -0.7748 -0.2684  0.5021
 7621SOL    HW134325   2.076   0.308  12.413 -1.2729 -0.1057  1.1325
 7621SOL    HW234326   2.089   0.239  12.538  0.4736 -0.8591  0.5984
 7622SOL     OW34327   2.537   0.408   5.403  0.5114  0.3206  0.4227
 7622SOL    HW134328   2.533   0.341   5.471  1.9123  0.1714  0.3414
 7622SOL    HW234329   2.502   0.486   5.447 -0.7850  0.4847 -0.8906
 7623SOL     OW34330   1.728   2.118   3.018  0.1362  0.4253  0.0228
 7623SOL    HW134331   1.796   2.099   2.952  0.5454 -0.7121  0.7895
 7623SOL    HW234332   1.676   2.180   2.966 -0.0351  1.5108  1.4840
 7624SOL     OW34333   3.217   2.996   9.019 -1.0249 -0.3133 -0.9354
 7624SOL    HW134334   3.205   3.081   9.062 -1.9213 -0.7371 -0.3224
 7624SOL    HW234335   3.179   3.006   8.932 -0.1173  0.7106 -1.2041
 7625SOL     OW34336   2.426   3.400  10.669 -0.3972  0.3031  0.4755
 7625SOL    HW134337   2.486   3.374  10.599 -0.6735 -0.2059  0.4311
 7625SOL    HW234338   2.358   3.334  10.661 -0.1958 -0.2182  2.9965
 7626SOL     OW34339   0.648   0.383   5.236  0.4651 -0.4153  0.6143
 7626SOL    HW134340   0.712   0.362   5.168  0.5749  0.0263  0.5759
 7626SOL    HW234341   0.570   0.355   5.190  1.6976 -2.0680 -0.4493
 7627SOL     OW34342   0.040   2.568   2.951 -0.1935  0.3376 -0.7864
 7627SOL    HW134343   0.103   2.622   2.998 -0.6599  0.8186 -0.7043
 7627SOL    HW234344   0.081   2.482   2.947  0.3783  0.5638  0.2668
 7628SOL     OW34345   4.431   1.731   5.746 -0.0465 -0.3777 -0.1886
 7628SOL    HW134346   4.481   1.763   5.671  2.8843  0.6422  2.2022
 7628SOL    HW234347   4.344   1.729   5.708 -0.2975  1.4526  0.2859
 7629SOL     OW34348   0.007   1.493   7.397 -0.2779 -0.1121 -0.2588
 7629SOL    HW134349   4.654   1.490   7.341 -0.7999  0.1726  0.4449
 7629SOL    HW234350   0.078   1.495   7.333  0.1771 -1.2987  0.2174
 7630SOL     OW34351   0.807   3.795   9.134 -0.3257  0.4149 -0.2986
 7630SOL    HW134352   0.791   3.777   9.041  1.1751  1.3886 -0.7375
 7630SOL    HW234353   0.731   3.756   9.178 -0.2305  1.4424  0.7818
 7631SOL     OW34354   3.694   1.873   2.437 -0.2179 -0.2715  0.0702
 7631SOL    HW134355   3.650   1.951   2.403  1.8523  1.2690  0.8786
 7631SOL    HW234356   3.635   1.836   2.502 -0.4406  0.0037  0.0204
 7632SOL     OW34357   3.405   4.334   2.479  0.0223  0.2185 -0.5216
 7632SOL    HW134358   3.310   4.345   2.486 -0.3441 -4.1005  1.4153
 7632SOL    HW234359   3.431   4.312   2.568 -1.2369  1.3455  0.1187
 7633SOL     OW34360   1.723   0.274   2.150 -0.3360  0.1952  0.3392
 7633SOL    HW134361   1.758   0.313   2.230  1.1513  1.3497 -0.8704
 7633SOL    HW234362   1.781   0.315   2.086 -0.7247 -1.9606 -1.3818
 7634SOL     OW34363   4.171   3.831   3.236  0.0448  0.0797 -0.1529
 7634SOL    HW134364   4.112   3.905   3.251  0.0650  0.0728 -0.0365
 7634SOL    HW234365   4.185   3.855   3.145  3.9298 -3.6186 -0.5140
 7635SOL     OW34366   2.646   3.521   2.951  0.1691  0.0894 -0.5293
 7635SOL    HW134367   2.591   3.452   2.914 -0.5053  0.3346  0.0076
 7635SOL    HW234368   2.587   3.549   3.021  0.5851 -0.3419 -0.0093
 7636SOL     OW34369   4.565   2.734   6.518 -0.3281  0.2377 -0.3850
 7636SOL    HW134370   4.561   2.638   6.525  0.6964  0.2850  0.8022
 7636SOL    HW234371   4.472   2.745   6.500 -0.4393 -0.7818 -0.4428
 7637SOL     OW34372   2.450   3.951   4.042 -0.3506 -0.5893 -0.0492
 7637SOL    HW134373   2.359   3.926   4.025  0.7158 -4.0220 -0.8334
 7637SOL    HW234374   2.475   3.890   4.112  0.7225  0.9109  0.8514
 7638SOL     OW34375   4.437   3.336   1.489  0.4258  0.1917 -0.5993
 7638SOL    HW134376   4.527   3.365   1.505  0.3440 -0.4851  1.1642
 7638SOL    HW234377   4.449   3.247   1.456 -0.4786 -0.0010 -0.4048
 7639SOL     OW34378   1.719   3.974  10.464 -0.4291  0.6792  0.3399
 7639SOL    HW134379   1.744   3.984  10.372  3.5540  1.0264  1.4682
 7639SOL    HW234380   1.775   3.904  10.497 -1.0990 -0.1948 -0.3849
 7640SOL     OW34381   0.337   4.113   5.981 -0.2515  0.6002  0.3384
 7640SOL    HW134382   0.251   4.131   5.943  0.6450  0.7586 -1.5789
 7640SOL    HW234383   0.373   4.036   5.936 -0.3009 -0.8710  2.8072
 7641SOL     OW34384   0.471   1.855  13.873  0.2569 -0.1867  0.2782
 7641SOL    HW134385   0.527   1.929  13.897 -0.3642  0.0111  1.1163
 7641SOL    HW234386   0.527   1.781  13.897  1.2480  0.6613  0.6068
 7642SOL     OW34387   4.318   1.620   5.004  0.4064  0.5241  0.1662
 7642SOL    HW134388   4.237   1.638   4.956  0.1780 -2.1209 -0.4345
 7642SOL    HW234389   4.291   1.540   5.050  1.2038 -0.9798 -1.9827
 7643SOL     OW34390   2.445   2.503   3.964 -0.1509 -0.0095 -0.4862
 7643SOL    HW134391   2.422   2.457   4.045  1.0762 -0.7098 -0.5360
 7643SOL    HW234392   2.377   2.569   3.973 -0.1416  0.0606 -0.8992
 7644SOL     OW34393   1.284   4.621   1.208  0.7684 -0.0109 -0.5345
 7644SOL    HW134394   1.305   4.576   1.289 -2.3697  0.3243  0.4651
 7644SOL    HW234395   1.268   4.706   1.248 -1.3588 -0.5759 -0.2267
 7645SOL     OW34396   2.152   1.091   8.846  0.1369 -0.0390 -0.0621
 7645SOL    HW134397   2.224   1.111   8.786 -0.8470  0.7457 -0.9768
 7645SOL    HW234398   2.094   1.167   8.841  0.9946  0.6915  0.8853
 7646SOL     OW34399   3.726   4.425   2.233 -0.3736 -0.7907 -0.9576
 7646SOL    HW134400   3.761   4.509   2.205 -4.8249  0.3839 -2.9930
 7646SOL    HW234401   3.757   4.369   2.162  0.8740  0.6359 -1.5261
 7647SOL     OW34402   3.467   1.862  14.874 -0.3022 -0.1581  0.1552
 7647SOL    HW134403   3.401   1.846  14.942  2.5559 -0.8483  2.8021
 7647SOL    HW234404   3.527   1.790  14.895  1.8458  1.4627 -0.3763
 7648SOL     OW34405   0.366   2.986   4.879  0.3716  0.7883  0.2732
 7648SOL    HW134406   0.332   2.905   4.840  1.2531  0.6913 -0.2865
 7648SOL    HW234407   0.326   3.055   4.827  1.0116 -0.3922 -1.7658
 7649SOL     OW34408   0.665   2.895   7.318  0.1111 -0.0229  0.6048
 7649SOL    HW134409   0.680   2.811   7.274  0.9706  0.7987 -0.6526
 7649SOL    HW234410   0.601   2.875   7.386  0.1566  1.2220  1.0012
 7650SOL     OW34411   1.789   4.674   6.915 -0.2441  0.2919 -0.1205
 7650SOL    HW134412   1.745   0.032   6.895 -1.4976 -1.0196 -2.9255
 7650SOL    HW234413   1.858   4.709   6.971 -0.4687 -0.6210  0.7136
 7651SOL     OW34414   2.832   1.042   5.954  0.0225 -0.2890  0.3061
 7651SOL    HW134415   2.753   0.992   5.934 -0.7561  1.2519 -0.4988
 7651SOL    HW234416   2.814   1.110   6.019 -1.8369 -3.1255  2.7383
 7652SOL     OW34417   3.981   2.643   2.250 -0.4441  0.1851  0.7675
 7652SOL    HW134418   4.018   2.716   2.201  0.9474 -0.3116  1.0826
 7652SOL    HW234419   3.895   2.646   2.208  0.3112  0.9331 -0.7487
 7653SOL     OW34420   2.620   3.783   5.972 -0.1496  0.2347 -0.3259
 7653SOL    HW134421   2.672   3.859   5.946 -0.5938  0.8366  0.5260
 7653SOL    HW234422   2.570   3.814   6.048  0.1056 -0.8386  0.2779
 7654SOL     OW34423   0.969   2.196   5.648  0.2282 -0.4020  0.3551
 7654SOL    HW134424   1.016   2.115   5.671  2.4322  1.1331  1.2282
 7654SOL    HW234425   0.924   2.182   5.565  0.1131 -3.4092  0.8895
 7655SOL     OW34426   1.538   4.547   4.058 -0.1405 -0.6698  0.1905
 7655SOL    HW134427   1.515   4.462   4.096 -1.7828 -0.1587  0.2980
 7655SOL    HW234428   1.463   4.594   4.094  0.7638  0.5602  0.4735
 7656SOL     OW34429   1.347   3.227   6.097  0.9070 -0.7190 -0.3176
 7656SOL    HW134430   1.392   3.144   6.112  0.8756 -1.1235 -2.4085
 7656SOL    HW234431   1.268   3.208   6.047 -0.9609 -0.6807  2.6745
 7657SOL     OW34432   3.317   1.542  17.278  0.2697  0.1530  0.2323
 7657SOL    HW134433   3.398   1.495  17.298  0.0974  0.2387  1.1437
 7657SOL    HW234434   3.260   1.465  17.284  1.6067 -0.9397 -1.0084
 7658SOL     OW34435   4.443   2.348   7.233  0.2682 -0.2279  0.5285
 7658SOL    HW134436   4.437   2.400   7.313  1.1905 -0.0916  0.5137
 7658SOL    HW234437   4.352   2.321   7.223 -0.0950  1.1492  0.2340
 7659SOL     OW34438   3.404   0.560   4.734  0.2475  0.1693  0.6127
 7659SOL    HW134439   3.317   0.600   4.727  0.6223  0.9987  0.7159
 7659SOL    HW234440   3.449   0.595   4.657 -0.6188  0.8850  0.4235
 7660SOL     OW34441   2.575   0.434   2.309 -0.2483  0.1707 -0.3845
 7660SOL    HW134442   2.569   0.528   2.325  0.7450  0.2969 -0.7495
 7660SOL    HW234443   2.495   0.430   2.256  0.4477  1.0226 -1.4978
 7661SOL     OW34444   2.501   4.474   0.065 -0.1863 -0.0010  0.3176
 7661SOL    HW134445   2.545   4.434   0.140 -0.9020 -0.8041  0.3086
 7661SOL    HW234446   2.564   4.543   0.046 -0.5789  0.3132  0.1377
 7662SOL     OW34447   1.166   4.715   2.419 -0.3535  0.1747  0.3152
 7662SOL    HW134448   1.243   4.670   2.385 -0.6057 -0.5638  0.7271
 7662SOL    HW234449   1.179   4.710   2.514 -0.0558 -1.0410  0.2157
 7663SOL     OW34450   0.121   3.162  13.767  0.0159 -0.0497 -0.0206
 7663SOL    HW134451   0.092   3.071  13.763 -0.3544 -0.0552  3.2878
 7663SOL    HW234452   0.173   3.179  13.688 -1.4139  0.5339 -0.8384
 7664SOL     OW34453   0.495   1.710  10.591  0.0478 -0.4654  0.2350
 7664SOL    HW134454   0.427   1.719  10.525 -0.1154  2.9953  0.8914
 7664SOL    HW234455   0.462   1.649  10.657  3.4672 -1.6043  0.9272
 7665SOL     OW34456   2.255   1.361   4.105 -0.0498  0.0865 -0.5733
 7665SOL    HW134457   2.327   1.363   4.042 -1.5331 -0.0032 -2.2662
 7665SOL    HW234458   2.303   1.330   4.182 -0.2074 -0.6855 -0.7860
 7666SOL     OW34459   4.657   4.586   7.634  0.4563  0.1247 -0.3725
 7666SOL    HW134460   4.638   4.613   7.544  1.2233  1.9265  0.0134
 7666SOL    HW234461   0.026   4.597   7.622  0.8382 -1.9069  0.6363
 7667SOL     OW34462   3.917   0.653   3.961 -0.2717 -0.2874  0.3448
 7667SOL    HW134463   3.849   0.616   4.018  1.0604 -1.8752  0.9031
 7667SOL    HW234464   3.854   0.679   3.894  1.2403  0.4235 -0.7823
 7668SOL     OW34465   3.494   2.367  14.430 -0.3571  0.6795 -0.1808
 7668SOL    HW134466   3.506   2.301  14.362 -1.1320 -0.1715  0.4975
 7668SOL    HW234467   3.570   2.354  14.486 -0.1930  3.4432  0.2561
 7669SOL     OW34468   1.179   0.991   7.898 -0.5838  0.1610 -0.2119
 7669SOL    HW134469   1.160   1.082   7.919 -1.6118  0.0846 -0.8125
 7669SOL    HW234470   1.152   0.988   7.806  2.4309  1.2139 -1.1333
 7670SOL     OW34471   3.053   1.799   5.529  0.3535  0.3578 -0.2562
 7670SOL    HW134472   3.144   1.811   5.502  0.4392  0.2125 -0.0345
 7670SOL    HW234473   3.030   1.748   5.451 -0.6802  0.9360 -0.3335
 7671SOL     OW34474   4.216   0.653   5.854  0.4508 -0.6669  0.2524
 7671SOL    HW134475   4.130   0.691   5.870  0.6056  0.7114 -2.1816
 7671SOL    HW234476   4.220   0.680   5.762  0.3053  2.0240  1.0453
 7672SOL     OW34477   3.809   0.988  10.772  0.1088 -0.4005  0.1214
 7672SOL    HW134478   3.869   0.927  10.730  0.6130  0.1460  0.0473
 7672SOL    HW234479   3.788   0.941  10.853  4.5162  0.0999  1.5441
 7673SOL     OW34480   3.985   1.168   1.304 -0.4838 -0.0845 -0.4893
 7673SOL    HW134481   4.013   1.189   1.215  0.9104  1.0660  0.2159
 7673SOL    HW234482   4.068   1.166   1.352 -0.0644  1.0748 -1.1675
 7674SOL     OW34483   1.271   1.750   9.464  0.0702  0.5947 -0.0523
 7674SOL    HW134484   1.207   1.818   9.448  0.3398  0.5673 -1.2333
 7674SOL    HW234485   1.212   1.676   9.481  1.0206  0.0137  0.7759
 7675SOL     OW34486   3.618   3.961   3.408 -0.2591 -0.8305 -0.0869
 7675SOL    HW134487   3.633   4.053   3.430 -2.2524 -0.1614 -1.5787
 7675SOL    HW234488   3.543   3.935   3.463 -1.1700 -0.0931 -0.9842
 7676SOL     OW34489   2.702   3.710   7.224 -0.0893  0.2704  0.1588
 7676SOL    HW134490   2.689   3.663   7.307  3.5821 -0.9596  0.0505
 7676SOL    HW234491   2.615   3.712   7.186  0.1216 -0.0347 -0.3381
 7677SOL     OW34492   3.151   4.421  10.385 -0.0203 -0.1085  0.4129
 7677SOL    HW134493   3.178   4.505  10.349 -1.0356  0.4877  1.0518
 7677SOL    HW234494   3.149   4.361  10.310 -0.6490 -0.6931  0.8966
 7678SOL     OW34495   1.834   4.518   5.673 -0.5116 -0.4625  0.3404
 7678SOL    HW134496   1.871   4.606   5.659 -1.0345 -0.5151 -1.4400
 7678SOL    HW234497   1.851   4.497   5.764 -0.9118  0.7348  0.6964
 7679SOL     OW34498   0.899   4.418   8.827  0.7333  0.3453 -0.5420
 7679SOL    HW134499   0.942   4.361   8.890  0.8984  0.2336 -0.7548
 7679SOL    HW234500   0.949   4.499   8.826  0.0182  0.7803 -1.4031
 7680SOL     OW34501   4.403   2.416   8.298  0.3219 -0.2645  0.3473
 7680SOL    HW134502   4.340   2.426   8.226  0.9581 -0.9757 -0.3055
 7680SOL    HW234503   4.357   2.362   8.363 -2.9320 -0.5226 -2.1431
 7681SOL     OW34504   2.574   2.188   3.993 -0.2303  0.3315  0.1029
 7681SOL    HW134505   2.650   2.246   3.999  0.8638 -1.1672  0.7564
 7681SOL    HW234506   2.517   2.244   4.046 -0.9632 -0.2758 -0.0362
 7682SOL     OW34507   1.975   0.097  10.608 -0.3835 -0.4531 -0.6859
 7682SOL    HW134508   1.896   0.126  10.653  0.2957 -0.1156  0.2838
 7682SOL    HW234509   1.991   0.014  10.653 -1.1601  0.8468  1.9466
 7683SOL     OW34510   1.620   2.467   8.068  0.1126  0.0983 -0.0220
 7683SOL    HW134511   1.613   2.523   8.145 -0.8440  0.1806 -0.1702
 7683SOL    HW234512   1.713   2.453   8.051 -0.0500  0.6741 -1.3998
 7684SOL     OW34513   4.483   4.023  15.037  0.0368 -0.0542  1.2589
 7684SOL    HW134514   4.395   4.024  14.998  0.7142  0.3478 -0.2323
 7684SOL    HW234515   4.469   3.943  15.089  0.1977 -0.3247  0.8801
 7685SOL     OW34516   2.510   3.533   9.810  0.0632 -0.5936 -0.5035
 7685SOL    HW134517   2.505   3.587   9.889  0.4253  1.4026 -1.8526
 7685SOL    HW234518   2.472   3.592   9.744  2.1843  1.2488 -0.0668
 7686SOL     OW34519   1.271   4.430   1.028  0.4492  0.4303  0.1079
 7686SOL    HW134520   1.307   4.366   1.088 -0.5215 -0.5290 -0.3257
 7686SOL    HW234521   1.277   4.511   1.079  0.7557  0.6305 -0.2489
 7687SOL     OW34522   2.582   3.401   6.936  0.1322 -0.3426 -0.1253
 7687SOL    HW134523   2.594   3.431   7.027  0.3392 -1.8851  0.3518
 7687SOL    HW234524   2.630   3.463   6.881  0.7437 -1.3682 -0.7348
 7688SOL     OW34525   1.325   4.010  10.302  0.4325  0.4108  0.0299
 7688SOL    HW134526   1.366   4.092  10.328  0.8670 -0.2637  1.4420
 7688SOL    HW234527   1.340   3.960  10.382 -1.8034 -2.0081 -1.0460
 7689SOL     OW34528   2.062   0.249   8.351  0.0975 -0.2573 -0.0554
 7689SOL    HW134529   2.080   0.284   8.438  0.9130  0.3982 -0.4964
 7689SOL    HW234530   2.006   0.175   8.377 -0.6393  0.2886 -0.0945
 7690SOL     OW34531   0.375   0.082   9.121 -0.2172  0.0136  1.2152
 7690SOL    HW134532   0.369   0.174   9.147  1.0217  0.4769 -0.1502
 7690SOL    HW234533   0.442   0.050   9.181 -0.3951  0.1878  1.5057
 7691SOL     OW34534   3.118   0.001  15.810  0.0678  0.0935  0.4493
 7691SOL    HW134535   3.058   4.662  15.770 -2.1749  1.7762  1.1108
 7691SOL    HW234536   3.103   0.078  15.754 -0.9909 -0.1355  0.4162
 7692SOL     OW34537   1.964   3.365   0.648  0.9035  0.4593  0.6164
 7692SOL    HW134538   1.972   3.460   0.662 -0.8126  0.8073 -0.7865
 7692SOL    HW234539   1.962   3.317   0.730  0.3131 -0.2279  0.1914
 7693SOL     OW34540   3.828   0.377   3.112 -0.1212  0.0172  0.2997
 7693SOL    HW134541   3.755   0.436   3.132  1.7224  1.4036  2.8264
 7693SOL    HW234542   3.788   0.330   3.039 -1.1940  0.0823  0.8381
 7694SOL     OW34543   4.325   3.086   8.727  0.3447  0.0302  0.5895
 7694SOL    HW134544   4.250   3.089   8.668  0.5561 -2.4665  0.2127
 7694SOL    HW234545   4.296   3.105   8.817 -0.9414  2.3414 -0.3074
 7695SOL     OW34546   4.229   4.293   7.760  0.2778 -0.0560 -0.1888
 7695SOL    HW134547   4.287   4.322   7.830  2.4011  2.2384 -2.8465
 7695SOL    HW234548   4.297   4.288   7.693  0.9976  0.1221  0.5316
 7696SOL     OW34549   0.191   2.968  14.305  0.1234 -0.1732  0.6807
 7696SOL    HW134550   0.228   2.965  14.216 -0.9446  0.5912  0.2131
 7696SOL    HW234551   0.208   3.057  14.334  0.2392 -0.3147  1.0555
 7697SOL     OW34552   4.437   2.743   8.867 -0.8258  0.4627 -0.1650
 7697SOL    HW134553   4.487   2.692   8.931 -1.1267  1.4193  0.8226
 7697SOL    HW234554   4.443   2.833   8.900  1.8087 -0.2056  1.2085
 7698SOL     OW34555   0.130   3.837  11.791  0.0655  0.0783  0.5738
 7698SOL    HW134556   0.217   3.860  11.824  0.1105 -1.0573  1.2770
 7698SOL    HW234557   0.103   3.921  11.756 -1.8184 -0.5760  0.4859
 7699SOL     OW34558   2.196   1.000  15.145 -0.2522  0.2086 -0.2294
 7699SOL    HW134559   2.241   1.080  15.120 -0.3235  0.2496 -0.2247
 7699SOL    HW234560   2.107   1.031  15.157 -0.0565  1.2058 -1.3618
 7700SOL     OW34561   4.357   0.103  10.759 -0.0783 -0.0178 -0.0305
 7700SOL    HW134562   4.401   0.119  10.842 -0.0649  1.5082 -0.3323
 7700SOL    HW234563   4.304   0.181  10.743 -0.6874 -0.8066 -1.9731
 7701SOL     OW34564   4.034   2.785   3.395  0.1355  0.9558 -0.3239
 7701SOL    HW134565   4.013   2.834   3.315 -2.9511  1.5780  0.8552
 7701SOL    HW234566   4.035   2.701   3.349 -2.1770  0.4437  0.5577
 7702SOL     OW34567   2.955   0.548   7.720  0.4229  0.5076  0.0894
 7702SOL    HW134568   2.915   0.572   7.803  1.1891  1.0423  0.2989
 7702SOL    HW234569   2.899   0.599   7.662 -0.2446  0.8052  0.9985
 7703SOL     OW34570   1.731   3.314   9.573  0.0453 -0.3571 -0.0157
 7703SOL    HW134571   1.726   3.376   9.500  0.0011  0.6663  0.8568
 7703SOL    HW234572   1.813   3.266   9.561  0.9464  0.8513  1.2959
 7704SOL     OW34573   3.454   0.934  11.760 -0.5495  0.2115  0.2223
 7704SOL    HW134574   3.374   0.980  11.784 -1.3086 -0.0671 -1.7414
 7704SOL    HW234575   3.458   0.865  11.826 -1.2835 -0.7859 -0.7846
 7705SOL     OW34576   2.662   3.126   6.275 -0.1255 -0.7236 -0.2266
 7705SOL    HW134577   2.576   3.091   6.297  0.2972 -1.5472  0.1131
 7705SOL    HW234578   2.716   3.047   6.278  2.2851  0.9254 -0.4078
 7706SOL     OW34579   0.596   0.374   2.760  0.3640 -0.0258 -0.1480
 7706SOL    HW134580   0.525   0.312   2.739 -0.5133  1.6765 -2.1891
 7706SOL    HW234581   0.670   0.329   2.720 -0.2807  0.2119 -1.6384
 7707SOL     OW34582   0.913   1.645  14.203 -0.3255  0.0494 -0.4812
 7707SOL    HW134583   0.844   1.644  14.137  0.2259  1.4357 -1.0961
 7707SOL    HW234584   0.900   1.559  14.244  2.2822 -1.2484 -2.3607
 7708SOL     OW34585   3.719   3.071   8.611  0.0000  0.4522 -0.4811
 7708SOL    HW134586   3.635   3.036   8.641 -0.2456 -1.1254 -2.9910
 7708SOL    HW234587   3.688   3.116   8.532  0.2379 -0.5459 -1.1482
 7709SOL     OW34588   3.011   0.286   6.855 -0.0483 -0.2870 -0.6522
 7709SOL    HW134589   3.033   0.371   6.817 -1.0446  0.7873  1.1527
 7709SOL    HW234590   3.052   0.297   6.940 -3.8265  0.6465  1.0479
 7710SOL     OW34591   2.964   1.045   3.237 -0.2667 -0.1130 -0.2345
 7710SOL    HW134592   3.023   0.973   3.217 -1.2382 -1.4282  1.6902
 7710SOL    HW234593   2.983   1.108   3.167  2.1834  0.2675  0.7924
 7711SOL     OW34594   3.217   2.480  14.403  0.2754 -0.5607  0.5052
 7711SOL    HW134595   3.202   2.483  14.309  0.9288 -1.4075  0.3685
 7711SOL    HW234596   3.299   2.432  14.413  0.4348 -0.0261  1.6784
 7712SOL     OW34597   1.706   1.624   8.967 -0.0797 -0.1054 -0.2057
 7712SOL    HW134598   1.666   1.704   9.001 -2.9673 -1.2611 -0.8995
 7712SOL    HW234599   1.759   1.666   8.899 -0.0330  0.2398  0.0437
 7713SOL     OW34600   0.704   4.388  11.434 -0.1335 -0.1830 -0.4371
 7713SOL    HW134601   0.779   4.353  11.484  0.0280 -0.6268 -0.9910
 7713SOL    HW234602   0.683   4.312  11.379  0.0229 -1.9672  1.9589
 7714SOL     OW34603   1.964   0.242   0.735  0.3293  0.1600 -0.1352
 7714SOL    HW134604   1.904   0.168   0.735  2.5232 -1.6038 -2.2448
 7714SOL    HW234605   1.908   0.311   0.770  0.9499  0.1859  0.8114
 7715SOL     OW34606   2.685   4.322   0.530  0.2988  0.5112  0.3044
 7715SOL    HW134607   2.699   4.387   0.599  5.0220  1.4216 -1.5195
 7715SOL    HW234608   2.643   4.257   0.586  0.4165  2.1476  2.3171
 7716SOL     OW34609   2.966   0.225  13.634  0.1776 -0.3355 -0.2211
 7716SOL    HW134610   2.874   0.200  13.647 -0.4489  0.1046 -3.8101
 7716SOL    HW234611   3.006   0.192  13.714  0.2357 -0.4648 -0.3037
 7717SOL     OW34612   0.067   1.523   1.461  0.3342 -0.3099  0.5221
 7717SOL    HW134613   0.156   1.554   1.478  1.5555 -3.3810 -0.2828
 7717SOL    HW234614   0.090   1.460   1.393  4.5423 -0.2811  1.9301
 7718SOL     OW34615   1.129   0.793   7.298 -0.0194  0.1993  0.4323
 7718SOL    HW134616   1.221   0.774   7.315  0.6586  0.0072 -3.4182
 7718SOL    HW234617   1.112   0.812   7.390  1.6840  3.1448  0.1246
 7719SOL     OW34618   1.248   1.577  10.681  0.3911 -0.0135  0.8169
 7719SOL    HW134619   1.157   1.586  10.654  0.1370 -0.5633  1.4761
 7719SOL    HW234620   1.271   1.663  10.717  1.8004  0.6503 -1.6869
 7720SOL     OW34621   1.471   1.621  13.239  0.1683 -0.0214  0.2412
 7720SOL    HW134622   1.467   1.714  13.220 -0.3924 -0.0828  0.0812
 7720SOL    HW234623   1.564   1.606  13.259 -0.1497  1.2819  2.7265
 7721SOL     OW34624   1.515   4.720   4.496 -0.2869 -0.0248 -0.3399
 7721SOL    HW134625   1.441   4.676   4.539 -0.1345 -0.6852 -0.7590
 7721SOL    HW234626   1.585   4.710   4.560 -0.7118  0.1556  0.1573
 7722SOL     OW34627   1.269   0.933   5.662  0.0246  0.0295 -0.1188
 7722SOL    HW134628   1.320   0.858   5.630  0.5611 -0.2471  1.3729
 7722SOL    HW234629   1.282   0.988   5.585 -0.5462  0.3533  0.0171
 7723SOL     OW34630   3.992   3.525   2.471 -0.3513  0.7195 -0.1436
 7723SOL    HW134631   3.993   3.584   2.546  0.7691  1.1832 -0.5141
 7723SOL    HW234632   4.080   3.490   2.485 -0.4258  0.2180 -0.9002
 7724SOL     OW34633   0.452   1.946   7.707  0.0023  0.4588 -0.1702
 7724SOL    HW134634   0.503   1.960   7.628  1.0232  1.9537  0.7597
 7724SOL    HW234635   0.412   1.862   7.685 -0.4465  0.6574 -0.1208
 7725SOL     OW34636   1.198   4.593  13.824 -0.2032 -0.2702 -0.2468
 7725SOL    HW134637   1.229   4.535  13.755  2.6420 -0.4654  1.1678
 7725SOL    HW234638   1.245   4.673  13.799 -0.6078 -0.3188 -1.1633
 7726SOL     OW34639   1.329   2.738   7.550 -0.5584 -0.8160 -0.5246
 7726SOL    HW134640   1.370   2.750   7.636  0.7206 -1.0922 -1.0963
 7726SOL    HW234641   1.279   2.657   7.567  1.4360 -1.8287  0.5253
 7727SOL     OW34642   4.449   3.763   6.052 -0.0720 -0.6949 -0.7141
 7727SOL    HW134643   4.452   3.856   6.030 -0.5212 -0.6179 -0.4534
 7727SOL    HW234644   4.518   3.764   6.119 -0.1101  0.0984 -0.6813
 7728SOL     OW34645   1.632   2.697  13.671 -0.1253  0.3906  0.6195
 7728SOL    HW134646   1.545   2.696  13.629 -0.5876 -0.0198  1.5850
 7728SOL    HW234647   1.650   2.604  13.658 -1.1695  0.2526  0.1521
 7729SOL     OW34648   1.649   3.311   9.005 -0.2294  0.4608 -0.0631
 7729SOL    HW134649   1.572   3.309   8.947  0.3101 -2.1121 -0.6945
 7729SOL    HW234650   1.714   3.352   8.947  0.6128 -0.8552 -0.0503
 7730SOL     OW34651   3.019   0.905   3.505 -0.6094 -0.2126  0.3187
 7730SOL    HW134652   3.036   0.846   3.432  1.0568  0.8414 -0.1287
 7730SOL    HW234653   2.941   0.947   3.469  0.0055  0.1673 -0.5474
 7731SOL     OW34654   0.210   1.189   4.340 -0.4007  0.0466  0.0438
 7731SOL    HW134655   0.186   1.230   4.257  0.5014  2.4521  0.9663
 7731SOL    HW234656   0.220   1.261   4.402 -2.2198  0.3876 -0.0756
 7732SOL     OW34657   0.801   0.073   9.471  0.6905 -0.3446  0.6295
 7732SOL    HW134658   0.802   0.167   9.457  0.6403 -0.2933  0.9723
 7732SOL    HW234659   0.815   0.069   9.566 -0.2619 -0.9914  0.7373
 7733SOL     OW34660   4.681   3.621  11.842  0.0831  0.1265 -0.2417
 7733SOL    HW134661   0.019   3.694  11.843 -0.0720  0.2583 -0.1739
 7733SOL    HW234662   4.698   3.586  11.754 -0.8622 -0.1585 -0.3139
 7734SOL     OW34663   2.201   1.395   9.062 -0.0202  0.0821 -0.3086
 7734SOL    HW134664   2.127   1.359   9.111  0.6121  1.9097  1.9777
 7734SOL    HW234665   2.257   1.420   9.136  0.0107 -1.3210  0.1535
 7735SOL     OW34666   0.347   1.949   0.490  0.0651  0.2216 -0.3667
 7735SOL    HW134667   0.344   1.990   0.577  1.8722  0.3302 -0.3540
 7735SOL    HW234668   0.440   1.929   0.494  0.0880  0.3846 -0.0827
 7736SOL     OW34669   3.629   3.840   9.712 -0.1497  0.2412  0.1983
 7736SOL    HW134670   3.538   3.831   9.685 -0.4800  0.9447  1.1138
 7736SOL    HW234671   3.676   3.821   9.630  0.8571 -1.0325  1.0558
 7737SOL     OW34672   1.159   3.428   3.054  0.1525 -0.5807  0.0278
 7737SOL    HW134673   1.221   3.485   3.010  0.0390 -0.7121 -0.3031
 7737SOL    HW234674   1.078   3.470   3.026  0.5877 -0.1946 -0.6559
 7738SOL     OW34675   1.780   0.175   3.559 -0.4651  0.4616 -0.4855
 7738SOL    HW134676   1.801   0.085   3.585  0.9162  1.3558  1.4876
 7738SOL    HW234677   1.690   0.158   3.534 -0.6566 -1.5595  1.4897
 7739SOL     OW34678   4.226   4.018   4.432 -0.4729  0.1264 -0.4028
 7739SOL    HW134679   4.171   3.951   4.473  0.5424  1.0585  2.4578
 7739SOL    HW234680   4.167   4.083   4.394 -0.9276 -0.6619 -1.0452
 7740SOL     OW34681   3.448   2.736   6.048  0.2592  0.4252 -0.4687
 7740SOL    HW134682   3.485   2.735   5.959 -1.2824  1.9368 -1.1188
 7740SOL    HW234683   3.367   2.685   6.046 -0.7983  2.1125 -0.2772
 7741SOL     OW34684   0.070   0.906   5.924  0.8745  0.2371 -0.0766
 7741SOL    HW134685   0.089   0.850   5.848 -0.1929 -0.3604  0.0984
 7741SOL    HW234686   0.150   0.959   5.929  0.8511  0.2016  0.6806
 7742SOL     OW34687   2.498   1.801   9.128  0.4325 -0.0261  0.3331
 7742SOL    HW134688   2.502   1.825   9.035 -0.5996  1.8228  0.7665
 7742SOL    HW234689   2.499   1.706   9.122 -0.5249 -0.1536  2.3414
 7743SOL     OW34690   3.204   4.417  15.057  0.2607 -0.1091  0.2558
 7743SOL    HW134691   3.127   4.389  15.106  1.2187 -0.0119  1.7881
 7743SOL    HW234692   3.152   4.471  14.997 -1.5514 -0.8574  1.1444
 7744SOL     OW34693   3.809   2.614   6.119  0.2433 -0.3393  0.1296
 7744SOL    HW134694   3.841   2.585   6.033 -2.6685  0.3318 -1.1912
 7744SOL    HW234695   3.859   2.572   6.188 -2.0442  1.3819  2.8369
 7745SOL     OW34696   0.048   1.267  13.079 -0.1034 -0.0450 -0.0809
 7745SOL    HW134697   0.130   1.256  13.032 -0.1144  0.0170 -0.1144
 7745SOL    HW234698   0.023   1.175  13.082 -1.2272  0.2603 -0.0987
 7746SOL     OW34699   1.171   2.220   0.217  0.5383 -0.2689  0.1888
 7746SOL    HW134700   1.265   2.210   0.232  0.4718 -1.8490 -0.5217
 7746SOL    HW234701   1.167   2.316   0.226  0.0248 -0.2534 -0.2391
 7747SOL     OW34702   3.638   1.209   7.648  0.2191  0.2301 -0.0829
 7747SOL    HW134703   3.632   1.206   7.743 -3.7339 -1.6110 -0.3708
 7747SOL    HW234704   3.706   1.147   7.624 -0.6059 -1.4004  1.7893
 7748SOL     OW34705   1.444   3.778   9.601 -0.4437  0.2610  0.4617
 7748SOL    HW134706   1.495   3.856   9.624  0.0217 -0.0266  0.4219
 7748SOL    HW234707   1.404   3.771   9.687 -0.1414  0.9749  0.6593
 7749SOL     OW34708   1.146   0.297   3.753  0.2576 -0.8655  0.1096
 7749SOL    HW134709   1.068   0.242   3.762 -0.0510 -0.4179  0.1808
 7749SOL    HW234710   1.185   0.286   3.839 -1.8463 -1.8478  0.9185
 7750SOL     OW34711   2.689   2.353   8.291  0.4126 -0.4155  0.5625
 7750SOL    HW134712   2.699   2.370   8.198 -3.8522 -2.0882 -0.1875
 7750SOL    HW234713   2.638   2.429   8.321  1.0650  0.5043 -0.6529
 7751SOL     OW34714   3.344   1.640   2.724 -0.3363 -0.6188  0.0966
 7751SOL    HW134715   3.270   1.587   2.694  0.0300 -0.0463 -1.8566
 7751SOL    HW234716   3.409   1.581   2.685 -1.0602 -0.1753 -1.7697
 7752SOL     OW34717   3.014   3.748  16.268  0.2070 -0.1198 -0.4187
 7752SOL    HW134718   3.032   3.654  16.273 -1.1706 -0.4247 -1.0874
 7752SOL    HW234719   3.018   3.754  16.173  0.5817 -0.2046 -0.4066
 7753SOL     OW34720   3.881   1.934   2.641 -0.6500 -0.1761  0.1971
 7753SOL    HW134721   3.832   1.918   2.561  2.4516  2.7946 -2.3369
 7753SOL    HW234722   3.970   1.899   2.633  0.0547  1.5906  0.2417
 7754SOL     OW34723   3.376   2.737   8.569 -0.4209 -0.3284 -0.3227
 7754SOL    HW134724   3.314   2.772   8.505  1.7471  0.9525 -1.7271
 7754SOL    HW234725   3.442   2.710   8.506 -0.8241  1.7824 -1.6330
 7755SOL     OW34726   4.614   0.507   6.445 -0.1110  0.3401  0.2656
 7755SOL    HW134727   4.671   0.516   6.368  0.4892 -2.3037  0.4166
 7755SOL    HW234728   4.531   0.541   6.412  0.7845  2.1323 -0.1372
 7756SOL     OW34729   0.324   3.470  16.674  1.1348 -0.1727  0.0450
 7756SOL    HW134730   0.302   3.394  16.728  0.0310 -0.6363 -1.0521
 7756SOL    HW234731   0.328   3.537  16.742 -0.7230  0.6275 -0.6266
 7757SOL     OW34732   1.223   1.573   7.249  0.6177  0.2180  0.1553
 7757SOL    HW134733   1.304   1.584   7.299  1.5937  1.0897 -1.5754
 7757SOL    HW234734   1.233   1.630   7.172  0.5296 -1.0109 -0.7718
 7758SOL     OW34735   0.723   0.341   3.547 -0.0080 -0.1507 -0.0356
 7758SOL    HW134736   0.757   0.252   3.559 -2.0786 -0.8994  0.2875
 7758SOL    HW234737   0.647   0.329   3.604 -0.1915 -3.5029 -0.9633
 7759SOL     OW34738   3.090   2.378  10.039 -0.4376 -0.8374  0.1940
 7759SOL    HW134739   3.065   2.463  10.074  0.1690 -0.1573 -1.0224
 7759SOL    HW234740   3.029   2.367   9.966 -0.7351  0.1758  0.2957
 7760SOL     OW34741   3.041   1.797   2.970  0.6789  0.2251  0.3433
 7760SOL    HW134742   2.972   1.855   2.937 -0.8674 -1.3522  0.7856
 7760SOL    HW234743   2.995   1.766   3.048  0.0783  0.6327  0.1568
 7761SOL     OW34744   3.596   3.908   1.364 -0.3158  0.2304  0.3451
 7761SOL    HW134745   3.639   3.988   1.334 -0.6487  1.2184  2.5293
 7761SOL    HW234746   3.512   3.905   1.318 -0.4129 -0.3000  0.5505
 7762SOL     OW34747   4.567   2.132   7.401 -0.1087  0.0865 -0.2657
 7762SOL    HW134748   4.523   2.209   7.365  1.9667 -0.3448 -3.7132
 7762SOL    HW234749   4.659   2.157   7.409  0.6122 -2.8805  0.6052
 7763SOL     OW34750   4.057   4.262   9.089  0.0197 -0.2399 -0.2845
 7763SOL    HW134751   4.050   4.351   9.054 -2.9069 -1.0023 -1.6454
 7763SOL    HW234752   4.150   4.241   9.087  0.7763  3.0402 -0.9358
 7764SOL     OW34753   2.859   0.153   6.502 -0.0949  0.3751  0.0127
 7764SOL    HW134754   2.812   0.197   6.432 -2.3708  0.2275  1.4292
 7764SOL    HW234755   2.843   0.210   6.577  1.4192  0.5442  0.2122
 7765SOL     OW34756   2.963   2.666  13.201  0.8503 -0.2321  0.0326
 7765SOL    HW134757   3.006   2.714  13.273  0.2688 -0.2458  0.3878
 7765SOL    HW234758   2.888   2.636  13.252  0.2429  0.5751 -0.3858
 7766SOL     OW34759   0.302   0.649  11.281 -0.0178  0.9470 -0.0514
 7766SOL    HW134760   0.281   0.570  11.231 -1.7768  0.4879  1.3924
 7766SOL    HW234761   0.397   0.656  11.285  0.1768 -0.7136 -1.7838
 7767SOL     OW34762   0.557   2.845   5.541 -0.1476  0.5500  0.0700
 7767SOL    HW134763   0.644   2.807   5.556  0.6249  2.4506  0.3600
 7767SOL    HW234764   0.566   2.932   5.579  0.6570  0.1840  0.7019
 7768SOL     OW34765   2.212   3.499  13.285 -0.4645  0.1694 -0.6092
 7768SOL    HW134766   2.270   3.572  13.305  1.2313 -1.5020  0.5258
 7768SOL    HW234767   2.243   3.435  13.349  1.1224  1.2028 -0.3400
 7769SOL     OW34768   2.994   1.021   7.553  0.1566 -0.3064  0.7932
 7769SOL    HW134769   2.911   1.058   7.584 -0.1206  0.1295 -0.4665
 7769SOL    HW234770   2.999   1.082   7.480 -1.5989  0.4920  1.3397
 7770SOL     OW34771   0.800   1.504   5.597  0.0821  0.4409 -0.3763
 7770SOL    HW134772   0.839   1.530   5.680 -0.5731 -2.8336  0.9631
 7770SOL    HW234773   0.741   1.441   5.639 -0.4166  2.3502  1.7712
 7771SOL     OW34774   0.546   0.538   1.579  0.1306 -0.2153 -0.2814
 7771SOL    HW134775   0.595   0.456   1.591  2.6375  1.0175 -2.0671
 7771SOL    HW234776   0.606   0.599   1.622 -0.0738  1.2933 -2.1653
 7772SOL     OW34777   0.288   3.331   4.849 -0.5021  0.2645 -0.5137
 7772SOL    HW134778   0.359   3.393   4.834  0.3403 -0.2767  1.1670
 7772SOL    HW234779   0.276   3.344   4.944  1.4419  1.0330 -0.3746
 7773SOL     OW34780   4.007   4.667   7.746  0.4835  0.3466 -0.2759
 7773SOL    HW134781   4.015   4.574   7.765  1.0912  0.4110 -0.2029
 7773SOL    HW234782   4.085   4.694   7.698 -0.3322  1.6752 -0.8443
 7774SOL     OW34783   2.707   4.377   9.135 -0.4233 -0.1331 -0.0980
 7774SOL    HW134784   2.738   4.462   9.166  0.3502 -0.3793 -0.1932
 7774SOL    HW234785   2.636   4.409   9.080 -0.7026 -1.4245 -0.5000
 7775SOL     OW34786   4.281   2.652   4.122  0.1126 -0.1383 -0.5522
 7775SOL    HW134787   4.321   2.667   4.208 -4.7134 -0.0188  1.6985
 7775SOL    HW234788   4.255   2.561   4.138 -1.4395  0.0816 -1.8606
 7776SOL     OW34789   4.573   2.787   3.702  0.0635 -0.0231  0.5492
 7776SOL    HW134790   4.622   2.867   3.682  0.2169 -0.5775 -1.3224
 7776SOL    HW234791   4.554   2.754   3.614 -1.1184  0.0039  0.8003
 7777SOL     OW34792   0.158   0.704   2.464  0.0824 -0.2482 -0.0083
 7777SOL    HW134793   0.237   0.664   2.499  0.1994 -0.8549 -0.9868
 7777SOL    HW234794   0.126   0.635   2.406  1.7313 -2.6940  2.0132
 7778SOL     OW34795   3.656   2.836   9.939 -0.3679 -0.4348 -0.3144
 7778SOL    HW134796   3.673   2.793  10.023  0.4374  2.7434  1.1590
 7778SOL    HW234797   3.725   2.802   9.883  0.9367  1.2352  0.2811
 7779SOL     OW34798   1.795   4.052   6.410 -0.0585  0.1494  0.0248
 7779SOL    HW134799   1.717   4.020   6.456  0.0467  0.7749  0.6272
 7779SOL    HW234800   1.867   4.003   6.451 -0.2955 -1.2463 -1.2116
 7780SOL     OW34801   0.885   4.614   6.167 -0.2982  0.5527  0.3415
 7780SOL    HW134802   0.969   4.569   6.177 -1.3378 -1.8288 -1.6694
 7780SOL    HW234803   0.870   4.608   6.072  0.5978 -0.1155  0.2406
 7781SOL     OW34804   2.806   3.009  13.888 -0.3399 -0.3467 -0.6449
 7781SOL    HW134805   2.745   2.935  13.879 -0.4056 -0.0221 -2.9636
 7781SOL    HW234806   2.747   3.081  13.866  0.5555  0.6615  0.2868
 7782SOL     OW34807   3.394   3.744  12.655  0.2776 -0.1563 -0.0102
 7782SOL    HW134808   3.342   3.775  12.729 -0.2580  0.2208 -0.5476
 7782SOL    HW234809   3.471   3.706  12.699  0.9037 -0.8466 -1.6987
 7783SOL     OW34810   1.170   3.868   0.495  0.7691  0.2140 -0.2763
 7783SOL    HW134811   1.107   3.796   0.485 -0.3239  1.1613 -0.2201
 7783SOL    HW234812   1.233   3.835   0.431 -0.0482 -3.5610  0.8354
 7784SOL     OW34813   2.587   0.496   6.854  0.4658  0.4860  0.2141
 7784SOL    HW134814   2.598   0.493   6.949  4.0727  2.6096 -0.1321
 7784SOL    HW234815   2.622   0.580   6.826  0.7014 -0.1460 -1.4036
 7785SOL     OW34816   3.459   4.077   4.778  0.2586 -0.3051  0.1378
 7785SOL    HW134817   3.477   3.984   4.765  1.9781 -0.1488  1.4256
 7785SOL    HW234818   3.529   4.130   4.741  0.5736 -0.3902  0.6146
 7786SOL     OW34819   0.149   3.070   8.551 -0.4859  0.1413  0.3416
 7786SOL    HW134820   0.081   3.137   8.542 -2.7766 -1.9504  1.8552
 7786SOL    HW234821   0.099   2.989   8.559 -3.3075  1.8964  0.5145
 7787SOL     OW34822   3.436   4.262   8.518 -0.5046 -0.4005 -0.2973
 7787SOL    HW134823   3.415   4.233   8.430 -1.0851 -1.3808  0.1603
 7787SOL    HW234824   3.531   4.266   8.503 -0.1552 -0.6366  1.7402
 7788SOL     OW34825   1.212   1.842   4.334 -0.0701  0.8910 -0.3128
 7788SOL    HW134826   1.256   1.856   4.418 -3.1583 -0.6743  1.5537
 7788SOL    HW234827   1.213   1.931   4.299  2.6070  0.3833 -1.5650
 7789SOL     OW34828   3.017   2.611  10.157  0.1581  0.3422  0.2650
 7789SOL    HW134829   3.101   2.651  10.134  0.1423 -1.6867 -3.2941
 7789SOL    HW234830   3.014   2.660  10.240  3.3393  1.3188 -0.1919
 7790SOL     OW34831   3.697   3.796   6.756  0.1038  0.1416  0.0460
 7790SOL    HW134832   3.760   3.769   6.824 -1.4969  2.6419  2.5131
 7790SOL    HW234833   3.754   3.853   6.704 -0.2584  1.4659  1.1062
 7791SOL     OW34834   1.722   1.233   3.991  0.2568  0.1050  0.0918
 7791SOL    HW134835   1.696   1.161   4.049 -0.1422  0.6254  0.5627
 7791SOL    HW234836   1.807   1.258   4.026  0.5388 -0.9302  0.1228
 7792SOL     OW34837   1.356   0.569   8.349  0.2958 -0.0094  0.0720
 7792SOL    HW134838   1.419   0.513   8.394  1.4941  0.7928 -0.6177
 7792SOL    HW234839   1.357   0.535   8.260  0.0417 -0.0594  0.0880
 7793SOL     OW34840   3.777   4.164   0.014 -0.3703 -0.1509 -0.1716
 7793SOL    HW134841   3.695   4.114   0.011 -0.1368 -0.5916  0.7019
 7793SOL    HW234842   3.742   4.250  17.690  1.4572  0.1728 -1.5817
 7794SOL     OW34843   2.006   1.477   9.961 -0.6080 -0.3323  0.0299
 7794SOL    HW134844   2.046   1.475   9.874  0.4593 -1.0707  0.5319
 7794SOL    HW234845   1.980   1.387   9.978  0.1678 -0.9632 -2.0847
 7795SOL     OW34846   2.820   1.841   4.258  0.8961 -0.0286  0.0036
 7795SOL    HW134847   2.784   1.855   4.345 -1.5801  0.2897 -1.0902
 7795SOL    HW234848   2.907   1.876   4.277  1.0848 -0.6484  0.2666
 7796SOL     OW34849   0.001   4.092  14.951 -0.2728 -0.2359  0.0725
 7796SOL    HW134850   4.641   4.061  14.983  0.5199 -2.4397  0.0095
 7796SOL    HW234851   0.012   4.163  15.015  0.0981 -0.9218  0.7752
 7797SOL     OW34852   4.601   1.031  13.837 -0.2310  0.2571  0.3915
 7797SOL    HW134853   4.533   0.965  13.848  0.4464 -0.3362  1.0417
 7797SOL    HW234854   4.559   1.083  13.768  1.3516 -0.1227 -0.8893
 7798SOL     OW34855   3.288   2.797   6.399 -0.4193 -0.2608 -0.0872
 7798SOL    HW134856   3.318   2.850   6.325  0.0761  2.3165  1.9728
 7798SOL    HW234857   3.281   2.859   6.471 -1.2882 -0.0898 -0.3186
 7799SOL     OW34858   0.431   2.881  17.343 -0.6261  0.9168  0.1775
 7799SOL    HW134859   0.405   2.846  17.257  0.4240  2.1809 -0.6431
 7799SOL    HW234860   0.342   2.897  17.376 -0.9162 -3.0696  1.4002
 7800SOL     OW34861   3.458   1.268   4.677 -0.7851  0.5760 -0.3771
 7800SOL    HW134862   3.455   1.291   4.584 -2.0118  0.6167 -0.3276
 7800SOL    HW234863   3.376   1.307   4.707 -0.4432 -0.3138  1.7578
 7801SOL     OW34864   3.135   2.894   4.128 -0.7680 -0.2071 -0.1474
 7801SOL    HW134865   3.223   2.932   4.124 -0.8313 -0.0822 -0.3747
 7801SOL    HW234866   3.131   2.854   4.040 -4.1652  2.4726 -1.1823
 7802SOL     OW34867   0.881   3.336   7.975  0.3447  0.8574  0.5195
 7802SOL    HW134868   0.848   3.286   8.050  1.7467  1.9643  1.8475
 7802SOL    HW234869   0.826   3.309   7.901 -0.8391  0.8817  1.3891
 7803SOL     OW34870   1.467   2.429  15.559  0.3583 -0.0923 -0.1668
 7803SOL    HW134871   1.476   2.452  15.467  1.5646  2.4463  0.5772
 7803SOL    HW234872   1.505   2.501  15.609  0.8698  1.1463 -2.3474
 7804SOL     OW34873   0.581   2.289  14.532  0.2444  0.0043  0.4577
 7804SOL    HW134874   0.615   2.260  14.616 -3.1566 -0.5618  1.6219
 7804SOL    HW234875   0.635   2.242  14.468 -0.4583  0.3465 -0.3890
 7805SOL     OW34876   0.397   4.707   4.149  0.7484 -0.1412 -0.1086
 7805SOL    HW134877   0.358   4.632   4.193  0.7201 -0.0109  0.0878
 7805SOL    HW234878   0.378   4.698   4.056 -2.6788 -0.1772  0.5945
 7806SOL     OW34879   0.294   2.132   7.838  0.1054 -0.0821 -0.0083
 7806SOL    HW134880   0.354   2.148   7.910 -1.1976  2.9490  0.4417
 7806SOL    HW234881   0.346   2.079   7.778  0.9623 -0.5219  1.1370
 7807SOL     OW34882   2.137   2.288   8.776 -0.8395 -0.7904  0.4186
 7807SOL    HW134883   2.094   2.321   8.697 -0.1683 -0.6957  0.0857
 7807SOL    HW234884   2.066   2.264   8.835  0.5227 -0.8757  2.0393
 7808SOL     OW34885   2.900   4.653   1.699 -0.6873  0.3779 -0.2848
 7808SOL    HW134886   2.955   4.672   1.774  0.8345  0.1725 -1.3462
 7808SOL    HW234887   2.963   4.622   1.633 -0.1820  0.2769  0.2502
 7809SOL     OW34888   2.546   1.480   0.390 -0.3201 -0.7351 -0.5543
 7809SOL    HW134889   2.481   1.548   0.406 -0.4231 -1.3098  1.4612
 7809SOL    HW234890   2.515   1.414   0.453 -3.0807 -1.8528 -3.0594
 7810SOL     OW34891   3.941   4.716  10.722  0.0312 -0.4796 -0.4214
 7810SOL    HW134892   3.851   0.014  10.699  0.3332  0.6094 -0.5562
 7810SOL    HW234893   3.928   4.663  10.800 -0.9394 -0.5641 -0.6478
 7811SOL     OW34894   1.428   4.303   7.416  0.3075  0.0148  0.5152
 7811SOL    HW134895   1.401   4.380   7.466  0.6816  0.6773 -0.3045
 7811SOL    HW234896   1.346   4.276   7.375 -0.8740  1.6285  1.7800
 7812SOL     OW34897   2.873   0.077  12.343  0.1458  0.0156 -0.1232
 7812SOL    HW134898   2.937   0.114  12.282 -0.1052  0.0876 -0.3422
 7812SOL    HW234899   2.931   0.019  12.393 -2.9000 -0.5986  2.6703
 7813SOL     OW34900   3.234   1.920   4.498 -0.1110 -0.7961 -0.2347
 7813SOL    HW134901   3.324   1.945   4.474  0.3260 -2.7773 -0.6647
 7813SOL    HW234902   3.196   1.884   4.418 -2.2305  0.6390  0.1288
 7814SOL     OW34903   1.855   3.503   3.026 -0.3904 -0.0939 -0.4025
 7814SOL    HW134904   1.833   3.466   2.941 -2.1677 -0.0417  0.0393
 7814SOL    HW234905   1.796   3.579   3.030 -1.1019 -0.7580  1.5884
 7815SOL     OW34906   1.957   0.213   5.965 -0.0534 -0.2709 -0.6991
 7815SOL    HW134907   1.878   0.159   5.964 -0.6413  0.5670  0.5479
 7815SOL    HW234908   2.029   0.150   5.962 -0.8734 -1.3267  2.2231
 7816SOL     OW34909   4.454   3.384   9.209  0.3270 -0.3282 -0.3053
 7816SOL    HW134910   4.494   3.409   9.293 -0.0486  0.0169 -0.2316
 7816SOL    HW234911   4.368   3.425   9.211  1.1936  1.5896 -2.7201
 7817SOL     OW34912   3.477   2.753   3.580 -0.3371 -0.3740 -0.3125
 7817SOL    HW134913   3.457   2.677   3.525 -0.2415 -0.1767 -0.6190
 7817SOL    HW234914   3.572   2.760   3.587 -0.2044 -1.8023 -0.7841
 7818SOL     OW34915   1.127   0.716   6.854  0.3487  0.1774 -0.3289
 7818SOL    HW134916   1.219   0.694   6.837  1.1067  1.6600  1.8691
 7818SOL    HW234917   1.112   0.779   6.783 -1.7802  1.3964  1.1849
 7819SOL     OW34918   2.827   3.441   8.245 -0.6262 -0.0689  0.2725
 7819SOL    HW134919   2.759   3.391   8.199  0.3363 -1.4579  0.3802
 7819SOL    HW234920   2.789   3.458   8.331 -0.2134 -1.2630  0.6912
 7820SOL     OW34921   3.080   3.555   1.964 -0.8153  0.1927 -0.5688
 7820SOL    HW134922   3.025   3.496   1.912 -1.9803 -0.5624  1.5043
 7820SOL    HW234923   3.128   3.600   1.894 -1.2312 -1.0710 -1.6834
 7821SOL     OW34924   0.568   1.909   7.215 -0.3659  0.0556  0.1217
 7821SOL    HW134925   0.563   1.816   7.191 -1.7138  0.1091  0.1722
 7821SOL    HW234926   0.513   1.953   7.150  2.3299  2.0826 -0.7757
 7822SOL     OW34927   3.444   4.370  17.696 -0.0556 -0.3433 -0.2270
 7822SOL    HW134928   3.351   4.377  17.678 -0.1845  1.1556  1.0158
 7822SOL    HW234929   3.439   4.316   0.074  0.9797 -0.6430 -0.3583
 7823SOL     OW34930   4.653   3.849  12.864  0.7293 -0.3079 -0.0329
 7823SOL    HW134931   0.019   3.853  12.896  0.4157  1.1909  0.7005
 7823SOL    HW234932   4.649   3.754  12.864 -2.8854 -0.1600  0.3824
 7824SOL     OW34933   2.016   1.978  11.617  0.2064 -0.2273 -0.1727
 7824SOL    HW134934   2.102   1.936  11.614 -0.1735 -0.7826 -2.9974
 7824SOL    HW234935   1.981   1.938  11.697  2.9224 -0.1333  1.0778
 7825SOL     OW34936   3.220   2.163  15.496 -0.4090 -0.1425  0.3689
 7825SOL    HW134937   3.270   2.091  15.534  0.1158 -0.3008 -0.6176
 7825SOL    HW234938   3.214   2.137  15.404 -0.3777  1.9180 -0.2091
 7826SOL     OW34939   1.304   3.757   3.788  0.0205 -0.0362  0.1832
 7826SOL    HW134940   1.269   3.804   3.713  1.0119 -1.0512 -0.9126
 7826SOL    HW234941   1.285   3.825   3.853 -0.1503 -1.3203  1.4799
 7827SOL     OW34942   3.371   2.533  13.502 -0.4048 -0.0735 -0.0213
 7827SOL    HW134943   3.308   2.480  13.455 -0.2165  0.3862 -0.7940
 7827SOL    HW234944   3.371   2.488  13.586 -2.5007 -0.2976 -0.1543
 7828SOL     OW34945   3.814   0.036   1.149 -0.7082  0.3593 -0.3988
 7828SOL    HW134946   3.834   4.670   1.125 -0.9771  0.8537 -2.4757
 7828SOL    HW234947   3.743   0.024   1.212  0.0964  0.0772  0.4517
 7829SOL     OW34948   2.762   3.253   0.672  0.1396  0.1230 -0.0162
 7829SOL    HW134949   2.746   3.242   0.578  1.8524 -0.0874 -0.2703
 7829SOL    HW234950   2.833   3.317   0.669 -0.2198  0.5749  1.1356
 7830SOL     OW34951   0.274   2.680   4.311  0.2659  0.4677  0.3033
 7830SOL    HW134952   0.271   2.771   4.342 -2.5552  0.1309  0.9514
 7830SOL    HW234953   0.322   2.641   4.384  2.6000 -0.7797 -1.9033
 7831SOL     OW34954   2.029   3.939   0.893  0.1456 -0.1196  0.0762
 7831SOL    HW134955   2.043   3.879   0.820 -0.7271  1.1297 -1.1086
 7831SOL    HW234956   2.082   3.893   0.959 -1.7867 -0.1951  1.5595
 7832SOL     OW34957   0.799   3.337   5.045  0.1706  0.1165  0.5261
 7832SOL    HW134958   0.724   3.397   5.043 -0.1511 -0.3171 -0.7353
 7832SOL    HW234959   0.794   3.309   5.136 -0.2526  2.4507  1.2043
 7833SOL     OW34960   2.851   3.489  13.087  0.2708 -0.6757  0.2720
 7833SOL    HW134961   2.902   3.461  13.163  2.8501  2.2111 -0.3942
 7833SOL    HW234962   2.762   3.479  13.121  0.3271 -0.7819  0.3854
 7834SOL     OW34963   0.019   4.383   9.744 -0.0790  0.6302 -0.2425
 7834SOL    HW134964   0.079   4.324   9.790 -1.8859 -0.4665  0.7091
 7834SOL    HW234965   4.713   4.329   9.671  2.1067  0.9088 -1.3768
 7835SOL     OW34966   3.598   2.024  13.613  0.1090  0.1239 -0.0730
 7835SOL    HW134967   3.541   1.983  13.678  0.6761  0.7827  0.8393
 7835SOL    HW234968   3.669   1.961  13.624  0.5358  0.9110  1.8040
 7836SOL     OW34969   0.702   4.610   3.155 -0.7923 -0.3337  0.3414
 7836SOL    HW134970   0.632   4.675   3.168  1.5455  2.2824 -0.3364
 7836SOL    HW234971   0.651   4.534   3.184 -0.7329 -1.6085 -2.9648
 7837SOL     OW34972   1.945   0.633   4.708 -0.4877  0.3383  0.1694
 7837SOL    HW134973   1.888   0.640   4.785 -0.9579  0.1656 -0.1646
 7837SOL    HW234974   1.974   0.721   4.684  2.1836 -0.0938  1.8648
 7838SOL     OW34975   4.061   2.003   6.231  0.4150 -0.0923  0.1654
 7838SOL    HW134976   4.095   2.005   6.141 -1.2236  1.0715 -0.4308
 7838SOL    HW234977   3.966   2.004   6.218  0.4168 -2.0997  0.0282
 7839SOL     OW34978   2.195   2.002   9.610 -0.0789  0.2171 -0.4169
 7839SOL    HW134979   2.199   1.954   9.527 -1.1464  0.3756 -0.5488
 7839SOL    HW234980   2.167   2.091   9.591  0.7746  0.3870 -0.8673
 7840SOL     OW34981   3.475   2.857   7.649  0.0814 -0.2074 -0.0472
 7840SOL    HW134982   3.562   2.886   7.621 -1.1104  0.9383 -2.6022
 7840SOL    HW234983   3.490   2.808   7.730  0.1264 -1.6886 -0.9510
 7841SOL     OW34984   4.662   2.789  13.858  0.4127  0.3999 -0.4048
 7841SOL    HW134985   4.663   2.845  13.935  0.1061  1.3906 -1.1222
 7841SOL    HW234986   4.701   2.846  13.791  0.4469 -0.2131 -0.9091
 7842SOL     OW34987   2.307   1.209  15.052  0.2028 -0.4941  0.4525
 7842SOL    HW134988   2.382   1.267  15.042  0.2461 -0.8792 -1.4108
 7842SOL    HW234989   2.236   1.272  15.049  0.2211 -0.4546  0.8258
 7843SOL     OW34990   0.003   0.149   7.534 -0.0237  0.2998 -0.1027
 7843SOL    HW134991   0.083   0.098   7.520 -0.9483 -0.8973 -1.0274
 7843SOL    HW234992   4.700   0.174   7.446  0.0695  0.2228 -0.1536
 7844SOL     OW34993   3.854   0.119   7.386  0.3479 -0.5215  0.1333
 7844SOL    HW134994   3.800   0.091   7.312  0.1520  0.6538 -0.1691
 7844SOL    HW234995   3.943   0.094   7.364  1.1471  1.0979  1.4438
 7845SOL     OW34996   0.648   0.654   3.572 -0.0731 -0.5224 -0.2686
 7845SOL    HW134997   0.730   0.668   3.524 -0.5876 -0.9462 -1.2851
 7845SOL    HW234998   0.585   0.716   3.535  0.2049  1.5044  2.6993
 7846SOL     OW34999   1.093   1.865   2.660  0.0626  0.4444 -0.6761
 7846SOL    HW135000   1.065   1.956   2.651  2.4349  1.1766 -0.8657
 7846SOL    HW235001   1.057   1.855   2.748  2.2790 -2.1437 -0.0574
 7847SOL     OW35002   2.723   2.870   5.051  0.0176  0.3410 -0.2864
 7847SOL    HW135003   2.731   2.853   5.145  0.9231  0.7655 -0.2873
 7847SOL    HW235004   2.697   2.790   5.005 -0.6205  0.8522 -0.8064
 7848SOL     OW35005   0.700   1.254   9.701 -0.1174 -0.0633  0.0212
 7848SOL    HW135006   0.672   1.325   9.758  0.7074 -0.7918  1.3392
 7848SOL    HW235007   0.787   1.280   9.671  0.9082 -3.4488 -0.0441
 7849SOL     OW35008   4.269   0.243   6.961  0.3877  0.9338  0.1016
 7849SOL    HW135009   4.241   0.157   6.991  0.7021  1.3535  1.5780
 7849SOL    HW235010   4.357   0.217   6.933 -0.6579  0.5518 -2.8913
 7850SOL     OW35011   1.052   0.929   4.131  0.3322  0.3953  0.2219
 7850SOL    HW135012   1.022   0.879   4.055  0.5885 -0.2544  0.5435
 7850SOL    HW235013   1.067   0.854   4.188 -1.5680  0.1491  0.4057
 7851SOL     OW35014   3.389   0.121   4.778 -0.1141  0.4113 -0.0018
 7851SOL    HW135015   3.403   0.170   4.697 -0.4002 -0.7779 -0.7691
 7851SOL    HW235016   3.463   0.061   4.769 -1.5911 -1.9201  3.2216
 7852SOL     OW35017   0.115   2.116   4.287  0.3924  0.1097  0.2203
 7852SOL    HW135018   0.155   2.201   4.306 -0.5971  0.1755  1.9902
 7852SOL    HW235019   0.166   2.097   4.208 -0.6003 -1.5215 -0.0279
 7853SOL     OW35020   2.236   1.096  11.605  0.1537 -0.6076  0.4025
 7853SOL    HW135021   2.154   1.052  11.629 -1.0523  0.5567 -1.6364
 7853SOL    HW235022   2.198   1.183  11.619 -0.4269 -0.9649  1.0778
 7854SOL     OW35023   2.280   3.620   4.854  0.3096 -0.1484 -0.8012
 7854SOL    HW135024   2.338   3.683   4.812  2.5867 -2.6411 -1.4474
 7854SOL    HW235025   2.199   3.641   4.806  1.2641  0.6289 -2.0673
 7855SOL     OW35026   3.693   3.197  10.990 -0.0078 -0.3985  0.3709
 7855SOL    HW135027   3.625   3.130  11.000 -0.8643  0.2514 -0.9695
 7855SOL    HW235028   3.646   3.272  11.026 -1.4903 -1.4996  0.7063
 7856SOL     OW35029   2.936   0.705   5.725 -0.1965 -0.0877 -0.0712
 7856SOL    HW135030   2.950   0.751   5.808  0.0024  0.9904 -0.7030
 7856SOL    HW235031   2.968   0.777   5.671 -0.8799  0.6182  0.4714
 7857SOL     OW35032   1.300   4.453   9.101 -1.0646  0.0830  0.4670
 7857SOL    HW135033   1.360   4.528   9.108  0.3752 -0.9520 -0.6225
 7857SOL    HW235034   1.215   4.494   9.113 -1.6339 -1.6261  2.1813
 7858SOL     OW35035   3.621   4.334  17.483 -0.1096 -0.2987 -0.1125
 7858SOL    HW135036   3.544   4.321  17.537  0.0624  0.5522  0.3259
 7858SOL    HW235037   3.598   4.396  17.414 -0.7426  0.5742  0.9035
 7859SOL     OW35038   2.061   1.279   7.016  0.1228  0.2525  0.3004
 7859SOL    HW135039   2.052   1.369   7.047  1.5642 -0.4045  2.6293
 7859SOL    HW235040   2.001   1.287   6.942  0.3225 -1.5135 -0.0412
 7860SOL     OW35041   1.482   1.784   9.034  0.1661 -0.3721 -0.0591
 7860SOL    HW135042   1.487   1.748   9.122 -0.7974 -0.7499 -0.1656
 7860SOL    HW235043   1.393   1.815   9.022  0.4706  0.1805 -0.9609
 7861SOL     OW35044   2.839   2.430   2.435  0.0886  0.1439 -0.2054
 7861SOL    HW135045   2.907   2.487   2.471 -1.3731  0.2030  2.4688
 7861SOL    HW235046   2.852   2.443   2.341  1.0825  0.9376  0.0426
 7862SOL     OW35047   3.670   4.682   1.602  0.2047  0.1660  0.3177
 7862SOL    HW135048   3.624   4.599   1.614 -0.0057  0.5181  1.8657
 7862SOL    HW235049   3.627   0.008   1.671 -0.9658  1.7947 -1.5974
 7863SOL     OW35050   3.889   2.281   7.482  0.0081  0.0432  0.5107
 7863SOL    HW135051   3.814   2.246   7.434 -0.7494  0.2620  1.5449
 7863SOL    HW235052   3.935   2.328   7.412 -0.6128  0.7682  0.5894
 7864SOL     OW35053   2.794   1.599   2.895  0.7031  0.8584 -0.5689
 7864SOL    HW135054   2.834   1.604   2.982 -0.8547 -2.1071  0.2791
 7864SOL    HW235055   2.779   1.691   2.871 -1.0678  0.0182 -2.6299
 7865SOL     OW35056   0.995   1.350   7.576 -0.6600  0.6444  0.1432
 7865SOL    HW135057   1.041   1.266   7.576  0.2657  1.1695 -2.5123
 7865SOL    HW235058   1.009   1.378   7.486 -2.0141  0.5889 -0.0766
 7866SOL     OW35059   0.684   0.469  10.618  0.0303  0.1167  0.2658
 7866SOL    HW135060   0.770   0.463  10.577 -0.5414  0.5677 -1.0121
 7866SOL    HW235061   0.639   0.520  10.550  0.9529  0.6848  0.0822
 7867SOL     OW35062   1.240   2.684   1.804  0.6469 -0.1818 -0.2590
 7867SOL    HW135063   1.255   2.674   1.710  0.8032 -0.5272 -0.1970
 7867SOL    HW235064   1.202   2.771   1.816  2.7507  0.9133 -1.4564
 7868SOL     OW35065   2.737   1.751  17.245  0.1241  0.1112  0.4313
 7868SOL    HW135066   2.659   1.800  17.221  0.7874  0.4908 -0.9515
 7868SOL    HW235067   2.788   1.825  17.278  2.2707  0.0145 -2.7152
 7869SOL     OW35068   0.813   0.428   1.715  0.3144  0.2253 -0.3020
 7869SOL    HW135069   0.763   0.509   1.705  3.9525  2.4534 -0.4663
 7869SOL    HW235070   0.871   0.431   1.638 -1.8907 -2.1099 -2.0215
 7870SOL     OW35071   1.359   1.359   7.653  0.0801 -0.4490  0.1520
 7870SOL    HW135072   1.285   1.419   7.647 -0.8597 -1.5594  0.6419
 7870SOL    HW235073   1.318   1.283   7.611  0.9585  0.2320 -1.9084
 7871SOL     OW35074   3.811   3.757   3.189 -0.0927 -0.4028  0.6738
 7871SOL    HW135075   3.873   3.829   3.180  0.2465 -0.3840  3.3442
 7871SOL    HW235076   3.854   3.693   3.133 -0.7701  0.9552 -1.4486
 7872SOL     OW35077   1.178   4.679   8.085  0.0420 -0.1162 -0.1463
 7872SOL    HW135078   1.242   4.609   8.076 -0.4058 -0.9518  3.5150
 7872SOL    HW235079   1.199   0.020   8.018  1.3248  1.5053  1.8679
 7873SOL     OW35080   4.650   3.588   4.510 -0.2162 -0.4103 -0.0838
 7873SOL    HW135081   0.007   3.549   4.540  0.9872  1.9340 -0.3234
 7873SOL    HW235082   4.600   3.522   4.463 -1.2163  0.1961  0.1163
 7874SOL     OW35083   1.186   0.042   2.673  0.1083 -0.3654  0.1495
 7874SOL    HW135084   1.186   0.137   2.656  0.7141  0.0519  2.4810
 7874SOL    HW235085   1.206   0.042   2.766  1.0876  1.4979 -0.0506
 7875SOL     OW35086   3.530   1.672   8.032  0.4984 -0.2425 -0.7772
 7875SOL    HW135087   3.454   1.665   7.974 -1.1964  0.1147  1.3421
 7875SOL    HW235088   3.561   1.582   8.030 -1.5326 -1.0019  1.2650
 7876SOL     OW35089   1.727   3.132   6.902  0.5474 -0.0805 -0.1105
 7876SOL    HW135090   1.688   3.178   6.977 -1.1722 -1.6739 -0.0138
 7876SOL    HW235091   1.659   3.155   6.838 -0.7595 -1.1251  0.8911
 7877SOL     OW35092   3.703   0.331   7.934 -0.1174  0.3485  0.2117
 7877SOL    HW135093   3.791   0.303   7.957 -0.0454  0.6906  0.3516
 7877SOL    HW235094   3.668   0.253   7.890  3.1923 -1.3709  0.6513
 7878SOL     OW35095   2.225   4.369  11.644 -0.8805 -0.6285  0.4794
 7878SOL    HW135096   2.254   4.279  11.658  0.1678 -0.8413 -3.0809
 7878SOL    HW235097   2.153   4.349  11.583  0.1773 -0.8066 -0.6974
 7879SOL     OW35098   3.019   3.912   6.279  0.4851  0.3603  0.4354
 7879SOL    HW135099   2.961   3.989   6.283  1.1613  0.9661 -1.6035
 7879SOL    HW235100   2.966   3.844   6.320 -1.3586  1.8324  0.4867
 7880SOL     OW35101   2.412   1.402   5.592 -0.0807 -0.0908  0.3800
 7880SOL    HW135102   2.322   1.384   5.619  1.0454 -3.2517  2.0250
 7880SOL    HW235103   2.409   1.335   5.524 -0.7261  0.2053  0.1143
 7881SOL     OW35104   0.952   2.445   9.731  0.3069 -0.2725 -0.0409
 7881SOL    HW135105   0.931   2.496   9.809  0.4274 -1.2889  0.6628
 7881SOL    HW235106   1.009   2.374   9.761 -1.1054 -1.4968 -0.2215
 7882SOL     OW35107   2.180   2.830   9.282  0.6334 -0.3995 -0.5651
 7882SOL    HW135108   2.249   2.892   9.305  0.0146 -0.0372  0.2992
 7882SOL    HW235109   2.231   2.753   9.256  2.1954  1.5136 -3.1676
 7883SOL     OW35110   3.146   1.530   6.926 -0.1189 -0.4459 -0.4141
 7883SOL    HW135111   3.204   1.455   6.936  1.1997  0.3463 -2.1537
 7883SOL    HW235112   3.171   1.543   6.835  0.8987 -0.9409 -0.1980
 7884SOL     OW35113   1.217   2.467  10.200 -0.3030  0.4306 -0.3560
 7884SOL    HW135114   1.271   2.439  10.126  0.3409 -0.0756  0.3048
 7884SOL    HW235115   1.219   2.562  10.188 -0.0404  0.8619  3.0567
 7885SOL     OW35116   3.165   3.775   5.367 -0.2695 -0.4133 -0.4355
 7885SOL    HW135117   3.150   3.868   5.355  0.7128 -0.0861  0.9645
 7885SOL    HW235118   3.118   3.732   5.295  3.8712 -0.1295 -3.3095
 7886SOL     OW35119   0.471   2.973   7.020  0.4806  0.4186  0.5232
 7886SOL    HW135120   0.534   3.023   6.968 -0.0743 -0.1708 -0.7051
 7886SOL    HW235121   0.485   3.011   7.107 -0.5733 -0.4409  1.0668
 7887SOL     OW35122   1.015   2.258   7.493 -0.3943 -0.6363  0.1171
 7887SOL    HW135123   0.982   2.346   7.474  0.1959 -0.1129  1.5359
 7887SOL    HW235124   0.973   2.237   7.576 -2.1961 -1.3013 -0.9880
 7888SOL     OW35125   2.484   4.195   3.001 -0.0132 -0.6917 -1.0508
 7888SOL    HW135126   2.571   4.218   2.970  0.1247 -2.2700 -1.8121
 7888SOL    HW235127   2.435   4.235   2.929 -0.8425 -1.6054 -0.9939
 7889SOL     OW35128   3.833   1.257   8.355 -0.0663  0.1987  0.5792
 7889SOL    HW135129   3.886   1.292   8.426  0.7220  0.2318 -0.0363
 7889SOL    HW235130   3.781   1.332   8.328  1.0620  1.5909  2.2931
 7890SOL     OW35131   3.148   1.867   8.075 -0.0798  0.0557 -0.0688
 7890SOL    HW135132   3.217   1.886   8.011  0.2044 -3.5562 -0.8144
 7890SOL    HW235133   3.117   1.953   8.104 -1.3383 -0.1772 -0.7221
 7891SOL     OW35134   0.282   0.837   5.741 -0.4195  0.0243  0.1162
 7891SOL    HW135135   0.321   0.915   5.702 -0.8987  0.2791  0.1551
 7891SOL    HW235136   0.250   0.795   5.661 -2.6128  0.7006  0.6325
 7892SOL     OW35137   0.331   4.026  16.316 -0.2437  0.5238  0.2991
 7892SOL    HW135138   0.351   4.112  16.354 -1.3297  1.7283 -1.8329
 7892SOL    HW235139   0.236   4.037  16.309 -0.1878 -1.1418 -2.9514
 7893SOL     OW35140   0.848   0.800  13.750  0.3043  0.3274  0.1671
 7893SOL    HW135141   0.847   0.840  13.664 -1.4455 -0.0606 -0.0008
 7893SOL    HW235142   0.825   0.710  13.728  0.6830  0.1341  0.5436
 7894SOL     OW35143   3.469   2.702   8.819 -0.2136  0.7212  0.1395
 7894SOL    HW135144   3.437   2.732   8.734 -0.5687  1.1192  0.4051
 7894SOL    HW235145   3.405   2.637   8.848  0.5475 -0.8633 -1.7822
 7895SOL     OW35146   3.023   3.105  12.154 -0.4446 -0.7116  0.0944
 7895SOL    HW135147   3.112   3.105  12.120 -0.8378 -1.2480 -0.9375
 7895SOL    HW235148   2.983   3.055  12.082 -0.4165  0.7427 -0.9341
 7896SOL     OW35149   1.981   4.650   8.688 -0.1107  0.1027 -0.7570
 7896SOL    HW135150   2.061   4.625   8.733  0.7732  0.5947 -2.0416
 7896SOL    HW235151   1.910   4.628   8.747  0.8255 -0.2084  0.2470
 7897SOL     OW35152   0.157   3.766   2.515 -0.0870  0.1431 -0.1448
 7897SOL    HW135153   0.151   3.825   2.590  1.1228  2.8787 -2.2075
 7897SOL    HW235154   0.148   3.835   2.449  3.3094  1.1404  0.4160
 7898SOL     OW35155   0.160   2.839   4.547  0.5972  0.2867  0.1360
 7898SOL    HW135156   0.118   2.890   4.615 -0.8402 -2.0841  1.0110
 7898SOL    HW235157   0.142   2.891   4.469 -1.3684  0.7388  0.9053
 7899SOL     OW35158   3.474   2.572   6.850 -0.1302  0.2422  0.0880
 7899SOL    HW135159   3.476   2.667   6.841 -0.8608  0.1495 -1.0187
 7899SOL    HW235160   3.514   2.551   6.766 -0.4836  1.0630 -0.2793
 7900SOL     OW35161   1.726   3.452   4.783 -0.1692 -0.4207  0.4855
 7900SOL    HW135162   1.792   3.395   4.744 -0.6719 -0.6486 -0.0179
 7900SOL    HW235163   1.737   3.425   4.874 -2.4183 -1.4197  0.4698
 7901SOL     OW35164   3.211   4.196   6.588 -0.5197  0.0210  0.1907
 7901SOL    HW135165   3.193   4.157   6.503  0.2133  2.0852 -0.9106
 7901SOL    HW235166   3.305   4.180   6.591 -0.5667 -0.1353  1.0339
 7902SOL     OW35167   4.076   1.759   5.991  0.3922 -0.4480 -0.1753
 7902SOL    HW135168   4.121   1.720   6.066 -0.6955  0.4664  0.9683
 7902SOL    HW235169   3.989   1.718   5.997 -0.4637  1.6275  1.7396
 7903SOL     OW35170   2.742   2.689   2.995  0.1311  0.4417 -0.2425
 7903SOL    HW135171   2.796   2.754   3.040  1.3681 -1.2940  0.7998
 7903SOL    HW235172   2.651   2.712   3.015 -0.4408 -1.6174 -0.5437
 7904SOL     OW35173   2.016   2.675  12.853  0.8897 -1.1798 -0.6042
 7904SOL    HW135174   2.014   2.590  12.897 -0.9404 -0.8517 -0.0238
 7904SOL    HW235175   1.973   2.671  12.768 -1.4892 -2.0773  0.6512
 7905SOL     OW35176   1.607   1.541   2.916  0.4199 -0.0931 -0.0104
 7905SOL    HW135177   1.607   1.462   2.971  1.0119 -0.1929 -0.1618
 7905SOL    HW235178   1.697   1.541   2.886  0.9857 -1.2620  1.6853
 7906SOL     OW35179   2.853   2.687   9.759 -0.1537  0.6209 -0.3321
 7906SOL    HW135180   2.933   2.637   9.747  1.1984  2.8679 -0.7489
 7906SOL    HW235181   2.828   2.694   9.851 -1.0061  2.7581 -0.7032
 7907SOL     OW35182   1.046   3.852   4.786  0.3839  0.5908  0.2773
 7907SOL    HW135183   1.136   3.831   4.760  0.3197  0.6767 -0.0120
 7907SOL    HW235184   1.062   3.906   4.864  1.5005  1.0672 -0.2795
 7908SOL     OW35185   3.500   0.374  11.684  0.1261  0.0716 -0.0217
 7908SOL    HW135186   3.562   0.366  11.757 -1.7696 -2.2886  1.3092
 7908SOL    HW235187   3.449   0.294  11.691  0.4639 -0.0486  1.1282
 7909SOL     OW35188   0.242   3.029  10.650  0.3664  0.2375 -0.6147
 7909SOL    HW135189   0.251   3.015  10.744 -3.6999 -1.3476 -0.4541
 7909SOL    HW235190   0.332   3.031  10.618  0.1693 -1.2937 -1.2610
 7910SOL     OW35191   1.331   2.696  11.068  0.4478 -0.1241  0.0924
 7910SOL    HW135192   1.364   2.684  10.979 -0.2000  1.7265 -0.4058
 7910SOL    HW235193   1.257   2.753  11.044 -0.9127 -1.4590  1.0775
 7911SOL     OW35194   1.570   2.000   3.641 -0.1654 -0.5362  0.5017
 7911SOL    HW135195   1.619   1.953   3.709  0.3660 -0.8973 -0.1230
 7911SOL    HW235196   1.529   2.064   3.700  1.8227  0.8640  0.3656
 7912SOL     OW35197   4.325   4.279   0.625 -0.0453 -0.2861 -0.0419
 7912SOL    HW135198   4.344   4.205   0.682 -0.1545  0.2098  0.6439
 7912SOL    HW235199   4.230   4.272   0.625 -0.1750  1.4904 -2.3907
 7913SOL     OW35200   1.003   3.651   3.298 -0.5184 -0.2174  0.6728
 7913SOL    HW135201   1.099   3.649   3.296 -0.5163  1.0973 -0.6585
 7913SOL    HW235202   0.997   3.716   3.368  0.9437 -0.5035  1.0696
 7914SOL     OW35203   4.086   4.569   8.511 -0.4553 -0.3110 -0.4243
 7914SOL    HW135204   3.998   4.593   8.480 -0.7549 -1.6817 -0.6423
 7914SOL    HW235205   4.126   4.656   8.516  0.1700 -0.6365  0.1726
 7915SOL     OW35206   2.621   4.461  10.378  0.1556 -0.1073  0.3681
 7915SOL    HW135207   2.621   4.440  10.471  1.5418  0.2869  0.4565
 7915SOL    HW235208   2.711   4.480  10.350  0.4981  0.9661  2.1873
 7916SOL     OW35209   2.799   0.093  17.328 -0.2957  0.0312  0.4986
 7916SOL    HW135210   2.798   0.001  17.302 -0.0525  1.0320 -3.0526
 7916SOL    HW235211   2.876   0.122  17.280 -1.3090 -0.8558 -1.6760
 7917SOL     OW35212   2.781   4.566   3.637  0.4600  0.3744  0.1203
 7917SOL    HW135213   2.693   4.541   3.609 -0.1071  1.4161  0.9908
 7917SOL    HW235214   2.832   4.499   3.590 -1.3254 -1.5599  0.9167
 7918SOL     OW35215   1.463   2.159   6.643 -0.1914  0.2262 -0.3041
 7918SOL    HW135216   1.520   2.105   6.699  1.4807  1.2993 -0.9948
 7918SOL    HW235217   1.405   2.188   6.713 -0.0385  2.5257 -1.1585
 7919SOL     OW35218   2.365   4.617   4.536  0.0498 -0.3965  0.0713
 7919SOL    HW135219   2.355   4.523   4.521 -3.4685  0.2382 -1.6554
 7919SOL    HW235220   2.294   4.636   4.598 -1.2826 -3.0734 -0.6691
 7920SOL     OW35221   4.511   0.370   8.488  0.9104 -0.0551 -0.2129
 7920SOL    HW135222   4.595   0.370   8.442 -0.0151 -0.7566 -1.8969
 7920SOL    HW235223   4.466   0.322   8.419  1.7783 -0.1284 -0.7334
 7921SOL     OW35224   3.604   1.776   6.540  0.1461 -0.3593  0.3410
 7921SOL    HW135225   3.564   1.721   6.472 -3.2848  1.2287  1.0578
 7921SOL    HW235226   3.568   1.740   6.621 -0.7328  0.1870  0.1923
 7922SOL     OW35227   2.989   1.404   4.223  0.2240  0.3059  0.2265
 7922SOL    HW135228   3.040   1.395   4.142  1.1705 -1.7146  1.0566
 7922SOL    HW235229   2.905   1.371   4.189  2.1528 -0.2432 -3.9736
 7923SOL     OW35230   0.515   1.965   6.371 -0.0318  0.2273  0.0974
 7923SOL    HW135231   0.543   1.922   6.291 -0.8571 -0.0663 -0.0353
 7923SOL    HW235232   0.457   1.900   6.411 -1.9569  1.8652 -0.0163
 7924SOL     OW35233   2.846   3.792   0.814 -0.1413 -0.5155  0.0758
 7924SOL    HW135234   2.763   3.775   0.858 -1.4618 -0.4487 -2.4286
 7924SOL    HW235235   2.896   3.713   0.835  2.7476  1.1902 -0.3883
 7925SOL     OW35236   3.337   1.973   7.887  0.2792 -0.1991  0.1307
 7925SOL    HW135237   3.318   1.946   7.798 -2.3976  0.5798  0.4708
 7925SOL    HW235238   3.425   1.935   7.889  0.3645 -0.0290 -0.3155
 7926SOL     OW35239   3.667   4.571  12.910 -0.5106  0.0817 -0.6689
 7926SOL    HW135240   3.674   4.666  12.905  1.3858  0.0349  0.8202
 7926SOL    HW235241   3.638   4.545  12.823 -0.4949 -1.9688 -0.0759
 7927SOL     OW35242   1.816   4.304   6.086 -0.2509 -0.1422 -0.3280
 7927SOL    HW135243   1.749   4.252   6.042  0.5099  0.7424 -2.5624
 7927SOL    HW235244   1.776   4.338   6.166 -1.2718  0.0415 -0.9195
 7928SOL     OW35245   1.807   1.161   8.250  0.0752  0.3241  0.4798
 7928SOL    HW135246   1.742   1.110   8.200  0.2326  0.0658  0.5356
 7928SOL    HW235247   1.819   1.089   8.312  0.3705 -0.9884 -1.0653
 7929SOL     OW35248   0.650   4.230  13.976 -0.2926 -0.2334  0.3644
 7929SOL    HW135249   0.623   4.246  14.066 -0.8938 -1.5159  0.4128
 7929SOL    HW235250   0.718   4.297  13.973 -0.9531  0.3804 -1.0031
 7930SOL     OW35251   4.156   2.156  14.726 -0.3982 -0.4511 -0.1858
 7930SOL    HW135252   4.175   2.063  14.737  2.0144 -0.3392 -3.3524
 7930SOL    HW235253   4.063   2.170  14.740 -0.7757 -1.7368 -1.4142
 7931SOL     OW35254   0.916   4.598   5.426 -0.0878 -0.2786  0.6454
 7931SOL    HW135255   0.923   4.678   5.479  1.0211 -0.8354  1.3485
 7931SOL    HW235256   0.967   4.618   5.348 -1.1816 -1.2255 -0.3095
 7932SOL     OW35257   1.414   2.894   2.602 -0.2420 -0.0939  0.4273
 7932SOL    HW135258   1.329   2.935   2.590 -0.0416  0.4197  0.7614
 7932SOL    HW235259   1.457   2.978   2.618 -0.4841 -0.1018  1.0969
 7933SOL     OW35260   1.526   2.350  10.003 -0.1997  0.2635 -0.8508
 7933SOL    HW135261   1.544   2.264  10.039 -1.8319 -0.3453 -1.4649
 7933SOL    HW235262   1.537   2.339   9.908  0.4634  1.0635 -0.8658
 7934SOL     OW35263   4.653   2.990   1.552  0.0957  0.4296  0.4253
 7934SOL    HW135264   4.591   3.019   1.485 -0.1557 -0.8902  0.0906
 7934SOL    HW235265   4.625   3.051   1.621  3.5741  0.5388  1.7510
 7935SOL     OW35266   4.384   1.902  14.135  0.1661  0.4833 -0.1645
 7935SOL    HW135267   4.346   1.959  14.202  0.1497 -0.3705  0.5449
 7935SOL    HW235268   4.475   1.925  14.154 -0.6527  0.6852  3.4072
 7936SOL     OW35269   0.233   1.186   2.659  0.0448  0.0035 -0.3740
 7936SOL    HW135270   0.168   1.238   2.613  0.3694  1.2713  0.5932
 7936SOL    HW235271   0.298   1.252   2.683  1.4567 -1.4747 -0.0803
 7937SOL     OW35272   0.319   0.482  17.453 -0.1753  0.3475 -0.0115
 7937SOL    HW135273   0.332   0.442  17.539 -0.8582  0.0181 -0.0689
 7937SOL    HW235274   0.225   0.499  17.447 -0.1230  0.0475 -1.4985
 7938SOL     OW35275   2.549   0.839   3.904  0.5104  0.1982  0.6804
 7938SOL    HW135276   2.489   0.877   3.839  0.2581  1.0218  1.3902
 7938SOL    HW235277   2.596   0.917   3.935 -0.1641  0.2439  1.5876
 7939SOL     OW35278   1.111   0.346   3.322 -0.5608 -0.1138 -0.3256
 7939SOL    HW135279   1.201   0.378   3.313  0.3412 -2.8034 -1.0637
 7939SOL    HW235280   1.089   0.396   3.400  3.1855  2.7502 -1.0805
 7940SOL     OW35281   1.933   4.266   6.927  0.2298 -0.3773  0.0688
 7940SOL    HW135282   1.941   4.229   7.015 -0.8920  0.9344  0.7370
 7940SOL    HW235283   1.844   4.302   6.925 -0.3944 -1.8528  1.0463
 7941SOL     OW35284   2.867   3.120   5.408 -0.4251 -0.3674  0.0599
 7941SOL    HW135285   2.943   3.150   5.358  0.4913 -1.7325  0.6158
 7941SOL    HW235286   2.850   3.195   5.465  1.4946  1.2057 -1.4402
 7942SOL     OW35287   2.114   1.368   2.684  0.7837  0.2352 -0.6828
 7942SOL    HW135288   2.053   1.431   2.647  1.0949  1.9546  1.7151
 7942SOL    HW235289   2.159   1.418   2.752  0.0540  0.0476 -0.0534
 7943SOL     OW35290   3.823   1.892  13.544 -0.1433 -0.0170  0.6967
 7943SOL    HW135291   3.876   1.901  13.464 -2.7222  0.0789 -1.0071
 7943SOL    HW235292   3.892   1.849  13.595  0.2330 -1.4697 -1.0207
 7944SOL     OW35293   2.804   2.394   6.555  0.4459  0.1269  0.1753
 7944SOL    HW135294   2.718   2.437   6.555 -0.5063 -1.7794  0.0287
 7944SOL    HW235295   2.839   2.426   6.472 -0.3992  1.3091  0.2611
 7945SOL     OW35296   0.248   4.136  14.563  0.3123  0.5292  0.2779
 7945SOL    HW135297   0.336   4.099  14.558  0.6826  1.6354 -1.2161
 7945SOL    HW235298   0.203   4.066  14.515  3.0537 -0.0961 -1.3573
 7946SOL     OW35299   0.922   1.955   5.823  0.4363  0.3466 -0.0971
 7946SOL    HW135300   0.889   1.913   5.743 -0.0039  0.9558 -0.2297
 7946SOL    HW235301   0.852   2.004   5.864 -0.2256 -0.5452 -0.1651
 7947SOL     OW35302   4.359   2.531   5.864  0.0634  0.2896 -0.3761
 7947SOL    HW135303   4.315   2.611   5.835  1.2118  1.5328  1.3322
 7947SOL    HW235304   4.290   2.495   5.919  2.0133  1.1141  2.5643
 7948SOL     OW35305   1.524   0.440   4.168 -0.2820 -0.1657  0.4811
 7948SOL    HW135306   1.580   0.383   4.221  0.8721  0.4643 -0.0491
 7948SOL    HW235307   1.462   0.481   4.229 -0.7279  1.6010 -1.1428
 7949SOL     OW35308   2.621   4.711   8.013 -0.2828 -0.1563 -0.6246
 7949SOL    HW135309   2.544   4.672   8.053 -0.1150  0.0521 -0.0966
 7949SOL    HW235310   2.650   0.051   8.077  1.3180 -1.7080  0.2423
 7950SOL     OW35311   3.364   2.941   7.114  0.4257 -0.2433  0.0312
 7950SOL    HW135312   3.456   2.966   7.125  0.0158  0.3067  2.1665
 7950SOL    HW235313   3.361   2.864   7.170 -0.3774  1.2282  1.9653
 7951SOL     OW35314   3.784   1.446   3.924  0.2134 -0.0398 -0.4242
 7951SOL    HW135315   3.713   1.384   3.908 -1.7928  2.1734 -0.0066
 7951SOL    HW235316   3.853   1.384   3.948 -1.5245 -2.0077 -0.5054
 7952SOL     OW35317   0.059   1.097  16.544  0.6885 -0.2044  0.0303
 7952SOL    HW135318   0.126   1.138  16.598  1.4043 -0.0768 -0.9512
 7952SOL    HW235319   0.111   1.083  16.465 -0.1442  2.0675 -0.9163
 7953SOL     OW35320   1.073   3.888   1.553  0.1104 -0.9846  0.5498
 7953SOL    HW135321   1.093   3.955   1.487  0.3436 -1.7654 -0.1684
 7953SOL    HW235322   0.980   3.874   1.535  0.1415 -1.4119  0.7247
 7954SOL     OW35323   3.207   0.061   3.738 -0.3229  0.2361  0.1421
 7954SOL    HW135324   3.280   0.042   3.797  2.2428  3.1427 -2.0277
 7954SOL    HW235325   3.164   4.701   3.729 -0.5128  0.3699 -0.2181
 7955SOL     OW35326   2.942   2.077   6.418 -0.5117  0.5819 -0.4205
 7955SOL    HW135327   2.872   2.033   6.370  0.0536  1.1603 -1.7609
 7955SOL    HW235328   2.897   2.153   6.456 -0.0473  0.4936  0.2939
 7956SOL     OW35329   3.063   4.615   5.981  0.4439 -0.5747 -0.4158
 7956SOL    HW135330   3.034   4.555   6.050  0.6534 -1.3890 -1.0345
 7956SOL    HW235331   3.095   4.683   6.040  2.1189 -0.4383 -1.4803
 7957SOL     OW35332   4.404   2.587   9.795 -0.1033  0.1476  0.5301
 7957SOL    HW135333   4.459   2.509   9.800 -1.7324 -1.0884 -0.8720
 7957SOL    HW235334   4.367   2.604   9.882 -2.2563 -4.5160  0.4977
 7958SOL     OW35335   3.092   2.453   8.493  0.0543 -0.0493 -0.1345
 7958SOL    HW135336   3.033   2.378   8.480 -1.1437  0.9448 -0.3914
 7958SOL    HW235337   3.175   2.407   8.480 -0.5029 -0.8249 -0.9431
 7959SOL     OW35338   4.487   3.184   4.393 -0.1377 -0.2868 -0.1212
 7959SOL    HW135339   4.430   3.113   4.424  0.5911 -0.8155  0.0196
 7959SOL    HW235340   4.439   3.266   4.408 -0.0023 -0.4085  1.0188
 7960SOL     OW35341   2.634   3.576  17.503  0.5870 -0.0034  0.4676
 7960SOL    HW135342   2.621   3.492  17.459  0.9256  0.2410 -0.0965
 7960SOL    HW235343   2.542   3.602  17.509  0.4339 -0.3725 -0.2398
 7961SOL     OW35344   2.287   4.720   6.187 -0.8929 -0.4511 -0.1033
 7961SOL    HW135345   2.366   0.015   6.236  0.1092 -1.4928 -1.2980
 7961SOL    HW235346   2.218   0.058   6.210  0.3444  0.6123  0.6951
 7962SOL     OW35347   0.020   2.796  13.403  0.7227 -0.2182 -0.2997
 7962SOL    HW135348   4.696   2.827  13.327  1.2196 -0.3094 -0.6506
 7962SOL    HW235349   0.106   2.772  13.368  0.8889 -0.4666  0.2790
 7963SOL     OW35350   0.791   3.334   3.197  0.3530  0.1400 -0.4447
 7963SOL    HW135351   0.799   3.390   3.274  0.7466  0.8647 -1.0143
 7963SOL    HW235352   0.723   3.380   3.149 -0.4095 -0.0527  0.4604
 7964SOL     OW35353   4.151   2.236   6.689 -0.2340  0.8986 -0.6928
 7964SOL    HW135354   4.163   2.145   6.662 -1.1549  0.1462  1.5320
 7964SOL    HW235355   4.236   2.275   6.666  0.0793 -0.4772 -1.8864
 7965SOL     OW35356   0.615   1.393   3.099 -0.3467 -0.2431 -0.3161
 7965SOL    HW135357   0.682   1.326   3.090  0.6222  0.5727  0.7010
 7965SOL    HW235358   0.631   1.424   3.189  4.6978  0.0667 -1.3173
 7966SOL     OW35359   4.023   1.529   0.659 -0.3761 -0.0197  0.0350
 7966SOL    HW135360   3.979   1.543   0.743  1.6691  1.5243  0.8376
 7966SOL    HW235361   4.109   1.568   0.675 -0.9245  1.0622  0.3321
 7967SOL     OW35362   1.918   1.946   4.030 -0.1485 -0.4418 -0.0858
 7967SOL    HW135363   1.869   2.029   4.023  0.3606 -0.1890 -0.6625
 7967SOL    HW235364   1.996   1.964   3.977  0.1544  0.1155  0.5494
 7968SOL     OW35365   2.586   4.052   0.082  0.6170  0.4357 -0.1716
 7968SOL    HW135366   2.642   4.095   0.146 -0.2961 -0.9832  1.6011
 7968SOL    HW235367   2.558   4.119   0.020 -3.2656 -1.5239 -0.5386
 7969SOL     OW35368   1.894   3.938  11.829 -0.1262 -0.6447 -0.0457
 7969SOL    HW135369   1.836   3.862  11.824 -0.7863 -0.1847  0.6237
 7969SOL    HW235370   1.826   4.003  11.810  0.6166  0.0560 -0.2930
 7970SOL     OW35371   4.283   1.500  17.427  0.5742  0.0455  0.3262
 7970SOL    HW135372   4.274   1.540  17.341 -1.3323 -2.3986 -0.6028
 7970SOL    HW235373   4.238   1.416  17.412 -0.1898  0.7550 -1.2829
 7971SOL     OW35374   2.031   4.585   6.204  0.1753  0.4085 -0.2833
 7971SOL    HW135375   2.040   4.514   6.267  0.7604 -0.4156 -1.3115
 7971SOL    HW235376   2.109   4.638   6.224  1.6368 -1.3152 -1.4211
 7972SOL     OW35377   3.392   2.324  12.477  0.0280  0.2603 -0.3060
 7972SOL    HW135378   3.454   2.352  12.410  0.5719 -1.1784 -0.3992
 7972SOL    HW235379   3.317   2.294  12.426  0.1719 -1.7958  0.7030
 7973SOL     OW35380   0.359   4.528   6.619 -0.1116 -0.0459 -0.0582
 7973SOL    HW135381   0.298   4.539   6.691  0.7705 -0.9655  0.8328
 7973SOL    HW235382   0.309   4.479   6.553 -2.3217  1.4100  0.5597
 7974SOL     OW35383   0.798   1.245   1.454  0.2264 -0.2606  0.0834
 7974SOL    HW135384   0.750   1.170   1.489 -0.1333  0.3635  0.9583
 7974SOL    HW235385   0.749   1.318   1.493 -1.1468  0.7530 -3.5394
 7975SOL     OW35386   1.815   1.434  13.480  0.0337 -0.0307 -0.0318
 7975SOL    HW135387   1.760   1.417  13.404  2.1423  1.1113 -1.8003
 7975SOL    HW235388   1.893   1.460  13.432  0.3131  0.4804  0.7055
 7976SOL     OW35389   0.220   4.126   5.064  0.5816 -0.2525  0.4185
 7976SOL    HW135390   0.136   4.102   5.102 -0.6133 -1.3257 -2.8385
 7976SOL    HW235391   0.277   4.095   5.134 -1.3412 -0.6105  1.8244
 7977SOL     OW35392   2.223   2.306   7.551  0.0090  0.2237  0.3292
 7977SOL    HW135393   2.304   2.357   7.551 -0.0545  0.3276 -3.9460
 7977SOL    HW235394   2.184   2.326   7.636  0.0271 -2.1244  0.8921
 7978SOL     OW35395   4.675   1.245   6.203  0.1102 -0.8673 -0.1640
 7978SOL    HW135396   4.684   1.197   6.285 -0.7673  0.0865  0.4874
 7978SOL    HW235397   4.715   1.329   6.223  0.4150 -1.6268  2.4054
 7979SOL     OW35398   3.313   0.017   3.097 -0.4570 -0.4657 -0.2789
 7979SOL    HW135399   3.229   0.006   3.052  0.5481  0.6500 -2.4366
 7979SOL    HW235400   3.334   4.650   3.114  0.2377 -0.1944  0.3290
 7980SOL     OW35401   1.038   3.551   2.354 -0.2128 -0.8402 -0.0400
 7980SOL    HW135402   1.077   3.516   2.274  0.8661 -0.9099  0.5221
 7980SOL    HW235403   1.047   3.644   2.335 -1.3425 -0.7274 -0.0115
 7981SOL     OW35404   0.450   0.829   5.361  0.2877 -0.4040 -0.0161
 7981SOL    HW135405   0.542   0.803   5.367 -0.4100 -2.2320  2.4528
 7981SOL    HW235406   0.427   0.801   5.272 -0.6459 -3.0671  1.0827
 7982SOL     OW35407   3.373   1.098  15.805  0.6651  0.2500 -0.3295
 7982SOL    HW135408   3.352   1.008  15.779 -0.5135  0.6935 -0.9394
 7982SOL    HW235409   3.284   1.122  15.833  0.6847  1.4755 -1.2731
 7983SOL     OW35410   2.731   2.722   6.964 -0.1270  0.6241 -0.0741
 7983SOL    HW135411   2.724   2.742   6.871 -0.2226 -2.5575 -0.7538
 7983SOL    HW235412   2.766   2.804   6.999  1.5042 -0.5680  1.0747
 7984SOL     OW35413   3.803   3.474  15.557 -0.0149  0.1972 -0.7603
 7984SOL    HW135414   3.897   3.459  15.566 -0.6539 -2.5796  1.5854
 7984SOL    HW235415   3.803   3.568  15.541  0.4966  0.0436 -1.6427
 7985SOL     OW35416   2.133   2.445   4.514  0.1929 -0.5044 -0.0159
 7985SOL    HW135417   2.202   2.491   4.466 -0.6427 -0.8818 -1.5630
 7985SOL    HW235418   2.139   2.363   4.464  1.9500 -0.9241  0.8830
 7986SOL     OW35419   3.687   0.700   4.549 -0.1107  0.3757 -0.2590
 7986SOL    HW135420   3.701   0.622   4.496  0.2540  0.9721 -1.0418
 7986SOL    HW235421   3.749   0.756   4.502 -0.1452  0.8307  0.2462
 7987SOL     OW35422   1.918   2.668  12.605  0.8078 -0.3069  0.1108
 7987SOL    HW135423   1.965   2.667  12.521  1.6638  0.4055  0.5808
 7987SOL    HW235424   1.838   2.620  12.584 -0.4657  1.3458  1.2279
 7988SOL     OW35425   2.872   0.443   2.014  0.3044 -0.2521 -0.0161
 7988SOL    HW135426   2.882   0.491   2.096 -1.5170  0.2513 -0.0713
 7988SOL    HW235427   2.859   0.351   2.037 -3.2961  0.3800  0.5353
 7989SOL     OW35428   0.844   4.371   4.422 -0.3837  0.5806  0.2265
 7989SOL    HW135429   0.899   4.320   4.363 -0.0682  1.6313 -0.3862
 7989SOL    HW235430   0.905   4.442   4.441  0.9671 -0.3996 -0.4833
 7990SOL     OW35431   4.130   2.330   0.329 -0.2394  0.3727  0.3267
 7990SOL    HW135432   4.210   2.316   0.379  1.1703  1.8675 -1.5185
 7990SOL    HW235433   4.112   2.415   0.369  1.5117  1.7328 -1.7873
 7991SOL     OW35434   2.483   2.241   4.567 -0.4977 -0.0969 -0.4064
 7991SOL    HW135435   2.550   2.178   4.593  0.4793  0.9205 -0.4536
 7991SOL    HW235436   2.453   2.197   4.488  1.3751 -1.4305 -0.3863
 7992SOL     OW35437   0.514   2.927   3.420  0.2539 -0.1560 -0.0667
 7992SOL    HW135438   0.449   2.967   3.362  0.0131  0.3034  0.5226
 7992SOL    HW235439   0.587   2.928   3.359  0.6066 -0.5890  0.3497
 7993SOL     OW35440   2.426   3.189   2.729 -0.5806  0.1011 -0.4593
 7993SOL    HW135441   2.445   3.118   2.790  1.5271 -0.2274 -1.5197
 7993SOL    HW235442   2.509   3.232   2.708 -0.3945 -0.0682 -0.0591
 7994SOL     OW35443   2.291   0.832   6.453 -0.3547  0.2913  0.1044
 7994SOL    HW135444   2.313   0.819   6.361 -1.9753 -0.4769 -0.1833
 7994SOL    HW235445   2.200   0.861   6.450  0.2721  2.1119 -1.5613
 7995SOL     OW35446   3.708   3.063   8.947  0.4531 -0.3370 -0.0845
 7995SOL    HW135447   3.670   2.984   8.984 -6.1880  2.4206 -0.9637
 7995SOL    HW235448   3.800   3.036   8.945  0.9652  1.5492 -2.2866
 7996SOL     OW35449   2.550   1.460   2.078 -0.1302  0.1054  0.9042
 7996SOL    HW135450   2.532   1.388   2.139 -1.4606 -2.1550 -2.1577
 7996SOL    HW235451   2.633   1.492   2.113  0.0938  1.3221 -0.7509
 7997SOL     OW35452   2.769   4.388   3.296 -0.0033 -0.3860 -0.1444
 7997SOL    HW135453   2.817   4.358   3.374  1.7704 -0.4582 -1.2591
 7997SOL    HW235454   2.691   4.333   3.294  1.4484 -2.5064  1.5818
 7998SOL     OW35455   3.870   2.448   5.660 -0.9798 -0.1194  0.2353
 7998SOL    HW135456   3.798   2.502   5.627 -0.3397  0.2042 -0.6603
 7998SOL    HW235457   3.832   2.415   5.741  0.7569  1.1572  1.5737
 7999SOL     OW35458   2.018   4.528   1.853  0.3007  0.3558 -0.2624
 7999SOL    HW135459   2.076   4.521   1.778  3.2944  0.8826  1.9870
 7999SOL    HW235460   1.944   4.576   1.814 -1.5256 -0.0192  2.6769
 8000SOL     OW35461   2.819   1.170  15.443 -0.6917 -0.1647  0.1107
 8000SOL    HW135462   2.847   1.082  15.419 -0.3554 -0.4995  1.7798
 8000SOL    HW235463   2.757   1.179  15.371 -0.4972 -1.7315 -0.2400
 8001SOL     OW35464   3.455   3.599   2.204 -0.1987  0.3925 -0.3740
 8001SOL    HW135465   3.456   3.683   2.158 -0.9012  1.0513  0.8156
 8001SOL    HW235466   3.453   3.538   2.130  3.1108  0.4589 -0.5199
 8002SOL     OW35467   2.538   4.061  11.895 -0.1727  0.2181 -0.0352
 8002SOL    HW135468   2.617   4.010  11.881  0.4796  1.1677  0.1476
 8002SOL    HW235469   2.502   4.026  11.976  0.3940 -0.6308 -0.1563
 8003SOL     OW35470   3.498   1.230  16.815  0.4112  0.1111  0.4463
 8003SOL    HW135471   3.588   1.244  16.785  0.8599 -1.3876  1.1095
 8003SOL    HW235472   3.511   1.215  16.909 -1.5633 -0.1858  0.6597
 8004SOL     OW35473   4.037   4.479  12.948 -0.1318  0.7850  0.0424
 8004SOL    HW135474   4.133   4.488  12.947  0.1581 -2.3764 -0.8619
 8004SOL    HW235475   4.026   4.415  12.878  0.4889  1.4914 -0.7153
 8005SOL     OW35476   1.336   2.893   3.209 -0.8079  0.1177  0.0370
 8005SOL    HW135477   1.257   2.844   3.233  0.2329 -1.2843  0.6108
 8005SOL    HW235478   1.386   2.827   3.161  1.8821 -0.5955  3.7667
 8006SOL     OW35479   1.784   3.735   1.023 -0.0193 -0.1820 -0.4233
 8006SOL    HW135480   1.855   3.689   0.978  0.8350 -0.7590  1.5089
 8006SOL    HW235481   1.708   3.730   0.965  1.2430 -3.6332 -1.7584
 8007SOL     OW35482   4.630   3.100  13.541  0.1027  0.1309  0.0050
 8007SOL    HW135483   4.708   3.046  13.553 -1.2754 -2.0181 -0.6973
 8007SOL    HW235484   4.633   3.168  13.607  3.6323 -1.5207  1.5551
 8008SOL     OW35485   2.905   3.984   1.650 -0.1557 -0.0381 -0.7879
 8008SOL    HW135486   2.839   4.022   1.593  0.3401  0.6235 -0.9180
 8008SOL    HW235487   2.980   3.977   1.592 -1.6756  0.2765 -2.7731
 8009SOL     OW35488   0.811   3.838   1.502 -0.0127  0.1067  0.1544
 8009SOL    HW135489   0.794   3.744   1.495  0.6502  0.3541 -5.2765
 8009SOL    HW235490   0.721   3.862   1.478 -0.0794 -0.7149 -0.4105
 8010SOL     OW35491   0.308   0.626  16.654 -0.7751  0.4750  0.4468
 8010SOL    HW135492   0.296   0.657  16.744 -0.4607 -2.2424  1.4138
 8010SOL    HW235493   0.399   0.649  16.635 -0.1353 -2.0042  0.4879
 8011SOL     OW35494   3.090   1.976   7.346  0.6431  1.1728  0.1132
 8011SOL    HW135495   3.144   1.897   7.338 -2.0106 -0.3269 -2.8395
 8011SOL    HW235496   3.157   2.042   7.331 -1.7591  3.0783 -2.1766
 8012SOL     OW35497   3.184   0.211   6.604  0.8807 -0.0519 -0.5707
 8012SOL    HW135498   3.196   0.274   6.532 -1.9598  0.1778 -0.8257
 8012SOL    HW235499   3.178   0.271   6.678 -1.8800  1.2590 -1.8368
 8013SOL     OW35500   2.254   3.015   8.643  0.1508  0.2585 -0.1485
 8013SOL    HW135501   2.337   3.040   8.601 -0.3603 -0.8523 -1.8142
 8013SOL    HW235502   2.263   3.072   8.719 -1.3355  0.0035  0.2178
 8014SOL     OW35503   0.480   0.602  15.524  0.1540 -0.7905  0.2803
 8014SOL    HW135504   0.457   0.686  15.565  0.3297 -0.4671 -0.2775
 8014SOL    HW235505   0.524   0.633  15.445  1.5899 -0.3272  1.2754
 8015SOL     OW35506   1.549   3.379   8.361 -0.3759  0.0812 -0.6155
 8015SOL    HW135507   1.517   3.340   8.280  0.6139  1.2251 -1.5451
 8015SOL    HW235508   1.462   3.394   8.399  0.0013  1.9821 -0.5167
 8016SOL     OW35509   4.085   1.459   4.791  0.0704  0.0843  0.8755
 8016SOL    HW135510   4.012   1.515   4.817 -1.6697 -1.3331 -1.0054
 8016SOL    HW235511   4.142   1.452   4.868 -0.5051  0.0075  1.2946
 8017SOL     OW35512   2.044   2.544   2.652 -0.5321  0.0252 -0.6800
 8017SOL    HW135513   1.957   2.546   2.692 -0.3465 -0.2528 -0.2586
 8017SOL    HW235514   2.018   2.597   2.576 -0.3595 -0.2376 -0.9264
 8018SOL     OW35515   4.291   1.424   6.552 -0.3093 -0.5552 -0.1833
 8018SOL    HW135516   4.268   1.499   6.606  0.6999 -0.7633  0.5386
 8018SOL    HW235517   4.386   1.427   6.537 -0.3057  1.4479  0.1998
 8019SOL     OW35518   1.670   0.179  17.467 -0.0043 -0.0758  0.5093
 8019SOL    HW135519   1.692   0.187  17.375 -0.5473  1.3348  0.4971
 8019SOL    HW235520   1.647   0.267  17.496  0.1134  0.4889 -1.1494
 8020SOL     OW35521   1.422   1.320  16.060  0.0536 -0.3058 -0.2204
 8020SOL    HW135522   1.428   1.280  15.973 -1.3296  0.1018 -0.5157
 8020SOL    HW235523   1.422   1.246  16.121  1.3680 -0.0314  0.1114
 8021SOL     OW35524   3.324   3.609   5.153 -0.6091 -0.7410 -0.1556
 8021SOL    HW135525   3.415   3.629   5.134 -0.7672  1.1792  1.0574
 8021SOL    HW235526   3.331   3.576   5.243  0.8342 -1.1065 -0.4203
 8022SOL     OW35527   3.789   0.434   2.614  0.3420 -0.4744  0.2218
 8022SOL    HW135528   3.860   0.375   2.641 -0.4374 -1.4807  0.0701
 8022SOL    HW235529   3.788   0.418   2.520  0.3195  0.3691  0.0825
 8023SOL     OW35530   0.830   1.262   8.276 -0.0669 -0.0548 -0.0837
 8023SOL    HW135531   0.790   1.176   8.263  0.2914 -0.1010 -0.8426
 8023SOL    HW235532   0.762   1.317   8.314  0.1268 -0.6345  1.1392
 8024SOL     OW35533   2.472   3.119   4.414  0.1742  0.7453 -0.4371
 8024SOL    HW135534   2.558   3.127   4.373  0.3242  0.7077 -0.1335
 8024SOL    HW235535   2.491   3.039   4.463  0.7079  1.5820  0.7236
 8025SOL     OW35536   2.287   4.626  17.610  0.4773  0.5915  0.0317
 8025SOL    HW135537   2.263   4.570  17.536  0.6985  0.5795 -0.0323
 8025SOL    HW235538   2.345   4.572  17.664 -1.2622 -2.5301 -1.2046
 8026SOL     OW35539   3.438   1.708  13.005  0.3279 -0.7830  0.2177
 8026SOL    HW135540   3.392   1.656  13.071  0.4385 -0.6475  0.3987
 8026SOL    HW235541   3.525   1.681  13.035  0.9147 -0.2814 -1.0493
 8027SOL     OW35542   3.840   2.644   9.481  0.4063 -0.2396  0.1976
 8027SOL    HW135543   3.767   2.697   9.449  0.2027 -1.6605 -1.7159
 8027SOL    HW235544   3.870   2.610   9.397  0.4775 -0.0648  0.1539
 8028SOL     OW35545   0.418   0.201   7.906  0.3147  0.4911  0.1562
 8028SOL    HW135546   0.373   0.271   7.953 -1.2974  0.6321 -1.5597
 8028SOL    HW235547   0.403   0.217   7.812 -3.0357  1.6341  0.8735
 8029SOL     OW35548   0.102   1.341   1.803 -0.0362 -0.1672  0.1804
 8029SOL    HW135549   0.161   1.407   1.842 -2.6533  1.2539  1.7063
 8029SOL    HW235550   0.147   1.263   1.835 -1.0305  0.2015  2.4464
 8030SOL     OW35551   0.439   0.778   8.343  0.0232 -0.1529  0.1175
 8030SOL    HW135552   0.458   0.848   8.406 -2.4135  1.1644 -0.6323
 8030SOL    HW235553   0.350   0.759   8.371  0.0485 -0.8389 -0.2679
 8031SOL     OW35554   1.728   2.477   4.425  0.3230  0.1801 -0.3334
 8031SOL    HW135555   1.707   2.479   4.332 -2.3125 -1.2116  0.2411
 8031SOL    HW235556   1.667   2.413   4.460  1.5619 -0.9693 -0.2804
 8032SOL     OW35557   0.925   0.956   9.737 -0.2525 -1.0463  0.2169
 8032SOL    HW135558   0.936   1.015   9.812 -1.0869  0.5956 -0.9670
 8032SOL    HW235559   1.019   0.940   9.722  0.0651  0.1942  0.8494
 8033SOL     OW35560   3.457   1.064   8.026 -0.3123 -0.1863  0.6986
 8033SOL    HW135561   3.379   1.091   8.076 -0.8382  2.0753 -1.3721
 8033SOL    HW235562   3.441   1.100   7.939  0.2473 -1.4457  0.0907
 8034SOL     OW35563   3.844   0.209   5.738 -0.1652  0.2677 -0.1519
 8034SOL    HW135564   3.827   0.280   5.800  0.4416  0.5324 -0.2878
 8034SOL    HW235565   3.901   0.149   5.785 -0.8014  1.4457  2.1500
 8035SOL     OW35566   1.457   0.533   3.633 -0.1502 -0.2686 -0.6136
 8035SOL    HW135567   1.467   0.627   3.618  1.5312 -0.0425  1.8533
 8035SOL    HW235568   1.451   0.523   3.728 -1.7074  0.1498 -0.6540
 8036SOL     OW35569   1.258   0.595   7.680 -0.0967  0.0898 -0.5003
 8036SOL    HW135570   1.209   0.630   7.605 -1.5617 -1.4009 -0.2308
 8036SOL    HW235571   1.193   0.581   7.749 -1.2209 -1.0387 -1.8008
 8037SOL     OW35572   4.529   0.960  14.369  0.5256 -0.3362  0.1946
 8037SOL    HW135573   4.463   1.011  14.416  1.7261 -0.8051  2.3928
 8037SOL    HW235574   4.501   0.956  14.278 -3.3747 -1.6528  1.4022
 8038SOL     OW35575   2.366   4.113   6.483  0.1708 -0.4146  0.4324
 8038SOL    HW135576   2.390   4.179   6.548 -3.3335  0.4057  0.8854
 8038SOL    HW235577   2.333   4.041   6.536  0.2874 -1.1910 -0.5384
 8039SOL     OW35578   4.078   1.544   3.370  0.1293  0.1912  0.4045
 8039SOL    HW135579   4.114   1.516   3.455 -1.6099 -1.7374  0.5078
 8039SOL    HW235580   4.010   1.479   3.352  1.2876 -0.2269 -2.3448
 8040SOL     OW35581   2.258   2.683   3.995  0.4337  0.2069  0.1416
 8040SOL    HW135582   2.224   2.763   3.956 -0.0096 -0.6213 -1.1483
 8040SOL    HW235583   2.253   2.699   4.090 -0.5435 -1.0572  0.3067
 8041SOL     OW35584   1.910   2.627   9.316  0.1183 -0.2666  0.1827
 8041SOL    HW135585   1.819   2.599   9.318 -0.4316  1.4117 -1.7164
 8041SOL    HW235586   1.899   2.717   9.345 -0.5105 -0.2920  0.0014
 8042SOL     OW35587   4.350   1.225   4.906 -0.1623 -0.3597  0.1355
 8042SOL    HW135588   4.305   1.151   4.864  0.4524 -1.4375  1.3628
 8042SOL    HW235589   4.379   1.269   4.826  0.8557 -0.9797  0.1604
 8043SOL     OW35590   3.016   0.289   7.694  0.0241  0.6372  0.4160
 8043SOL    HW135591   3.069   0.289   7.773 -0.3782  1.1680  0.6791
 8043SOL    HW235592   2.992   0.381   7.688 -1.0756  0.3713  0.7838
 8044SOL     OW35593   0.976   1.703  15.420  0.0946 -0.3318 -0.3854
 8044SOL    HW135594   0.907   1.637  15.408  1.1534 -1.7981  1.5902
 8044SOL    HW235595   0.935   1.788  15.406  0.8668 -0.1528 -1.5661
 8045SOL     OW35596   3.035   2.857   2.821  0.6524 -0.0694  0.6432
 8045SOL    HW135597   2.965   2.864   2.885 -0.2886 -2.5023 -0.1266
 8045SOL    HW235598   2.995   2.838   2.736 -0.0794 -0.5357  1.0963
 8046SOL     OW35599   1.201   2.008   8.588  0.2680  0.8777  0.1683
 8046SOL    HW135600   1.204   2.092   8.541  0.1173 -0.9196 -3.0528
 8046SOL    HW235601   1.250   1.953   8.526  0.4770 -1.6139  2.6013
 8047SOL     OW35602   4.210   0.992  11.460 -0.0564  0.0320 -0.1282
 8047SOL    HW135603   4.161   0.910  11.449 -0.8198  0.5917 -0.9599
 8047SOL    HW235604   4.294   0.956  11.433  0.1583  0.6518 -0.2581
 8048SOL     OW35605   2.839   1.330   4.872  0.5885 -0.3043  0.2356
 8048SOL    HW135606   2.886   1.250   4.850  0.3424  0.1054 -1.7721
 8048SOL    HW235607   2.774   1.338   4.802 -1.1710 -0.1968  1.8528
 8049SOL     OW35608   0.814   2.335  15.297  0.3946  0.3061  0.1414
 8049SOL    HW135609   0.805   2.429  15.306  1.4192  0.7190 -3.0648
 8049SOL    HW235610   0.748   2.319  15.230  0.8836  1.3688 -0.5982
 8050SOL     OW35611   0.638   4.033  11.601  0.1595 -0.3289 -0.1785
 8050SOL    HW135612   0.574   4.063  11.666 -1.1120  1.8540 -2.4306
 8050SOL    HW235613   0.695   3.976  11.652  3.1735  0.9141 -2.1642
 8051SOL     OW35614   2.739   3.014   7.891 -0.1636 -0.4935 -0.2021
 8051SOL    HW135615   2.789   3.091   7.918 -0.1831 -0.4582 -0.2666
 8051SOL    HW235616   2.776   2.956   7.957 -1.1245 -0.2292  0.5740
 8052SOL     OW35617   2.252   2.915   3.797 -0.3696 -0.0438 -0.0374
 8052SOL    HW135618   2.242   2.858   3.721 -0.8987  0.1907 -0.1451
 8052SOL    HW235619   2.344   2.934   3.812 -0.2821 -0.3752 -0.1684
 8053SOL     OW35620   4.644   1.815   7.498  0.4654  0.1343  0.2751
 8053SOL    HW135621   4.602   1.890   7.455  0.5955 -0.1248 -0.2922
 8053SOL    HW235622   4.564   1.774   7.530  0.6626 -1.2530 -1.0220
 8054SOL     OW35623   2.734   2.776   4.395  0.2358 -0.4976  0.1375
 8054SOL    HW135624   2.808   2.833   4.416 -1.9937  2.5763 -0.2217
 8054SOL    HW235625   2.737   2.789   4.300 -0.0946 -1.5405 -0.0156
 8055SOL     OW35626   2.876   3.557  12.816 -0.0198  0.5359 -0.2182
 8055SOL    HW135627   2.896   3.549  12.910  3.7747  0.9461 -0.9763
 8055SOL    HW235628   2.957   3.539  12.768 -0.0036  2.1246 -0.7815
 8056SOL     OW35629   2.001   1.133   0.010  0.3803 -0.2824 -0.7522
 8056SOL    HW135630   2.074   1.175   0.055 -0.0106  0.3829 -0.7480
 8056SOL    HW235631   1.939   1.205   0.006  0.7353  0.0453 -0.2975
 8057SOL     OW35632   3.320   0.710   6.636 -0.3573 -0.0645  0.1958
 8057SOL    HW135633   3.359   0.783   6.686 -2.6342  1.0083  0.4058
 8057SOL    HW235634   3.400   0.658   6.628 -0.2718 -0.1400  1.4820
 8058SOL     OW35635   4.365   4.015   9.365 -0.1698  0.0558 -0.1884
 8058SOL    HW135636   4.349   4.107   9.343  0.1209  0.5383  1.5483
 8058SOL    HW235637   4.428   4.034   9.435 -0.4169  0.1713  0.0067
 8059SOL     OW35638   2.140   3.383   0.409  0.1919 -0.1004 -0.0376
 8059SOL    HW135639   2.079   3.368   0.481  0.2086  0.1222  0.0218
 8059SOL    HW235640   2.100   3.464   0.378 -1.7930 -1.5026 -1.1763
 8060SOL     OW35641   4.575   0.702   8.861  0.1109  0.2478  0.8186
 8060SOL    HW135642   4.559   0.613   8.828 -1.3027  1.4176 -1.6192
 8060SOL    HW235643   4.584   0.684   8.955  0.9727 -0.6202  0.5691
 8061SOL     OW35644   2.349   2.446  10.211 -0.4626 -0.0391 -0.1026
 8061SOL    HW135645   2.340   2.488  10.126  2.3437 -2.0283 -1.3888
 8061SOL    HW235646   2.259   2.416  10.228  0.1756 -0.5131  2.4835
 8062SOL     OW35647   3.630   0.339   4.460  0.0234  0.2699 -0.3271
 8062SOL    HW135648   3.679   0.300   4.532 -1.3786 -0.8162  0.0427
 8062SOL    HW235649   3.551   0.287   4.448  0.2654 -0.6649  2.1620
 8063SOL     OW35650   0.643   0.603   2.123 -0.0997 -0.1411  0.2762
 8063SOL    HW135651   0.709   0.535   2.114  1.0094  0.8134  1.1954
 8063SOL    HW235652   0.673   0.672   2.182  0.1347  0.1675 -0.1926
 8064SOL     OW35653   1.735   2.018   5.442  0.5239  0.8197 -0.4383
 8064SOL    HW135654   1.791   2.030   5.519  0.1773  2.6303 -0.4764
 8064SOL    HW235655   1.656   1.973   5.471  1.4066  0.2053  0.9990
 8065SOL     OW35656   1.575   3.568   3.568  0.3931 -0.2339 -0.0837
 8065SOL    HW135657   1.654   3.612   3.539 -1.5861  0.8277 -3.8302
 8065SOL    HW235658   1.594   3.477   3.545 -1.9053 -0.4594 -1.1247
 8066SOL     OW35659   0.344   3.383   6.763 -0.7103 -0.0102  0.3226
 8066SOL    HW135660   0.408   3.391   6.692 -0.2469 -0.6662  0.6672
 8066SOL    HW235661   0.287   3.319   6.721 -0.1191  0.6390 -1.4884
 8067SOL     OW35662   1.098   4.080   8.818 -0.0366  0.2795 -0.1458
 8067SOL    HW135663   1.074   4.035   8.737 -1.3645  0.0546  0.3641
 8067SOL    HW235664   1.084   4.013   8.885  1.3222  1.4057  1.2715
 8068SOL     OW35665   4.003   2.428   7.197 -0.1955 -0.5133 -0.4613
 8068SOL    HW135666   4.013   2.507   7.144  1.3588 -0.7276 -0.4818
 8068SOL    HW235667   3.949   2.373   7.140  1.0108 -1.1727 -0.9591
 8069SOL     OW35668   3.523   4.124  15.168 -0.2041 -0.5511  0.4857
 8069SOL    HW135669   3.576   4.054  15.131  1.3050  0.6042  0.4356
 8069SOL    HW235670   3.438   4.117  15.124 -0.2038 -0.9873  0.5605
 8070SOL     OW35671   3.061   3.920   2.198  0.6063  0.6370 -0.0122
 8070SOL    HW135672   3.074   3.985   2.268  0.3523  1.2606 -0.5395
 8070SOL    HW235673   3.017   3.852   2.249 -1.2895  1.3215 -0.7015
 8071SOL     OW35674   2.940   3.101   4.093 -0.4391  0.0376 -0.2451
 8071SOL    HW135675   2.989   3.032   4.047 -0.2401 -0.5334  0.8235
 8071SOL    HW235676   2.994   3.180   4.096  2.8192 -2.1535 -1.3080
 8072SOL     OW35677   2.270   3.350  17.374 -0.5116  0.4948 -0.5928
 8072SOL    HW135678   2.336   3.317  17.435 -0.4684  1.2400 -0.2369
 8072SOL    HW235679   2.292   3.319  17.286  1.3874  0.2147 -0.0166
 8073SOL     OW35680   0.287   2.535   1.911 -0.1705 -0.2457  0.0987
 8073SOL    HW135681   0.336   2.505   1.988 -2.2809 -3.2151  0.3088
 8073SOL    HW235682   0.346   2.609   1.900 -0.2611  0.0915  1.7771
 8074SOL     OW35683   0.788   3.713  14.548  0.2563 -0.3374  0.0102
 8074SOL    HW135684   0.734   3.775  14.596 -2.0811 -0.8100 -2.0113
 8074SOL    HW235685   0.726   3.640  14.549 -1.4437  1.0876 -1.6861
 8075SOL     OW35686   2.752   0.763   5.307 -0.1987 -0.3980  0.6238
 8075SOL    HW135687   2.826   0.756   5.367  1.4157  1.7360 -1.1188
 8075SOL    HW235688   2.801   0.804   5.235  0.7493 -0.9324  0.9692
 8076SOL     OW35689   2.496   1.155   4.290  0.1841  0.2689  0.2483
 8076SOL    HW135690   2.586   1.151   4.322 -0.1360 -1.3228  0.9796
 8076SOL    HW235691   2.484   1.068   4.251  0.2792  0.2255  0.3161
 8077SOL     OW35692   3.648   2.566   4.760 -0.3779 -0.2213 -0.1010
 8077SOL    HW135693   3.578   2.561   4.694 -0.9251  0.9335  0.3918
 8077SOL    HW235694   3.722   2.593   4.705  0.2472 -0.9945  0.3640
 8078SOL     OW35695   1.307   2.218  13.436 -0.4255  0.5092 -0.0489
 8078SOL    HW135696   1.229   2.207  13.492  0.4895  1.9669  1.4952
 8078SOL    HW235697   1.339   2.290  13.490 -1.2107  0.6180  0.2845
 8079SOL     OW35698   4.635   0.446   5.184 -0.5172  0.5452 -0.4814
 8079SOL    HW135699   4.552   0.429   5.140 -0.4506 -1.5731  0.2479
 8079SOL    HW235700   4.625   0.540   5.202 -1.9625  0.3766 -0.4699
 8080SOL     OW35701   1.084   4.416   3.258  0.6495 -0.2371 -0.4369
 8080SOL    HW135702   1.176   4.409   3.282  1.3367  1.9248 -2.4268
 8080SOL    HW235703   1.086   4.358   3.183 -1.0830 -1.7900  0.7126
 8081SOL     OW35704   3.112   4.366   2.522  0.3390  0.1192  0.1502
 8081SOL    HW135705   3.126   4.423   2.597  1.5824 -1.6446  1.2404
 8081SOL    HW235706   3.018   4.367   2.505  0.6836  2.4707 -1.6858
 8082SOL     OW35707   0.134   4.351  14.703 -0.0131 -0.4832 -0.2529
 8082SOL    HW135708   0.194   4.304  14.645 -0.2396 -1.9328  0.6993
 8082SOL    HW235709   0.179   4.350  14.787  2.4239  1.1593 -1.5330
 8083SOL     OW35710   1.700   0.324   3.201 -0.0001 -0.2223  0.1273
 8083SOL    HW135711   1.645   0.402   3.202  1.8823  1.1109 -0.2046
 8083SOL    HW235712   1.636   0.260   3.171 -2.0774  1.7839  0.2713
 8084SOL     OW35713   2.959   3.280   7.215  0.3646 -0.0484 -0.1388
 8084SOL    HW135714   3.020   3.292   7.287  2.3932 -1.7400 -1.5937
 8084SOL    HW235715   3.017   3.307   7.144 -1.9588 -1.2671 -2.5186
 8085SOL     OW35716   1.571   3.648   3.193 -0.3183 -0.3355 -0.1609
 8085SOL    HW135717   1.652   3.681   3.232 -1.3506 -0.2001  1.8461
 8085SOL    HW235718   1.592   3.683   3.106  0.6644 -1.3954 -0.3512
 8086SOL     OW35719   0.105   4.566   0.386  0.0727 -0.5419  0.3450
 8086SOL    HW135720   0.022   4.522   0.369  1.4564 -3.7488  1.8438
 8086SOL    HW235721   0.076   4.657   0.381  1.3860 -0.1625 -0.3363
 8087SOL     OW35722   2.675   2.240   1.756 -0.4705  0.0566 -0.4154
 8087SOL    HW135723   2.761   2.224   1.795 -0.9739  1.0402  1.1011
 8087SOL    HW235724   2.686   2.299   1.682 -1.9774  0.7524 -0.0828
 8088SOL     OW35725   1.325   4.159   8.540  0.6333  0.3441  0.4643
 8088SOL    HW135726   1.394   4.107   8.583  1.5510 -0.2193 -1.6643
 8088SOL    HW235727   1.364   4.225   8.483 -0.8632  0.0238 -0.9434
 8089SOL     OW35728   3.533   1.088   8.553 -0.2122 -0.2643  0.1428
 8089SOL    HW135729   3.481   1.049   8.483  1.0806  0.9241 -1.4493
 8089SOL    HW235730   3.573   1.010   8.592  1.4233  1.7148  2.4610
 8090SOL     OW35731   4.158   0.738   4.026 -0.0728  0.1202 -0.6279
 8090SOL    HW135732   4.070   0.705   4.007  0.2812 -2.1934  1.8865
 8090SOL    HW235733   4.189   0.776   3.944  0.0483 -2.7785 -1.9189
 8091SOL     OW35734   3.529   3.448   5.870 -0.2201 -0.5583 -0.3142
 8091SOL    HW135735   3.491   3.391   5.937 -0.2170  0.5659  0.6336
 8091SOL    HW235736   3.608   3.398   5.847  0.0335 -1.0561  1.6213
 8092SOL     OW35737   0.755   0.516  11.829 -0.5934  0.5106 -0.2404
 8092SOL    HW135738   0.835   0.472  11.856 -1.1591  0.2321  0.9844
 8092SOL    HW235739   0.748   0.505  11.734  1.2867 -0.0658 -0.3100
 8093SOL     OW35740   3.113   2.967   2.259 -0.0930  0.2562 -0.0979
 8093SOL    HW135741   3.200   2.999   2.282  0.2330 -0.0660 -0.9016
 8093SOL    HW235742   3.075   3.021   2.189  1.6191 -0.4192 -1.5281
 8094SOL     OW35743   1.767   3.671  17.580  0.0428  0.3413 -0.0710
 8094SOL    HW135744   1.736   3.582  17.598  0.6625  0.2067  0.3263
 8094SOL    HW235745   1.736   3.719  17.657 -1.1668  0.4517 -0.6322
 8095SOL     OW35746   1.517   3.646   6.332  0.2834  0.5380 -0.4172
 8095SOL    HW135747   1.606   3.612   6.331 -0.2620 -0.9223  0.5743
 8095SOL    HW235748   1.458   3.572   6.316 -0.0021  0.7475 -0.3305
 8096SOL     OW35749   4.068   2.502   2.619  0.1937  0.3746  0.3063
 8096SOL    HW135750   4.134   2.485   2.685  0.1089  1.3199  0.6338
 8096SOL    HW235751   4.024   2.578   2.658  0.2544  0.1835  0.7455
 8097SOL     OW35752   2.464   2.113   6.419 -0.1349  0.1344 -0.3609
 8097SOL    HW135753   2.539   2.121   6.478 -1.5118  0.4896  1.3528
 8097SOL    HW235754   2.446   2.020   6.432 -0.4149  0.6014  2.6360
 8098SOL     OW35755   0.399   4.710   5.880  0.7561  0.7943 -0.0237
 8098SOL    HW135756   0.439   0.065   5.914 -1.2100  1.5039  0.6537
 8098SOL    HW235757   0.310   4.709   5.917  0.9374 -2.4930  0.4005
 8099SOL     OW35758   4.467   1.105   8.460 -0.5171 -1.0036 -0.0827
 8099SOL    HW135759   4.502   1.135   8.376  0.9287  0.5301  1.0506
 8099SOL    HW235760   4.393   1.164   8.474  0.7849  1.0169 -1.7580
 8100SOL     OW35761   3.409   0.918   0.326 -0.1466  0.4628  0.1946
 8100SOL    HW135762   3.355   0.936   0.249 -3.5885 -1.1309  2.2346
 8100SOL    HW235763   3.480   0.866   0.288 -1.3176 -1.9511  1.2473
 8101SOL     OW35764   1.128   4.406   2.390 -0.5625  0.4011  0.8465
 8101SOL    HW135765   1.202   4.467   2.391 -0.5191  0.3503  0.3732
 8101SOL    HW235766   1.137   4.366   2.477  2.7571 -2.2116 -0.7205
 8102SOL     OW35767   1.244   0.035   3.882  0.4051 -0.2893 -0.6769
 8102SOL    HW135768   1.153   0.064   3.884 -0.7786 -3.8398 -1.7779
 8102SOL    HW235769   1.281   0.099   3.942 -0.0919  0.2715 -0.9673
 8103SOL     OW35770   1.709   4.326   6.348 -0.1144  0.1578 -0.7418
 8103SOL    HW135771   1.775   4.372   6.400 -0.3979 -1.5829  1.1702
 8103SOL    HW235772   1.734   4.234   6.359 -1.7108 -0.2418 -0.5059
 8104SOL     OW35773   4.396   0.353   5.600  0.1715 -0.0954  0.2744
 8104SOL    HW135774   4.358   0.352   5.688 -3.6661 -1.1460 -1.3639
 8104SOL    HW235775   4.327   0.398   5.551 -0.8729  0.3718  2.1469
 8105SOL     OW35776   3.895   3.240  15.221  0.1885  1.4483 -0.0204
 8105SOL    HW135777   3.837   3.286  15.159  1.2391  0.6929 -1.5813
 8105SOL    HW235778   3.853   3.155  15.230  0.9814  1.1237  0.5233
 8106SOL     OW35779   2.578   4.292  17.574  0.7897 -0.3898  0.6121
 8106SOL    HW135780   2.536   4.368  17.615  1.2083 -0.4291  1.1109
 8106SOL    HW235781   2.672   4.306  17.580  0.7161  1.7774 -2.9846
 8107SOL     OW35782   0.093   2.963   4.320  0.0786  0.1016  0.4290
 8107SOL    HW135783   0.145   3.043   4.322 -0.0270  0.1865 -0.1524
 8107SOL    HW235784   0.016   2.994   4.271  2.5020  1.0301 -2.8094
 8108SOL     OW35785   2.499   3.543   2.584 -0.5317  0.3807 -0.2857
 8108SOL    HW135786   2.436   3.564   2.515 -1.2082  1.1580  0.5741
 8108SOL    HW235787   2.578   3.533   2.531  0.3222  3.5546  0.4257
 8109SOL     OW35788   4.245   3.522   6.304  0.2799 -0.3493  0.1846
 8109SOL    HW135789   4.310   3.552   6.241 -0.0163 -1.4006 -0.6273
 8109SOL    HW235790   4.160   3.547   6.269 -0.1359 -0.1447  1.3501
 8110SOL     OW35791   2.027   0.221   2.964 -0.5681 -0.1614 -0.4829
 8110SOL    HW135792   2.119   0.248   2.968 -0.8016  0.5995  0.0391
 8110SOL    HW235793   2.039   0.147   2.905  1.7207 -1.4470  1.5670
 8111SOL     OW35794   1.347   0.552   6.856 -0.2460  0.2294 -0.3318
 8111SOL    HW135795   1.371   0.532   6.766 -0.1451 -0.2562 -0.1978
 8111SOL    HW235796   1.290   0.480   6.884 -0.2179  1.8038  3.9064
 8112SOL     OW35797   0.518   3.716   5.359  0.4182  0.5193 -0.5343
 8112SOL    HW135798   0.509   3.669   5.443  0.2710  0.7341 -0.4306
 8112SOL    HW235799   0.425   3.728   5.337 -0.6433 -2.8172  2.0670
 8113SOL     OW35800   2.880   1.387   3.288 -0.3880  0.4011 -0.3526
 8113SOL    HW135801   2.800   1.415   3.333 -1.4494 -1.1723 -1.2237
 8113SOL    HW235802   2.854   1.294   3.292 -1.0350  0.6049  0.2642
 8114SOL     OW35803   1.047   0.203   5.802 -0.1634  0.5277 -0.4659
 8114SOL    HW135804   1.014   0.118   5.774 -0.9704  1.1976 -1.5495
 8114SOL    HW235805   1.142   0.191   5.788  0.1966  0.1889  2.3197
 8115SOL     OW35806   3.316   2.121   7.309 -0.5920 -0.4264  0.0341
 8115SOL    HW135807   3.344   2.176   7.235 -1.8483 -0.7151 -0.6606
 8115SOL    HW235808   3.386   2.056   7.304  1.7497  2.0969 -0.1354
 8116SOL     OW35809   0.361   0.549  17.197 -0.3235 -1.1320  0.0356
 8116SOL    HW135810   0.369   0.528  17.290  1.3051  1.0135  0.3661
 8116SOL    HW235811   0.379   0.465  17.153  5.1039  0.3422 -0.5537
 8117SOL     OW35812   2.654   1.673   9.819 -0.6035 -0.3875 -0.2406
 8117SOL    HW135813   2.678   1.620   9.895  2.1366 -0.4452 -1.1296
 8117SOL    HW235814   2.563   1.644   9.810 -0.9908  0.2952  1.4813
 8118SOL     OW35815   3.880   2.254  14.747  0.3871 -0.1623  0.0826
 8118SOL    HW135816   3.817   2.213  14.807 -0.4871  1.6151  0.3858
 8118SOL    HW235817   3.878   2.334  14.799 -1.4584  0.1400 -0.4769
 8119SOL     OW35818   1.519   0.629   4.551 -0.1303  0.0858 -0.5249
 8119SOL    HW135819   1.442   0.657   4.501 -0.4541 -1.0622 -0.6722
 8119SOL    HW235820   1.505   0.677   4.632  1.1387 -0.1574 -0.1643
 8120SOL     OW35821   1.375   1.003   1.763  0.3313  0.1038  0.6389
 8120SOL    HW135822   1.439   1.033   1.828  0.0663  1.6274  0.1919
 8120SOL    HW235823   1.393   0.910   1.750  2.2723  0.6836 -0.7901
 8121SOL     OW35824   0.496   2.960   9.210  0.3529 -0.4493 -0.1489
 8121SOL    HW135825   0.465   2.915   9.132 -0.7585  1.7084 -0.9412
 8121SOL    HW235826   0.436   2.915   9.270  0.2551 -0.5049 -0.2890
 8122SOL     OW35827   2.169   1.750   4.139  0.0341 -0.4784 -0.0039
 8122SOL    HW135828   2.179   1.690   4.065  0.5391 -0.6311  0.1842
 8122SOL    HW235829   2.134   1.697   4.211  0.8284 -1.3982 -0.2939
 8123SOL     OW35830   0.031   4.061   3.225 -0.3289  0.0583  0.1442
 8123SOL    HW135831   0.044   3.969   3.202 -1.2391  0.4671 -2.0010
 8123SOL    HW235832   0.031   4.093   3.135  0.9417  0.5546  0.3287
 8124SOL     OW35833   3.059   3.254   2.395  0.4710 -0.9062  0.2304
 8124SOL    HW135834   3.151   3.271   2.417  0.8168 -2.5754  0.0374
 8124SOL    HW235835   3.069   3.218   2.307  0.6745 -1.2359  0.3893
 8125SOL     OW35836   4.138   2.413   2.902 -0.4932  0.6341 -0.2134
 8125SOL    HW135837   4.130   2.321   2.930  0.5743  1.5513  3.2231
 8125SOL    HW235838   4.048   2.434   2.878 -0.8629 -1.9605 -1.0411
 8126SOL     OW35839   3.791   4.065   1.867 -0.7632  0.4548  0.1308
 8126SOL    HW135840   3.825   3.976   1.877 -0.1243  0.6558 -0.2671
 8126SOL    HW235841   3.733   4.063   1.791  1.4983 -2.0510 -1.5409
 8127SOL     OW35842   2.338   4.001   6.753  0.2665  0.0147 -0.0256
 8127SOL    HW135843   2.345   4.073   6.816  2.3948  0.3692 -0.6871
 8127SOL    HW235844   2.255   3.964   6.783 -0.5630  1.2159 -0.8294
 8128SOL     OW35845   0.987   1.300   9.985  0.0861  0.2638  0.0123
 8128SOL    HW135846   1.014   1.293   9.893 -1.0296  0.5310 -0.3355
 8128SOL    HW235847   0.918   1.233   9.989  2.0656 -1.7887  0.1458
 8129SOL     OW35848   4.602   2.716   7.230  0.2377  0.0965  0.0396
 8129SOL    HW135849   4.601   2.691   7.322  3.1691  1.1707  0.3623
 8129SOL    HW235850   4.523   2.770   7.223  1.3595  1.5869 -1.1494
 8130SOL     OW35851   2.805   2.172   4.312 -0.2954  0.2811  0.2846
 8130SOL    HW135852   2.796   2.094   4.366 -2.4950  0.6575  0.4681
 8130SOL    HW235853   2.771   2.242   4.367 -0.9231  1.5587 -1.7087
 8131SOL     OW35854   2.101   0.157   6.707  0.5156 -0.3513  0.0233
 8131SOL    HW135855   2.044   0.205   6.768 -1.6615 -2.0072 -0.7364
 8131SOL    HW235856   2.188   0.193   6.726  0.7908 -1.0943  0.1549
 8132SOL     OW35857   0.657   3.127   2.449 -0.1720  0.0716  0.1187
 8132SOL    HW135858   0.753   3.131   2.452 -0.1278 -1.6373  1.1329
 8132SOL    HW235859   0.641   3.192   2.519 -0.5695 -1.5140  1.5017
 8133SOL     OW35860   2.811   4.561  15.250 -0.0341  0.3883 -0.8182
 8133SOL    HW135861   2.869   4.485  15.256  0.8888  1.1564 -0.0151
 8133SOL    HW235862   2.858   4.616  15.313 -1.4321 -0.3644  0.9041
 8134SOL     OW35863   3.962   2.378   3.877  0.4541  0.0799  0.2616
 8134SOL    HW135864   4.033   2.320   3.904  0.2400 -0.4758 -0.3863
 8134SOL    HW235865   3.927   2.338   3.798  1.6895 -0.0087 -0.2358
 8135SOL     OW35866   4.303   1.209   1.817  0.1371 -0.2836  0.0460
 8135SOL    HW135867   4.224   1.170   1.780  2.5871 -1.9302 -3.4856
 8135SOL    HW235868   4.285   1.303   1.824  1.9769 -0.2142  3.7422
 8136SOL     OW35869   3.123   0.931  10.362  0.4857 -0.3268 -0.3801
 8136SOL    HW135870   3.189   0.932  10.293 -0.2012 -0.0535 -1.0427
 8136SOL    HW235871   3.167   0.904  10.442  0.4102 -1.3986 -0.6940
 8137SOL     OW35872   3.704   4.466   0.124  0.1586 -0.1172 -0.5770
 8137SOL    HW135873   3.621   4.437   0.086 -0.9027  0.2040  1.4392
 8137SOL    HW235874   3.734   4.529   0.059  3.1242  1.0726  1.9633
 8138SOL     OW35875   1.141   1.813  17.267 -0.5842 -0.0514  0.2113
 8138SOL    HW135876   1.129   1.723  17.295 -0.2590 -0.1443  0.0498
 8138SOL    HW235877   1.083   1.815  17.191  2.0150 -1.4729 -1.8284
 8139SOL     OW35878   1.143   1.296  16.590  0.1533  0.1132 -0.5059
 8139SOL    HW135879   1.142   1.391  16.575 -0.1646  0.2392  0.3046
 8139SOL    HW235880   1.061   1.267  16.551  0.4066 -0.9566 -0.2371
 8140SOL     OW35881   1.015   1.966   8.890  0.3070  0.0348  0.0430
 8140SOL    HW135882   0.962   1.954   8.969  1.5028  2.6615  1.2253
 8140SOL    HW235883   1.031   2.060   8.894 -2.6122  0.4965  1.1894
 8141SOL     OW35884   0.064   1.475   2.094  0.4498  0.0141 -0.2957
 8141SOL    HW135885   0.127   1.546   2.110  0.0055  0.3388  0.0113
 8141SOL    HW235886   4.715   1.522   2.134  1.2597 -0.0680  1.2989
 8142SOL     OW35887   0.785   1.304   2.528 -0.2927  0.1009 -0.1203
 8142SOL    HW135888   0.700   1.266   2.505 -1.6005  2.1994  1.2420
 8142SOL    HW235889   0.806   1.366   2.458 -1.1719 -0.2920 -0.7317
 8143SOL     OW35890   2.474   3.831   0.024  0.0874 -0.6287  0.0068
 8143SOL    HW135891   2.435   3.833  17.637  0.5917 -2.3914 -0.2658
 8143SOL    HW235892   2.514   3.918   0.032 -0.0310 -0.5804  0.0715
 8144SOL     OW35893   2.172   0.153   1.773  0.8130  0.3088  0.4363
 8144SOL    HW135894   2.238   0.122   1.711  0.6953 -0.1139  0.5269
 8144SOL    HW235895   2.158   0.242   1.740  2.0103  0.3818  0.1157
 8145SOL     OW35896   3.473   1.994   1.917 -0.0050 -0.0421  0.7709
 8145SOL    HW135897   3.450   1.959   1.831  0.3401  2.9730 -0.5510
 8145SOL    HW235898   3.567   1.976   1.915  0.8651  4.4286  0.9279
 8146SOL     OW35899   1.690   0.133   2.731  0.4775 -0.1387  0.1761
 8146SOL    HW135900   1.736   0.205   2.775  1.5719 -1.1494  0.7086
 8146SOL    HW235901   1.715   0.062   2.791  0.1465 -1.9123 -1.8050
 8147SOL     OW35902   3.819   0.367  13.151 -0.3667 -0.6788 -0.0271
 8147SOL    HW135903   3.757   0.440  13.159  1.4023  0.6929  1.4030
 8147SOL    HW235904   3.772   0.286  13.170  0.3015 -1.2324 -0.7147
 8148SOL     OW35905   2.065   2.453   5.168 -1.1586  0.5252  0.7005
 8148SOL    HW135906   2.077   2.365   5.202 -2.5377  0.4984  1.1317
 8148SOL    HW235907   2.027   2.493   5.246 -1.1180 -2.3228  2.1650
 8149SOL     OW35908   3.941   3.766   2.668  0.7272  0.4174 -0.2278
 8149SOL    HW135909   4.008   3.819   2.710  0.2244 -0.1522  1.2827
 8149SOL    HW235910   3.936   3.803   2.579  1.6887  1.5071  0.1647
 8150SOL     OW35911   1.562   1.960   8.575 -0.8341  0.7469 -0.2467
 8150SOL    HW135912   1.511   2.029   8.618  0.4529  0.5844  1.5377
 8150SOL    HW235913   1.645   1.966   8.622 -0.8384 -0.9896 -0.0366
 8151SOL     OW35914   4.129   0.080   3.770 -0.2021  0.6539  0.2072
 8151SOL    HW135915   4.057   0.144   3.771 -0.5801  0.2158  1.2296
 8151SOL    HW235916   4.191   0.105   3.703  0.1573  2.6494  1.2842
 8152SOL     OW35917   2.874   4.136   0.394  0.1333  0.4835 -0.3519
 8152SOL    HW135918   2.931   4.191   0.341 -0.9212  1.7659 -0.1769
 8152SOL    HW235919   2.822   4.205   0.437  0.5889 -0.4988  1.7915
 8153SOL     OW35920   1.353   4.295   0.786 -0.3795  0.0859 -0.6403
 8153SOL    HW135921   1.323   4.378   0.822 -0.6498  0.5062 -1.8083
 8153SOL    HW235922   1.405   4.276   0.864  1.0417 -1.3950 -1.9596
 8154SOL     OW35923   2.633   2.819   4.131 -0.4193  0.2733  0.1378
 8154SOL    HW135924   2.541   2.825   4.155 -0.7434  0.1793 -1.0447
 8154SOL    HW235925   2.642   2.901   4.082  1.6824 -0.4711 -0.7251
 8155SOL     OW35926   1.809   4.195  16.151  0.6959  0.3528 -0.1596
 8155SOL    HW135927   1.858   4.177  16.071  0.8159 -0.6822  0.1397
 8155SOL    HW235928   1.853   4.274  16.182 -1.1832  1.6960 -0.9418
 8156SOL     OW35929   2.952   1.475   0.893 -0.1165 -0.3536  0.3116
 8156SOL    HW135930   2.927   1.514   0.809  0.0934  0.9098  0.8381
 8156SOL    HW235931   2.985   1.389   0.866 -0.1080  0.0301 -0.9215
 8157SOL     OW35932   3.356   0.014   5.793 -0.0375 -0.4067 -0.1625
 8157SOL    HW135933   3.330   0.000   5.702 -3.5577  1.4171  0.5581
 8157SOL    HW235934   3.447   0.043   5.789 -0.3002  0.4557  0.1081
 8158SOL     OW35935   2.191   2.098   6.455 -0.4251 -0.0785 -0.0383
 8158SOL    HW135936   2.161   2.179   6.495 -0.6464  0.0588 -0.4884
 8158SOL    HW235937   2.286   2.105   6.462 -0.6881  4.9622 -2.0105
 8159SOL     OW35938   0.517   4.084   1.327 -0.2628  0.1111 -0.0491
 8159SOL    HW135939   0.522   4.112   1.419  0.6687 -0.4667  0.0719
 8159SOL    HW235940   0.510   3.990   1.341  0.5493  0.2385  1.2860
 8160SOL     OW35941   2.930   2.825   0.676 -0.2241  0.0535 -0.2535
 8160SOL    HW135942   3.009   2.820   0.622 -0.5426 -0.8987 -0.6304
 8160SOL    HW235943   2.945   2.910   0.717  2.2440  0.8864 -2.9291
 8161SOL     OW35944   0.976   4.046   9.605  0.1814 -0.0411 -0.2649
 8161SOL    HW135945   1.063   4.007   9.615  1.0625  1.9903  0.1697
 8161SOL    HW235946   0.988   4.123   9.661  1.0254 -0.0673 -0.4126
 8162SOL     OW35947   1.591   1.938   8.217  0.4747 -0.0208  0.4941
 8162SOL    HW135948   1.643   2.015   8.194  1.0771 -0.1845  1.2878
 8162SOL    HW235949   1.570   1.950   8.309  0.7279  0.1763  0.5266
 8163SOL     OW35950   2.633   3.516   5.823 -0.4916 -0.1337  0.2277
 8163SOL    HW135951   2.586   3.477   5.897  0.5499 -0.0746  0.9096
 8163SOL    HW235952   2.716   3.473   5.844  0.3685  0.1896 -2.5030
 8164SOL     OW35953   4.467   2.971   0.765 -0.2322  0.2502 -0.0928
 8164SOL    HW135954   4.528   2.941   0.698  0.4559 -0.0352  0.6559
 8164SOL    HW235955   4.449   2.885   0.802  1.0811  0.4264  0.9865
 8165SOL     OW35956   4.175   2.405   5.051  0.0595 -0.0056 -0.5784
 8165SOL    HW135957   4.118   2.476   5.020 -0.3241  0.0107  0.1670
 8165SOL    HW235958   4.201   2.428   5.140 -1.7920 -1.1573  0.2572
 8166SOL     OW35959   1.471   4.238   7.141 -0.0916  0.0963  0.2843
 8166SOL    HW135960   1.441   4.327   7.124 -2.1656 -0.7806 -0.6832
 8166SOL    HW235961   1.473   4.238   7.236 -0.8983 -0.1157  0.3044
 8167SOL     OW35962   3.611   2.647   7.751 -0.3748 -0.3809 -0.6465
 8167SOL    HW135963   3.530   2.597   7.743 -0.3262 -1.0349  2.6539
 8167SOL    HW235964   3.671   2.585   7.710  0.5053  0.6543 -0.9259
 8168SOL     OW35965   4.444   4.628  16.393  0.1115 -0.4834  0.3277
 8168SOL    HW135966   4.387   4.571  16.444 -0.8517  0.5746  0.4436
 8168SOL    HW235967   4.397   4.710  16.379 -0.5826 -0.7245  1.1860
 8169SOL     OW35968   0.782   2.418   9.038  0.3252  0.0861 -0.4966
 8169SOL    HW135969   0.738   2.357   8.979 -1.3732 -0.9053  1.7961
 8169SOL    HW235970   0.727   2.496   9.034  1.0174  0.5671 -0.6050
 8170SOL     OW35971   2.680   0.486   3.548  0.1506  0.4698  0.9742
 8170SOL    HW135972   2.756   0.430   3.565  0.3410 -0.7263 -3.8095
 8170SOL    HW235973   2.710   0.531   3.468  0.1075 -0.4439  0.4459
 8171SOL     OW35974   1.963   2.923   2.962 -0.2471 -0.3138  0.3497
 8171SOL    HW135975   1.889   2.863   2.964  1.5729 -2.5073  1.4946
 8171SOL    HW235976   1.923   3.002   3.000  0.0168 -0.3106  0.6268
 8172SOL     OW35977   2.829   0.518  12.376 -0.1974 -0.0921 -0.2462
 8172SOL    HW135978   2.900   0.459  12.349 -0.6921 -0.6088 -0.4241
 8172SOL    HW235979   2.765   0.497  12.307  0.0012 -2.7623  0.3798
 8173SOL     OW35980   2.416   1.256   3.711 -0.6697  0.0619 -0.4640
 8173SOL    HW135981   2.509   1.253   3.732 -0.6962  0.0781 -0.3433
 8173SOL    HW235982   2.373   1.171   3.721 -0.3572 -0.0763 -0.3118
 8174SOL     OW35983   1.013   0.159   3.957  0.0257  0.1409 -0.0917
 8174SOL    HW135984   0.942   0.098   3.976 -1.1764  0.6755 -2.8956
 8174SOL    HW235985   1.062   0.169   4.039  1.2681 -1.7722 -0.6117
 8175SOL     OW35986   0.952   0.404   4.323  0.0825 -0.0170 -0.3884
 8175SOL    HW135987   0.892   0.474   4.349  1.8350  1.0106  0.8463
 8175SOL    HW235988   0.905   0.329   4.359 -0.2639  0.4337  0.0812
 8176SOL     OW35989   1.651   1.097   8.641  0.3434 -0.1619 -0.0983
 8176SOL    HW135990   1.632   1.183   8.604 -0.3962 -0.7215 -1.0185
 8176SOL    HW235991   1.609   1.107   8.727  2.0752  2.2093  0.4462
 8177SOL     OW35992   0.266   3.537   3.596  0.2231 -0.3274 -0.3761
 8177SOL    HW135993   0.214   3.456   3.595 -1.6314  0.8444 -0.2334
 8177SOL    HW235994   0.296   3.527   3.686 -0.2204  2.1424  0.0597
 8178SOL     OW35995   1.347   2.306   2.644 -0.8239  0.0148 -0.3001
 8178SOL    HW135996   1.312   2.241   2.584  1.5105 -0.9985 -0.5539
 8178SOL    HW235997   1.288   2.288   2.718  1.4034  2.6041  2.1104
 8179SOL     OW35998   0.287   1.061   3.745 -0.5561  0.1358 -0.4685
 8179SOL    HW135999   0.304   1.112   3.666  1.8458  0.9649  0.5828
 8179SOL    HW236000   0.220   0.993   3.736 -2.2611  1.5989  1.4329
 8180SOL     OW36001   4.227   0.009   4.703  0.1723 -0.1848 -0.1228
 8180SOL    HW136002   4.297   0.023   4.639 -0.1681 -0.0397 -0.4626
 8180SOL    HW236003   4.237   0.075   4.772 -0.1607  1.6891 -1.8734
 8181SOL     OW36004   1.032   0.487   6.497  0.2426  0.2547 -0.1092
 8181SOL    HW136005   1.039   0.576   6.464 -2.8481  0.6569  0.3577
 8181SOL    HW236006   0.982   0.434   6.435  0.3989  0.4311 -0.3835
 8182SOL     OW36007   0.375   1.262  10.814 -0.0816 -0.1628 -0.2846
 8182SOL    HW136008   0.406   1.253  10.904  1.6919  2.8607 -0.6114
 8182SOL    HW236009   0.336   1.175  10.804  1.3043 -0.7391 -0.5527
 8183SOL     OW36010   4.720   4.617   4.538  0.2254 -0.0001 -0.4941
 8183SOL    HW136011   0.057   4.577   4.599  0.1400 -2.1975 -1.8838
 8183SOL    HW236012   4.681   4.541   4.495  1.2391 -1.9148  1.9363
 8184SOL     OW36013   3.299   1.087  12.334 -0.2458 -0.2611 -0.2724
 8184SOL    HW136014   3.342   1.007  12.364  0.3700 -0.4212 -1.5876
 8184SOL    HW236015   3.227   1.097  12.397 -0.2253 -3.0583  0.1961
 8185SOL     OW36016   3.288   2.720  14.701 -0.4709 -0.3293  0.0222
 8185SOL    HW136017   3.329   2.636  14.681  0.1588  0.0156 -0.1178
 8185SOL    HW236018   3.339   2.736  14.780  0.1393  1.5094 -0.7437
 8186SOL     OW36019   3.067   4.380  17.041 -0.3074 -0.0486 -0.3051
 8186SOL    HW136020   3.134   4.337  17.094  2.6967  2.4868 -2.0895
 8186SOL    HW236021   3.003   4.309  17.034 -0.9581  0.5620 -0.6066
 8187SOL     OW36022   1.855   4.713   0.772  0.5407 -0.1982  0.4314
 8187SOL    HW136023   1.829   4.686   0.683  2.0111 -0.5909  0.1239
 8187SOL    HW236024   1.818   4.635   0.812  0.2121  1.5433  3.4734
 8188SOL     OW36025   3.951   3.758  13.010  0.4507 -0.1827  0.1295
 8188SOL    HW136026   3.955   3.760  13.106 -1.0275  0.8845  0.1752
 8188SOL    HW236027   3.866   3.718  12.996  0.9376 -1.6432  1.3649
 8189SOL     OW36028   3.887   1.643  10.327  0.1363 -0.3492 -0.1900
 8189SOL    HW136029   3.829   1.696  10.273  1.7659 -0.4699 -2.0688
 8189SOL    HW236030   3.842   1.639  10.412 -1.3081 -0.9765 -0.9952
 8190SOL     OW36031   4.396   4.578   8.298  0.7925 -0.3474  0.1679
 8190SOL    HW136032   4.438   4.514   8.241  1.3067  0.5513 -0.4574
 8190SOL    HW236033   4.422   4.544   8.383  1.7564 -1.0000 -0.3834
 8191SOL     OW36034   3.231   2.138  14.085 -0.6939 -0.0401  0.3442
 8191SOL    HW136035   3.217   2.176  13.998  1.9766 -0.3229 -0.1926
 8191SOL    HW236036   3.176   2.059  14.085 -0.1405 -0.4260 -0.0772
 8192SOL     OW36037   1.483   2.995  14.635  0.2890  0.3409  0.2612
 8192SOL    HW136038   1.482   3.080  14.591 -1.3858 -0.2431 -0.8360
 8192SOL    HW236039   1.488   3.012  14.729  0.3012  0.7635  0.1812
 8193SOL     OW36040   1.040   1.708   9.159 -0.0249  0.3919  0.0638
 8193SOL    HW136041   1.035   1.686   9.252 -0.1625  1.1573  0.2348
 8193SOL    HW236042   1.078   1.795   9.168 -1.8801  1.2862 -0.8679
 8194SOL     OW36043   1.470   3.277   7.719 -0.7595  0.2759  0.5904
 8194SOL    HW136044   1.406   3.215   7.684 -0.7324  0.5186  0.1004
 8194SOL    HW236045   1.427   3.310   7.798  0.0109 -0.1454  1.1876
 8195SOL     OW36046   4.471   0.607   4.967 -0.3960  0.5576  0.7940
 8195SOL    HW136047   4.436   0.696   4.963 -2.3690 -0.2451 -0.2245
 8195SOL    HW236048   4.565   0.615   4.976 -0.4913  2.2752  0.2218
 8196SOL     OW36049   3.561   1.520   3.718 -0.1582  0.2418 -0.3956
 8196SOL    HW136050   3.565   1.489   3.808  1.0583 -1.4429 -1.0246
 8196SOL    HW236051   3.479   1.569   3.706 -0.4065  0.0001  0.3252
 8197SOL     OW36052   2.684   3.258  17.388 -0.3898  0.6292 -0.2409
 8197SOL    HW136053   2.694   3.164  17.369 -1.1257  0.5263 -0.1312
 8197SOL    HW236054   2.607   3.256  17.445 -1.5139  2.6131 -1.7101
 8198SOL     OW36055   1.482   4.495  17.015 -0.0213 -0.1289  0.2111
 8198SOL    HW136056   1.394   4.468  16.989 -0.8494  0.0973  2.7902
 8198SOL    HW236057   1.532   4.415  17.029  1.4629  0.6810 -0.4022
 8199SOL     OW36058   3.916   2.401   8.619  0.0685  0.5441 -0.0022
 8199SOL    HW136059   3.898   2.399   8.525  1.5318  0.1721 -0.2719
 8199SOL    HW236060   3.958   2.486   8.630  0.6185 -0.0196  2.2091
 8200SOL     OW36061   3.271   3.142   3.034 -0.3098 -0.5360  0.0147
 8200SOL    HW136062   3.344   3.124   3.094 -0.0678 -0.2487 -0.1948
 8200SOL    HW236063   3.221   3.206   3.084 -0.3139 -0.3668 -0.2074
 8201SOL     OW36064   1.785   4.386   5.242 -0.0460 -0.2638 -0.1530
 8201SOL    HW136065   1.769   4.477   5.268  0.4400  0.1773 -1.4003
 8201SOL    HW236066   1.822   4.360   5.326  1.4056  1.9066 -0.1332
 8202SOL     OW36067   0.211   3.693   4.767 -0.0482 -0.6379  0.2035
 8202SOL    HW136068   0.149   3.764   4.780  0.7933  0.1431 -0.0746
 8202SOL    HW236069   0.151   3.628   4.731 -2.0825  0.9947  0.6961
 8203SOL     OW36070   0.159   2.381   4.393  0.4302  0.5030  0.8965
 8203SOL    HW136071   0.146   2.351   4.483  2.4532 -2.2063  0.2864
 8203SOL    HW236072   0.187   2.472   4.405 -0.0589  0.7877 -0.1759
 8204SOL     OW36073   4.721   2.727   4.218 -0.4592  0.0669  0.1420
 8204SOL    HW136074   0.020   2.802   4.272  0.4809  0.4233 -0.7700
 8204SOL    HW236075   0.085   2.691   4.218 -0.0583  1.0459 -0.2172
 8205SOL     OW36076   0.663   1.340   1.221 -0.0971  0.3452  0.6365
 8205SOL    HW136077   0.608   1.268   1.190  0.2326 -1.0519  3.3028
 8205SOL    HW236078   0.721   1.301   1.286  0.6602  0.8228  0.2454
 8206SOL     OW36079   1.196   3.442   8.257 -0.5278 -0.4476 -0.2765
 8206SOL    HW136080   1.147   3.512   8.301 -1.8640 -0.4887 -1.7036
 8206SOL    HW236081   1.226   3.397   8.336 -1.1391  1.0340  0.8024
 8207SOL     OW36082   1.524   2.520   3.838  0.4286  0.8404  0.0308
 8207SOL    HW136083   1.601   2.466   3.825  1.0319  1.7446 -0.1917
 8207SOL    HW236084   1.567   2.602   3.863 -1.3446  2.0167 -0.7286
 8208SOL     OW36085   0.874   1.997  15.357  0.0278 -0.6860  0.3243
 8208SOL    HW136086   0.925   2.064  15.310 -2.0003  1.1585  0.7628
 8208SOL    HW236087   0.806   1.978  15.292 -1.3418  0.1309  1.5191
 8209SOL     OW36088   0.743   4.252   4.105 -0.0373  0.6204 -0.0015
 8209SOL    HW136089   0.777   4.241   4.016  1.6952  0.2163  0.7206
 8209SOL    HW236090   0.818   4.256   4.164 -0.7400  0.3948  0.8998
 8210SOL     OW36091   2.147   1.533   4.827 -0.1824 -0.4237  0.0176
 8210SOL    HW136092   2.155   1.453   4.774 -0.4124 -0.3848 -0.0736
 8210SOL    HW236093   2.074   1.514   4.885 -1.1179  1.8311 -0.4406
 8211SOL     OW36094   4.313   4.027   7.981 -0.5178  0.2778 -1.3684
 8211SOL    HW136095   4.244   3.961   7.976 -1.5566  1.1966  1.0380
 8211SOL    HW236096   4.326   4.024   8.075 -0.4210  0.8695 -1.3607
 8212SOL     OW36097   1.158   2.903   6.741 -1.2079 -0.1159  0.2612
 8212SOL    HW136098   1.246   2.939   6.751 -1.2069  0.3139 -1.3014
 8212SOL    HW236099   1.160   2.827   6.799 -0.3634  1.6324  2.5078
 8213SOL     OW36100   0.368   0.257  11.284  0.0012  0.0859 -1.2776
 8213SOL    HW136101   0.441   0.219  11.235 -0.3600 -1.0064 -0.9687
 8213SOL    HW236102   0.332   0.306  11.211 -0.7683 -0.2269 -1.1077
 8214SOL     OW36103   4.314   0.573   6.091 -0.0919  0.0402 -0.0651
 8214SOL    HW136104   4.251   0.618   6.035  1.4998  1.0330 -1.0176
 8214SOL    HW236105   4.388   0.574   6.032 -1.4969 -2.5809 -1.8594
 8215SOL     OW36106   0.242   3.650   5.085  0.7005  0.2172 -0.2591
 8215SOL    HW136107   0.286   3.648   5.001 -0.5671  0.0386 -0.9162
 8215SOL    HW236108   0.250   3.561   5.120 -0.1850 -0.3666 -1.5640
 8216SOL     OW36109   4.552   1.569  13.380  0.4176 -0.5247 -0.1371
 8216SOL    HW136110   4.459   1.573  13.362  0.5161  0.3870 -0.4434
 8216SOL    HW236111   4.598   1.562  13.297  0.1492  2.4990 -0.5627
 8217SOL     OW36112   2.477   4.229   5.044  0.0755 -0.2483  0.0974
 8217SOL    HW136113   2.563   4.227   5.002 -0.5314 -2.3666 -1.0727
 8217SOL    HW236114   2.494   4.178   5.123 -0.0101  0.6543  0.6933
 8218SOL     OW36115   1.930   3.106   0.360 -0.0555  0.5157 -0.9943
 8218SOL    HW136116   1.881   3.033   0.322  0.3683 -0.5336  0.4423
 8218SOL    HW236117   1.859   3.156   0.400  0.8083  2.8929 -2.4947
 8219SOL     OW36118   1.268   2.984   0.721 -0.4602 -0.1149  0.3728
 8219SOL    HW136119   1.362   3.004   0.726 -0.2181 -1.1990  0.2319
 8219SOL    HW236120   1.241   2.974   0.812 -0.7961 -0.2410  0.2584
 8220SOL     OW36121   0.466   0.293   8.276 -0.8060 -0.2262 -0.1144
 8220SOL    HW136122   0.395   0.232   8.258 -0.3475 -0.7044 -0.2911
 8220SOL    HW236123   0.537   0.261   8.221 -0.2506  0.6381  0.1012
 8221SOL     OW36124   3.470   3.479   4.158  0.1485 -0.3098 -0.1099
 8221SOL    HW136125   3.396   3.519   4.203 -0.7000 -2.3612  0.3316
 8221SOL    HW236126   3.430   3.397   4.127  1.8098 -1.2413  0.1983
 8222SOL     OW36127   2.154   3.567  16.828 -0.1211 -0.3437 -1.3016
 8222SOL    HW136128   2.096   3.586  16.753 -0.1887  2.0860 -0.6476
 8222SOL    HW236129   2.118   3.482  16.852 -0.1503 -0.1488 -0.6620
 8223SOL     OW36130   0.134   1.741   1.306  0.0454 -0.2565 -0.1051
 8223SOL    HW136131   0.123   1.690   1.386 -1.0267  1.9695  1.1570
 8223SOL    HW236132   0.059   1.700   1.263  1.1029 -3.0519  0.7464
 8224SOL     OW36133   3.012   0.505  14.024 -0.3880  0.4989 -0.2776
 8224SOL    HW136134   2.941   0.443  14.005  0.9110 -1.7597  2.2598
 8224SOL    HW236135   3.081   0.447  14.055 -2.2119 -1.0759  0.8023
 8225SOL     OW36136   1.654   2.567   0.659  0.4136 -0.2248 -0.5105
 8225SOL    HW136137   1.577   2.526   0.700 -1.2606 -0.1767 -3.6295
 8225SOL    HW236138   1.726   2.520   0.702 -1.4002 -3.8658 -1.4761
 8226SOL     OW36139   3.575   2.338   8.957 -0.2289  0.3609  0.4051
 8226SOL    HW136140   3.520   2.381   9.023 -0.0085  0.9108  0.2277
 8226SOL    HW236141   3.666   2.353   8.979 -0.2892  0.5785  0.5014
 8227SOL     OW36142   4.653   4.216  11.467  0.4366  1.0371  0.1957
 8227SOL    HW136143   4.564   4.223  11.433  0.3359 -0.0634  0.2349
 8227SOL    HW236144   4.664   4.126  11.436  1.2128  0.5262  1.9371
 8228SOL     OW36145   2.607   3.645  15.348 -0.0896 -0.5702  0.0392
 8228SOL    HW136146   2.631   3.689  15.267 -0.5441 -1.4435 -0.5755
 8228SOL    HW236147   2.530   3.698  15.369 -1.5603 -2.0721 -1.5009
 8229SOL     OW36148   0.576   0.434   4.223  0.3604  0.3003 -0.1200
 8229SOL    HW136149   0.616   0.402   4.142  0.6783  0.4478 -0.0204
 8229SOL    HW236150   0.482   0.432   4.205  0.4266  2.3671 -0.7365
 8230SOL     OW36151   3.408   3.168  14.862 -0.4449  0.1789 -0.1957
 8230SOL    HW136152   3.478   3.138  14.920  1.6019  0.4568 -2.5490
 8230SOL    HW236153   3.379   3.239  14.919 -1.5566 -1.5275  1.3822
 8231SOL     OW36154   3.712   0.795  13.072  0.2017  0.4209 -0.3376
 8231SOL    HW136155   3.678   0.736  13.004 -1.7590  1.9378 -0.6673
 8231SOL    HW236156   3.787   0.745  13.106  0.7301  1.4017 -0.0808
 8232SOL     OW36157   3.608   3.590   3.526  0.6878  0.8323  1.0366
 8232SOL    HW136158   3.678   3.649   3.498  0.4724 -1.3016 -3.9473
 8232SOL    HW236159   3.654   3.511   3.498  0.0431  1.0974 -0.8172
 8233SOL     OW36160   1.403   3.259   2.904  0.7417  0.5891 -0.4655
 8233SOL    HW136161   1.418   3.306   2.987  0.2656  0.6042 -0.3872
 8233SOL    HW236162   1.345   3.186   2.927  2.1090 -0.7337 -1.2382
 8234SOL     OW36163   0.192   0.671   2.952 -0.5116  0.3334  0.1254
 8234SOL    HW136164   0.139   0.684   2.873 -1.2418 -2.5666  0.1490
 8234SOL    HW236165   0.284   0.675   2.927 -0.4877 -1.1259 -0.0408
 8235SOL     OW36166   0.213   4.716   7.886  0.0878 -0.2135 -0.4720
 8235SOL    HW136167   0.210   4.694   7.793 -1.0237  1.0838 -0.7352
 8235SOL    HW236168   0.288   0.049   7.894 -0.6776  0.6748  0.3994
 8236SOL     OW36169   1.573   0.944   5.246 -0.0581  0.5295 -0.6437
 8236SOL    HW136170   1.518   1.022   5.243  0.2144  0.6813 -1.7172
 8236SOL    HW236171   1.517   0.886   5.196 -0.2965  1.5448 -1.5601
 8237SOL     OW36172   0.958   0.739  14.255 -0.1875 -0.1226 -0.4636
 8237SOL    HW136173   0.946   0.820  14.304 -1.1399 -1.2896  1.2024
 8237SOL    HW236174   0.870   0.729  14.217 -0.4693 -3.9734  1.1744
 8238SOL     OW36175   2.748   0.085   8.223 -0.2501  0.1358 -0.8262
 8238SOL    HW136176   2.804   0.161   8.207 -2.1964  2.0808  1.6067
 8238SOL    HW236177   2.718   0.120   8.307 -0.4354  1.2162 -1.3396
 8239SOL     OW36178   3.011   3.773   9.402  0.3728 -0.3008  0.3931
 8239SOL    HW136179   2.993   3.867   9.408  1.5528  0.0555 -1.6865
 8239SOL    HW236180   3.038   3.754   9.312  0.9195 -1.8066  0.8785
 8240SOL     OW36181   1.039   2.633  16.109 -0.3665  0.4333 -0.2198
 8240SOL    HW136182   0.984   2.559  16.134  0.0510  0.1498 -0.1293
 8240SOL    HW236183   1.008   2.641  16.019  2.3406  3.1889 -0.9064
 8241SOL     OW36184   4.199   0.841   6.579 -0.0824 -0.4303 -0.0480
 8241SOL    HW136185   4.269   0.846   6.514  0.6750 -0.9199  0.7388
 8241SOL    HW236186   4.170   0.932   6.590  0.8674 -0.3273  1.4826
 8242SOL     OW36187   0.295   3.202   0.626  0.0211  0.3738  0.2106
 8242SOL    HW136188   0.328   3.129   0.574  2.0872  0.9420  0.7127
 8242SOL    HW236189   0.242   3.160   0.693  0.0792  0.3573  0.2463
 8243SOL     OW36190   0.052   4.121  12.038 -0.1675  0.4260 -0.1428
 8243SOL    HW136191   0.046   4.152  12.128  0.4007 -0.8494  0.3399
 8243SOL    HW236192   0.143   4.144  12.019  0.6980 -0.9269  2.4043
 8244SOL     OW36193   3.665   3.628  13.967  0.5315 -0.5434  0.6414
 8244SOL    HW136194   3.719   3.568  13.917  1.3173 -1.6833  2.8289
 8244SOL    HW236195   3.586   3.574  13.963  0.3099 -0.1729  0.0521
 8245SOL     OW36196   0.527   2.231   9.812  0.0425 -0.1641  0.2521
 8245SOL    HW136197   0.446   2.217   9.862  0.1915 -0.1101  0.5085
 8245SOL    HW236198   0.593   2.267   9.872  0.7794  1.2478 -1.4028
 8246SOL     OW36199   0.599   2.317   4.889 -0.4890 -0.4903  0.3823
 8246SOL    HW136200   0.548   2.393   4.913 -1.7777 -1.5291  0.9279
 8246SOL    HW236201   0.546   2.250   4.933 -1.7878  0.6886  0.5882
 8247SOL     OW36202   2.984   1.872   8.997  0.5563  0.0470 -0.2945
 8247SOL    HW136203   3.046   1.923   9.050 -0.3169 -0.3498  1.0885
 8247SOL    HW236204   3.036   1.877   8.916  0.6508  0.2994 -0.2176
 8248SOL     OW36205   1.477   1.553   7.807  0.1210  0.4510  0.0989
 8248SOL    HW136206   1.409   1.620   7.802 -0.4979 -0.0589  1.5872
 8248SOL    HW236207   1.451   1.482   7.747  0.9968  1.1030 -1.0391
 8249SOL     OW36208   1.241   1.654  16.947 -0.1324 -0.1961  1.0264
 8249SOL    HW136209   1.283   1.735  16.917 -1.1940 -0.5585 -1.4732
 8249SOL    HW236210   1.245   1.675  17.040 -1.4251 -0.1034  1.0533
 8250SOL     OW36211   0.248   3.497   5.854 -0.0059  0.2440 -0.3328
 8250SOL    HW136212   0.186   3.497   5.927 -1.3547  0.0980 -1.4952
 8250SOL    HW236213   0.220   3.576   5.807 -1.9580 -1.4204 -1.9374
 8251SOL     OW36214   3.640   1.357  10.824  0.1075 -0.3700 -0.0095
 8251SOL    HW136215   3.673   1.317  10.744  3.0622  0.4261  0.7954
 8251SOL    HW236216   3.548   1.376  10.808  0.1285  1.6223  2.2213
 8252SOL     OW36217   4.269   2.673   3.120 -0.1936  0.4627  0.3653
 8252SOL    HW136218   4.308   2.760   3.115 -1.1304  0.8142 -0.8826
 8252SOL    HW236219   4.323   2.613   3.069  0.3021  0.0157  1.4210
 8253SOL     OW36220   0.310   2.394   6.486 -0.4376  0.2137  0.4624
 8253SOL    HW136221   0.373   2.423   6.420 -0.7100 -1.8576 -0.7316
 8253SOL    HW236222   0.290   2.476   6.530 -2.3011  0.6191 -1.1638
 8254SOL     OW36223   3.287   0.222   8.129  0.5541 -0.4172 -0.6272
 8254SOL    HW136224   3.201   0.185   8.148  0.6530 -1.1485 -1.6182
 8254SOL    HW236225   3.351   0.170   8.177  1.2866  1.4469  0.4355
 8255SOL     OW36226   0.171   3.933  17.352  0.4305  0.9258  0.1305
 8255SOL    HW136227   0.199   3.851  17.392 -0.7091 -0.0347 -1.0368
 8255SOL    HW236228   0.083   3.940  17.390  0.1070 -2.3689 -0.0471
 8256SOL     OW36229   3.411   3.228   2.090 -0.6622  0.2822  0.1085
 8256SOL    HW136230   3.501   3.237   2.119 -0.8864  1.6878  0.4017
 8256SOL    HW236231   3.370   3.176   2.159  0.0400  1.6473  1.5598
 8257SOL     OW36232   0.992   3.758  11.523 -0.2278  0.3696  0.0787
 8257SOL    HW136233   1.001   3.668  11.555 -1.0549  0.9848  2.0467
 8257SOL    HW236234   1.076   3.769  11.477  0.6041 -0.7465  1.3334
 8258SOL     OW36235   1.129   2.006   1.806  0.3641 -0.2740 -0.2886
 8258SOL    HW136236   1.093   2.052   1.730  1.8473 -0.9196 -1.3768
 8258SOL    HW236237   1.063   1.939   1.823 -0.4630  1.5141  3.4522
 8259SOL     OW36238   2.823   0.215   5.607  0.0260 -0.2425  0.4637
 8259SOL    HW136239   2.910   0.177   5.617  0.2238  0.0760 -0.0610
 8259SOL    HW236240   2.837   0.302   5.645 -1.7824  0.4188 -0.3917
 8260SOL     OW36241   3.295   1.084   2.378 -0.0837  0.2442 -0.1615
 8260SOL    HW136242   3.304   1.002   2.328 -0.3599 -0.1640  0.4599
 8260SOL    HW236243   3.377   1.071   2.425 -0.4246  0.9777  0.6238
 8261SOL     OW36244   1.798   3.409  16.653  0.1796  0.3808  0.4877
 8261SOL    HW136245   1.825   3.334  16.705 -2.2259 -0.5328  0.4144
 8261SOL    HW236246   1.883   3.451  16.643 -0.4396  1.6927  0.6510
 8262SOL     OW36247   1.519   2.553   7.437 -0.4018  0.0265 -0.3159
 8262SOL    HW136248   1.583   2.623   7.432  1.1586 -1.0704  4.5008
 8262SOL    HW236249   1.445   2.613   7.432 -0.1800  0.3766  0.6391
 8263SOL     OW36250   1.935   2.989   7.003 -0.6231 -0.4260 -0.4837
 8263SOL    HW136251   1.932   3.055   7.073  1.4151 -1.7957  0.9128
 8263SOL    HW236252   1.853   3.006   6.956 -0.3098 -1.9185 -1.5667
 8264SOL     OW36253   0.133   1.290   2.330  0.0246  0.2196  0.0634
 8264SOL    HW136254   0.055   1.317   2.282 -1.2744 -0.9009  1.5186
 8264SOL    HW236255   0.192   1.277   2.256 -1.6218 -2.2090 -0.8662
 8265SOL     OW36256   3.787   1.833  17.370 -0.2974  0.4030 -0.3403
 8265SOL    HW136257   3.760   1.840  17.278  2.2451  0.3744 -1.0836
 8265SOL    HW236258   3.850   1.905  17.372  0.3089 -0.0601 -2.4623
 8266SOL     OW36259   4.037   1.638   5.442 -0.2050  0.3097  0.1503
 8266SOL    HW136260   4.017   1.721   5.400  0.6128  0.3247 -0.2155
 8266SOL    HW236261   3.953   1.596   5.421 -0.0681  1.5245 -2.8187
 8267SOL     OW36262   2.534   4.027   1.544  0.1788  0.0664 -0.4020
 8267SOL    HW136263   2.495   3.940   1.532  0.3671 -0.3037  1.6465
 8267SOL    HW236264   2.613   4.015   1.491  0.6020  1.1168 -0.0041
 8268SOL     OW36265   3.387   1.974   6.495 -0.3229  0.5490  0.6347
 8268SOL    HW136266   3.471   1.957   6.453 -0.0775  0.4336  1.1733
 8268SOL    HW236267   3.371   1.896   6.548  0.5406 -0.4508 -0.6016
 8269SOL     OW36268   2.345   3.859   5.454 -0.4375 -0.2824  0.2819
 8269SOL    HW136269   2.274   3.807   5.489 -0.3666 -0.3079  0.3872
 8269SOL    HW236270   2.360   3.815   5.370  1.1289  1.1220 -0.1801
 8270SOL     OW36271   1.976   4.068   3.683  0.1410  0.2651  0.4636
 8270SOL    HW136272   1.976   4.152   3.730 -0.2908  0.3608  0.2943
 8270SOL    HW236273   1.935   4.009   3.746  1.5685  0.2483  1.3741
 8271SOL     OW36274   1.049   3.790   3.979 -0.1456 -0.1861 -0.6181
 8271SOL    HW136275   1.124   3.846   3.957 -0.5679  0.4786 -0.3596
 8271SOL    HW236276   1.068   3.722   3.915  2.2125 -0.3944  0.2935
 8272SOL     OW36277   0.825   4.239   2.068 -0.0536 -0.1782 -0.2610
 8272SOL    HW136278   0.853   4.317   2.117  2.3008  1.5082 -4.2761
 8272SOL    HW236279   0.905   4.189   2.079 -0.7062 -0.8744  1.2728
 8273SOL     OW36280   3.857   0.684   8.635 -0.2237  0.3623  0.8942
 8273SOL    HW136281   3.892   0.596   8.640 -0.2509  0.4406  2.5207
 8273SOL    HW236282   3.940   0.733   8.642 -0.4129  0.8095  0.0228
 8274SOL     OW36283   3.989   0.647   3.056  0.0350 -0.1344 -0.5188
 8274SOL    HW136284   3.962   0.568   3.008  0.3973 -0.1824 -0.6471
 8274SOL    HW236285   4.000   0.708   2.983  2.2268  0.2586  0.1428
 8275SOL     OW36286   1.079   4.350   4.699 -0.0318  0.2661 -0.9488
 8275SOL    HW136287   1.077   4.402   4.779 -1.9018  1.5406 -1.8085
 8275SOL    HW236288   1.061   4.409   4.625  4.0334  1.8697 -0.6833
 8276SOL     OW36289   3.478   0.463   8.563 -0.0861  0.8173  0.3251
 8276SOL    HW136290   3.451   0.458   8.655 -1.5564  1.8136 -0.0443
 8276SOL    HW236291   3.475   0.374   8.530 -0.2991  0.7942  0.4051
 8277SOL     OW36292   2.368   0.337   6.513 -0.2631  0.6246 -0.0448
 8277SOL    HW136293   2.343   0.423   6.549  0.7706  0.1440  1.8555
 8277SOL    HW236294   2.417   0.309   6.591 -1.0115 -0.1059  0.1643
 8278SOL     OW36295   2.698   3.150  10.131  0.1270  0.0200  0.3305
 8278SOL    HW136296   2.661   3.184  10.049 -0.4225 -0.1822  0.4958
 8278SOL    HW236297   2.725   3.236  10.162 -0.1002  0.4280 -0.5982
 8279SOL     OW36298   1.000   4.444   8.481 -0.2642 -0.1810  0.5133
 8279SOL    HW136299   1.052   4.500   8.424  0.8028 -0.2429  1.4224
 8279SOL    HW236300   1.057   4.421   8.554  0.9274  3.0322  0.5879
 8280SOL     OW36301   1.595   4.169   6.029  0.4337  0.8687 -0.3757
 8280SOL    HW136302   1.501   4.167   6.011  0.3257  0.1492  0.2338
 8280SOL    HW236303   1.613   4.078   6.054 -0.4848  0.7238 -0.2457
 8281SOL     OW36304   0.346   0.809   7.193  0.0558 -0.2882  0.4060
 8281SOL    HW136305   0.380   0.829   7.106  3.1953 -0.3395  1.6426
 8281SOL    HW236306   0.373   0.888   7.238 -1.5604  0.8046 -0.5450
 8282SOL     OW36307   4.321   2.907   3.801  0.0938 -0.1929  0.5027
 8282SOL    HW136308   4.385   2.839   3.823 -2.2749 -3.1100 -1.7151
 8282SOL    HW236309   4.250   2.861   3.757  0.4102 -0.0782 -0.1243
 8283SOL     OW36310   3.076   4.221   2.271 -0.1861  0.2623  0.5984
 8283SOL    HW136311   3.039   4.291   2.324  0.9363  0.7015  0.8106
 8283SOL    HW236312   3.154   4.208   2.325 -0.3972 -0.2444  0.7723
 8284SOL     OW36313   2.105   2.127   5.500 -0.1568  0.1002  0.0167
 8284SOL    HW136314   2.136   2.216   5.518  1.4653 -0.4934  0.1329
 8284SOL    HW236315   2.183   2.078   5.526 -0.9909 -2.3162 -2.0596
 8285SOL     OW36316   4.656   4.392   5.875 -0.2119  0.7020 -0.2038
 8285SOL    HW136317   4.638   4.484   5.854  0.0039  0.9609  0.7567
 8285SOL    HW236318   4.600   4.379   5.952  1.0382 -1.4881  0.3383
 8286SOL     OW36319   0.438   1.548   7.365  0.6357  0.1206  0.2957
 8286SOL    HW136320   0.468   1.489   7.297 -0.5889  1.0508 -1.0370
 8286SOL    HW236321   0.493   1.516   7.437  0.8800 -0.2329 -0.0538
 8287SOL     OW36322   3.121   3.009  14.962 -0.6034 -0.2316  0.1028
 8287SOL    HW136323   3.216   3.014  14.959 -0.5499 -1.7863 -0.9581
 8287SOL    HW236324   3.094   3.083  15.015 -2.0471 -0.7798  0.1389
 8288SOL     OW36325   0.830   3.061  11.342  0.4847  0.3053 -0.4173
 8288SOL    HW136326   0.867   3.143  11.375  2.0360 -0.0176 -1.3118
 8288SOL    HW236327   0.911   3.009  11.342 -0.2767 -0.8849  1.8049
 8289SOL     OW36328   0.863   1.634   8.951  0.0936 -0.0473 -0.5768
 8289SOL    HW136329   0.912   1.634   9.034 -0.0457 -0.0471 -0.4943
 8289SOL    HW236330   0.918   1.694   8.900  1.8335 -2.0946 -1.0776
 8290SOL     OW36331   3.625   1.934  16.876  0.0930 -0.2138  0.2889
 8290SOL    HW136332   3.537   1.954  16.845  0.7818 -1.5006 -2.5006
 8290SOL    HW236333   3.660   1.865  16.820 -0.8221  0.3583 -0.9977
 8291SOL     OW36334   0.580   0.925  11.268  0.6596 -0.5791 -0.4634
 8291SOL    HW136335   0.555   0.847  11.318 -1.1362  0.5533  0.3788
 8291SOL    HW236336   0.675   0.940  11.269  0.5687  0.0666 -1.8926
 8292SOL     OW36337   0.234   1.030   5.003  0.1061  0.0165  0.8698
 8292SOL    HW136338   0.246   1.123   4.981 -2.1009  0.1977  0.3660
 8292SOL    HW236339   0.221   1.035   5.098 -0.7433 -1.8976  0.8520
 8293SOL     OW36340   3.727   0.169   6.123 -0.3704 -0.7659  0.6350
 8293SOL    HW136341   3.642   0.163   6.166 -0.0225  0.2433  1.4714
 8293SOL    HW236342   3.721   0.257   6.085  0.3652 -0.3648  1.4353
 8294SOL     OW36343   2.378   0.006   0.604  0.4709 -0.2777  0.5261
 8294SOL    HW136344   2.364   0.095   0.636  2.2062 -0.2326  1.2042
 8294SOL    HW236345   2.338   0.010   0.517  1.0033 -3.4318  0.1019
 8295SOL     OW36346   1.225   1.565  10.357 -0.2715  0.0270  0.5335
 8295SOL    HW136347   1.272   1.505  10.299 -0.4098  1.3388 -0.9328
 8295SOL    HW236348   1.137   1.531  10.341  1.1702 -3.7516  0.6975
 8296SOL     OW36349   0.901   3.235   8.913  0.1628 -0.2091  0.1523
 8296SOL    HW136350   0.992   3.238   8.941  0.0805 -1.3957  0.5442
 8296SOL    HW236351   0.907   3.144   8.883  0.0299 -0.4620  0.8962
 8297SOL     OW36352   2.358   3.579   3.972 -0.5013  0.0438 -0.2871
 8297SOL    HW136353   2.432   3.571   3.913 -0.1827  0.0739  0.1051
 8297SOL    HW236354   2.326   3.490   3.987 -1.3556  0.6815  1.7879
 8298SOL     OW36355   0.572   3.839   2.270 -0.1111 -0.3572  0.0065
 8298SOL    HW136356   0.605   3.821   2.182 -0.1832  2.0517 -0.5072
 8298SOL    HW236357   0.644   3.818   2.329 -0.6999  1.7791  1.4844
 8299SOL     OW36358   1.870   1.590   3.652  0.6843  0.0001 -0.0784
 8299SOL    HW136359   1.918   1.608   3.571 -0.3537  1.9026 -0.2840
 8299SOL    HW236360   1.919   1.514   3.683  0.2752  0.7603  2.4372
 8300SOL     OW36361   1.101   2.859   4.850  0.0862  0.1065 -0.2542
 8300SOL    HW136362   1.089   2.872   4.944  2.2169 -1.8448  0.2942
 8300SOL    HW236363   1.059   2.941   4.823  0.3935  0.9022  1.6582
 8301SOL     OW36364   1.356   4.359   4.557 -0.7235 -0.0119  0.8749
 8301SOL    HW136365   1.437   4.323   4.594 -1.8461 -1.7754  1.5701
 8301SOL    HW236366   1.309   4.388   4.635 -3.1116 -0.0732 -0.5699
 8302SOL     OW36367   1.785   2.310   2.131 -0.0122 -0.0476  0.5084
 8302SOL    HW136368   1.849   2.317   2.060 -0.9789 -0.6108 -0.4214
 8302SOL    HW236369   1.810   2.382   2.189 -1.2989  3.2433 -3.0275
 8303SOL     OW36370   4.325   3.319   8.050 -0.6817  0.2354  0.3855
 8303SOL    HW136371   4.369   3.249   8.002  1.2069  1.0861  0.9127
 8303SOL    HW236372   4.233   3.298   8.030 -0.8077  0.6470  0.5319
 8304SOL     OW36373   1.217   3.430   4.715  0.4502  0.3897  0.2489
 8304SOL    HW136374   1.262   3.370   4.655 -0.7274 -0.1291 -0.1244
 8304SOL    HW236375   1.134   3.382   4.725  0.4932  0.6562  1.7830
 8305SOL     OW36376   1.254   2.933  10.927  0.2696  0.1372 -0.0071
 8305SOL    HW136377   1.282   2.852  10.885 -0.1924 -0.8379  1.5664
 8305SOL    HW236378   1.301   2.998  10.876 -0.7084 -0.4274 -1.6165
 8306SOL     OW36379   3.119   0.617   4.826 -0.3618  0.5631 -0.3891
 8306SOL    HW136380   3.028   0.591   4.811  0.0451 -0.8666 -0.2929
 8306SOL    HW236381   3.139   0.571   4.907 -3.3965 -0.9664 -0.5242
 8307SOL     OW36382   4.681   4.488   9.331 -0.1441  0.0925  0.2159
 8307SOL    HW136383   4.711   4.569   9.372  3.7947 -0.4103 -1.6062
 8307SOL    HW236384   4.658   4.437   9.409  1.3717 -2.1620 -0.7945
 8308SOL     OW36385   2.555   1.462   2.774 -0.6462 -0.3695  0.0608
 8308SOL    HW136386   2.603   1.487   2.695 -0.3700 -0.1657  0.2913
 8308SOL    HW236387   2.622   1.493   2.835  0.6828 -1.2850 -0.9229
 8309SOL     OW36388   2.954   2.405  11.147  0.7074 -0.1580  0.0965
 8309SOL    HW136389   2.864   2.385  11.122 -0.2775  2.4315  1.5565
 8309SOL    HW236390   2.995   2.417  11.061 -2.2274  0.2673 -1.2643
 8310SOL     OW36391   1.120   3.188  14.558  0.3812 -0.5576 -0.0649
 8310SOL    HW136392   1.103   3.096  14.580  2.5241 -1.2763 -1.3420
 8310SOL    HW236393   1.185   3.215  14.622 -1.4030  0.6276  1.2280
 8311SOL     OW36394   3.904   2.584   4.635 -0.3900  0.2871 -0.1358
 8311SOL    HW136395   3.911   2.547   4.547 -0.2666 -1.5361  0.6198
 8311SOL    HW236396   3.927   2.675   4.618  1.5091 -0.1692  0.0194
 8312SOL     OW36397   0.231   3.090   7.563  0.2173  0.4709 -0.2311
 8312SOL    HW136398   0.275   3.022   7.615 -0.0750  0.7772  0.4207
 8312SOL    HW236399   0.208   3.145   7.638  1.7842 -1.2208  1.5144
 8313SOL     OW36400   1.157   4.485  11.341  0.0097 -0.0250  0.0346
 8313SOL    HW136401   1.227   4.535  11.384  0.4118  0.8640 -1.6660
 8313SOL    HW236402   1.127   4.435  11.417 -0.3389 -1.1563 -0.8521
 8314SOL     OW36403   3.485   1.713  10.406  0.1883  0.0680  0.5212
 8314SOL    HW136404   3.485   1.626  10.368 -1.8195 -0.7050  2.2643
 8314SOL    HW236405   3.394   1.733  10.429 -0.8459 -1.5170 -2.1832
 8315SOL     OW36406   1.625   3.871   6.063 -0.3022  0.1629 -0.6235
 8315SOL    HW136407   1.653   3.796   6.010 -0.3182 -1.2070  1.3164
 8315SOL    HW236408   1.692   3.870   6.130 -0.9991 -1.4658  0.0435
 8316SOL     OW36409   2.736   1.708   5.741 -0.0937 -0.2230 -0.4063
 8316SOL    HW136410   2.643   1.687   5.727 -0.2681  0.4026 -0.1734
 8316SOL    HW236411   2.768   1.620   5.765  0.2958  0.0561  0.0950
 8317SOL     OW36412   1.298   3.313   8.526  0.0764 -0.0945  0.2387
 8317SOL    HW136413   1.238   3.239   8.518 -2.0377  1.8276 -1.7060
 8317SOL    HW236414   1.273   3.353   8.609 -1.4188  0.6909 -0.6030
 8318SOL     OW36415   4.072   4.497   4.410  0.4577  0.4080 -0.0195
 8318SOL    HW136416   4.008   4.557   4.448  0.6005 -0.6939  2.0248
 8318SOL    HW236417   4.114   4.544   4.339  0.8491 -0.5323 -0.4039
 8319SOL     OW36418   1.416   0.707   5.624 -0.1416  0.1291  0.1128
 8319SOL    HW136419   1.409   0.617   5.592 -1.1468 -0.0277  0.7796
 8319SOL    HW236420   1.481   0.742   5.564  0.3143  1.5945  1.4703
 8320SOL     OW36421   0.508   1.698   0.714  0.0949  0.1762 -0.0726
 8320SOL    HW136422   0.526   1.607   0.737 -0.9001  0.1652  0.6499
 8320SOL    HW236423   0.509   1.703   0.619 -3.2970 -1.1183 -0.1834
 8321SOL     OW36424   4.430   1.429   3.922 -0.1587  0.7125  0.5052
 8321SOL    HW136425   4.466   1.354   3.969  1.9577  1.2369 -0.3245
 8321SOL    HW236426   4.360   1.462   3.980 -0.7022  1.2125 -0.4429
 8322SOL     OW36427   3.609   2.841   3.953  0.3358 -0.4061  0.6867
 8322SOL    HW136428   3.674   2.895   3.908 -1.4049  0.7734 -0.4116
 8322SOL    HW236429   3.652   2.842   4.038 -0.2417  0.5809  0.9701
 8323SOL     OW36430   0.947   4.124  12.222 -0.2429 -0.4963  0.3205
 8323SOL    HW136431   0.941   4.035  12.254 -2.0886 -1.5233 -2.8414
 8323SOL    HW236432   1.032   4.151  12.255  0.3544  0.4908 -2.0282
 8324SOL     OW36433   3.701   4.511   8.584 -0.1301  0.0888  0.1339
 8324SOL    HW136434   3.694   4.484   8.492 -1.8653 -0.3788  0.4058
 8324SOL    HW236435   3.614   4.484   8.614 -0.6810  1.0720 -0.5698
 8325SOL     OW36436   0.294   0.785   1.180 -0.1852  0.5127  0.8325
 8325SOL    HW136437   0.232   0.715   1.161 -1.5207  1.5273  1.4310
 8325SOL    HW236438   0.249   0.846   1.238 -2.4234  1.1724 -1.5763
 8326SOL     OW36439   1.156   0.762   5.049  0.9619 -0.1130  0.5113
 8326SOL    HW136440   1.160   0.856   5.068  1.0364  0.3775 -1.9937
 8326SOL    HW236441   1.104   0.761   4.968  1.3393 -1.3463  0.2896
 8327SOL     OW36442   3.489   1.251  17.116 -0.1448  0.4437 -0.1696
 8327SOL    HW136443   3.405   1.206  17.124  0.3731 -0.5857 -0.5741
 8327SOL    HW236444   3.561   1.192  17.139 -0.8840 -0.7487 -0.9331
 8328SOL     OW36445   0.235   0.617   6.069  0.3664  0.3443  0.1441
 8328SOL    HW136446   0.163   0.609   6.006 -0.3004 -2.2860  1.2472
 8328SOL    HW236447   0.314   0.595   6.021  1.6577 -1.3910  3.0703
 8329SOL     OW36448   0.228   1.298   5.714 -0.5441  0.0803 -0.1820
 8329SOL    HW136449   0.159   1.340   5.763 -1.4386 -0.4616 -0.9803
 8329SOL    HW236450   0.184   1.309   5.630 -0.1644  2.1948 -0.1037
 8330SOL     OW36451   3.590   0.029   6.715 -0.2375 -0.4629  0.1983
 8330SOL    HW136452   3.631   0.056   6.633  0.4221 -0.1406  0.6381
 8330SOL    HW236453   3.505   0.006   6.678 -1.2574  1.0394  1.5694
 8331SOL     OW36454   3.174   0.992   9.882  0.0071 -0.0478 -0.8539
 8331SOL    HW136455   3.084   1.016   9.901  0.6661  0.5048  1.5972
 8331SOL    HW236456   3.220   1.052   9.940  0.4573  0.9713 -2.2534
 8332SOL     OW36457   1.068   1.775   5.981  0.2218  0.5252 -0.6375
 8332SOL    HW136458   1.093   1.806   6.068  3.4155 -1.0863 -0.9861
 8332SOL    HW236459   1.028   1.850   5.937 -1.9236  0.1420  0.6412
 8333SOL     OW36460   2.511   4.296   8.050  0.7071  0.4337 -0.3481
 8333SOL    HW136461   2.423   4.260   8.045  0.5708  0.5455  1.4844
 8333SOL    HW236462   2.497   4.362   7.982  2.8480 -0.4135 -1.6150
 8334SOL     OW36463   2.917   0.490   4.012 -0.0573  0.3587  0.1309
 8334SOL    HW136464   2.993   0.464   3.960 -0.9789  0.0713 -1.0789
 8334SOL    HW236465   2.871   0.537   3.943  2.3878  1.6103 -0.6379
 8335SOL     OW36466   1.333   3.333   7.347  0.0127  0.7541  0.7051
 8335SOL    HW136467   1.301   3.356   7.260 -2.0145  1.4107  1.6400
 8335SOL    HW236468   1.280   3.257   7.373  0.2663  0.7351  1.1820
 8336SOL     OW36469   2.673   4.258   7.075 -0.2546 -0.3166 -0.3802
 8336SOL    HW136470   2.638   4.281   7.161 -1.0757 -2.0947 -0.2487
 8336SOL    HW236471   2.749   4.315   7.061 -0.1025 -0.4817 -0.2393
 8337SOL     OW36472   0.425   3.132  13.025 -0.0040  0.4582  0.1689
 8337SOL    HW136473   0.342   3.171  13.050 -1.5010  0.7596 -5.1774
 8337SOL    HW236474   0.488   3.204  13.022 -2.0738  2.2201 -0.7902
 8338SOL     OW36475   3.657   0.038   8.689 -0.1830  0.0514 -0.1363
 8338SOL    HW136476   3.694   4.685   8.647 -3.3860 -0.8050 -1.3602
 8338SOL    HW236477   3.711   0.039   8.768 -2.0129 -3.7285  1.1756
 8339SOL     OW36478   1.237   0.019   7.074 -0.7622 -0.4136  0.6717
 8339SOL    HW136479   1.161   4.686   7.085 -0.1184 -1.3112  0.4069
 8339SOL    HW236480   1.308   4.695   7.115  0.1846  1.7435  1.6328
 8340SOL     OW36481   0.145   1.284   8.063 -0.5791 -0.2280  0.2187
 8340SOL    HW136482   0.101   1.203   8.088  0.2057 -1.2233 -1.5860
 8340SOL    HW236483   0.190   1.298   8.146 -0.0968 -2.4614  0.3367
 8341SOL     OW36484   2.701   0.577   2.570 -0.1926  0.2086  0.3274
 8341SOL    HW136485   2.628   0.515   2.575  0.1382 -0.1180  1.0916
 8341SOL    HW236486   2.668   0.632   2.499 -0.4534 -1.2489 -0.6603
 8342SOL     OW36487   1.223   2.161   6.081  0.0562 -0.1906  0.1108
 8342SOL    HW136488   1.242   2.241   6.130  0.6603  0.0774 -0.5551
 8342SOL    HW236489   1.127   2.163   6.080  0.0788  0.4305 -2.3804
 8343SOL     OW36490   0.702   3.623  12.352  0.1677 -0.1323 -0.0747
 8343SOL    HW136491   0.670   3.711  12.335  1.0851  0.1581 -0.2709
 8343SOL    HW236492   0.716   3.623  12.447  3.6315 -0.3915 -0.6172
 8344SOL     OW36493   2.295   2.405  15.570 -0.1853 -0.3880 -0.0485
 8344SOL    HW136494   2.379   2.375  15.535 -0.4191 -2.1404  0.9302
 8344SOL    HW236495   2.283   2.479  15.510 -4.7559 -0.2057  1.1177
 8345SOL     OW36496   0.936   0.433   7.290  0.1895  0.5021  0.1422
 8345SOL    HW136497   0.968   0.443   7.380 -0.3972  1.8048  0.2101
 8345SOL    HW236498   1.006   0.396   7.236  0.3891  0.5517  0.3685
 8346SOL     OW36499   0.033   3.679   3.510 -0.3805 -0.1557 -0.3616
 8346SOL    HW136500   4.705   3.734   3.567  0.9411  0.9750 -0.2351
 8346SOL    HW236501   0.121   3.683   3.546  0.4015 -1.2407 -2.1565
 8347SOL     OW36502   4.635   3.078  16.512 -0.1440 -0.1050 -0.0024
 8347SOL    HW136503   4.705   3.076  16.448  0.7150  0.5645  0.9255
 8347SOL    HW236504   4.561   3.114  16.462  0.0589 -0.3724 -0.4902
 8348SOL     OW36505   2.619   0.130   4.109 -0.2434 -0.0024  0.5187
 8348SOL    HW136506   2.630   0.045   4.152 -1.6903 -0.5157 -0.1334
 8348SOL    HW236507   2.530   0.162   4.125  0.0968  1.1301  0.1097
 8349SOL     OW36508   1.768   2.725   5.094  0.0409  0.5689  0.0922
 8349SOL    HW136509   1.840   2.678   5.051 -0.4942 -1.1142  1.0345
 8349SOL    HW236510   1.727   2.654   5.143  0.2116 -0.3985 -1.1867
 8350SOL     OW36511   2.900   3.028   6.637 -0.2797  0.7242 -0.3382
 8350SOL    HW136512   2.806   3.009   6.642  0.2979 -2.0995 -0.1227
 8350SOL    HW236513   2.930   2.954   6.689  1.3504 -0.2617 -2.6845
 8351SOL     OW36514   3.672   1.447  17.031 -0.2815 -0.3585  0.1832
 8351SOL    HW136515   3.637   1.358  17.025  1.6900 -1.1486  0.0683
 8351SOL    HW236516   3.604   1.504  17.065 -0.0607 -1.3910  2.3597
 8352SOL     OW36517   3.392   4.119  17.383 -0.0296  0.0148  0.5807
 8352SOL    HW136518   3.359   4.164  17.305  2.1362  0.5053 -0.0575
 8352SOL    HW236519   3.315   4.077  17.421  0.6986 -2.0685 -0.2316
 8353SOL     OW36520   3.067   2.947   7.149  0.3995 -0.1683  0.1060
 8353SOL    HW136521   3.154   2.977   7.173  1.1750 -1.2093 -1.3958
 8353SOL    HW236522   3.062   2.868   7.203 -1.9597  0.3450  0.6460
 8354SOL     OW36523   0.984   4.318   3.015 -0.5918 -0.3180 -0.1488
 8354SOL    HW136524   0.909   4.353   2.967 -0.5107 -1.5163 -1.1399
 8354SOL    HW236525   1.055   4.336   2.954  0.1551  0.6751  1.0037
 8355SOL     OW36526   0.195   2.853  12.656  0.5035  0.1948 -0.3151
 8355SOL    HW136527   0.191   2.765  12.619  0.9378  0.3526 -0.7381
 8355SOL    HW236528   0.120   2.859  12.715  0.8173  2.2263 -0.1329
 8356SOL     OW36529   0.052   4.423   8.816 -0.0568  0.3664 -0.2977
 8356SOL    HW136530   0.087   4.346   8.861 -1.4846  0.3825  0.8376
 8356SOL    HW236531   0.127   4.479   8.794  0.2138 -0.0411 -0.3977
 8357SOL     OW36532   1.443   0.060   7.797 -0.0249 -1.1309  0.6462
 8357SOL    HW136533   1.508   0.069   7.866  2.3084 -0.8716 -1.5818
 8357SOL    HW236534   1.430   4.690   7.801  0.3714 -1.2425 -0.6743
 8358SOL     OW36535   1.415   1.545   2.065  0.7182 -0.7158  0.0743
 8358SOL    HW136536   1.489   1.552   2.005  0.8944 -1.1670  0.2415
 8358SOL    HW236537   1.365   1.501   1.996 -1.8824  1.9869  0.2220
 8359SOL     OW36538   0.271   3.088  14.045  0.1081  0.1679 -0.4547
 8359SOL    HW136539   0.352   3.114  14.002  0.1263 -0.7957 -1.0106
 8359SOL    HW236540   0.216   3.146  13.994  1.9378  0.6391 -1.8705
 8360SOL     OW36541   0.972   3.655   0.468 -0.1343  0.3737  0.0279
 8360SOL    HW136542   0.907   3.699   0.412  0.1218 -0.3632 -0.8466
 8360SOL    HW236543   0.949   3.563   0.461 -3.2030  1.0270  1.1427
 8361SOL     OW36544   1.400   4.590   2.310 -0.4412  0.6947  0.3496
 8361SOL    HW136545   1.462   4.524   2.279 -1.4597  0.8319 -1.9362
 8361SOL    HW236546   1.459   4.649   2.358  1.0423  0.6335 -1.3924
 8362SOL     OW36547   3.236   0.488   1.064  0.0488 -0.0909 -0.0202
 8362SOL    HW136548   3.207   0.411   1.015  1.8058  0.0311 -1.2444
 8362SOL    HW236549   3.325   0.499   1.029 -0.6957 -0.3692 -1.9697
 8363SOL     OW36550   4.221   1.187  15.214  0.0729 -0.3614  0.4199
 8363SOL    HW136551   4.247   1.095  15.204  0.7082 -0.0667 -0.5623
 8363SOL    HW236552   4.264   1.200  15.298  0.4527  1.4845 -0.0636
 8364SOL     OW36553   0.625   3.250   8.962  0.2123  0.6913 -0.0307
 8364SOL    HW136554   0.720   3.259   8.962  0.3896 -1.2968 -0.7780
 8364SOL    HW236555   0.615   3.249   9.057 -1.8033  2.4136 -0.2252
 8365SOL     OW36556   3.383   0.236   4.518 -0.3378 -0.4017  0.1020
 8365SOL    HW136557   3.364   0.231   4.424 -0.5535 -0.2094  0.1357
 8365SOL    HW236558   3.315   0.289   4.560  1.2063 -0.7707  3.0565
 8366SOL     OW36559   2.370   2.331  11.658 -0.1237  0.2686  0.5444
 8366SOL    HW136560   2.304   2.397  11.636  0.3128  0.4813 -0.1086
 8366SOL    HW236561   2.317   2.256  11.685  2.1078 -1.5695 -0.1492
 8367SOL     OW36562   2.231   4.171  16.611  0.0123 -0.2556  0.0836
 8367SOL    HW136563   2.291   4.097  16.611 -0.4126 -0.5881 -2.9336
 8367SOL    HW236564   2.270   4.243  16.563 -2.0876  0.9524  0.1720
 8368SOL     OW36565   0.838   1.412   6.037  0.7709  0.6461 -0.3563
 8368SOL    HW136566   0.796   1.334   6.001 -1.8351  1.8452  0.0936
 8368SOL    HW236567   0.903   1.361   6.086 -1.4177 -0.8264  1.0400
 8369SOL     OW36568   1.909   3.600   9.522  0.0738 -0.0533 -0.1327
 8369SOL    HW136569   1.833   3.567   9.473 -0.1054  0.8144 -0.4290
 8369SOL    HW236570   1.886   3.570   9.610  1.0460 -1.7084 -0.4411
 8370SOL     OW36571   4.481   2.863   7.786 -0.5264 -0.4601 -0.2790
 8370SOL    HW136572   4.564   2.897   7.819 -1.2156  0.4555  0.5178
 8370SOL    HW236573   4.434   2.856   7.869  1.2141 -1.3478  0.6432
 8371SOL     OW36574   3.298   3.359   6.661 -0.0823  0.2299 -0.0424
 8371SOL    HW136575   3.300   3.279   6.715 -0.2839  1.5410  1.9185
 8371SOL    HW236576   3.288   3.427   6.728  1.8593  1.7226 -1.2901
 8372SOL     OW36577   1.246   2.084  10.867 -0.0031 -0.2271  0.2791
 8372SOL    HW136578   1.327   2.131  10.885 -0.3505  0.9429 -1.1161
 8372SOL    HW236579   1.173   2.130  10.909 -0.0824  1.1524 -1.3766
 8373SOL     OW36580   4.409   0.972   4.281 -0.2910  0.2657  0.4029
 8373SOL    HW136581   4.436   0.949   4.370  1.4791 -1.9270 -0.7126
 8373SOL    HW236582   4.415   0.884   4.243  0.7804  0.5866 -0.1750
 8374SOL     OW36583   0.732   1.157  11.698 -0.0026 -0.2729  0.5920
 8374SOL    HW136584   0.668   1.229  11.704  1.1479  0.9382 -1.8326
 8374SOL    HW236585   0.803   1.215  11.669 -1.1925  0.1803 -1.3899
 8375SOL     OW36586   3.767   4.655  14.163  0.3042 -0.4779 -0.0534
 8375SOL    HW136587   3.835   4.701  14.211 -1.4281 -0.4595  2.3727
 8375SOL    HW236588   3.795   4.565  14.181  0.6874  0.2115  2.7704
 8376SOL     OW36589   4.668   2.830   5.306  0.0374  0.3202 -0.3458
 8376SOL    HW136590   4.625   2.766   5.250  0.0951  0.3663 -0.4418
 8376SOL    HW236591   4.716   2.884   5.244 -0.9497  0.0410 -1.3491
 8377SOL     OW36592   3.010   0.012   2.714  0.0021 -0.5063 -0.1896
 8377SOL    HW136593   3.104   0.027   2.699  0.7850 -3.2942  1.8987
 8377SOL    HW236594   2.988   0.104   2.704 -0.0495 -0.3802  1.0639
 8378SOL     OW36595   0.124   4.457   3.707 -0.2501 -0.5388  0.7825
 8378SOL    HW136596   0.082   4.423   3.628  1.0692 -1.7850  0.6068
 8378SOL    HW236597   0.105   4.393   3.775 -0.1247  0.0065  1.3358
 8379SOL     OW36598   1.014   0.208  16.911 -0.2805  0.4964 -0.4828
 8379SOL    HW136599   1.021   0.222  16.817  0.1875 -1.6434 -0.7720
 8379SOL    HW236600   0.964   0.278  16.953 -1.7051 -1.2846  0.8454
 8380SOL     OW36601   3.437   2.382  15.504  0.2449  0.4235 -0.1843
 8380SOL    HW136602   3.368   2.334  15.552  1.9546 -1.2174  0.6514
 8380SOL    HW236603   3.457   2.341  15.420  2.5270  0.9610  0.1016
 8381SOL     OW36604   4.280   2.221   2.602 -0.0889 -0.1792  0.3327
 8381SOL    HW136605   4.345   2.291   2.611 -0.4509  0.3897 -1.5782
 8381SOL    HW236606   4.284   2.172   2.684  0.5072 -0.9922 -0.1785
 8382SOL     OW36607   1.622   2.731   2.700  0.1755 -0.5486  0.4431
 8382SOL    HW136608   1.685   2.761   2.634  1.9462 -1.9660  1.4877
 8382SOL    HW236609   1.538   2.765   2.669  1.8837  4.1947  0.9158
 8383SOL     OW36610   1.713   3.415   5.067  0.5751 -0.5340  0.3368
 8383SOL    HW136611   1.677   3.442   5.152  1.7407  0.0938  0.6289
 8383SOL    HW236612   1.783   3.480   5.064 -1.0766  1.2891  1.5425
 8384SOL     OW36613   1.095   2.648   5.878  0.0012  0.5328  0.0438
 8384SOL    HW136614   1.183   2.649   5.841 -0.5506 -1.3215 -1.2993
 8384SOL    HW236615   1.062   2.566   5.844 -0.4374  0.6987  0.0697
 8385SOL     OW36616   0.520   2.710  16.158 -0.0177 -0.0730  0.5632
 8385SOL    HW136617   0.480   2.796  16.147  0.3769 -0.0271 -0.5392
 8385SOL    HW236618   0.577   2.730  16.233 -0.9789  0.1835  1.2199
 8386SOL     OW36619   0.231   1.781   2.890 -0.5921  0.0755  0.0873
 8386SOL    HW136620   0.303   1.818   2.940  0.9343 -0.3809 -1.7562
 8386SOL    HW236621   0.206   1.702   2.938  0.2317  0.7624  1.6118
 8387SOL     OW36622   2.706   0.653   3.295 -0.6240  0.0168  0.6482
 8387SOL    HW136623   2.670   0.600   3.224  0.8104  0.6574 -0.5613
 8387SOL    HW236624   2.687   0.742   3.265  0.2635  0.1524  0.5132
 8388SOL     OW36625   3.539   3.445   9.477  0.2077 -0.3069 -0.0765
 8388SOL    HW136626   3.559   3.512   9.411 -0.8439 -0.5277 -0.6111
 8388SOL    HW236627   3.459   3.404   9.444  0.2437 -0.2861 -0.1893
 8389SOL     OW36628   0.336   1.173   7.228 -0.0312  0.0875  0.2842
 8389SOL    HW136629   0.414   1.227   7.209  0.2177 -1.1530 -2.2695
 8389SOL    HW236630   0.310   1.223   7.305 -0.5477  0.6485 -0.2566
 8390SOL     OW36631   1.825   4.493  16.677 -0.4825 -0.4581 -0.2599
 8390SOL    HW136632   1.877   4.566  16.642  0.4145 -0.7804  0.4062
 8390SOL    HW236633   1.753   4.483  16.614 -1.5867  1.3771  0.7143
 8391SOL     OW36634   4.506   0.853   2.761 -0.4925 -0.3892 -0.1118
 8391SOL    HW136635   4.485   0.890   2.675  3.1565 -0.8884 -1.2280
 8391SOL    HW236636   4.422   0.852   2.805  0.2079  0.4837  1.2380
 8392SOL     OW36637   1.031   2.150   8.106  0.2424  0.3022  0.3995
 8392SOL    HW136638   0.992   2.236   8.091  0.4026  0.0275 -1.5571
 8392SOL    HW236639   0.961   2.113   8.160 -0.9150  1.2174 -0.4774
 8393SOL     OW36640   0.685   1.562   4.245  0.8346  0.6243 -0.0029
 8393SOL    HW136641   0.649   1.490   4.297  0.6615  0.3042 -0.5669
 8393SOL    HW236642   0.773   1.566   4.284 -0.0253 -0.3030  2.0391
 8394SOL     OW36643   4.079   2.844   3.663  0.0816  0.5438  0.1795
 8394SOL    HW136644   4.020   2.769   3.654 -0.4313  1.1487 -1.5019
 8394SOL    HW236645   4.068   2.869   3.572 -2.5616 -0.8792  0.1212
 8395SOL     OW36646   2.472   1.778  17.242  0.7369 -0.1083 -0.2321
 8395SOL    HW136647   2.419   1.858  17.241  0.2677 -0.4133  1.2391
 8395SOL    HW236648   2.403   1.713  17.255  0.8979 -0.2791 -0.2311
 8396SOL     OW36649   2.437   3.305   1.454  0.3595 -0.2162 -0.3910
 8396SOL    HW136650   2.480   3.391   1.460  1.1921 -0.4511 -2.6963
 8396SOL    HW236651   2.380   3.311   1.530  1.2765 -0.1435  0.2835
 8397SOL     OW36652   2.739   2.212   5.648  0.5316 -0.6876  0.3062
 8397SOL    HW136653   2.748   2.117   5.639  2.1545 -0.5257  0.2345
 8397SOL    HW236654   2.671   2.223   5.581  2.0366  2.5271 -0.6722
 8398SOL     OW36655   2.393   3.994   3.489 -0.3758 -0.2272  0.1432
 8398SOL    HW136656   2.316   3.964   3.537 -0.3218 -0.0662  0.3308
 8398SOL    HW236657   2.400   3.921   3.427 -3.6826  1.1002 -1.7693
 8399SOL     OW36658   3.080   0.691   3.671 -0.2697 -0.5614  0.0906
 8399SOL    HW136659   3.053   0.758   3.609  1.9228 -0.6845 -0.9918
 8399SOL    HW236660   3.094   0.745   3.749  0.2637 -1.3000  0.5079
 8400SOL     OW36661   1.216   3.166  11.925  0.7816  0.6311 -0.7407
 8400SOL    HW136662   1.231   3.080  11.964 -0.7406  0.2224 -1.0520
 8400SOL    HW236663   1.125   3.158  11.897  0.6838 -0.1159 -0.2015
 8401SOL     OW36664   4.352   1.412   8.156  0.5056 -0.3034  0.2541
 8401SOL    HW136665   4.436   1.437   8.119  0.5889  0.7461  1.1483
 8401SOL    HW236666   4.361   1.316   8.157 -0.1488 -0.3525  1.6101
 8402SOL     OW36667   2.539   1.910   4.002  0.3545  0.6179 -0.0520
 8402SOL    HW136668   2.486   1.938   3.927 -0.6313  1.2971  0.8915
 8402SOL    HW236669   2.568   1.998   4.027 -1.3912  1.1746  0.0180
 8403SOL     OW36670   1.214   3.403  12.404 -0.8218 -0.0890 -0.5320
 8403SOL    HW136671   1.127   3.378  12.435  0.1542 -0.8055  1.6173
 8403SOL    HW236672   1.221   3.352  12.323 -0.1983 -0.8853  0.0249
 8404SOL     OW36673   1.391   1.870   3.073  0.6296 -0.5646 -0.1124
 8404SOL    HW136674   1.471   1.886   3.124  2.0498 -1.5658 -2.0146
 8404SOL    HW236675   1.340   1.950   3.087  0.9398 -0.3254 -0.3497
 8405SOL     OW36676   0.279   0.220   6.350  0.4238  0.3822 -0.1378
 8405SOL    HW136677   0.218   0.211   6.277  0.9738 -2.5263 -0.2311
 8405SOL    HW236678   0.222   0.232   6.426  0.4554  0.6492 -0.1580
 8406SOL     OW36679   2.740   0.556  13.862  0.2952 -0.1842 -0.3551
 8406SOL    HW136680   2.784   0.552  13.777 -0.1714 -2.3548 -0.4986
 8406SOL    HW236681   2.771   0.475  13.902 -1.7504 -1.0485 -0.5078
 8407SOL     OW36682   4.299   2.922   9.308 -0.3233 -0.1860 -0.4753
 8407SOL    HW136683   4.263   3.000   9.265  0.4782  0.7319  0.5080
 8407SOL    HW236684   4.343   2.958   9.385 -0.6574 -0.0485 -0.3472
 8408SOL     OW36685   1.658   2.327   7.543  0.4345  0.1843  0.2448
 8408SOL    HW136686   1.592   2.365   7.486  0.2524  1.2591  1.1733
 8408SOL    HW236687   1.734   2.381   7.521 -0.8651  2.8677  2.4522
 8409SOL     OW36688   3.539   2.366   3.462 -1.0607 -0.2464  0.3797
 8409SOL    HW136689   3.545   2.389   3.369 -1.0952 -2.2519 -0.1167
 8409SOL    HW236690   3.499   2.280   3.448 -0.5990 -0.5240  0.7731
 8410SOL     OW36691   2.079   0.702   4.147 -0.5255 -0.0110 -0.2709
 8410SOL    HW136692   2.032   0.668   4.224 -0.5132  0.6006  0.0002
 8410SOL    HW236693   2.011   0.738   4.089  0.5823 -0.3589 -1.7882
 8411SOL     OW36694   0.258   2.652  15.638  0.2893  0.2178 -0.1206
 8411SOL    HW136695   0.289   2.734  15.600 -2.7435  1.4978  0.1365
 8411SOL    HW236696   0.303   2.651  15.723 -0.7361  0.6301  0.4275
 8412SOL     OW36697   1.449   1.936   4.478 -0.4466 -0.1251 -0.1042
 8412SOL    HW136698   1.480   1.900   4.395  1.1827 -1.3155  1.0237
 8412SOL    HW236699   1.529   1.974   4.515 -1.3684  0.2488  1.5035
 8413SOL     OW36700   0.709   2.873   6.732 -0.2893 -0.6600  0.2940
 8413SOL    HW136701   0.683   2.944   6.674 -0.4158 -1.2496 -0.3673
 8413SOL    HW236702   0.691   2.804   6.668 -0.6851  0.6456 -0.9865
 8414SOL     OW36703   0.816   3.687   2.626  0.5654 -0.3727 -0.5765
 8414SOL    HW136704   0.896   3.686   2.677  0.0304 -1.4903  0.2376
 8414SOL    HW236705   0.853   3.700   2.539 -1.5927  0.7075 -1.3543
 8415SOL     OW36706   0.340   1.031   7.007 -0.1130  0.0902 -0.3734
 8415SOL    HW136707   0.364   1.095   7.075  1.8745 -0.4327 -0.5819
 8415SOL    HW236708   0.245   1.040   6.996 -0.5496 -0.5100  2.8706
 8416SOL     OW36709   0.417   2.244   3.681  0.4380  0.6453  0.8282
 8416SOL    HW136710   0.469   2.182   3.733  0.9994  0.7823  0.4343
 8416SOL    HW236711   0.476   2.274   3.611 -2.6057  0.0628 -1.9725
 8417SOL     OW36712   2.772   2.888  13.563  0.6002 -0.0388 -0.6156
 8417SOL    HW136713   2.755   2.852  13.651 -4.7153 -1.3544 -2.1635
 8417SOL    HW236714   2.718   2.829  13.510 -0.5667  2.1158 -1.8172
 8418SOL     OW36715   3.693   0.228  14.132 -0.1452 -0.2627 -0.5270
 8418SOL    HW136716   3.612   0.254  14.088 -0.2069  0.2736 -0.0896
 8418SOL    HW236717   3.672   0.232  14.225 -2.0134 -0.4733 -0.9398
 8419SOL     OW36718   4.469   0.338   4.529  0.1377 -0.1870 -0.0027
 8419SOL    HW136719   4.424   0.377   4.453  1.5926  2.0988  0.3168
 8419SOL    HW236720   4.555   0.336   4.488  0.1122  1.8446 -0.1775
 8420SOL     OW36721   2.580   3.335   7.652 -0.7520 -0.1675 -0.5074
 8420SOL    HW136722   2.520   3.337   7.727  2.5128  1.0246  2.0212
 8420SOL    HW236723   2.571   3.246   7.617  0.7424 -0.6675  0.3997
 8421SOL     OW36724   0.710   4.641  17.589 -0.0204  0.0800 -0.4693
 8421SOL    HW136725   0.715   4.547  17.607 -0.5795  0.2346  0.5358
 8421SOL    HW236726   0.784   4.675  17.641  0.0025 -1.0548  0.2351
 8422SOL     OW36727   4.710   2.650   8.489 -0.5247 -0.0141  0.2501
 8422SOL    HW136728   4.715   2.596   8.568 -1.2407 -2.4328 -1.3466
 8422SOL    HW236729   4.697   2.739   8.522  0.8799 -0.6105  2.4523
 8423SOL     OW36730   4.687   2.964   7.924  0.1088  0.2115  0.4265
 8423SOL    HW136731   0.032   2.899   7.914  0.2938  0.4815 -0.0261
 8423SOL    HW236732   4.682   2.960   8.019  2.8536 -0.5333  0.5256
 8424SOL     OW36733   4.462   4.071   9.635  0.1824 -0.1388  0.5912
 8424SOL    HW136734   4.409   4.114   9.702  0.5322  1.8634 -0.3982
 8424SOL    HW236735   4.462   3.984   9.675 -3.6059 -0.7396 -0.6373
 8425SOL     OW36736   1.031   0.320  12.307  0.2297 -0.2477 -0.5010
 8425SOL    HW136737   1.013   0.335  12.399 -2.5490  0.1313 -1.1200
 8425SOL    HW236738   0.946   0.346  12.272  0.2154 -0.8863 -0.9589
 8426SOL     OW36739   4.131   1.653   1.188 -0.0475 -0.6019 -0.0409
 8426SOL    HW136740   4.062   1.606   1.234  1.3096 -1.5652  1.0095
 8426SOL    HW236741   4.111   1.744   1.212 -0.2499 -0.2503 -1.5393
 8427SOL     OW36742   4.222   0.168   7.897  0.0473 -0.1027 -0.1811
 8427SOL    HW136743   4.144   0.224   7.892  1.4725  1.8597  0.0385
 8427SOL    HW236744   4.285   0.212   7.841  0.3283 -1.1441 -0.6758
 8428SOL     OW36745   2.532   4.159   3.892  0.1777 -0.1175  0.8020
 8428SOL    HW136746   2.530   4.078   3.944  0.3165  0.5656  1.8874
 8428SOL    HW236747   2.560   4.227   3.954 -0.8924  0.1763  0.9604
 8429SOL     OW36748   2.569   3.289   4.099  0.0123  0.3520 -0.2590
 8429SOL    HW136749   2.588   3.209   4.050  1.4583  0.4934  0.0651
 8429SOL    HW236750   2.474   3.284   4.108  0.0952 -0.7343 -0.0029
 8430SOL     OW36751   2.189   2.272   8.230  0.2996 -0.8634  0.4364
 8430SOL    HW136752   2.229   2.281   8.317 -2.5058  1.1732  1.5122
 8430SOL    HW236753   2.252   2.212   8.190 -0.7291  0.1960 -2.7074
 8431SOL     OW36754   0.578   3.286   4.389  0.0495  0.9141 -0.0467
 8431SOL    HW136755   0.668   3.293   4.357 -0.0826  0.9459 -0.4148
 8431SOL    HW236756   0.563   3.371   4.430 -0.3448  0.4006  0.8583
 8432SOL     OW36757   3.303   3.877   6.602 -0.0020 -0.2561  0.5191
 8432SOL    HW136758   3.301   3.827   6.684  1.5576 -2.7073 -0.9762
 8432SOL    HW236759   3.216   3.915   6.618 -0.9186 -2.0145 -0.3490
 8433SOL     OW36760   0.538   1.710  13.114 -0.4957  0.2346 -0.3648
 8433SOL    HW136761   0.580   1.777  13.060 -0.3604  0.3413 -0.1304
 8433SOL    HW236762   0.604   1.641  13.119  0.1113  0.8636  0.2201
 8434SOL     OW36763   4.082   1.097   1.670  0.4769  0.4763 -0.5824
 8434SOL    HW136764   4.005   1.133   1.714  0.6530 -0.5199  0.5534
 8434SOL    HW236765   4.064   1.005   1.690  0.0101  0.3577 -1.5745
 8435SOL     OW36766   0.033   2.725   4.914 -0.5180  0.4519 -0.2297
 8435SOL    HW136767   0.018   2.727   5.009 -1.3105 -3.6878 -0.2532
 8435SOL    HW236768   4.677   2.683   4.887 -1.3309  0.6221  1.8736
 8436SOL     OW36769   4.441   4.086  14.458  0.6254  0.0681  0.3162
 8436SOL    HW136770   4.400   4.013  14.412 -2.6097  2.0548  0.0642
 8436SOL    HW236771   4.426   4.157  14.395 -1.2994 -0.5496  0.0942
 8437SOL     OW36772   0.287   1.886   6.808 -0.1115 -0.1655 -0.6173
 8437SOL    HW136773   0.282   1.790   6.806  0.2772 -0.1637 -1.8519
 8437SOL    HW236774   0.379   1.901   6.829 -1.0689  2.2686  1.7551
 8438SOL     OW36775   4.406   1.829   1.972  0.2165  0.4597 -0.1471
 8438SOL    HW136776   4.407   1.759   2.036  0.0716 -0.3379 -1.0175
 8438SOL    HW236777   4.394   1.903   2.032  2.6717 -1.5526  2.8376
 8439SOL     OW36778   0.183   0.668   9.340  0.8008  0.3911 -0.3554
 8439SOL    HW136779   0.183   0.729   9.414  1.2169 -0.1257  0.0682
 8439SOL    HW236780   0.144   0.590   9.381  1.2475 -1.2724 -3.0947
 8440SOL     OW36781   3.610   1.157   5.070 -0.7569 -0.0708 -0.1696
 8440SOL    HW136782   3.648   1.145   4.983 -0.0577  0.0696  0.1188
 8440SOL    HW236783   3.606   1.069   5.107 -0.1414  0.1917  0.5068
 8441SOL     OW36784   0.910   3.136   4.028  0.0178 -0.1908 -0.1509
 8441SOL    HW136785   0.849   3.198   3.988  0.6839  0.6314  0.1203
 8441SOL    HW236786   0.842   3.094   4.081  1.3921 -0.4023  1.4129
 8442SOL     OW36787   2.509   3.541   5.466  0.6225 -0.6322 -0.1765
 8442SOL    HW136788   2.579   3.504   5.412 -0.4122 -0.2349 -1.7906
 8442SOL    HW236789   2.551   3.615   5.509 -0.7791 -0.3853  0.7593
 8443SOL     OW36790   2.968   4.037   1.883 -0.3007 -0.4285  0.4404
 8443SOL    HW136791   2.930   4.030   1.796  0.2237 -2.0062  0.3305
 8443SOL    HW236792   3.033   3.967   1.872 -0.2937 -0.4644  0.7040
 8444SOL     OW36793   0.456   1.512   4.093  0.4191 -0.9037 -0.2143
 8444SOL    HW136794   0.479   1.525   4.001 -0.1758 -1.1421 -0.3959
 8444SOL    HW236795   0.540   1.518   4.140 -0.4472  1.2631  1.0208
 8445SOL     OW36796   3.561   3.708   5.094  0.2200 -0.2195  0.3914
 8445SOL    HW136797   3.584   3.735   5.183  2.3614  0.0345 -0.2344
 8445SOL    HW236798   3.554   3.796   5.057  1.0646  0.5730  2.1130
 8446SOL     OW36799   0.540   1.280  11.065 -0.1973  0.3187  0.6062
 8446SOL    HW136800   0.579   1.237  11.142 -0.8256 -1.0553  0.1606
 8446SOL    HW236801   0.604   1.245  11.003  1.2132  3.7538  0.1137
 8447SOL     OW36802   4.548   4.190  10.641 -0.3161 -0.4861 -0.1786
 8447SOL    HW136803   4.503   4.185  10.725 -0.9247  1.0672 -0.4330
 8447SOL    HW236804   4.517   4.276  10.615 -1.1509 -0.3838  1.1735
 8448SOL     OW36805   0.093   2.507   3.611 -0.6114  0.0422 -0.8248
 8448SOL    HW136806   0.115   2.447   3.682  1.0148  2.6584  0.8637
 8448SOL    HW236807   0.122   2.461   3.532 -1.9313 -1.6217 -0.3354
 8449SOL     OW36808   1.992   3.998   4.861  0.4167 -1.0346  0.4660
 8449SOL    HW136809   2.001   3.995   4.766 -3.3678  1.8742 -0.0131
 8449SOL    HW236810   2.081   3.991   4.894  0.9379 -1.3241 -1.0231
 8450SOL     OW36811   1.562   0.562   2.662 -0.1987  0.4513  0.1100
 8450SOL    HW136812   1.518   0.486   2.622  0.0464 -0.1307  0.9511
 8450SOL    HW236813   1.527   0.633   2.608 -0.4328  0.5491  0.3926
 8451SOL     OW36814   3.025   1.997   3.415  0.6254 -0.1086  0.0729
 8451SOL    HW136815   3.041   1.962   3.502  0.9434  1.9279  0.8346
 8451SOL    HW236816   3.063   2.085   3.421  1.0785 -0.1921 -1.5767
 8452SOL     OW36817   2.348   2.854  10.536  0.4515  0.0408 -0.1700
 8452SOL    HW136818   2.305   2.863  10.451  1.2043  0.9763 -0.4542
 8452SOL    HW236819   2.432   2.815  10.512 -0.1370 -0.0461 -2.0903
 8453SOL     OW36820   2.318   4.203  12.633  0.0822  0.4792  0.2548
 8453SOL    HW136821   2.240   4.254  12.612 -0.6666 -0.9596 -0.4577
 8453SOL    HW236822   2.284   4.114  12.647 -0.3668  0.3684 -1.5438
 8454SOL     OW36823   3.987   3.471   1.757 -0.2630 -0.1519  0.0703
 8454SOL    HW136824   4.078   3.447   1.737  0.4175  0.2756  2.7328
 8454SOL    HW236825   3.977   3.559   1.720 -1.0020  0.5590  1.9908
 8455SOL     OW36826   0.871   1.691   6.264 -0.2995  0.4563 -0.3016
 8455SOL    HW136827   0.857   1.609   6.311 -1.7382  0.7977 -0.1250
 8455SOL    HW236828   0.781   1.722   6.249 -0.2734  1.1529  1.0169
 8456SOL     OW36829   1.813   3.425   4.315 -0.0027 -0.4929  0.1876
 8456SOL    HW136830   1.746   3.417   4.383  0.8420  1.4544  1.2519
 8456SOL    HW236831   1.864   3.349   4.343 -0.6759 -1.5956 -1.5594
 8457SOL     OW36832   4.454   4.352   8.798  0.0441 -0.1628 -0.2977
 8457SOL    HW136833   4.504   4.270   8.803  0.4491  0.0887 -0.2818
 8457SOL    HW236834   4.493   4.397   8.724  0.6729  1.2524  0.8954
 8458SOL     OW36835   1.424   1.801   7.340  0.8204 -0.0223 -0.1125
 8458SOL    HW136836   1.390   1.875   7.290 -0.9004 -0.2101  0.7947
 8458SOL    HW236837   1.508   1.834   7.373  0.9318  2.0442 -2.4342
 8459SOL     OW36838   2.260   4.493   7.871  0.0795 -0.7831  0.0806
 8459SOL    HW136839   2.277   4.438   7.795 -1.4706  1.8778 -2.1817
 8459SOL    HW236840   2.190   4.447   7.917  1.1842 -2.0383  0.5162
 8460SOL     OW36841   0.070   4.360  12.957 -0.2564 -0.2460  0.3383
 8460SOL    HW136842   0.103   4.394  13.040 -0.2019  0.6482 -0.0456
 8460SOL    HW236843   0.035   4.277  12.988 -1.5957  0.6463  1.2137
 8461SOL     OW36844   0.100   2.920  11.080  0.1334 -0.1569 -0.0845
 8461SOL    HW136845   0.167   2.960  11.025  0.6249 -0.3942  0.3387
 8461SOL    HW236846   0.089   2.837  11.032 -1.3175  1.0705 -1.8723
 8462SOL     OW36847   1.871   0.490   2.250 -0.0999  0.4512 -0.1653
 8462SOL    HW136848   1.858   0.527   2.338  2.8849 -1.6684  1.1793
 8462SOL    HW236849   1.943   0.545   2.221 -2.3950  2.3311 -2.3433
 8463SOL     OW36850   4.355   3.672   2.662  0.2083  0.0772 -0.2172
 8463SOL    HW136851   4.372   3.747   2.604  1.4462  1.0069  1.3566
 8463SOL    HW236852   4.449   3.660   2.676  0.3004 -0.7376 -1.4818
 8464SOL     OW36853   3.740   0.666   7.999  0.0983  0.4839  0.3294
 8464SOL    HW136854   3.819   0.652   7.947 -0.1637  0.4649 -0.0617
 8464SOL    HW236855   3.755   0.593   8.060  2.5979  0.1227 -0.7282
 8465SOL     OW36856   4.302   3.856   8.652  0.0449 -0.5779  0.1922
 8465SOL    HW136857   4.302   3.901   8.736 -2.7646  0.4434 -0.3627
 8465SOL    HW236858   4.330   3.766   8.670  2.8077  0.2028 -0.2254
 8466SOL     OW36859   3.294   0.295   7.864  0.1478  0.3008  0.4544
 8466SOL    HW136860   3.321   0.276   7.954 -2.6757 -2.3430  0.7158
 8466SOL    HW236861   3.341   0.375   7.841 -0.6074  0.6540  0.1725
 8467SOL     OW36862   3.558   1.553  13.270  0.3726  0.6079 -0.5313
 8467SOL    HW136863   3.616   1.569  13.195  1.5343  0.1982  0.2959
 8467SOL    HW236864   3.607   1.507  13.338  0.7066  1.2313 -0.3437
 8468SOL     OW36865   1.971   1.076   9.869 -0.1008  0.0297  0.2392
 8468SOL    HW136866   1.934   1.143   9.926  0.9349  0.7455  0.0746
 8468SOL    HW236867   2.008   1.135   9.803 -2.3698  0.9794 -0.1800
 8469SOL     OW36868   1.372   3.707   7.005  0.1080 -0.2677  0.7655
 8469SOL    HW136869   1.447   3.685   6.949 -1.5954  0.5830 -1.8454
 8469SOL    HW236870   1.290   3.697   6.958  0.8680  3.7285 -1.4212
 8470SOL     OW36871   1.931   4.121  14.578 -0.0121 -0.4156  0.0299
 8470SOL    HW136872   2.022   4.109  14.551 -0.3658 -1.7144 -0.5646
 8470SOL    HW236873   1.885   4.115  14.494  1.5798  0.7170 -0.9381
 8471SOL     OW36874   2.646   0.152  12.233  0.0952 -0.5686  0.0874
 8471SOL    HW136875   2.729   0.144  12.280 -0.5762 -0.3232  1.3187
 8471SOL    HW236876   2.652   0.242  12.203  0.4806 -0.3447  0.8471
 8472SOL     OW36877   3.403   1.299   5.171  0.2966  0.2130  0.1265
 8472SOL    HW136878   3.352   1.235   5.220 -0.3467  0.1110 -0.6882
 8472SOL    HW236879   3.478   1.247   5.141  1.7754  0.9540  2.4840
 8473SOL     OW36880   3.198   1.791   5.176  0.3165  0.1024 -0.2875
 8473SOL    HW136881   3.247   1.827   5.102  0.9879 -0.9272 -0.3424
 8473SOL    HW236882   3.204   1.860   5.243  0.6692 -0.9789  0.8031
 8474SOL     OW36883   3.134   0.971   4.129  0.5470 -0.0011 -0.3700
 8474SOL    HW136884   3.043   0.989   4.154  0.4219 -0.5027 -0.4533
 8474SOL    HW236885   3.148   0.879   4.151 -1.9652  0.4829  3.3510
 8475SOL     OW36886   4.672   2.703   5.910  0.8116  0.1802 -0.1414
 8475SOL    HW136887   0.042   2.717   5.903  0.7236  0.7153 -0.2951
 8475SOL    HW236888   4.661   2.719   6.004 -0.7551 -1.5616 -0.0347
 8476SOL     OW36889   0.536   1.235  16.128  0.4167  0.0036 -0.4610
 8476SOL    HW136890   0.514   1.143  16.111  2.3328 -0.7239  0.9379
 8476SOL    HW236891   0.473   1.283  16.074 -0.7677 -1.3839 -0.3147
 8477SOL     OW36892   3.320   2.028   8.311  0.3021  0.3492  0.5419
 8477SOL    HW136893   3.263   2.034   8.387 -1.8117  0.2742 -1.0609
 8477SOL    HW236894   3.265   2.044   8.234  0.0684  0.0485  0.6497
 8478SOL     OW36895   1.922   4.331   5.496 -0.2271  1.1192  0.5180
 8478SOL    HW136896   1.988   4.278   5.539 -0.0819  0.5375 -0.4099
 8478SOL    HW236897   1.895   4.386   5.569 -1.3965  0.8029  0.3410
 8479SOL     OW36898   4.243   4.371   9.538  0.5448  0.2399  0.3499
 8479SOL    HW136899   4.175   4.314   9.503 -1.6681  2.4811  1.0147
 8479SOL    HW236900   4.283   4.309   9.599 -0.1325 -0.2548  0.2838
 8480SOL     OW36901   2.255   0.094   9.171  0.3675 -0.1691  0.4661
 8480SOL    HW136902   2.167   0.060   9.190  1.3094 -1.5124  2.3552
 8480SOL    HW236903   2.316   0.081   9.243  0.7845 -0.1324  0.1190
 8481SOL     OW36904   3.647   3.989  14.843 -0.4376  0.9458 -0.0258
 8481SOL    HW136905   3.742   3.982  14.849 -0.4293  1.0850  0.0204
 8481SOL    HW236906   3.641   4.045  14.921 -1.0380  1.5313 -0.4931
 8482SOL     OW36907   3.821   1.692   2.257 -0.6051  0.5015 -0.5816
 8482SOL    HW136908   3.911   1.720   2.268 -0.4767 -0.1267 -0.0398
 8482SOL    HW236909   3.772   1.753   2.312 -0.1906  1.2829 -1.0751
 8483SOL     OW36910   3.335   0.979   4.999 -0.0244  0.5337 -0.4493
 8483SOL    HW136911   3.417   0.956   5.043  0.0746  2.0334  0.1637
 8483SOL    HW236912   3.344   1.074   5.005  1.2341  0.3465  0.7062
 8484SOL     OW36913   3.741   4.574   5.932  0.2944 -0.8408 -0.2276
 8484SOL    HW136914   3.671   4.580   5.867 -0.2330 -2.3955  0.2063
 8484SOL    HW236915   3.717   4.492   5.974  0.3856  0.7786  2.9196
 8485SOL     OW36916   3.432   1.389   5.813  0.1313  0.7889 -0.7339
 8485SOL    HW136917   3.419   1.467   5.867  0.1055  0.8123 -0.7736
 8485SOL    HW236918   3.502   1.401   5.749  0.5436 -0.2922 -0.4818
 8486SOL     OW36919   2.656   3.986   1.883  0.4006  0.6431 -0.2118
 8486SOL    HW136920   2.646   3.948   1.970  1.3674 -1.1432 -0.8815
 8486SOL    HW236921   2.748   4.014   1.889 -0.2534  2.3809  1.8714
 8487SOL     OW36922   1.432   3.236  11.766 -0.2061 -0.3504 -0.1907
 8487SOL    HW136923   1.351   3.238  11.817  0.3428  0.5582  0.6435
 8487SOL    HW236924   1.414   3.178  11.692  1.0302 -0.3835 -0.4637
 8488SOL     OW36925   2.589   4.722   9.121  0.0225  0.2579  0.2440
 8488SOL    HW136926   2.557   0.086   9.138  1.0210  0.4929  0.8906
 8488SOL    HW236927   2.515   4.661   9.120  1.2054 -1.1652 -1.0406
 8489SOL     OW36928   4.467   1.440  10.094  0.4537 -0.5357 -0.4849
 8489SOL    HW136929   4.414   1.508  10.052 -0.2711 -1.6925 -1.4192
 8489SOL    HW236930   4.539   1.494  10.128 -1.0477  1.7389 -0.8938
 8490SOL     OW36931   0.090   3.290   2.828  0.2489  0.1020  0.4067
 8490SOL    HW136932   0.114   3.358   2.765 -0.0630  1.7351  2.0640
 8490SOL    HW236933   0.134   3.214   2.790  0.9254  1.0731 -0.7432
 8491SOL     OW36934   1.006   3.096  13.839  0.2581 -0.4056 -0.2157
 8491SOL    HW136935   1.012   3.127  13.929 -0.1663 -1.1975  0.0800
 8491SOL    HW236936   0.996   3.184  13.802  1.6787 -0.5744 -1.0302
 8492SOL     OW36937   2.068   3.483   4.642  0.4362  0.2033  0.4018
 8492SOL    HW136938   2.043   3.471   4.734  1.6558  0.0848  0.7103
 8492SOL    HW236939   2.066   3.389   4.621  2.1755  0.1836  0.3807
 8493SOL     OW36940   1.773   3.454   9.333 -0.6040 -0.5835 -0.2023
 8493SOL    HW136941   1.710   3.485   9.268 -0.4649 -0.9676 -0.5200
 8493SOL    HW236942   1.849   3.448   9.275 -0.4046 -2.1107  0.1992
 8494SOL     OW36943   1.674   2.511  16.896  0.4780  0.1536 -0.1884
 8494SOL    HW136944   1.629   2.590  16.926 -1.4939 -0.3267 -1.9110
 8494SOL    HW236945   1.671   2.470  16.983 -0.5814 -1.3010 -0.9213
 8495SOL     OW36946   2.346   3.835   8.802 -0.1203  0.8377 -0.0952
 8495SOL    HW136947   2.318   3.924   8.779 -1.3950  0.7456  1.1334
 8495SOL    HW236948   2.400   3.821   8.725 -1.5258 -1.1324 -0.7037
 8496SOL     OW36949   0.039   2.131  12.694 -0.4992  0.5154 -0.2387
 8496SOL    HW136950   4.678   2.167  12.716 -0.0773  0.5597  1.2749
 8496SOL    HW236951   0.066   2.186  12.620 -1.0688  2.8592  1.3237
 8497SOL     OW36952   3.853   2.079   8.490  0.5250 -0.0474 -0.0099
 8497SOL    HW136953   3.874   2.140   8.560  1.2497  1.6880 -1.7418
 8497SOL    HW236954   3.757   2.082   8.491  0.5530  1.7442 -2.5535
 8498SOL     OW36955   0.634   3.587   3.330 -0.0097  0.0174 -0.1080
 8498SOL    HW136956   0.607   3.631   3.249 -2.8994  0.5063  1.1369
 8498SOL    HW236957   0.577   3.631   3.393  1.1348  0.1076  0.8655
 8499SOL     OW36958   2.478   3.207  17.564  0.1002 -0.8308 -0.1352
 8499SOL    HW136959   2.433   3.123  17.570 -0.0054 -0.8535 -1.3063
 8499SOL    HW236960   2.418   3.268  17.609  0.8160 -2.0351  2.4628
 8500SOL     OW36961   0.539   3.487   2.110 -0.3940 -0.1787  0.1974
 8500SOL    HW136962   0.595   3.452   2.040  0.0554  4.1401 -1.6237
 8500SOL    HW236963   0.607   3.501   2.176  0.5566  2.6314 -1.3833
 8501SOL     OW36964   3.982   3.907   2.443 -0.2843 -0.0792 -0.3582
 8501SOL    HW136965   3.946   3.996   2.444 -0.5003 -0.1582 -0.7367
 8501SOL    HW236966   3.969   3.873   2.354 -0.6467 -0.2334 -0.2463
 8502SOL     OW36967   3.983   1.488   6.888  0.0268 -0.2389  0.2180
 8502SOL    HW136968   3.907   1.501   6.832 -0.0022 -1.2921  0.0078
 8502SOL    HW236969   4.051   1.533   6.838 -0.4249 -0.1908 -0.3421
 8503SOL     OW36970   3.976   0.753  10.816 -0.3703 -0.0924  0.1364
 8503SOL    HW136971   3.971   0.674  10.870  0.6720  0.4539  1.0041
 8503SOL    HW236972   4.045   0.806  10.855 -1.2308  1.8249 -0.9409
 8504SOL     OW36973   4.388   1.062   9.292 -0.2840 -0.2772  0.7269
 8504SOL    HW136974   4.439   0.982   9.283 -1.8509 -0.9931 -1.7463
 8504SOL    HW236975   4.376   1.084   9.200  0.7045 -0.4418  0.5614
 8505SOL     OW36976   0.567   2.444   6.672 -0.3891 -0.1679  0.2021
 8505SOL    HW136977   0.498   2.379   6.675 -1.1563  0.6992  1.3948
 8505SOL    HW236978   0.529   2.523   6.712 -0.6106  0.1870 -0.6948
 8506SOL     OW36979   2.793   0.323   4.271 -0.1892 -0.3230  0.4320
 8506SOL    HW136980   2.798   0.251   4.334  1.0280  0.2786  1.0164
 8506SOL    HW236981   2.753   0.393   4.323  0.0252  0.0349  0.1165
 8507SOL     OW36982   1.969   4.420   8.074 -0.0629  0.3225 -0.0428
 8507SOL    HW136983   1.918   4.495   8.044  0.2167  0.4154 -0.2908
 8507SOL    HW236984   1.916   4.398   8.150 -0.7216 -2.0733 -1.1704
 8508SOL     OW36985   0.407   0.928   6.778 -0.0822 -1.2197  0.5494
 8508SOL    HW136986   0.385   0.968   6.863 -1.8048 -1.0458  0.0222
 8508SOL    HW236987   0.317   0.923   6.746  0.4810 -2.5663 -0.7835
 8509SOL     OW36988   3.446   0.824   4.067 -0.0611 -0.3505 -0.6172
 8509SOL    HW136989   3.367   0.805   4.118 -0.7444  3.0916 -0.4192
 8509SOL    HW236990   3.508   0.759   4.101 -0.8751 -0.4586  0.6503
 8510SOL     OW36991   1.142   2.776   4.371  0.0246 -0.2407 -0.2058
 8510SOL    HW136992   1.082   2.833   4.420 -0.4103  1.2906 -2.5275
 8510SOL    HW236993   1.206   2.739   4.432 -1.1689 -1.3163  0.3939
 8511SOL     OW36994   4.638   0.337   5.491  0.0018 -0.0142 -0.0387
 8511SOL    HW136995   4.650   0.426   5.460 -0.7070  0.3054  0.5897
 8511SOL    HW236996   4.550   0.349   5.527  0.5566  1.4776  0.8235
 8512SOL     OW36997   3.782   3.358   3.487  0.4630 -0.3984 -0.1586
 8512SOL    HW136998   3.817   3.292   3.427 -3.2462 -0.9451 -1.7156
 8512SOL    HW236999   3.763   3.314   3.569  0.8637 -2.1662 -1.0103
 8513SOL     OW37000   4.004   2.275   7.877 -0.0374 -0.1475 -0.8526
 8513SOL    HW137001   4.042   2.281   7.790  1.5708  0.9006 -0.0693
 8513SOL    HW237002   3.959   2.190   7.871 -0.4946 -0.0685  1.4065
 8514SOL     OW37003   3.918   0.322   1.322  0.2331  0.2125  0.6770
 8514SOL    HW137004   3.952   0.238   1.288  1.1042  1.0591 -0.5654
 8514SOL    HW237005   4.000   0.369   1.336 -0.7497  1.8965  0.7002
 8515SOL     OW37006   4.252   0.440   7.738 -0.3231 -0.1182 -0.2490
 8515SOL    HW137007   4.335   0.398   7.762  0.4241  2.9358  2.4840
 8515SOL    HW237008   4.224   0.478   7.821  0.9215 -0.9983  0.5780
 8516SOL     OW37009   4.395   2.757   5.158  0.0254  0.9309 -0.4294
 8516SOL    HW137010   4.465   2.693   5.148 -1.4605 -0.7577 -0.0665
 8516SOL    HW237011   4.335   2.701   5.207 -0.6251  0.7669 -1.4120
 8517SOL     OW37012   0.171   0.920   1.384  0.3321 -0.2464  0.2283
 8517SOL    HW137013   0.128   0.852   1.436  0.7405  0.5373  1.5914
 8517SOL    HW237014   0.130   1.003   1.408 -2.0660 -1.1533 -0.6939
 8518SOL     OW37015   2.031   2.619   8.362  0.6108 -0.6603  0.4870
 8518SOL    HW137016   2.057   2.679   8.432  3.1543  1.2739 -2.1129
 8518SOL    HW237017   2.084   2.644   8.286  0.5974 -1.7414  0.1181
 8519SOL     OW37018   1.742   3.028   6.216  0.1108  1.1050  0.2991
 8519SOL    HW137019   1.820   3.046   6.164 -0.7973 -0.1655 -1.5013
 8519SOL    HW237020   1.734   3.113   6.259  0.8603  1.0114  0.6313
 8520SOL     OW37021   2.207   2.336   4.905 -0.1781  0.1421 -0.3231
 8520SOL    HW137022   2.112   2.346   4.911 -0.2655 -1.9239  1.8010
 8520SOL    HW237023   2.221   2.281   4.982  2.8938  2.3540  0.7261
 8521SOL     OW37024   4.150   3.359   7.483  0.2901 -0.0311  0.0068
 8521SOL    HW137025   4.067   3.314   7.465  1.0728 -2.7344  3.1263
 8521SOL    HW237026   4.191   3.302   7.548  1.2294 -0.0080 -0.5680
 8522SOL     OW37027   3.759   1.984  11.916  0.2708 -0.2983 -0.1725
 8522SOL    HW137028   3.850   1.968  11.942 -0.5496 -0.6747  2.4428
 8522SOL    HW237029   3.773   2.012  11.825 -0.7005  1.2249  0.1625
 8523SOL     OW37030   3.355   0.089  14.756  0.3944 -0.2522  0.1608
 8523SOL    HW137031   3.326   0.180  14.760 -1.1329 -0.7598  0.9710
 8523SOL    HW237032   3.440   0.097  14.713  0.6258 -2.9903  0.0972
 8524SOL     OW37033   3.706   2.750   9.248 -0.0062 -0.3263  0.5312
 8524SOL    HW137034   3.786   2.790   9.215  0.7279  0.1038  2.8802
 8524SOL    HW237035   3.644   2.784   9.182  2.0424  2.2453 -0.0635
 8525SOL     OW37036   3.746   0.988   9.879  0.7383 -0.4714 -0.0795
 8525SOL    HW137037   3.666   0.983   9.932  0.5226 -2.4813 -0.5920
 8525SOL    HW237038   3.724   0.929   9.807  0.3676  0.1449 -0.4671
 8526SOL     OW37039   2.742   3.654   0.561 -0.3097 -0.1259 -0.4927
 8526SOL    HW137040   2.778   3.601   0.632 -0.2686 -1.7780 -1.7576
 8526SOL    HW237041   2.814   3.717   0.558 -1.3256  1.0248 -0.5451
 8527SOL     OW37042   4.188   0.506  16.960  0.1606  0.3840  0.1330
 8527SOL    HW137043   4.212   0.596  16.937  1.5579  0.5294  2.1510
 8527SOL    HW237044   4.094   0.508  16.946  0.6431 -1.2896 -3.2174
 8528SOL     OW37045   4.242   1.782   3.476 -1.1282  0.2169 -0.0595
 8528SOL    HW137046   4.230   1.863   3.426  1.3065  1.0365  0.6827
 8528SOL    HW237047   4.199   1.716   3.423 -0.9380 -1.6014  2.0305
 8529SOL     OW37048   3.731   1.981   1.867  0.2996  0.2426 -0.4469
 8529SOL    HW137049   3.796   1.981   1.937  2.0752 -0.1917 -2.1051
 8529SOL    HW237050   3.767   1.928   1.796  1.3578  0.6409 -0.2081
 8530SOL     OW37051   0.975   3.940  14.438  0.2944  0.3038 -0.1739
 8530SOL    HW137052   0.916   3.864  14.438 -0.5579  0.9585 -1.3268
 8530SOL    HW237053   0.973   3.958  14.344  1.8586  2.3089  0.1966
 8531SOL     OW37054   1.466   0.408   8.860 -0.3675  0.4251  0.0710
 8531SOL    HW137055   1.498   0.367   8.940 -1.2780  1.5656  1.0093
 8531SOL    HW237056   1.437   0.329   8.813 -0.5502  0.0836  0.7596
 8532SOL     OW37057   3.273   1.358   3.621  0.4421 -0.0044 -0.1104
 8532SOL    HW137058   3.196   1.313   3.587  1.1295  0.5898 -2.3995
 8532SOL    HW237059   3.280   1.308   3.703 -0.4428  0.4475  0.2356
 8533SOL     OW37060   1.888   0.500   5.622 -0.3474 -0.3940  0.3573
 8533SOL    HW137061   1.794   0.496   5.636 -0.4859 -4.7692 -1.8136
 8533SOL    HW237062   1.906   0.439   5.550  0.1003 -0.3184  0.4066
 8534SOL     OW37063   0.066   4.061   7.561  0.4183 -0.4510 -0.7705
 8534SOL    HW137064   0.151   4.026   7.587  1.3082  2.0302 -0.2880
 8534SOL    HW237065   0.093   4.141   7.514 -2.1410  0.9887  0.1797
 8535SOL     OW37066   4.576   2.281  12.888 -0.1950 -0.4167  0.3616
 8535SOL    HW137067   4.571   2.281  12.984  1.1236 -0.9873  0.4316
 8535SOL    HW237068   4.526   2.201  12.871 -0.3704 -0.6294  1.8322
 8536SOL     OW37069   3.473   4.688  14.988 -0.5609  0.2583  0.2221
 8536SOL    HW137070   3.452   4.602  14.951 -0.3051 -0.4071  1.6339
 8536SOL    HW237071   3.434   0.013  14.916  1.9146  0.0603 -1.2503
 8537SOL     OW37072   2.032   4.533   3.831 -0.3046 -0.3831  0.1005
 8537SOL    HW137073   2.119   4.551   3.868  0.4482 -0.0484 -1.8261
 8537SOL    HW237074   1.978   4.567   3.903 -1.8352 -1.7811 -0.4091
 8538SOL     OW37075   3.327   3.340   8.485  0.5097  0.4508  0.3438
 8538SOL    HW137076   3.305   3.288   8.562  0.8782 -1.1366 -0.6257
 8538SOL    HW237077   3.245   3.388   8.472 -1.3126 -2.1719  2.0137
 8539SOL     OW37078   2.200   4.124  16.120 -0.3751  0.0242 -0.1707
 8539SOL    HW137079   2.132   4.167  16.069  1.6059 -0.1846 -2.9983
 8539SOL    HW237080   2.146   4.087  16.190 -1.0685 -0.8882 -1.2029
 8540SOL     OW37081   0.273   0.368   7.463  0.1645 -0.1754 -0.3006
 8540SOL    HW137082   0.188   0.396   7.498  1.2112  1.0656  1.2632
 8540SOL    HW237083   0.299   0.445   7.414  0.7591 -0.2793 -0.1422
 8541SOL     OW37084   1.565   1.671   3.380  0.1907  0.3233  0.0774
 8541SOL    HW137085   1.590   1.592   3.332 -0.2608 -0.5731  1.2970
 8541SOL    HW237086   1.650   1.681   3.423  0.5635  1.8483 -1.0202
 8542SOL     OW37087   3.324   3.223   7.416 -0.0902 -0.5666 -0.1557
 8542SOL    HW137088   3.281   3.308   7.427  2.4893  0.6694  0.4172
 8542SOL    HW237089   3.299   3.159   7.483  0.6482  0.5601  1.2031
 8543SOL     OW37090   4.185   1.177   4.470  0.3332 -0.3622 -0.0086
 8543SOL    HW137091   4.235   1.204   4.394  0.8254  1.0871  0.8373
 8543SOL    HW237092   4.150   1.260   4.502  0.2144 -1.2378  2.1706
 8544SOL     OW37093   2.133   1.844  10.125  0.7216 -0.3454 -0.2195
 8544SOL    HW137094   2.103   1.780  10.190 -1.0136 -1.7064 -2.3139
 8544SOL    HW237095   2.227   1.845  10.141  1.3045 -2.3271 -3.4774
 8545SOL     OW37096   2.492   2.004   5.215 -0.0065  0.5768 -0.4987
 8545SOL    HW137097   2.437   1.930   5.239  0.4976  0.3453 -0.0510
 8545SOL    HW237098   2.449   2.039   5.137 -2.0873  1.4028  1.0102
 8546SOL     OW37099   0.667   2.033   7.874 -1.1957 -0.2990  0.4543
 8546SOL    HW137100   0.584   1.991   7.853 -1.6098 -1.0687  3.7161
 8546SOL    HW237101   0.655   2.125   7.848 -1.9075 -0.9575 -1.5203
 8547SOL     OW37102   2.788   0.150   9.443 -0.0329 -0.3352 -0.5645
 8547SOL    HW137103   2.818   0.230   9.399  1.6995  0.2867  1.8007
 8547SOL    HW237104   2.803   0.167   9.536  1.7589 -2.9766 -0.3761
 8548SOL     OW37105   4.343   0.015   3.615 -0.0942 -0.0989  0.0179
 8548SOL    HW137106   4.368   4.691   3.536  0.6608 -0.0581  0.2348
 8548SOL    HW237107   4.303   4.669   3.667  1.7395 -0.5786  0.7768
 8549SOL     OW37108   3.610   0.242   7.494 -0.1396 -0.5653 -0.1454
 8549SOL    HW137109   3.562   0.234   7.412  0.5123  2.6614 -0.8629
 8549SOL    HW237110   3.693   0.208   7.461  0.3494 -0.0061  0.5022
 8550SOL     OW37111   4.099   2.465  11.591  0.3943 -0.6813  0.5417
 8550SOL    HW137112   4.064   2.385  11.629 -1.7702  0.4722  0.9789
 8550SOL    HW237113   4.033   2.524  11.628 -1.2418 -0.3411 -2.9629
 8551SOL     OW37114   2.797   2.334   7.272  0.5644 -0.3917  0.3309
 8551SOL    HW137115   2.830   2.380   7.349  0.4442 -0.5341  0.4685
 8551SOL    HW237116   2.821   2.386   7.195 -1.5208  0.8963  0.5450
 8552SOL     OW37117   3.616   3.840   3.803  0.4388 -0.0182  0.1324
 8552SOL    HW137118   3.621   3.759   3.854 -0.4068 -1.1720 -1.6303
 8552SOL    HW237119   3.529   3.871   3.827  2.1705  4.0641  1.1501
 8553SOL     OW37120   0.138   1.524   9.962  0.0557 -0.5333  0.0663
 8553SOL    HW137121   0.211   1.463   9.949  1.6358  1.7032 -1.6426
 8553SOL    HW237122   0.074   1.474   9.911  3.1082 -1.9071 -2.4012
 8554SOL     OW37123   3.229   2.698  15.420  0.1726 -0.4660  0.0984
 8554SOL    HW137124   3.195   2.769  15.473 -1.8706 -1.5297  0.2077
 8554SOL    HW237125   3.218   2.629  15.486  1.0264 -0.6003  0.1105
 8555SOL     OW37126   1.402   0.403   4.935 -0.4729  0.1448  0.3352
 8555SOL    HW137127   1.308   0.390   4.920 -0.8946  2.2561  1.1737
 8555SOL    HW237128   1.406   0.470   5.003  0.0234  1.1173 -0.6466
 8556SOL     OW37129   2.644   1.515  10.050 -0.5494  0.0911  0.1623
 8556SOL    HW137130   2.686   1.429  10.044 -0.0165  0.3133  0.6295
 8556SOL    HW237131   2.554   1.486  10.037 -0.2655 -1.1102  0.8199
 8557SOL     OW37132   0.969   1.811  17.040  0.9046 -0.1563 -0.1931
 8557SOL    HW137133   0.961   1.764  16.957  0.7291 -0.4389 -0.0154
 8557SOL    HW237134   0.938   1.894  17.003 -2.6159 -0.5972  1.7533
 8558SOL     OW37135   2.496   0.356   0.362  0.2872  0.1005 -0.8060
 8558SOL    HW137136   2.415   0.306   0.360  0.3974 -0.0853 -0.5811
 8558SOL    HW237137   2.469   0.435   0.314  0.1838  2.0092  2.4267
 8559SOL     OW37138   3.750   2.209   9.373  0.4641  0.4908 -0.2089
 8559SOL    HW137139   3.769   2.298   9.344  1.9037  0.8691  1.9557
 8559SOL    HW237140   3.802   2.150   9.318  1.8853 -0.3982  2.0902
 8560SOL     OW37141   1.232   3.255   5.557 -0.3806 -0.1518  0.0996
 8560SOL    HW137142   1.154   3.305   5.536 -0.9473 -0.6666  0.9540
 8560SOL    HW237143   1.286   3.315   5.608 -2.5210  2.2412 -0.4341
 8561SOL     OW37144   2.315   3.512   5.091 -0.3944 -0.1487  0.0359
 8561SOL    HW137145   2.393   3.461   5.065 -0.5774  1.3806 -3.4888
 8561SOL    HW237146   2.298   3.562   5.012  2.0793  1.1443  0.3075
 8562SOL     OW37147   3.860   0.325   6.656 -0.0611  0.4065 -0.3235
 8562SOL    HW137148   3.847   0.257   6.590 -1.3289 -3.3748  3.7712
 8562SOL    HW237149   3.954   0.337   6.646 -0.2531  1.7832 -0.4804
 8563SOL     OW37150   0.496   4.251   6.612 -0.1268  0.5716  0.3500
 8563SOL    HW137151   0.499   4.291   6.525  0.4228 -0.6049 -0.1707
 8563SOL    HW237152   0.532   4.323   6.664  0.1185 -0.8953  2.2142
 8564SOL     OW37153   2.410   3.896   9.189 -0.3392  0.0620  0.4610
 8564SOL    HW137154   2.351   3.971   9.182 -0.7312 -0.4529 -1.5352
 8564SOL    HW237155   2.490   3.941   9.161 -1.2814  1.6019  0.2129
 8565SOL     OW37156   1.231   4.137   9.742  0.2131 -0.4154 -0.4307
 8565SOL    HW137157   1.177   4.216   9.742 -0.5089 -0.8958 -4.0022
 8565SOL    HW237158   1.260   4.134   9.651  0.9396 -2.8785 -0.0985
 8566SOL     OW37159   2.668   4.217   2.234 -0.1357  0.4628  0.1210
 8566SOL    HW137160   2.666   4.145   2.170  0.2432 -0.1588  0.8076
 8566SOL    HW237161   2.715   4.176   2.307 -0.7703 -1.3601 -0.4811
 8567SOL     OW37162   3.744   4.381   6.618 -0.1990  0.2617  0.5587
 8567SOL    HW137163   3.655   4.397   6.587 -0.0684  2.1996  1.2341
 8567SOL    HW237164   3.789   4.464   6.606  0.5542 -0.4939 -1.8347
 8568SOL     OW37165   4.428   3.562   8.102  0.0502 -0.0135 -0.3188
 8568SOL    HW137166   4.379   3.480   8.104 -0.1934  0.1136 -0.8040
 8568SOL    HW237167   4.479   3.553   8.021 -1.7572  0.7754 -1.5690
 8569SOL     OW37168   2.967   1.349   8.524  0.3196 -0.1767  0.2087
 8569SOL    HW137169   3.007   1.290   8.588 -3.6270 -0.0941  2.7074
 8569SOL    HW237170   2.902   1.282   8.503 -2.2819  2.5186 -0.3061
 8570SOL     OW37171   4.557   2.859   5.703  0.1205  0.4230  0.6737
 8570SOL    HW137172   4.574   2.805   5.780 -0.4324 -1.5595 -0.5963
 8570SOL    HW237173   4.621   2.826   5.641 -1.2351 -1.6577  0.3640
 8571SOL     OW37174   0.077   2.274  12.464 -0.3456  0.3214 -0.2771
 8571SOL    HW137175   4.722   2.321  12.441  0.3170  1.6960  0.2044
 8571SOL    HW237176   0.132   2.285  12.387 -2.1589 -2.2088 -1.9107
 8572SOL     OW37177   4.564   1.178   1.714 -0.4913 -0.3705 -0.4197
 8572SOL    HW137178   4.627   1.141   1.775  0.6720  0.1433 -1.3095
 8572SOL    HW237179   4.482   1.148   1.755  0.2550 -0.6729  0.8470
 8573SOL     OW37180   0.441   0.020  15.536  0.1922  0.3863  0.2819
 8573SOL    HW137181   0.353   0.058  15.539  0.1186  0.2001  0.5580
 8573SOL    HW237182   0.469   0.056  15.620  0.7725  0.8373 -0.1044
 8574SOL     OW37183   3.413   1.628   5.923 -0.0385 -0.1815 -1.0646
 8574SOL    HW137184   3.485   1.691   5.929  0.6658 -1.2895  1.6617
 8574SOL    HW237185   3.367   1.657   6.001  0.3313 -0.0208 -0.9063
 8575SOL     OW37186   1.751   2.766  10.107  0.5329 -0.0844  0.4579
 8575SOL    HW137187   1.840   2.773  10.071 -0.0907 -0.8718 -1.2435
 8575SOL    HW237188   1.776   2.718  10.186  1.0245 -0.4995  0.0578
 8576SOL     OW37189   0.104   3.539  12.546 -0.4833 -0.0486  0.1830
 8576SOL    HW137190   0.179   3.526  12.605 -1.0956  1.2552  1.2523
 8576SOL    HW237191   0.036   3.523  12.611  1.6414  0.1173  2.4557
 8577SOL     OW37192   4.033   2.750   5.360 -0.4897 -0.0296  0.4818
 8577SOL    HW137193   3.969   2.715   5.423  1.3725  0.5149  2.6536
 8577SOL    HW237194   3.978   2.821   5.327 -1.0988 -0.9919 -0.5760
 8578SOL     OW37195   3.348   2.222   2.942 -0.5875  0.1342 -0.3280
 8578SOL    HW137196   3.409   2.293   2.959  0.4467 -0.7029 -0.5716
 8578SOL    HW237197   3.290   2.252   3.012  1.5826  0.2693  1.4017
 8579SOL     OW37198   4.345   1.502  14.786 -0.4739  0.1448  0.3245
 8579SOL    HW137199   4.389   1.429  14.743 -0.8661  0.5966 -0.8642
 8579SOL    HW237200   4.330   1.464  14.872 -0.1507  1.2813  0.8857
 8580SOL     OW37201   0.954   3.580   6.682  0.3532 -0.2873 -0.2064
 8580SOL    HW137202   0.986   3.539   6.602 -0.3775  1.0324 -1.1766
 8580SOL    HW237203   0.872   3.617   6.650  0.8652  1.2352  0.2537
 8581SOL     OW37204   0.266   2.118   1.338  0.7995 -0.1083  0.2376
 8581SOL    HW137205   0.172   2.132   1.330  0.9493 -0.5888 -2.2834
 8581SOL    HW237206   0.293   2.185   1.275  0.9971  1.1414  1.6409
 8582SOL     OW37207   4.203   2.551  15.623 -0.2842 -0.2789  0.3148
 8582SOL    HW137208   4.128   2.493  15.613 -1.2998  1.2768 -1.2251
 8582SOL    HW237209   4.151   2.631  15.616  0.2591  0.1984  1.7937
 8583SOL     OW37210   2.465   2.322  13.726  0.1318  0.5226 -0.5964
 8583SOL    HW137211   2.428   2.405  13.757  2.1005  0.7869  1.0390
 8583SOL    HW237212   2.527   2.306  13.797 -1.0369  1.2014  0.5883
 8584SOL     OW37213   4.434   1.491   4.384  0.1715  0.0704  0.2640
 8584SOL    HW137214   4.458   1.549   4.456  2.2001  1.4206 -1.4856
 8584SOL    HW237215   4.513   1.442   4.360  2.2331  3.5031 -0.0025
 8585SOL     OW37216   0.044   0.046  12.806  0.6587 -0.4260  0.1421
 8585SOL    HW137217   0.086   0.091  12.732  0.2752 -2.2678 -1.1808
 8585SOL    HW237218   0.093   0.072  12.884 -0.6239 -2.2024  1.5328
 8586SOL     OW37219   1.997   1.023   4.453  0.2399 -0.1203  0.0484
 8586SOL    HW137220   1.944   0.954   4.414  1.7256 -0.2348 -1.7613
 8586SOL    HW237221   2.089   1.005   4.433 -0.1636 -1.2629 -0.7679
 8587SOL     OW37222   1.538   3.485   2.777 -0.1331 -0.4483  0.1382
 8587SOL    HW137223   1.489   3.530   2.708 -0.7136  0.8155  1.3782
 8587SOL    HW237224   1.476   3.424   2.816 -1.8378  0.4089 -1.2648
 8588SOL     OW37225   2.932   3.692   7.096 -0.6515 -0.3133 -0.3788
 8588SOL    HW137226   2.847   3.681   7.139 -0.2806  0.2436  0.5151
 8588SOL    HW237227   2.904   3.707   7.006 -3.2747 -1.4648  0.2388
 8589SOL     OW37228   4.129   3.255   2.147  0.1367  0.1084 -0.6315
 8589SOL    HW137229   4.165   3.342   2.167  0.5738  0.0795 -1.2836
 8589SOL    HW237230   4.077   3.280   2.071  2.4187  0.7932 -1.9742
 8590SOL     OW37231   2.072   1.282   4.681  0.1876  0.1328 -0.3093
 8590SOL    HW137232   2.101   1.198   4.717 -0.4360 -0.0390 -0.1939
 8590SOL    HW237233   1.977   1.276   4.671 -0.2297  0.3823  3.5639
 8591SOL     OW37234   1.183   4.481   6.124  0.5262  0.2981  0.1804
 8591SOL    HW137235   1.275   4.509   6.127  0.6835 -0.1937  0.0074
 8591SOL    HW237236   1.167   4.461   6.217  0.0517 -2.6667 -0.5513
 8592SOL     OW37237   2.383   1.042  13.313 -0.6863 -0.7587  0.2813
 8592SOL    HW137238   2.433   1.070  13.389 -0.3791 -0.8769  0.1223
 8592SOL    HW237239   2.336   0.977  13.365  0.2150 -1.3994  0.2895
 8593SOL     OW37240   2.310   2.013   5.005  0.0863 -0.2644  0.0689
 8593SOL    HW137241   2.336   2.004   4.914 -0.1948 -0.4590  0.0060
 8593SOL    HW237242   2.262   1.932   5.024 -1.1474  0.2525 -0.8491
 8594SOL     OW37243   0.884   3.229   3.618  0.5731 -0.2029 -0.0952
 8594SOL    HW137244   0.843   3.309   3.585  3.3057  1.3693  0.3174
 8594SOL    HW237245   0.839   3.224   3.702 -0.3612 -0.6802 -0.6301
 8595SOL     OW37246   0.703   3.737   8.461 -0.5642 -0.1715 -0.4176
 8595SOL    HW137247   0.680   3.752   8.369  0.4714 -2.8510 -1.0986
 8595SOL    HW237248   0.745   3.821   8.480 -2.5515  0.9034 -0.8308
 8596SOL     OW37249   1.237   2.057   5.558 -0.2824  0.2494 -0.3979
 8596SOL    HW137250   1.308   2.065   5.495  2.3546  0.4506  2.5828
 8596SOL    HW237251   1.181   2.003   5.502 -0.8799  1.1923 -0.6894
 8597SOL     OW37252   0.616   1.090   5.440 -0.4352 -0.2190  0.4269
 8597SOL    HW137253   0.690   1.122   5.388 -0.9851  1.5122  0.7226
 8597SOL    HW237254   0.536   1.096   5.388 -0.7850 -0.1733  0.9767
 8598SOL     OW37255   1.186   3.046   2.299  0.3364  0.2667 -0.2247
 8598SOL    HW137256   1.131   3.018   2.226  2.6765 -1.7743 -1.2162
 8598SOL    HW237257   1.221   2.962   2.331  0.9178  0.5436 -0.1358
 8599SOL     OW37258   2.536   3.377   0.646 -0.0364 -0.7100  0.1910
 8599SOL    HW137259   2.549   3.426   0.565  2.6674 -2.3879 -0.3813
 8599SOL    HW237260   2.614   3.322   0.655  1.8947  1.9567 -0.3221
 8600SOL     OW37261   2.458   3.776   6.248  0.6028 -0.3923 -0.2973
 8600SOL    HW137262   2.411   3.693   6.263  1.1586 -0.4288  1.2699
 8600SOL    HW237263   2.506   3.779   6.331  3.7944 -0.4669 -2.1651
 8601SOL     OW37264   0.391   2.168   8.115  0.0458 -0.6101 -0.4810
 8601SOL    HW137265   0.340   2.247   8.100  0.8751  0.1079  0.5314
 8601SOL    HW237266   0.323   2.104   8.136 -1.4685  1.9415  2.3063
 8602SOL     OW37267   0.562   1.887   6.858 -0.5809 -0.0323 -0.3954
 8602SOL    HW137268   0.552   1.803   6.901 -1.5787  0.7007  0.8130
 8602SOL    HW237269   0.590   1.860   6.770 -0.7501 -1.4564 -0.0047
 8603SOL     OW37270   0.805   0.622  14.550  0.3640 -0.2185  0.4253
 8603SOL    HW137271   0.724   0.638  14.500  0.8652  0.5721 -0.1206
 8603SOL    HW237272   0.841   0.549  14.499  0.1917 -0.1623  0.2182
 8604SOL     OW37273   3.652   0.497   6.609 -0.4220 -0.4937 -0.1124
 8604SOL    HW137274   3.611   0.433   6.551 -1.4297 -0.6112  0.7211
 8604SOL    HW237275   3.728   0.449   6.642  0.7646  0.7388 -1.0792
 8605SOL     OW37276   0.891   3.383   2.496  0.0381  0.2987 -0.1194
 8605SOL    HW137277   0.927   3.368   2.584 -0.3148  2.2292  0.3699
 8605SOL    HW237278   0.956   3.444   2.460 -1.0867  1.1917 -0.6228
 8606SOL     OW37279   0.789   0.604  10.022 -0.6479  0.1073 -0.2040
 8606SOL    HW137280   0.820   0.641   9.939  0.9536 -1.1565 -0.1749
 8606SOL    HW237281   0.852   0.646  10.082 -1.3033 -0.2031  0.7026
 8607SOL     OW37282   2.026   2.217  12.407  0.3624  0.3618 -0.2064
 8607SOL    HW137283   1.933   2.235  12.398  0.4159  1.8567  2.2982
 8607SOL    HW237284   2.035   2.288  12.471  0.0794 -0.4962  0.7868
 8608SOL     OW37285   4.207   4.281   5.484 -0.0189 -0.3734 -0.3011
 8608SOL    HW137286   4.161   4.332   5.417  2.3488  1.5302 -0.4825
 8608SOL    HW237287   4.256   4.350   5.529 -2.0860  1.1974 -0.4661
 8609SOL     OW37288   1.974   2.968   5.494  0.4268  0.1396  0.0529
 8609SOL    HW137289   1.884   2.942   5.472  0.1972  0.7352  0.2709
 8609SOL    HW237290   2.006   2.990   5.407 -1.0943 -3.1173 -1.3139
 8610SOL     OW37291   3.418   3.646   0.639 -0.4866 -0.1870 -0.6339
 8610SOL    HW137292   3.446   3.641   0.730 -2.7515  1.3507  0.1524
 8610SOL    HW237293   3.451   3.566   0.598 -1.4607 -0.6164 -0.5976
 8611SOL     OW37294   2.703   0.899  17.227 -0.1095 -0.1551  0.1899
 8611SOL    HW137295   2.732   0.931  17.142 -1.2771  1.3490  0.3661
 8611SOL    HW237296   2.771   0.832  17.236 -0.2751 -0.6073 -1.9997
 8612SOL     OW37297   4.303   2.531   3.382 -0.6811 -0.0640 -0.8603
 8612SOL    HW137298   4.287   2.597   3.315  3.5907  3.1044  1.2378
 8612SOL    HW237299   4.389   2.559   3.415 -1.2164  0.3035  0.2179
 8613SOL     OW37300   4.038   0.588   5.228  0.0971  0.5930  0.6313
 8613SOL    HW137301   4.019   0.538   5.148 -2.3965  0.0843  1.5183
 8613SOL    HW237302   3.948   0.609   5.255 -0.1131 -1.2879  1.4360
 8614SOL     OW37303   2.007   2.236   4.663  0.4323 -0.0535 -0.4463
 8614SOL    HW137304   2.054   2.198   4.589  0.2362  2.2191 -1.7490
 8614SOL    HW237305   2.028   2.327   4.641 -0.5921  0.2507 -0.1547
 8615SOL     OW37306   0.825   3.155   8.165 -0.5419  0.0284  0.3083
 8615SOL    HW137307   0.854   3.124   8.251 -1.2429  0.5038  0.7086
 8615SOL    HW237308   0.732   3.157   8.185 -0.8568 -3.4231 -0.8545
 8616SOL     OW37309   3.460   0.738   8.142 -0.3234 -0.0849 -0.1072
 8616SOL    HW137310   3.376   0.749   8.097 -0.8222  2.9682  1.5224
 8616SOL    HW237311   3.465   0.643   8.151 -2.3659 -0.1900 -0.0713
 8617SOL     OW37312   3.626   2.877   7.945 -0.0371 -0.0709  0.0115
 8617SOL    HW137313   3.562   2.837   8.004 -0.4397  0.2725 -0.1913
 8617SOL    HW237314   3.646   2.960   7.988 -0.4129  1.1051 -2.0939
 8618SOL     OW37315   1.584   1.033   1.456 -0.2806  0.0814 -0.4496
 8618SOL    HW137316   1.573   0.938   1.461 -3.4907  0.4613  0.1793
 8618SOL    HW237317   1.664   1.044   1.507  1.1825 -3.2609 -2.0341
 8619SOL     OW37318   4.281   1.706   2.412 -0.0250  0.1270 -0.4626
 8619SOL    HW137319   4.298   1.666   2.327  1.8920  3.2757 -1.5595
 8619SOL    HW237320   4.338   1.658   2.472 -2.3086 -0.0087  1.6467
 8620SOL     OW37321   3.885   0.783  15.360  0.3508  0.0571 -0.3344
 8620SOL    HW137322   3.837   0.699  15.363 -1.2403  0.9341 -1.2357
 8620SOL    HW237323   3.957   0.771  15.298  1.1642  3.1791  0.0448
 8621SOL     OW37324   2.681   1.191   6.217 -0.1132 -0.6767  0.5076
 8621SOL    HW137325   2.751   1.148   6.266  0.7772  1.1363  0.8322
 8621SOL    HW237326   2.713   1.280   6.199  2.0167 -1.2985  1.3097
 8622SOL     OW37327   2.172   4.562   7.272  0.0409  0.3405  0.0526
 8622SOL    HW137328   2.251   4.614   7.279 -1.6097  2.6420  1.6333
 8622SOL    HW237329   2.136   4.573   7.360  1.0747  0.2181  0.4895
 8623SOL     OW37330   0.128   0.013  13.599  0.3905  0.6612 -0.1014
 8623SOL    HW137331   0.183   0.080  13.639  0.3763  0.6820 -0.1165
 8623SOL    HW237332   0.156   4.658  13.644  1.0298  1.2675  0.5638
 8624SOL     OW37333   2.543   1.768  11.281 -0.3375 -0.0210  0.1409
 8624SOL    HW137334   2.480   1.790  11.349 -1.0655 -2.0625  0.1289
 8624SOL    HW237335   2.628   1.781  11.324  1.8743 -2.1071 -3.5908
 8625SOL     OW37336   2.320   3.675   2.835 -0.4396  0.1381  0.0992
 8625SOL    HW137337   2.351   3.598   2.884 -0.7898  0.8474  1.4424
 8625SOL    HW237338   2.322   3.638   2.747  2.8867  0.6821 -0.0489
 8626SOL     OW37339   1.799   0.770   3.263  0.2758  0.0068  0.3757
 8626SOL    HW137340   1.856   0.812   3.329 -0.6355 -1.1771  1.9226
 8626SOL    HW237341   1.821   0.817   3.183  0.2168 -4.5481 -2.2929
 8627SOL     OW37342   2.792   1.945  10.904  0.5671 -0.1704 -0.1430
 8627SOL    HW137343   2.859   2.009  10.883  0.1126  0.5903  0.7014
 8627SOL    HW237344   2.743   1.935  10.822  0.3592 -1.3763  0.1185
 8628SOL     OW37345   0.239   1.846   8.728  0.2451  0.3678 -0.2188
 8628SOL    HW137346   0.255   1.791   8.651  0.6933 -0.9898  0.8374
 8628SOL    HW237347   0.240   1.934   8.691 -0.8524  0.1555 -0.7381
 8629SOL     OW37348   2.366   0.297  13.543  0.2351  0.1578 -0.0599
 8629SOL    HW137349   2.406   0.369  13.592  1.2378 -1.3143  1.2894
 8629SOL    HW237350   2.386   0.329  13.455  1.2142  0.8559  0.4157
 8630SOL     OW37351   0.556   4.126   8.328  0.4068  0.2033 -0.4725
 8630SOL    HW137352   0.497   4.138   8.255  0.0675 -0.2115 -0.2668
 8630SOL    HW237353   0.637   4.089   8.293 -0.7432 -0.8795 -1.9928
 8631SOL     OW37354   3.025   4.282   1.998 -0.1694 -0.4002  0.1446
 8631SOL    HW137355   3.047   4.256   2.087  0.8554 -2.1730 -0.6279
 8631SOL    HW237356   2.983   4.204   1.960 -0.1698  0.0901 -0.8639
 8632SOL     OW37357   2.711   1.205   2.886 -0.2042 -0.4284  0.0242
 8632SOL    HW137358   2.779   1.209   2.819  0.8065  0.1257  1.0759
 8632SOL    HW237359   2.649   1.273   2.857  0.9145  1.0669  1.1523
 8633SOL     OW37360   0.567   3.172  11.654 -0.0913  0.3994  0.0919
 8633SOL    HW137361   0.539   3.205  11.739  0.5927  0.1699  0.4012
 8633SOL    HW237362   0.625   3.244  11.632  0.0074 -0.3422 -2.1241
 8634SOL     OW37363   4.209   3.470   9.270  0.2806 -0.3341  0.3432
 8634SOL    HW137364   4.119   3.500   9.261  0.7230  0.6018 -0.9736
 8634SOL    HW237365   4.250   3.553   9.296  0.8624  0.1233 -2.0473
 8635SOL     OW37366   2.807   2.363   9.998 -0.2604  0.1880 -0.3154
 8635SOL    HW137367   2.746   2.318   9.938  1.2537 -1.8518 -0.3322
 8635SOL    HW237368   2.787   2.454   9.976  0.8222 -0.0459 -2.2181
 8636SOL     OW37369   3.244   0.955   8.539  0.0699  0.4063  0.3601
 8636SOL    HW137370   3.253   0.868   8.579  2.1080 -0.1987 -1.3993
 8636SOL    HW237371   3.288   0.942   8.455 -0.9860  0.4105 -0.1904
 8637SOL     OW37372   0.282   4.422   2.041  0.2502 -0.3136 -0.3883
 8637SOL    HW137373   0.273   4.499   2.097  1.9685  0.6453 -1.4682
 8637SOL    HW237374   0.358   4.382   2.085 -0.7887 -2.2286 -0.3264
 8638SOL     OW37375   0.099   3.032   6.342  0.7287  0.4060 -0.1350
 8638SOL    HW137376   0.017   2.990   6.369  0.4995  0.4964 -0.7055
 8638SOL    HW237377   0.164   3.000   6.405  0.9112 -0.4193 -0.7479
 8639SOL     OW37378   4.207   4.360  10.653 -0.1442  0.2290  0.0572
 8639SOL    HW137379   4.252   4.346  10.737 -0.7730 -1.6042  0.0763
 8639SOL    HW237380   4.179   4.451  10.651  0.5303  0.4055 -1.6085
 8640SOL     OW37381   1.897   0.348   1.971  0.5517  0.2547  0.0202
 8640SOL    HW137382   1.895   0.436   1.934 -1.4280  0.4554  0.5676
 8640SOL    HW237383   1.988   0.344   2.000  1.0947  0.7088 -1.6381
 8641SOL     OW37384   0.216   2.426  13.154  0.0726  0.3579 -0.4385
 8641SOL    HW137385   0.128   2.463  13.148 -0.6524 -0.9048  2.1534
 8641SOL    HW237386   0.211   2.342  13.108  1.6234  0.2478 -0.4054
 8642SOL     OW37387   3.092   2.881  15.582 -0.3775  0.4130 -0.4496
 8642SOL    HW137388   3.004   2.918  15.583  0.0407  1.3882  0.1338
 8642SOL    HW237389   3.130   2.937  15.515 -1.7512 -0.9273 -2.3314
 8643SOL     OW37390   2.884   0.911   4.469  0.0912 -0.1756  0.1829
 8643SOL    HW137391   2.974   0.916   4.501  0.4463  2.2403 -1.1835
 8643SOL    HW237392   2.891   0.839   4.407  3.2455  0.7167 -0.5069
 8644SOL     OW37393   3.863   0.482   4.401  0.4153  0.0475  0.3378
 8644SOL    HW137394   3.924   0.417   4.366 -0.4176  0.2265 -1.4818
 8644SOL    HW237395   3.786   0.426   4.415  0.7624 -1.1099 -2.2453
 8645SOL     OW37396   0.644   0.809   6.852 -0.0739 -1.0520  0.0606
 8645SOL    HW137397   0.621   0.728   6.807 -0.6189 -0.4790 -0.7077
 8645SOL    HW237398   0.573   0.862   6.815 -1.2732 -2.1996  0.7537
 8646SOL     OW37399   0.931   3.817   5.888  0.0155  0.1354 -0.5078
 8646SOL    HW137400   1.026   3.824   5.881 -0.0240 -0.1515 -1.3191
 8646SOL    HW237401   0.913   3.822   5.982 -0.4819 -1.2832 -0.5251
 8647SOL     OW37402   3.492   1.018   5.828  0.4382 -0.4685 -0.0427
 8647SOL    HW137403   3.566   1.071   5.856  1.2041 -1.6676  0.2019
 8647SOL    HW237404   3.506   0.938   5.878  0.2710 -1.1243 -1.0386
 8648SOL     OW37405   3.536   0.453   5.233 -0.4114  0.3744 -1.0648
 8648SOL    HW137406   3.512   0.418   5.147  1.5602 -1.2777 -0.9231
 8648SOL    HW237407   3.546   0.547   5.219 -0.2717  0.6460  0.9863
 8649SOL     OW37408   0.351   0.665   6.857  0.3822 -0.1231  0.3412
 8649SOL    HW137409   0.361   0.760   6.842 -0.3531 -0.5968 -3.2814
 8649SOL    HW237410   0.436   0.636   6.823 -0.0971 -0.1546 -0.8267
 8650SOL     OW37411   1.382   0.152  10.599  0.0194  0.6074  0.0967
 8650SOL    HW137412   1.432   0.078  10.563 -0.4594 -0.0683  0.8141
 8650SOL    HW237413   1.421   0.225  10.551 -0.3208 -0.1111 -1.2576
 8651SOL     OW37414   2.185   0.509   3.991 -0.0095 -0.4112 -0.6063
 8651SOL    HW137415   2.152   0.581   4.046  0.8316 -1.1325  0.8315
 8651SOL    HW237416   2.097   0.487   3.963 -0.1469 -1.0966  0.3685
 8652SOL     OW37417   3.966   2.177   8.729  0.2004  0.2160  0.9446
 8652SOL    HW137418   3.936   2.258   8.685  1.2922 -1.3537 -2.6799
 8652SOL    HW237419   3.982   2.211   8.817  0.0991 -3.4149  2.3604
 8653SOL     OW37420   4.086   2.448  13.837  0.0317 -0.0839 -0.2705
 8653SOL    HW137421   4.008   2.486  13.796  1.4691  0.7747 -2.1995
 8653SOL    HW237422   4.046   2.399  13.909  0.1162  1.1112  0.5843
 8654SOL     OW37423   0.377   0.380   0.921 -0.3012  0.0659 -0.3513
 8654SOL    HW137424   0.471   0.377   0.901  0.4012  1.1958  2.8669
 8654SOL    HW237425   0.376   0.353   1.012  1.2640  0.3957 -0.2339
 8655SOL     OW37426   2.605   4.370   2.613 -0.5725 -0.1240  0.2285
 8655SOL    HW137427   2.559   4.401   2.535 -2.6163  0.4953  1.6768
 8655SOL    HW237428   2.528   4.342   2.662  0.0082  0.3580  1.4201
 8656SOL     OW37429   0.671   0.979   4.236  0.1889 -0.3672 -0.0652
 8656SOL    HW137430   0.686   0.884   4.238  1.0988 -0.2173 -0.0831
 8656SOL    HW237431   0.588   0.980   4.285 -0.7504  0.3247 -1.6911
 8657SOL     OW37432   3.429   2.462  11.691  0.2048  0.7523 -0.2981
 8657SOL    HW137433   3.409   2.447  11.599 -0.5765 -1.0604  0.1719
 8657SOL    HW237434   3.383   2.545  11.704 -1.7520 -0.3449 -0.1490
 8658SOL     OW37435   3.046   1.674   7.844 -0.1531 -0.1192  0.0288
 8658SOL    HW137436   3.007   1.609   7.903 -1.4819  1.3672  0.8070
 8658SOL    HW237437   3.073   1.736   7.913  0.1040 -1.9909  1.6223
 8659SOL     OW37438   3.720   0.558   4.155  0.7984 -0.3023  0.0678
 8659SOL    HW137439   3.637   0.596   4.185 -2.4744 -4.6096 -3.5334
 8659SOL    HW237440   3.759   0.536   4.239 -1.1606 -0.0903  1.0340
 8660SOL     OW37441   1.110   0.820   1.536 -0.1451  0.4767 -0.1791
 8660SOL    HW137442   1.106   0.893   1.475 -1.0541  2.1623  1.8833
 8660SOL    HW237443   1.134   0.744   1.483 -0.9948 -0.4153  0.7111
 8661SOL     OW37444   1.221   1.130   6.482  0.6941 -0.0762 -0.3460
 8661SOL    HW137445   1.297   1.072   6.483  1.4716  0.9778  1.6867
 8661SOL    HW237446   1.253   1.218   6.461  2.9257 -0.6180  0.8389
 8662SOL     OW37447   3.526   4.629   8.081 -0.1531 -0.4552  0.2094
 8662SOL    HW137448   3.435   4.602   8.068 -0.2329 -1.3573  2.6720
 8662SOL    HW237449   3.541   4.675   7.998 -0.8621 -1.0923 -0.2705
 8663SOL     OW37450   1.523   4.661   9.118 -0.1375  0.2435  0.1521
 8663SOL    HW137451   1.614   4.656   9.149 -0.6534 -2.9241  1.0687
 8663SOL    HW237452   1.534   4.647   9.024  0.1732  1.8001 -0.0488
 8664SOL     OW37453   0.398   0.356   5.649 -0.0064 -0.1655 -0.2274
 8664SOL    HW137454   0.426   0.436   5.694 -1.4851 -0.3229  1.0133
 8664SOL    HW237455   0.306   0.383   5.645  0.3306  0.7536 -1.7340
 8665SOL     OW37456   3.426   3.875   3.612  0.1308 -0.2944  0.2567
 8665SOL    HW137457   3.499   3.843   3.666 -0.7934 -1.0623  1.0419
 8665SOL    HW237458   3.353   3.817   3.636  1.5915 -1.1334  2.7362
 8666SOL     OW37459   3.288   0.800  16.858 -0.3563  0.2607  0.0664
 8666SOL    HW137460   3.302   0.713  16.822 -2.1694 -0.7321  1.6925
 8666SOL    HW237461   3.377   0.821  16.886 -0.4508  2.7300 -1.4829
 8667SOL     OW37462   1.527   1.318   8.072  0.4919  0.4036  0.0960
 8667SOL    HW137463   1.469   1.298   8.145 -0.9155 -1.3398 -1.5095
 8667SOL    HW237464   1.502   1.241   8.021 -0.1039  0.8797 -0.3225
 8668SOL     OW37465   4.312   3.421  14.362  0.3012  0.2162  0.0703
 8668SOL    HW137466   4.339   3.508  14.333 -1.3144  0.8062  0.3112
 8668SOL    HW237467   4.391   3.369  14.374 -0.1405 -0.5341 -0.2764
 8669SOL     OW37468   0.263   1.162   6.495 -0.4590  0.2212 -0.1292
 8669SOL    HW137469   0.319   1.202   6.430  1.6387 -0.7851  1.0646
 8669SOL    HW237470   0.297   1.072   6.499 -1.2538 -0.0910 -0.3078
 8670SOL     OW37471   3.308   0.893   3.798 -0.2742  0.4344 -0.3419
 8670SOL    HW137472   3.350   0.846   3.870  0.9992  0.2118 -1.2238
 8670SOL    HW237473   3.343   0.854   3.718 -3.7596 -0.8827 -1.2252
 8671SOL     OW37474   1.747   2.868  14.588  0.1194  0.1454  0.1019
 8671SOL    HW137475   1.666   2.914  14.609  0.0691  0.4119 -0.6984
 8671SOL    HW237476   1.757   2.889  14.495  1.2497  0.7828  0.3669
 8672SOL     OW37477   2.886   3.345  12.114 -0.0747 -0.1682  0.6522
 8672SOL    HW137478   2.941   3.272  12.141 -0.8823 -1.4211 -1.1356
 8672SOL    HW237479   2.872   3.319  12.023  1.2413 -0.0755  0.4159
 8673SOL     OW37480   4.216   1.192   3.756 -0.3497 -0.6829  1.0298
 8673SOL    HW137481   4.226   1.270   3.810 -1.5822 -0.5463  1.0711
 8673SOL    HW237482   4.122   1.181   3.742 -0.1074 -0.3831 -0.9365
 8674SOL     OW37483   0.621   1.698  17.093 -0.4386  0.2891  0.4225
 8674SOL    HW137484   0.640   1.634  17.162 -1.4095 -0.3657  0.0828
 8674SOL    HW237485   0.597   1.778  17.140 -0.0053  1.2460 -0.9812
 8675SOL     OW37486   0.153   3.976   2.671  0.1516 -0.4157 -0.0766
 8675SOL    HW137487   0.088   4.032   2.629 -1.0400 -1.3078  0.5815
 8675SOL    HW237488   0.233   4.026   2.652  1.5902 -2.6473  0.1943
 8676SOL     OW37489   3.048   1.890   6.159 -0.6706  0.2949  0.2112
 8676SOL    HW137490   3.048   1.892   6.063  0.0647  1.2449  0.2292
 8676SOL    HW237491   3.024   1.981   6.174 -1.1327  0.1901  0.0820
 8677SOL     OW37492   3.683   3.785  17.057  0.2914 -0.3011 -0.3972
 8677SOL    HW137493   3.750   3.718  17.068 -1.1056 -1.6053  0.0989
 8677SOL    HW237494   3.732   3.837  16.993  2.2321 -1.8407 -0.1629
 8678SOL     OW37495   0.441   0.540   9.559 -0.2455 -0.5337 -0.0555
 8678SOL    HW137496   0.437   0.635   9.558  1.5003 -0.4672 -1.1387
 8678SOL    HW237497   0.375   0.525   9.627  0.5868  0.2042  0.9026
 8679SOL     OW37498   3.390   3.092   0.623 -0.3360 -0.4538  0.3565
 8679SOL    HW137499   3.477   3.057   0.604  0.0533  2.2467 -3.0125
 8679SOL    HW237500   3.393   3.115   0.716 -2.4354  2.1731 -0.2157
 8680SOL     OW37501   2.212   2.049   7.464 -0.7263  0.2272  0.0925
 8680SOL    HW137502   2.215   2.129   7.516 -0.7196 -0.7227  1.5334
 8680SOL    HW237503   2.191   1.982   7.529  0.7795 -0.2227  0.1078
 8681SOL     OW37504   2.424   4.464   9.027 -0.0681  0.0379 -0.1061
 8681SOL    HW137505   2.379   4.467   9.111  0.7506 -2.3483  0.4284
 8681SOL    HW237506   2.429   4.371   9.007  0.5655 -0.6560  3.3013
 8682SOL     OW37507   0.009   3.595   8.147  0.1292  0.0345 -0.2060
 8682SOL    HW137508   0.039   3.686   8.152  3.6223 -1.1474  0.0105
 8682SOL    HW237509   4.641   3.615   8.163  0.2478  1.8571 -1.7797
 8683SOL     OW37510   4.696   2.646   5.534  0.1851 -0.7647 -0.2814
 8683SOL    HW137511   0.026   2.568   5.540  1.6531  0.4697  2.2460
 8683SOL    HW237512   0.002   2.693   5.457  1.4115 -0.8073  0.1819
 8684SOL     OW37513   0.760   2.922   3.252  0.2211  0.3340 -0.5833
 8684SOL    HW137514   0.772   2.827   3.264 -1.3100  0.2787  0.4161
 8684SOL    HW237515   0.830   2.952   3.310 -2.1127  1.5646  1.5836
 8685SOL     OW37516   1.321   0.362  12.176 -0.1436  0.2072 -0.0982
 8685SOL    HW137517   1.248   0.318  12.218 -0.6113  1.9879  0.9465
 8685SOL    HW237518   1.386   0.363  12.247 -1.3054  1.7970  0.9320
 8686SOL     OW37519   4.331   2.192   9.110  0.5361 -0.3395 -0.1003
 8686SOL    HW137520   4.310   2.132   9.038  0.8355 -0.2703 -0.2445
 8686SOL    HW237521   4.250   2.169   9.155 -1.2579  1.4763 -2.3833
 8687SOL     OW37522   3.842   2.365   5.083 -0.1588  0.4052  0.0678
 8687SOL    HW137523   3.907   2.302   5.050 -0.2433  0.6947 -0.6670
 8687SOL    HW237524   3.784   2.359   5.007  1.2270  1.6079 -1.1054
 8688SOL     OW37525   4.063   2.476   1.481  0.6332  0.6233 -0.6336
 8688SOL    HW137526   3.980   2.488   1.528  0.6577  0.3864 -0.5330
 8688SOL    HW237527   4.127   2.493   1.550  0.4954  0.8800 -0.5680
 8689SOL     OW37528   3.721   3.209  15.586  0.0323  0.4266 -0.1513
 8689SOL    HW137529   3.762   3.198  15.500 -0.2603 -1.9365  0.0132
 8689SOL    HW237530   3.740   3.302  15.601 -0.9305  0.4708  0.7164
 8690SOL     OW37531   2.567   3.652   9.290  0.0699 -0.1522 -0.4862
 8690SOL    HW137532   2.612   3.736   9.304 -0.6414  0.5051 -2.1760
 8690SOL    HW237533   2.474   3.673   9.291 -0.4828 -2.5300 -2.8182
 8691SOL     OW37534   2.102   2.394   9.865  0.2387  0.6719 -0.3413
 8691SOL    HW137535   2.182   2.347   9.888 -1.1835 -1.5775 -0.0351
 8691SOL    HW237536   2.081   2.344   9.786 -0.3233  2.7911 -1.5508
 8692SOL     OW37537   3.710   2.797  15.608  0.1350  0.2868  0.3621
 8692SOL    HW137538   3.651   2.723  15.617  1.0898 -0.3947  1.0437
 8692SOL    HW237539   3.660   2.854  15.549 -0.4282 -0.7872 -0.1791
 8693SOL     OW37540   2.269   2.559   3.319 -0.5327  0.5661  0.5113
 8693SOL    HW137541   2.260   2.602   3.403 -1.1731  0.2243  0.6166
 8693SOL    HW237542   2.177   2.566   3.291 -0.7282 -0.4800  0.9139
 8694SOL     OW37543   3.025   0.734   7.286 -0.6701  0.7667  0.0548
 8694SOL    HW137544   2.987   0.747   7.199  0.5951  4.2631  0.0132
 8694SOL    HW237545   3.039   0.641   7.304 -0.0916  0.9899  0.7764
 8695SOL     OW37546   0.654   1.492   6.245 -0.4242 -0.2246  0.3067
 8695SOL    HW137547   0.686   1.517   6.158 -0.4762 -0.6878  0.1498
 8695SOL    HW237548   0.729   1.459   6.295 -2.2120 -0.9642  2.4757
 8696SOL     OW37549   3.039   3.193  14.250  0.0859  0.6502  0.1969
 8696SOL    HW137550   3.121   3.203  14.298 -0.5119  0.4106  1.2602
 8696SOL    HW237551   2.973   3.225  14.311  0.6710  1.4773  0.3885
 8697SOL     OW37552   0.727   4.475   8.523 -0.4351 -0.1032  0.1125
 8697SOL    HW137553   0.815   4.468   8.486 -0.2624 -2.4023  0.9819
 8697SOL    HW237554   0.728   4.396   8.577 -2.9267 -0.9529 -1.1131
 8698SOL     OW37555   1.106   4.640   7.633  0.2531 -0.3826  0.0125
 8698SOL    HW137556   1.082   4.549   7.617 -0.4874  0.1249 -1.8251
 8698SOL    HW237557   1.035   4.668   7.692  0.8372 -1.1276  1.0486
 8699SOL     OW37558   3.262   3.749   7.732 -0.1599  0.8757  0.5910
 8699SOL    HW137559   3.233   3.818   7.672  0.3116 -0.5259 -1.2167
 8699SOL    HW237560   3.190   3.722   7.789 -1.0579  1.5323 -0.2431
 8700SOL     OW37561   3.375   3.515  15.191  0.4322  0.8779  0.4029
 8700SOL    HW137562   3.436   3.570  15.241  1.3145  0.5097 -0.2567
 8700SOL    HW237563   3.293   3.563  15.197  0.9539  1.9449 -0.8022
 8701SOL     OW37564   2.345   3.948   7.795  0.5088  0.6338 -0.4342
 8701SOL    HW137565   2.322   4.009   7.724  0.3943  0.2354 -0.7365
 8701SOL    HW237566   2.429   3.981   7.829  0.6896 -0.1777 -0.0953
 8702SOL     OW37567   1.367   0.501   7.304  0.5336  0.3116  0.4522
 8702SOL    HW137568   1.352   0.457   7.388 -0.1610  0.6079  0.4873
 8702SOL    HW237569   1.335   0.438   7.239  2.4873  0.9567 -1.0949
 8703SOL     OW37570   4.191   3.398  17.315  0.4497 -0.1604 -0.5014
 8703SOL    HW137571   4.141   3.422  17.393  2.3425 -0.8818  0.9353
 8703SOL    HW237572   4.207   3.304  17.322 -0.3467 -0.1745  0.9045
 8704SOL     OW37573   2.876   3.299   4.743  0.2727  0.8881 -0.1861
 8704SOL    HW137574   2.799   3.340   4.702 -0.1037  0.4583  0.0961
 8704SOL    HW237575   2.872   3.326   4.834  0.3736 -0.2522  0.1480
 8705SOL     OW37576   1.481   1.591  10.943 -0.1203  0.2282  0.5741
 8705SOL    HW137577   1.530   1.641  10.877  0.0761 -2.0980 -1.0417
 8705SOL    HW237578   1.402   1.644  10.934 -0.7828 -0.9883 -0.8832
 8706SOL     OW37579   3.187   1.564   2.439 -0.5972 -0.2894  0.1982
 8706SOL    HW137580   3.187   1.654   2.408  0.2577 -0.3523  0.0170
 8706SOL    HW237581   3.139   1.576   2.521 -0.4562 -2.4305  0.6000
 8707SOL     OW37582   3.392   1.629   8.424 -0.0863  0.0940  0.0602
 8707SOL    HW137583   3.339   1.644   8.346  0.0231 -2.8538 -0.6038
 8707SOL    HW237584   3.430   1.543   8.407  2.7246  1.6868 -1.6512
 8708SOL     OW37585   4.245   0.804   4.687  0.0786  0.4663 -0.1925
 8708SOL    HW137586   4.157   0.839   4.671  0.6656  1.9967 -0.0525
 8708SOL    HW237587   4.230   0.721   4.641 -1.0316  0.2655  0.5364
 8709SOL     OW37588   2.681   1.982  17.536 -0.4025  0.2103  0.0977
 8709SOL    HW137589   2.632   2.041  17.593 -0.9620  0.7777 -0.9558
 8709SOL    HW237590   2.764   1.975  17.582  0.1088  1.8318 -0.5868
 8710SOL     OW37591   3.910   0.073   5.974 -0.0272 -0.0388 -0.0937
 8710SOL    HW137592   3.865   4.714   5.962  0.4200 -0.3469  0.3471
 8710SOL    HW237593   3.842   0.121   6.021 -1.5977 -1.3326 -1.0590
 8711SOL     OW37594   3.568   4.370   4.918 -0.1080 -0.2473  0.6251
 8711SOL    HW137595   3.642   4.419   4.881 -0.9161 -1.0218 -2.0270
 8711SOL    HW237596   3.538   4.319   4.843 -0.2259 -0.8496  1.0825
 8712SOL     OW37597   2.287   0.637   4.683  0.2959  0.1173  0.0555
 8712SOL    HW137598   2.317   0.551   4.713  0.5010 -0.2678 -1.2482
 8712SOL    HW237599   2.215   0.621   4.622  0.5589  1.6053 -0.6331
 8713SOL     OW37600   1.297   3.662   3.287  0.6126 -0.6660 -0.5319
 8713SOL    HW137601   1.387   3.631   3.279  0.1267 -1.4333 -2.7923
 8713SOL    HW237602   1.306   3.730   3.221  0.0415 -1.0018 -0.9492
 8714SOL     OW37603   0.242   1.060   8.782 -0.4907  0.2236  0.1398
 8714SOL    HW137604   0.237   1.145   8.825 -0.2665  0.9225 -1.2184
 8714SOL    HW237605   0.151   1.058   8.753 -0.7762  0.1134  1.0401
 8715SOL     OW37606   2.322   3.761  11.713 -1.0222  0.1550 -0.7306
 8715SOL    HW137607   2.286   3.696  11.653 -1.3165 -1.3566  1.0837
 8715SOL    HW237608   2.415   3.746  11.695 -1.1110 -1.0554 -0.1829
 8716SOL     OW37609   2.002   1.367  12.024 -0.2441  0.4970  0.0457
 8716SOL    HW137610   2.037   1.284  12.057 -0.3454 -0.2472 -1.7109
 8716SOL    HW237611   1.909   1.342  12.029 -0.7131  2.3435  0.4567
 8717SOL     OW37612   4.096   4.007   3.780  0.1497  0.6541  0.9276
 8717SOL    HW137613   4.007   3.992   3.747  0.3310 -0.7108  1.0218
 8717SOL    HW237614   4.145   3.928   3.754 -0.0113  0.8260  0.1060
 8718SOL     OW37615   4.587   2.978   8.633  0.6082 -0.3186 -0.0105
 8718SOL    HW137616   4.504   3.012   8.666 -0.0406 -1.2267 -0.6960
 8718SOL    HW237617   4.555   2.955   8.546 -0.3576 -1.3628  0.6237
 8719SOL     OW37618   0.190   2.010  11.524  0.4421  0.4307  0.0154
 8719SOL    HW137619   0.115   2.063  11.498 -0.3266 -1.2746 -1.2829
 8719SOL    HW237620   0.140   1.949  11.578  0.2614  1.5195  1.0465
 8720SOL     OW37621   2.179   3.284   2.788 -0.0087 -0.1056  0.2784
 8720SOL    HW137622   2.267   3.247   2.788  0.5944  1.3287 -1.5491
 8720SOL    HW237623   2.125   3.205   2.796 -1.7843  1.0870  0.0990
 8721SOL     OW37624   2.154   3.489   6.455 -0.2295 -0.0732  0.2270
 8721SOL    HW137625   2.210   3.433   6.510  1.5863  1.0406 -0.4662
 8721SOL    HW237626   2.074   3.438   6.464 -0.4737 -0.1223 -2.1937
 8722SOL     OW37627   1.433   0.238   8.157 -0.1439 -0.7772  0.1585
 8722SOL    HW137628   1.519   0.281   8.158 -0.4581 -0.1126 -1.1001
 8722SOL    HW237629   1.372   0.313   8.159  0.6989 -0.0214 -2.7215
 8723SOL     OW37630   0.955   1.395   1.257  0.5098  0.0059  0.2282
 8723SOL    HW137631   0.938   1.312   1.301 -2.6634  0.7061  0.3126
 8723SOL    HW237632   0.976   1.463   1.321 -1.2698  1.5667 -0.8669
 8724SOL     OW37633   2.466   2.171  10.793 -0.3254  0.1300  0.2255
 8724SOL    HW137634   2.405   2.099  10.780 -1.6676  1.2266  0.4337
 8724SOL    HW237635   2.513   2.169  10.710  1.1956 -5.4788  1.2243
 8725SOL     OW37636   4.535   3.582   2.301  0.0415 -0.2297  0.0900
 8725SOL    HW137637   4.487   3.567   2.383  0.0404 -1.1576 -0.0868
 8725SOL    HW237638   4.622   3.568   2.338 -1.1716 -3.5013  1.6881
 8726SOL     OW37639   2.083   0.740   7.966 -0.5539 -0.2859  0.1006
 8726SOL    HW137640   2.153   0.756   7.904 -0.7336  3.3284  0.7994
 8726SOL    HW237641   2.122   0.721   8.051 -1.5100  0.4814  0.7213
 8727SOL     OW37642   1.798   1.998   1.677  0.5716 -0.2368  0.4149
 8727SOL    HW137643   1.865   1.993   1.608  1.1689 -2.6306  1.1519
 8727SOL    HW237644   1.834   1.949   1.751 -2.2250 -0.0284  1.9005
 8728SOL     OW37645   0.826   4.041  16.709  0.0980 -0.2482  0.2952
 8728SOL    HW137646   0.906   4.019  16.660  0.4003  0.8307  0.2845
 8728SOL    HW237647   0.764   4.064  16.639 -1.2964  1.6256  2.1563
 8729SOL     OW37648   2.234   3.738   0.174 -0.0716  0.1027 -0.0895
 8729SOL    HW137649   2.185   3.761   0.095  2.4778 -0.0504 -1.7017
 8729SOL    HW237650   2.320   3.718   0.137  0.1963 -1.0073  1.1431
 8730SOL     OW37651   3.511   4.106   4.180 -0.0523  0.0311  0.2058
 8730SOL    HW137652   3.478   4.163   4.111  4.0076  1.5377 -0.5056
 8730SOL    HW237653   3.559   4.035   4.138  4.4902  1.4638  2.9705
 8731SOL     OW37654   2.307   1.576  17.385 -0.3666  0.3501 -0.7671
 8731SOL    HW137655   2.274   1.629  17.457 -0.3378 -1.2423  0.4240
 8731SOL    HW237656   2.250   1.499  17.387  0.1680  0.0533  2.2074
 8732SOL     OW37657   3.285   4.137   0.037 -0.2788  0.1445  0.2979
 8732SOL    HW137658   3.217   4.204   0.043  0.5497  0.8797  1.5214
 8732SOL    HW237659   3.267   4.098   0.123 -0.7561  2.0835  1.0671
 8733SOL     OW37660   3.785   1.106   1.477  0.3202  0.2543  0.2185
 8733SOL    HW137661   3.856   1.102   1.414  0.6217  0.1319  0.5693
 8733SOL    HW237662   3.802   1.191   1.516  0.7191  0.1816  0.2023
 8734SOL     OW37663   2.854   2.059   2.624 -0.2000  0.4472  0.5536
 8734SOL    HW137664   2.937   2.014   2.641 -0.8803 -1.0598 -0.0846
 8734SOL    HW237665   2.836   2.034   2.533 -1.1816  0.0931  0.8459
 8735SOL     OW37666   2.600   2.136   0.108 -0.7035 -0.1330 -0.3410
 8735SOL    HW137667   2.627   2.227   0.092  2.0793 -1.2732 -2.2218
 8735SOL    HW237668   2.547   2.142   0.187 -0.7394  0.9554 -0.4488
 8736SOL     OW37669   1.133   1.399   5.410  0.1327 -0.2607  0.5713
 8736SOL    HW137670   1.058   1.454   5.387  0.7726  1.0567  1.5765
 8736SOL    HW237671   1.104   1.364   5.494 -1.2598 -0.0446  0.1729
 8737SOL     OW37672   0.885   0.075   8.901 -0.5468  0.3761  0.0641
 8737SOL    HW137673   0.878   0.107   8.991 -1.0577  2.6834 -0.7975
 8737SOL    HW237674   0.802   0.030   8.893 -0.7271  0.9262 -1.1762
 8738SOL     OW37675   2.746   2.523   8.628  0.6160  0.4376  0.1755
 8738SOL    HW137676   2.656   2.555   8.633  0.4076 -0.1794  0.3335
 8738SOL    HW237677   2.737   2.428   8.637  1.6433  0.5894  2.8323
 8739SOL     OW37678   2.256   3.910   1.072 -0.7234  1.0953 -0.1515
 8739SOL    HW137679   2.234   4.003   1.065 -1.3654  1.0450  1.3056
 8739SOL    HW237680   2.306   3.897   0.992  0.4955 -0.7005  0.9056
 8740SOL     OW37681   4.088   3.866   4.585 -0.4686 -0.6286  0.2139
 8740SOL    HW137682   4.052   3.877   4.673  1.5619  1.8103  0.7335
 8740SOL    HW237683   4.133   3.786   4.611 -0.8752 -0.6460  0.8512
 8741SOL     OW37684   2.080   0.539   0.239  0.1628 -0.6156  0.8652
 8741SOL    HW137685   1.999   0.586   0.219 -0.1926 -0.5208  2.5415
 8741SOL    HW237686   2.048   0.459   0.278 -0.7294 -0.7532 -0.1441
 8742SOL     OW37687   0.675   1.453  17.239  0.0842 -0.0991  0.3007
 8742SOL    HW137688   0.615   1.407  17.181  0.5003 -0.6130  0.2704
 8742SOL    HW237689   0.655   1.415  17.325  1.3242 -2.6415 -0.5359
 8743SOL     OW37690   4.222   1.662   3.147 -0.7023  0.1109  0.1776
 8743SOL    HW137691   4.162   1.622   3.210  0.1328  0.6550  1.3121
 8743SOL    HW237692   4.251   1.583   3.101  2.1085  0.7943  0.7262
 8744SOL     OW37693   0.259   4.111   9.389 -0.3591  0.8371  0.2583
 8744SOL    HW137694   0.237   4.203   9.400 -0.3319  0.9334 -0.4560
 8744SOL    HW237695   0.171   4.076   9.373 -0.1180  0.1687  0.3922
 8745SOL     OW37696   1.214   0.540  12.904 -0.0506  0.0649 -0.1550
 8745SOL    HW137697   1.125   0.524  12.875 -0.2235  1.6882 -0.5572
 8745SOL    HW237698   1.239   0.575  12.819  0.1893  0.1881 -0.0355
 8746SOL     OW37699   0.425   2.286  14.894  0.1070 -0.6414  0.0720
 8746SOL    HW137700   0.375   2.205  14.898 -2.2493  0.8087 -0.0400
 8746SOL    HW237701   0.504   2.258  14.846  0.7175 -3.9280  3.0096
 8747SOL     OW37702   0.307   1.824  12.890  0.4870 -0.6544  0.4027
 8747SOL    HW137703   0.370   1.868  12.833 -1.5722  0.7905 -0.7817
 8747SOL    HW237704   0.224   1.829  12.843 -0.2278 -0.7076  1.6502
 8748SOL     OW37705   4.221   2.242   8.406 -0.0436  0.5717 -0.4531
 8748SOL    HW137706   4.214   2.240   8.501  0.9279 -3.3579 -0.4368
 8748SOL    HW237707   4.201   2.150   8.387  0.7847  0.9536 -3.1512
 8749SOL     OW37708   1.483   1.978   6.858  0.0111  0.6165  0.1539
 8749SOL    HW137709   1.481   1.932   6.774  2.5079 -1.0727  1.0082
 8749SOL    HW237710   1.571   1.958   6.888 -0.5195 -0.5375  0.9564
 8750SOL     OW37711   1.773   1.321   9.797 -0.5551 -0.2758  0.1760
 8750SOL    HW137712   1.790   1.302   9.889  2.2729  0.5958 -0.1650
 8750SOL    HW237713   1.845   1.280   9.748 -0.4983 -1.1029  0.9588
 8751SOL     OW37714   3.217   4.541   2.797  0.7379  0.0125  0.1793
 8751SOL    HW137715   3.206   4.516   2.889  1.1954 -2.5459 -0.4502
 8751SOL    HW237716   3.207   4.636   2.803  2.2851  0.1877  0.1406
 8752SOL     OW37717   3.637   4.642   3.989  0.1982  0.4948  0.2249
 8752SOL    HW137718   3.729   4.645   3.963 -0.0130 -0.6938 -0.6794
 8752SOL    HW237719   3.621   4.550   3.968 -1.0027  1.0567 -1.3352
 8753SOL     OW37720   1.015   3.201   0.881  0.3574 -0.2487  0.1260
 8753SOL    HW137721   1.048   3.226   0.795  1.1517 -0.8793  0.2471
 8753SOL    HW237722   0.929   3.163   0.864  0.0756 -0.3694  1.8533
 8754SOL     OW37723   2.901   0.761   7.530  0.1040  0.1597 -0.0766
 8754SOL    HW137724   2.901   0.851   7.564 -1.6866 -0.1672  0.7526
 8754SOL    HW237725   2.943   0.776   7.445 -0.9388 -1.3180 -0.8406
 8755SOL     OW37726   0.549   3.579   4.482  0.5237 -0.2782  0.0724
 8755SOL    HW137727   0.603   3.633   4.425 -0.2479  0.9190  0.4799
 8755SOL    HW237728   0.597   3.614   4.558  0.2989 -0.6708  0.3955
 8756SOL     OW37729   0.058   0.199   5.104 -0.1073 -0.1270 -0.5005
 8756SOL    HW137730   4.717   0.192   5.036 -1.1266  1.0013  0.3681
 8756SOL    HW237731   0.067   0.294   5.095  1.8530 -0.0116  2.6746
 8757SOL     OW37732   3.232   1.672   1.613  0.1113 -0.6852 -0.3000
 8757SOL    HW137733   3.177   1.745   1.640 -0.8267 -0.6583 -2.2839
 8757SOL    HW237734   3.296   1.652   1.681  0.4584 -0.4536 -0.5589
 8758SOL     OW37735   3.499   0.138   6.956  0.2557  0.2557  0.4849
 8758SOL    HW137736   3.486   0.051   6.996  0.4637  0.1562  0.3319
 8758SOL    HW237737   3.558   0.114   6.885 -1.1637 -1.0576 -0.2609
 8759SOL     OW37738   1.727   0.393   8.082  0.1582 -0.0337 -0.7142
 8759SOL    HW137739   1.800   0.425   8.135  0.6970 -2.0968 -0.2137
 8759SOL    HW237740   1.687   0.476   8.056 -0.9104 -0.4210 -0.2990
 8760SOL     OW37741   0.870   3.061  14.777  0.5846  0.3759  0.2713
 8760SOL    HW137742   0.809   2.987  14.785 -0.8900  1.3321 -2.1307
 8760SOL    HW237743   0.955   3.019  14.770  1.2610  1.5575  1.4541
 8761SOL     OW37744   2.959   2.725  14.271 -0.4805  0.8299  0.1447
 8761SOL    HW137745   3.022   2.786  14.234 -1.7068  2.6759  1.1223
 8761SOL    HW237746   2.945   2.765  14.357 -1.5738  0.2109  0.2592
 8762SOL     OW37747   3.368   3.979   3.939  0.1025 -0.3107 -0.3433
 8762SOL    HW137748   3.374   3.967   4.033 -0.2276 -0.2932 -0.3210
 8762SOL    HW237749   3.302   3.912   3.922  0.1205 -0.2262 -0.7575
 8763SOL     OW37750   3.576   3.925  11.030 -0.2606 -0.6364 -0.2051
 8763SOL    HW137751   3.671   3.916  11.024 -0.2087 -0.2515  0.0140
 8763SOL    HW237752   3.541   3.863  11.093 -0.9223  0.8111  0.8584
 8764SOL     OW37753   1.548   3.366   5.963  0.1795  0.1084  0.1176
 8764SOL    HW137754   1.576   3.300   5.900  0.7468 -0.0593  0.5496
 8764SOL    HW237755   1.477   3.315   6.002 -1.2865  2.3034  0.3351
 8765SOL     OW37756   4.227   1.230   1.417 -0.3992 -0.3882  0.4616
 8765SOL    HW137757   4.310   1.183   1.424  0.5521  1.1578 -0.4428
 8765SOL    HW237758   4.193   1.241   1.506 -1.5342  2.6933 -0.3460
 8766SOL     OW37759   2.125   4.113   9.985  0.0044 -0.2311  0.0592
 8766SOL    HW137760   2.050   4.063   9.955 -1.8187  1.1647  2.2683
 8766SOL    HW237761   2.187   4.057   9.939 -1.4140 -1.2686 -0.5664
 8767SOL     OW37762   3.171   4.204   2.846 -0.4666 -0.3800 -0.2056
 8767SOL    HW137763   3.209   4.123   2.811  0.9276  0.0607  0.2844
 8767SOL    HW237764   3.234   4.268   2.814 -1.2198  0.2006 -0.5193
 8768SOL     OW37765   3.533   4.070  17.630 -0.0815  0.1898 -0.3179
 8768SOL    HW137766   3.455   4.115  17.663  0.9234  2.1993 -0.6721
 8768SOL    HW237767   3.520   3.981  17.662  2.1010  0.3771  1.0559
 8769SOL     OW37768   2.441   3.324   7.907 -0.5021  0.0717  0.0860
 8769SOL    HW137769   2.381   3.340   7.980 -1.4065  1.0472 -0.8773
 8769SOL    HW237770   2.448   3.229   7.918 -0.8736  0.1507  1.0740
 8770SOL     OW37771   2.276   2.727  12.861  0.1696  0.5226  0.2258
 8770SOL    HW137772   2.182   2.716  12.877  0.2015 -1.5005 -1.0925
 8770SOL    HW237773   2.314   2.640  12.853 -3.1620 -0.8901 -0.3119
 8771SOL     OW37774   3.038   3.766   4.759  0.2330 -0.2371  0.3416
 8771SOL    HW137775   3.110   3.801   4.812  0.3976 -1.2178  0.7729
 8771SOL    HW237776   3.026   3.687   4.812 -2.1147  0.7694  1.2794
 8772SOL     OW37777   1.618   3.840   1.406  0.3343  0.9674 -0.4489
 8772SOL    HW137778   1.595   3.757   1.449 -1.3204  1.7413  0.1576
 8772SOL    HW237779   1.659   3.886   1.480 -0.1337 -0.3425  0.6333
 8773SOL     OW37780   4.146   1.877  16.476  0.0815  0.0445 -0.6938
 8773SOL    HW137781   4.204   1.906  16.546 -0.4481  0.5748 -0.4690
 8773SOL    HW237782   4.195   1.867  16.395  0.9422 -1.7481  0.0602
 8774SOL     OW37783   2.491   1.760   8.859  0.0430  0.0345  0.5198
 8774SOL    HW137784   2.419   1.767   8.797  0.9069  1.5028 -0.3081
 8774SOL    HW237785   2.494   1.666   8.878 -1.7707  0.3563  2.3872
 8775SOL     OW37786   1.318   4.362   3.435  0.3396 -0.3531 -0.5675
 8775SOL    HW137787   1.381   4.323   3.496 -0.2340 -1.8494 -0.9159
 8775SOL    HW237788   1.341   4.454   3.442  1.0484 -0.3225 -3.3578
 8776SOL     OW37789   2.654   3.413  16.777  0.4825  0.0382  0.2523
 8776SOL    HW137790   2.680   3.437  16.688  0.7670  0.4967  0.4592
 8776SOL    HW237791   2.561   3.431  16.765  0.6852  1.5455  0.9216
 8777SOL     OW37792   4.086   3.271   8.700 -0.5531 -0.2396 -0.4452
 8777SOL    HW137793   4.068   3.338   8.633 -2.0653 -0.6065 -0.4219
 8777SOL    HW237794   4.102   3.316   8.783 -1.4392  0.5636 -0.6994
 8778SOL     OW37795   4.262   1.558  17.150  0.0004  0.0565  0.3949
 8778SOL    HW137796   4.357   1.557  17.139 -0.0752  1.6846 -0.4602
 8778SOL    HW237797   4.238   1.482  17.096  1.1489  0.5106 -0.7623
 8779SOL     OW37798   0.244   2.321   9.649 -0.6546  0.1092  0.7160
 8779SOL    HW137799   0.269   2.287   9.563  2.9721 -0.6689  2.1005
 8779SOL    HW237800   0.328   2.310   9.693 -1.2386  0.7603  2.0064
 8780SOL     OW37801   0.990   2.878  10.902  0.4080 -0.6471  0.1948
 8780SOL    HW137802   1.077   2.917  10.901  0.0529  0.1859  1.5988
 8780SOL    HW237803   0.934   2.955  10.892  0.9964 -0.3364 -0.7863
 8781SOL     OW37804   3.716   2.939   2.994 -0.3733 -0.4117 -0.0578
 8781SOL    HW137805   3.663   2.928   2.916 -2.4262  0.8028  1.1631
 8781SOL    HW237806   3.688   3.025   3.025 -0.7062 -1.1452  1.6876
 8782SOL     OW37807   2.515   0.524  11.604 -0.1355  0.2874 -0.5458
 8782SOL    HW137808   2.516   0.607  11.651 -1.0380 -1.6499  2.8287
 8782SOL    HW237809   2.538   0.466  11.676  1.4834  0.7168 -0.7064
 8783SOL     OW37810   4.562   1.989   4.642 -0.0162 -0.2708  0.0226
 8783SOL    HW137811   4.579   2.083   4.638 -2.5806  0.2401  1.3903
 8783SOL    HW237812   4.643   1.962   4.597 -0.6185 -0.6006 -0.8701
 8784SOL     OW37813   1.502   2.578  15.257 -0.0059  0.2376  0.1635
 8784SOL    HW137814   1.492   2.574  15.162 -0.1424 -0.6288  0.2080
 8784SOL    HW237815   1.413   2.565  15.290 -0.4398  0.9076 -0.7317
 8785SOL     OW37816   3.273   1.541   4.345 -0.0676  0.0721  0.4919
 8785SOL    HW137817   3.287   1.450   4.371  0.0679 -1.1683 -4.0363
 8785SOL    HW237818   3.347   1.556   4.287  0.3784  0.1032  1.0717
 8786SOL     OW37819   1.913   1.426   9.137  0.1948 -0.3560  0.0723
 8786SOL    HW137820   1.873   1.510   9.112 -0.0247 -1.1344 -2.1768
 8786SOL    HW237821   1.866   1.366   9.079  2.1149 -1.6418 -0.1597
 8787SOL     OW37822   0.919   2.420   2.218 -0.0433  0.0119 -0.5074
 8787SOL    HW137823   0.926   2.499   2.164 -0.7550  0.2388 -0.2776
 8787SOL    HW237824   1.007   2.410   2.254 -1.0768  0.4008  2.1312
 8788SOL     OW37825   1.395   2.222   5.183 -0.2928 -0.3441  0.0534
 8788SOL    HW137826   1.311   2.267   5.195 -0.0667  0.2597 -0.6589
 8788SOL    HW237827   1.387   2.154   5.250 -1.9667 -1.0920 -0.9139
 8789SOL     OW37828   3.423   3.610  14.145 -0.2168 -0.0081  0.5052
 8789SOL    HW137829   3.431   3.698  14.108 -1.5126 -0.7729 -1.5487
 8789SOL    HW237830   3.329   3.590  14.138  0.0548 -1.0571 -0.1101
 8790SOL     OW37831   3.508   2.021  11.679 -0.1611  0.0083 -0.6182
 8790SOL    HW137832   3.580   2.042  11.620 -0.9779  0.9259 -1.2871
 8790SOL    HW237833   3.515   1.926  11.669 -1.2194  0.1907 -3.0126
 8791SOL     OW37834   1.578   1.398   6.450  0.6662  0.2597  0.3490
 8791SOL    HW137835   1.668   1.431   6.442  1.5659 -2.3092 -0.2803
 8791SOL    HW237836   1.592   1.304   6.437 -0.2359  0.2263 -0.4015
 8792SOL     OW37837   4.097   3.727   5.103 -0.0566 -0.0964  0.2903
 8792SOL    HW137838   4.098   3.632   5.111  0.2983 -0.0821  0.4269
 8792SOL    HW237839   4.020   3.740   5.048 -0.8548 -0.8519  1.2336
 8793SOL     OW37840   0.516   2.661   3.466 -0.6752  0.4797 -0.2055
 8793SOL    HW137841   0.483   2.750   3.463  0.9589  0.9817 -2.7506
 8793SOL    HW237842   0.582   2.661   3.397  0.7137 -1.1014  1.1262
 8794SOL     OW37843   2.236   1.815   2.224  0.3145 -0.2541  0.2208
 8794SOL    HW137844   2.233   1.890   2.165 -0.8138 -1.0996 -0.8090
 8794SOL    HW237845   2.323   1.782   2.203  0.7717  0.2123  1.4038
 8795SOL     OW37846   4.332   4.296   2.503 -0.0869  0.4758 -0.0374
 8795SOL    HW137847   4.390   4.355   2.455  2.3178 -0.4040  1.7682
 8795SOL    HW237848   4.371   4.317   2.588  0.6015  0.5326 -0.3721
 8796SOL     OW37849   4.473   2.326  12.282 -0.5323  0.5413  0.5696
 8796SOL    HW137850   4.486   2.303  12.374 -4.4302 -0.6393  0.8357
 8796SOL    HW237851   4.543   2.388  12.264  0.9275 -1.1800  0.3165
 8797SOL     OW37852   0.468   4.375   2.387 -0.0151  0.4394 -0.0362
 8797SOL    HW137853   0.527   4.307   2.354 -1.0778  0.4262 -1.8836
 8797SOL    HW237854   0.489   4.451   2.333  0.9470  0.2510  0.0830
 8798SOL     OW37855   1.216   3.646   4.274 -0.4616 -0.1872 -0.2339
 8798SOL    HW137856   1.201   3.624   4.365  0.4298 -0.4421 -0.1486
 8798SOL    HW237857   1.205   3.741   4.282  0.3231  0.1499 -3.0872
 8799SOL     OW37858   1.124   3.259   6.376 -0.1802 -1.0263 -0.1111
 8799SOL    HW137859   1.218   3.269   6.359 -0.3976  1.8277  0.2971
 8799SOL    HW237860   1.120   3.217   6.462 -1.0258  0.1840  0.4387
 8800SOL     OW37861   3.228   3.413   4.973  0.1368  0.3498  0.1252
 8800SOL    HW137862   3.139   3.433   5.002 -0.5324 -1.1850 -0.8688
 8800SOL    HW237863   3.268   3.484   5.023 -1.4211  2.2696 -1.3406
 8801SOL     OW37864   2.341   0.677   8.154 -0.5815  0.2144  0.0436
 8801SOL    HW137865   2.284   0.737   8.202  0.5166  1.2624  0.0434
 8801SOL    HW237866   2.425   0.678   8.200 -0.7598 -0.0461  0.3692
 8802SOL     OW37867   3.593   1.831   5.869 -0.0811  0.0107  0.1361
 8802SOL    HW137868   3.666   1.774   5.845 -0.2438 -1.2566  2.6583
 8802SOL    HW237869   3.638   1.915   5.859 -0.5996  0.0447 -1.7889
 8803SOL     OW37870   2.616   3.096  10.661 -0.0591  0.3330 -0.4249
 8803SOL    HW137871   2.544   3.086  10.723  1.0326 -0.8243  0.6584
 8803SOL    HW237872   2.592   3.167  10.601  0.3223  0.7209 -0.1160
 8804SOL     OW37873   1.995   4.124   0.626  0.1004 -0.1789  0.0582
 8804SOL    HW137874   2.069   4.100   0.682 -0.5750  0.2687  1.1522
 8804SOL    HW237875   1.932   4.168   0.684  0.5308 -0.4352  0.7205
 8805SOL     OW37876   1.719   2.275   5.390 -0.7370 -0.0936 -0.4247
 8805SOL    HW137877   1.713   2.181   5.406  3.0653  0.2102  2.5843
 8805SOL    HW237878   1.661   2.308   5.460  1.7491  1.1315  1.0426
 8806SOL     OW37879   2.930   3.706   2.348  0.1227  0.4848 -0.0132
 8806SOL    HW137880   2.992   3.634   2.365  0.1994  0.4933 -0.2677
 8806SOL    HW237881   2.878   3.726   2.426 -1.2339 -0.6518 -0.6267
 8807SOL     OW37882   0.433   2.714   2.463  0.1778 -0.0596 -0.3543
 8807SOL    HW137883   0.466   2.748   2.546 -1.0535 -2.5383  1.1519
 8807SOL    HW237884   0.346   2.752   2.472 -0.4336 -1.4041 -0.5944
 8808SOL     OW37885   4.108   4.719  12.209 -0.5001 -0.4339  0.5628
 8808SOL    HW137886   4.033   0.002  12.268 -1.6747  0.0964 -1.0078
 8808SOL    HW237887   4.180   4.700  12.270 -0.5023 -3.4148 -0.3878
 8809SOL     OW37888   0.301   4.080   9.932  0.0268 -0.0023 -0.2609
 8809SOL    HW137889   0.212   4.072   9.967 -0.2583  1.3879 -0.6792
 8809SOL    HW237890   0.280   4.122   9.849  1.3277  2.1555  0.5105
 8810SOL     OW37891   0.444   4.301   3.020 -0.8037  0.1272  0.0837
 8810SOL    HW137892   0.396   4.365   2.967 -0.0798  0.0738 -0.6397
 8810SOL    HW237893   0.502   4.265   2.953 -1.9656  1.6942 -1.7680
 8811SOL     OW37894   0.013   4.578  10.437  0.2383 -0.0467 -0.3488
 8811SOL    HW137895   0.095   4.599  10.482  0.2454  0.8764 -0.7871
 8811SOL    HW237896   0.035   4.545  10.350  1.9405 -0.8994  0.3929
 8812SOL     OW37897   3.362   2.329   7.479 -0.6131  0.1328  0.1195
 8812SOL    HW137898   3.455   2.347   7.464 -0.1353 -0.9777  1.7618
 8812SOL    HW237899   3.346   2.258   7.417  1.9145  0.2434 -0.6930
 8813SOL     OW37900   0.019   0.028   2.036 -0.0176  0.2764  0.0939
 8813SOL    HW137901   0.021   4.712   1.950 -0.5781  0.2027  0.1159
 8813SOL    HW237902   0.087   4.713   2.091  1.0954  0.3346 -1.2424
 8814SOL     OW37903   3.085   2.153   8.174 -0.2953  0.0897  0.1007
 8814SOL    HW137904   3.017   2.189   8.231  0.4549  0.5047  0.7351
 8814SOL    HW237905   3.050   2.179   8.089 -0.2739  0.1342  0.1052
 8815SOL     OW37906   2.837   0.415  16.023  0.3306  0.5367  0.1173
 8815SOL    HW137907   2.822   0.419  16.117 -0.5882 -2.1604  0.0848
 8815SOL    HW237908   2.879   0.330  16.010 -0.9871 -0.5394  3.0901
 8816SOL     OW37909   3.591   3.259   5.210  0.0547  0.0143  0.0311
 8816SOL    HW137910   3.527   3.250   5.140 -0.1876  0.1638  0.2345
 8816SOL    HW237911   3.654   3.194   5.178 -0.2681  0.2527 -1.0778
 8817SOL     OW37912   3.215   4.261   9.282  0.2140 -0.3124 -0.0018
 8817SOL    HW137913   3.160   4.324   9.234 -0.4730 -0.3708  0.7099
 8817SOL    HW237914   3.284   4.269   9.215  1.7966 -0.6688  1.6073
 8818SOL     OW37915   1.680   1.708  13.434  0.1268  0.3116 -0.3027
 8818SOL    HW137916   1.731   1.697  13.354 -0.7827  1.0725 -0.9761
 8818SOL    HW237917   1.719   1.648  13.498 -1.5024 -0.3474  0.0626
 8819SOL     OW37918   2.147   0.901   9.596 -0.2617 -0.3814 -0.4385
 8819SOL    HW137919   2.216   0.835   9.602 -1.2153 -1.4668 -1.5659
 8819SOL    HW237920   2.177   0.972   9.538  0.2714 -0.5909 -0.4168
 8820SOL     OW37921   2.240   0.454   5.652 -0.1063 -0.3590  0.4548
 8820SOL    HW137922   2.244   0.393   5.579  0.0865  0.8514 -0.5457
 8820SOL    HW237923   2.158   0.429   5.695 -1.0564  1.8844 -0.0579
 8821SOL     OW37924   0.215   3.895  14.993  0.2165  0.2861  0.9634
 8821SOL    HW137925   0.147   3.961  15.002 -0.8144 -0.2787 -2.5510
 8821SOL    HW237926   0.193   3.843  15.070 -1.2648 -3.2332 -1.7997
 8822SOL     OW37927   1.044   1.568  14.616  0.1084  0.0033  0.0786
 8822SOL    HW137928   1.138   1.584  14.626 -0.0703  1.3013 -0.3007
 8822SOL    HW237929   1.033   1.477  14.646 -0.2586 -0.4229 -1.3648
 8823SOL     OW37930   3.722   1.648   7.204  0.1116  0.5178  0.3565
 8823SOL    HW137931   3.789   1.582   7.219 -0.6616 -0.6121 -1.1545
 8823SOL    HW237932   3.764   1.713   7.148  0.7704 -1.7127 -1.7113
 8824SOL     OW37933   4.475   2.079   9.841  0.4965  0.3587  0.2646
 8824SOL    HW137934   4.494   1.994   9.881  1.3229  0.1801 -0.5195
 8824SOL    HW237935   4.381   2.085   9.859  0.2612  1.3507 -1.3220
 8825SOL     OW37936   2.282   0.143   9.670 -0.1021 -0.2346 -0.3775
 8825SOL    HW137937   2.223   0.103   9.606 -0.1604  1.2240 -1.2327
 8825SOL    HW237938   2.228   0.216   9.701  2.6379  0.4675  2.8264
 8826SOL     OW37939   2.584   4.243  12.274  0.1313  0.3417  0.0239
 8826SOL    HW137940   2.670   4.227  12.313 -0.4860  2.6217  2.2699
 8826SOL    HW237941   2.536   4.164  12.300 -0.8053  1.6605  2.2742
 8827SOL     OW37942   0.922   0.206   5.555 -0.1366 -0.6967 -0.2536
 8827SOL    HW137943   0.845   0.213   5.611  0.8995 -1.3615  1.2587
 8827SOL    HW237944   0.984   0.262   5.602 -2.7901  1.1024  1.1156
 8828SOL     OW37945   4.337   0.850   4.944 -0.5040 -0.2243 -0.2452
 8828SOL    HW137946   4.295   0.841   4.859 -2.4078  2.6630  0.3949
 8828SOL    HW237947   4.259   0.868   4.997 -0.4772  0.0449 -0.2973
 8829SOL     OW37948   0.766   0.590  16.146 -0.4523  0.3093 -0.3463
 8829SOL    HW137949   0.713   0.670  16.155 -0.0898  0.3497  1.4880
 8829SOL    HW237950   0.790   0.603  16.055  0.2521 -0.3739 -0.2553
 8830SOL     OW37951   4.333   3.603   5.862 -0.4086  0.2409 -0.2680
 8830SOL    HW137952   4.414   3.592   5.812 -1.0369 -3.5467 -0.4538
 8830SOL    HW237953   4.356   3.663   5.933 -0.3224 -0.9200  0.6801
 8831SOL     OW37954   3.357   0.108   0.736 -0.4330  0.0866  0.9875
 8831SOL    HW137955   3.347   0.021   0.698  0.1349  0.5236 -0.1768
 8831SOL    HW237956   3.378   0.154   0.654 -2.0095  2.2084  1.7616
 8832SOL     OW37957   0.299   4.416   8.218 -0.1708  0.5721  0.2473
 8832SOL    HW137958   0.364   4.428   8.287 -2.3194  2.6506  1.9073
 8832SOL    HW237959   0.282   4.323   8.226 -1.0854  0.6650 -0.5226
 8833SOL     OW37960   2.763   3.888   1.389  0.4056 -0.2071 -0.0625
 8833SOL    HW137961   2.792   3.802   1.419 -0.2511  0.4254  2.4009
 8833SOL    HW237962   2.784   3.884   1.296  0.2517  0.3401 -0.1206
 8834SOL     OW37963   1.611   3.834   3.798 -0.1485  0.0879  0.2437
 8834SOL    HW137964   1.695   3.844   3.753  0.6156  1.1810  1.8955
 8834SOL    HW237965   1.635   3.858   3.888 -0.4505  0.0143  0.3453
 8835SOL     OW37966   1.278   3.963   3.969  0.1281  0.3891 -0.0889
 8835SOL    HW137967   1.370   3.943   3.986 -0.0125  1.7607  2.2486
 8835SOL    HW237968   1.279   4.058   3.959  1.3056  0.3412 -0.4545
 8836SOL     OW37969   1.324   1.463  16.784 -0.5727 -0.6107  0.3372
 8836SOL    HW137970   1.313   1.536  16.846 -0.7371 -1.6278  1.4942
 8836SOL    HW237971   1.245   1.413  16.803 -0.4130 -0.1279  2.2718
 8837SOL     OW37972   4.403   2.981   2.677 -0.1868  0.2902  0.1928
 8837SOL    HW137973   4.380   2.904   2.624  2.0034  0.5890 -1.1938
 8837SOL    HW237974   4.498   2.979   2.667 -0.3851 -3.3443 -1.2795
 8838SOL     OW37975   2.943   1.816   7.653 -0.1877 -0.2119  0.0529
 8838SOL    HW137976   2.875   1.850   7.711 -0.6979 -1.9737  0.4680
 8838SOL    HW237977   2.988   1.757   7.713  2.5613 -1.3090 -3.0683
 8839SOL     OW37978   2.438   0.817  14.792 -0.0846 -0.2912 -0.5153
 8839SOL    HW137979   2.467   0.908  14.797 -1.8374  0.2959 -0.9675
 8839SOL    HW237980   2.444   0.804  14.697 -2.1606 -3.2431 -0.2624
 8840SOL     OW37981   0.865   4.085   3.005 -0.0208  0.2413  0.3732
 8840SOL    HW137982   0.886   4.050   3.092  0.5243  1.1018  0.5881
 8840SOL    HW237983   0.893   4.173   3.029 -1.2929  0.5298  0.7987
 8841SOL     OW37984   0.607   4.240   4.523 -0.0225 -0.1001  0.1465
 8841SOL    HW137985   0.684   4.290   4.495 -0.5537 -0.2738 -1.6282
 8841SOL    HW237986   0.628   4.243   4.616  0.1575 -1.1290  0.1395
 8842SOL     OW37987   0.734   0.796   1.428  0.1615 -0.5173 -0.1841
 8842SOL    HW137988   0.656   0.763   1.384 -0.4916 -0.7071  1.1326
 8842SOL    HW237989   0.776   0.822   1.346  0.1648  0.6442  0.1900
 8843SOL     OW37990   3.369   1.234   5.542  0.0970 -0.4095  0.2250
 8843SOL    HW137991   3.387   1.318   5.502  0.5426  1.0164  3.3905
 8843SOL    HW237992   3.394   1.246   5.634 -0.8642 -3.5483  0.9028
 8844SOL     OW37993   0.725   1.357   6.662  0.3063  0.3641  0.5521
 8844SOL    HW137994   0.808   1.335   6.705  0.3507 -0.8163 -0.1331
 8844SOL    HW237995   0.678   1.273   6.664  1.5132 -0.3275  0.2262
 8845SOL     OW37996   2.138   4.231   3.253 -0.0884 -0.2953  0.8656
 8845SOL    HW137997   2.195   4.301   3.285 -0.3748 -0.1561  1.0825
 8845SOL    HW237998   2.201   4.160   3.253 -1.7979 -1.8387 -0.4259
 8846SOL     OW37999   0.705   2.311   6.196  0.2790  0.2086  0.1830
 8846SOL    HW138000   0.651   2.389   6.210  0.2854  0.0860  0.9012
 8846SOL    HW238001   0.723   2.282   6.285 -0.3870  1.7296  0.8247
 8847SOL     OW38002   3.511   0.111   2.609  0.4709  0.7057 -0.3025
 8847SOL    HW138003   3.543   0.172   2.675 -0.5725  0.1482  0.7116
 8847SOL    HW238004   3.573   0.128   2.537  1.0677 -0.0949  0.0216
 8848SOL     OW38005   1.732   3.977  12.716  0.6356  0.1009  0.2616
 8848SOL    HW138006   1.781   3.978  12.634 -0.6763  1.6374 -0.5180
 8848SOL    HW238007   1.654   4.028  12.695 -0.6609 -1.6288  0.8508
 8849SOL     OW38008   0.723   1.399   2.758  0.9821 -0.0678  0.4493
 8849SOL    HW138009   0.756   1.484   2.788  0.6444  0.7952 -1.6321
 8849SOL    HW238010   0.754   1.383   2.669  0.4019  1.2289  0.0126
 8850SOL     OW38011   3.556   2.638  13.300 -0.7363  0.6060  0.5440
 8850SOL    HW138012   3.508   2.720  13.290 -2.4720 -0.3243  1.4047
 8850SOL    HW238013   3.517   2.591  13.373  0.3683 -1.2528 -0.0518
 8851SOL     OW38014   0.262   4.629   9.553 -0.1454  0.6154  0.4291
 8851SOL    HW138015   0.353   4.658   9.552  0.3302 -0.8864 -0.2702
 8851SOL    HW238016   0.244   4.628   9.647  0.1399 -0.4061  0.4665
 8852SOL     OW38017   2.856   1.228   2.656 -0.2577 -0.0147  0.5056
 8852SOL    HW138018   2.824   1.254   2.570 -0.6518 -0.4838  0.5123
 8852SOL    HW238019   2.948   1.225   2.631 -0.1790  1.1684  0.6153
 8853SOL     OW38020   4.574   3.271   1.012 -0.1028 -0.0578 -0.5297
 8853SOL    HW138021   4.569   3.192   1.066 -0.9699  1.4324  1.6100
 8853SOL    HW238022   4.519   3.333   1.060  0.9587 -0.6030  1.3928
 8854SOL     OW38023   2.146   1.018   9.090  0.1733 -0.6676 -0.3468
 8854SOL    HW138024   2.174   0.927   9.080  0.0392 -0.7590  0.0960
 8854SOL    HW238025   2.141   1.044   8.998  1.0893 -1.0850 -0.5100
 8855SOL     OW38026   1.321   1.375  12.463 -0.2378  0.1068  0.1628
 8855SOL    HW138027   1.320   1.294  12.411  0.4330  2.4852 -3.5439
 8855SOL    HW238028   1.242   1.412  12.425 -0.8776 -1.0173  0.4110
 8856SOL     OW38029   0.492   1.453   8.979  0.4174  0.4310  0.5370
 8856SOL    HW138030   0.427   1.389   8.947  1.7603 -0.6839  0.0256
 8856SOL    HW238031   0.522   1.416   9.062  0.4569 -2.4868 -0.7474
 8857SOL     OW38032   4.151   2.751   2.842  0.3539  0.2181  0.8419
 8857SOL    HW138033   4.197   2.744   2.759  1.9909 -1.0640  1.8379
 8857SOL    HW238034   4.199   2.688   2.896 -1.3976 -1.9472 -0.1203
 8858SOL     OW38035   3.738   0.724   3.792  0.0478 -0.1263 -0.3836
 8858SOL    HW138036   3.657   0.720   3.741 -1.4700 -1.0462  2.0995
 8858SOL    HW238037   3.794   0.759   3.722 -2.6686  1.5791 -1.7139
 8859SOL     OW38038   3.324   3.820   8.006  0.2167 -0.0549  0.1868
 8859SOL    HW138039   3.349   3.774   7.926 -4.4983 -0.5098 -1.0217
 8859SOL    HW238040   3.263   3.887   7.974 -1.2442 -0.6339  1.7747
 8860SOL     OW38041   1.966   3.257   8.710 -0.1569 -0.3565  0.1849
 8860SOL    HW138042   2.033   3.288   8.649 -1.0901  2.1467  0.4323
 8860SOL    HW238043   2.029   3.209   8.764  0.1653  1.2778  1.2805
 8861SOL     OW38044   1.960   4.587  17.642  0.1900  0.5593 -0.1155
 8861SOL    HW138045   2.027   4.529  17.603  0.5587  0.2942  0.9109
 8861SOL    HW238046   1.890   4.569  17.580 -2.8370  2.8517  2.6571
 8862SOL     OW38047   4.062   3.364  16.976  0.4503 -0.1195  0.2177
 8862SOL    HW138048   4.148   3.392  16.946  0.1169 -1.1320 -1.7328
 8862SOL    HW238049   4.030   3.315  16.900  0.1733 -2.1649  1.6741
 8863SOL     OW38050   1.266   1.989  10.387  0.1191 -0.1167 -0.0740
 8863SOL    HW138051   1.315   1.925  10.439 -2.7234 -0.2848  2.3845
 8863SOL    HW238052   1.336   2.046  10.356 -1.0730  1.1409 -0.4745
 8864SOL     OW38053   3.570   2.859   5.570  0.0185  0.2707 -0.4517
 8864SOL    HW138054   3.512   2.866   5.646 -0.0168  0.9020 -0.5424
 8864SOL    HW238055   3.526   2.889   5.491 -0.9830 -0.8211 -0.3053
 8865SOL     OW38056   1.347   1.876  14.331  0.0944  0.0235 -0.9468
 8865SOL    HW138057   1.309   1.811  14.271 -1.1433 -0.4692  0.3857
 8865SOL    HW238058   1.441   1.868  14.313 -0.1564 -1.7534 -1.5173
 8866SOL     OW38059   0.091   1.994   2.784  0.0940  0.2870 -0.4445
 8866SOL    HW138060   0.005   2.024   2.816  0.7767 -0.3697  1.9811
 8866SOL    HW238061   0.101   1.916   2.838  2.4794  0.6499 -0.3722
 8867SOL     OW38062   3.827   3.673   4.959  0.4634 -0.5022  0.4450
 8867SOL    HW138063   3.755   3.679   5.022  1.3699 -0.4763  1.4696
 8867SOL    HW238064   3.827   3.581   4.932  0.0942 -0.4877  0.4007
 8868SOL     OW38065   0.692   4.585  11.229 -0.3443  0.6808  0.1432
 8868SOL    HW138066   0.709   4.646  11.301 -1.0237  0.8595  0.1552
 8868SOL    HW238067   0.711   4.509  11.284  0.2005 -0.0399 -1.0490
 8869SOL     OW38068   0.472   4.328   8.646  0.0867  0.7428  0.4123
 8869SOL    HW138069   0.506   4.239   8.643  2.6856  1.7715 -0.8880
 8869SOL    HW238070   0.501   4.364   8.562 -0.4051 -0.5370 -0.3048
 8870SOL     OW38071   3.362   0.512  16.950 -0.0931 -0.0516  0.5813
 8870SOL    HW138072   3.378   0.470  16.866  1.6217 -0.2584  1.0112
 8870SOL    HW238073   3.443   0.562  16.948 -1.0999  1.5037 -1.6806
 8871SOL     OW38074   2.844   2.073   5.293 -0.1120  0.4737  0.6077
 8871SOL    HW138075   2.889   2.035   5.369 -0.2458  0.2195  0.5601
 8871SOL    HW238076   2.886   2.031   5.218  1.1924 -0.2935  1.7497
 8872SOL     OW38077   3.305   1.786  11.736  0.0315  0.1441 -0.2982
 8872SOL    HW138078   3.220   1.794  11.693  1.4361  1.0628 -2.8432
 8872SOL    HW238079   3.267   1.799  11.823 -0.6064  0.3769 -0.6079
 8873SOL     OW38080   1.036   4.385  11.570  0.2803 -0.3476  0.4796
 8873SOL    HW138081   1.005   4.296  11.551  2.7726 -1.1747  0.2891
 8873SOL    HW238082   0.974   4.417  11.635  0.5357 -2.1185  1.5912
 8874SOL     OW38083   0.167   4.592   2.202  0.4125 -0.1827 -0.3480
 8874SOL    HW138084   0.242   4.612   2.258 -0.1946  0.8009  0.1274
 8874SOL    HW238085   0.101   4.594   2.271 -1.5829 -1.1813 -2.2627
 8875SOL     OW38086   1.347   3.837   9.081 -0.2459  0.2543  0.1866
 8875SOL    HW138087   1.365   3.815   9.172  0.4900 -2.1295 -0.5104
 8875SOL    HW238088   1.406   3.904   9.047 -0.0622  1.3781  2.7305
 8876SOL     OW38089   0.071   0.279   8.078 -0.4791 -0.2200 -0.1227
 8876SOL    HW138090   0.020   0.234   8.010 -0.2502 -0.0905 -0.3752
 8876SOL    HW238091   0.138   0.323   8.027  0.0215  2.3058  2.7804
 8877SOL     OW38092   0.691   2.029   2.571 -0.8452  0.3575  0.4597
 8877SOL    HW138093   0.644   1.977   2.506  1.7566 -0.9423 -0.3563
 8877SOL    HW238094   0.755   2.068   2.512 -1.4231  0.1710 -0.2977
 8878SOL     OW38095   2.478   2.973  17.229 -0.3002 -0.1169  0.1221
 8878SOL    HW138096   2.410   3.012  17.175 -0.4555  0.0457  0.4341
 8878SOL    HW238097   2.532   2.926  17.166 -1.0145  1.4230 -1.6335
 8879SOL     OW38098   0.860   2.754   8.780 -0.9322  0.2130 -0.6448
 8879SOL    HW138099   0.809   2.794   8.850  0.8486  0.6543  0.3962
 8879SOL    HW238100   0.907   2.831   8.749 -0.9241 -0.0863 -1.3812
 8880SOL     OW38101   2.398   1.083   6.538  0.1778 -0.1504 -0.1749
 8880SOL    HW138102   2.384   0.991   6.515  2.0998 -0.1676 -1.3304
 8880SOL    HW238103   2.338   1.095   6.612 -0.7971  0.7280 -1.1046
 8881SOL     OW38104   0.699   1.576  16.004  0.1028 -0.3895  0.2911
 8881SOL    HW138105   0.791   1.560  16.027  0.4782  1.4331  0.0305
 8881SOL    HW238106   0.667   1.630  16.077 -1.5605 -0.1845 -0.5963
 8882SOL     OW38107   2.148   3.092   5.287 -0.0486 -0.7181 -0.0345
 8882SOL    HW138108   2.072   3.046   5.253  0.0581 -1.1434  0.2986
 8882SOL    HW238109   2.178   3.129   5.204 -0.9789 -0.7778 -0.3967
 8883SOL     OW38110   4.071   0.073   5.238 -0.0467 -0.3967  0.1716
 8883SOL    HW138111   4.145   0.108   5.287  0.2421  1.0137 -1.2611
 8883SOL    HW238112   4.007   0.055   5.307 -2.8078  0.4439 -2.1500
 8884SOL     OW38113   2.730   1.211   3.446  0.7606  0.4825 -0.4253
 8884SOL    HW138114   2.746   1.117   3.456  0.1814  0.3401 -0.8414
 8884SOL    HW238115   2.644   1.205   3.404  0.5319 -1.8312  0.3661
 8885SOL     OW38116   0.229   3.778  10.557  0.4438 -0.2257 -0.3041
 8885SOL    HW138117   0.227   3.710  10.625  0.3363  2.2956  2.1976
 8885SOL    HW238118   0.317   3.812  10.575  0.1934  0.9727 -1.3858
 8886SOL     OW38119   0.941   1.572   4.345  0.9386  0.3494  0.1760
 8886SOL    HW138120   0.958   1.483   4.376 -1.5882  0.4149  1.8224
 8886SOL    HW238121   1.006   1.579   4.276  0.0466 -0.1831 -0.7208
 8887SOL     OW38122   0.532   3.901   1.534 -0.4208 -0.1491 -0.1970
 8887SOL    HW138123   0.440   3.926   1.545 -0.0245  0.7613  1.0676
 8887SOL    HW238124   0.555   3.859   1.617  2.4020  1.1986 -0.2838
 8888SOL     OW38125   3.881   1.136   6.500 -0.3724  0.3474 -0.1461
 8888SOL    HW138126   3.907   1.078   6.572 -0.4574  2.8984  1.9687
 8888SOL    HW238127   3.929   1.218   6.513 -1.7367  0.8346  1.9746
 8889SOL     OW38128   1.891   0.630   2.838 -0.6974 -0.0333 -0.7768
 8889SOL    HW138129   1.922   0.720   2.843 -2.3984  0.5957 -1.3522
 8889SOL    HW238130   1.873   0.608   2.929 -1.4941  0.4311 -0.8150
 8890SOL     OW38131   4.648   4.151  13.047 -0.3882 -0.3543  0.0172
 8890SOL    HW138132   4.716   4.105  13.096  1.1351  1.2800 -0.5293
 8890SOL    HW238133   4.590   4.160  13.123  0.1407 -0.1283  0.3947
 8891SOL     OW38134   2.376   3.994   8.574 -0.2939  0.4055  0.0010
 8891SOL    HW138135   2.459   4.018   8.616 -0.3492  0.2931  0.1759
 8891SOL    HW238136   2.406   3.926   8.515  1.2504 -0.6008  1.9331
 8892SOL     OW38137   3.498   0.913  11.026  0.0753  0.3051  0.1991
 8892SOL    HW138138   3.522   1.005  11.041  0.2152  0.2525  0.2947
 8892SOL    HW238139   3.428   0.899  11.089 -0.2588 -0.1663 -0.2800
 8893SOL     OW38140   4.723   1.021   1.899 -0.4401 -0.0578  1.1018
 8893SOL    HW138141   0.025   0.945   1.848  0.3657  0.5443  0.6283
 8893SOL    HW238142   0.079   1.071   1.888 -0.0971 -0.4639  1.8187
 8894SOL     OW38143   2.934   0.579   2.239  0.0237 -0.5352  0.0706
 8894SOL    HW138144   2.927   0.672   2.258 -1.2382 -0.4910 -0.6537
 8894SOL    HW238145   2.946   0.537   2.324  0.3297 -0.0433  0.2693
 8895SOL     OW38146   3.881   1.561   2.951 -0.0752  0.7953 -0.3687
 8895SOL    HW138147   3.841   1.578   2.866 -0.6715  0.6112 -0.1298
 8895SOL    HW238148   3.831   1.485   2.981  0.2739  0.0638 -1.6346
 8896SOL     OW38149   1.017   1.501   7.794  0.4994  0.2964 -0.7177
 8896SOL    HW138150   0.924   1.498   7.819  0.8260  0.9978  0.5594
 8896SOL    HW238151   1.014   1.466   7.705 -0.4007 -2.2417  0.3006
 8897SOL     OW38152   2.609   0.395   4.948  0.7123  0.2746 -0.1186
 8897SOL    HW138153   2.698   0.404   4.984  0.4453  4.0854 -0.4549
 8897SOL    HW238154   2.554   0.361   5.019 -0.2436  3.1338  0.5157
 8898SOL     OW38155   2.396   1.771   6.720  0.3666 -0.0736 -0.4118
 8898SOL    HW138156   2.466   1.744   6.780  0.8845  1.6727 -0.2334
 8898SOL    HW238157   2.415   1.864   6.732 -1.8147  0.2004  0.8158
 8899SOL     OW38158   4.123   1.432   4.535 -0.0489 -0.1016  0.1810
 8899SOL    HW138159   4.105   1.425   4.629 -0.3736 -1.4050  0.0347
 8899SOL    HW238160   4.146   1.524   4.531  0.4899 -0.2432 -0.0724
 8900SOL     OW38161   0.651   1.980  15.214 -0.2188 -0.1054  0.5136
 8900SOL    HW138162   0.607   2.038  15.151  0.3947 -0.6672 -0.4370
 8900SOL    HW238163   0.596   1.982  15.292 -0.8461 -1.2025  0.1075
 8901SOL     OW38164   1.139   0.700   3.692  0.0533  0.6635  0.4189
 8901SOL    HW138165   1.137   0.795   3.679  2.4711  0.5229 -0.9170
 8901SOL    HW238166   1.210   0.675   3.633  0.8682  0.2210  1.6112
 8902SOL     OW38167   2.836   0.183  17.588 -0.2956  0.3448 -0.0334
 8902SOL    HW138168   2.760   0.233  17.619 -0.3544  0.1900  0.0751
 8902SOL    HW238169   2.825   0.175  17.494 -0.5836 -1.0772  0.1290
 8903SOL     OW38170   0.103   3.748   2.115  0.3268 -0.1110 -0.1478
 8903SOL    HW138171   0.180   3.718   2.068 -0.8251  0.6098 -2.5033
 8903SOL    HW238172   0.083   3.676   2.174 -1.7247  0.7435  0.2340
 8904SOL     OW38173   3.654   3.447   2.851  0.1395  0.3258  0.3303
 8904SOL    HW138174   3.702   3.502   2.789  0.1023 -1.6263 -1.4463
 8904SOL    HW238175   3.568   3.469   2.815  0.2052 -1.2917 -0.8072
 8905SOL     OW38176   4.098   0.565   4.968 -0.1571 -0.3167 -0.0687
 8905SOL    HW138177   4.076   0.472   4.977 -0.6142 -0.2055 -0.0163
 8905SOL    HW238178   4.168   0.561   4.904 -0.1338 -2.4608  0.0953
 8906SOL     OW38179   0.902   3.176  11.823 -0.0682  0.2289  0.0383
 8906SOL    HW138180   0.867   3.125  11.897 -1.9167 -1.5047 -2.0525
 8906SOL    HW238181   0.931   3.119  11.753 -0.7737  0.2669 -0.2826
 8907SOL     OW38182   3.657   0.432   7.239 -0.5351 -0.0898 -0.2196
 8907SOL    HW138183   3.737   0.422   7.291  0.7670 -0.9650 -2.3744
 8907SOL    HW238184   3.652   0.348   7.193  0.2116  0.7260 -1.8182
 8908SOL     OW38185   3.976   3.577   6.213  0.2755  0.4406  0.2248
 8908SOL    HW138186   3.938   3.506   6.162 -0.2551  0.2722  0.8559
 8908SOL    HW238187   3.911   3.587   6.282  1.9985 -0.2339  1.9485
 8909SOL     OW38188   0.930   0.019  13.388 -0.0872  0.0406  0.0586
 8909SOL    HW138189   1.019   0.016  13.424 -0.2312 -0.2682  0.3921
 8909SOL    HW238190   0.950   0.017  13.295  1.3962  2.5665  0.3205
 8910SOL     OW38191   0.001   1.838   5.235  0.0530  0.6908  0.9713
 8910SOL    HW138192   0.020   1.851   5.142 -0.4097 -0.8636  0.6506
 8910SOL    HW238193   4.660   1.905   5.255 -1.2605 -0.3027  0.0485
 8911SOL     OW38194   0.009   0.588   3.404 -0.0004 -0.4449  0.0340
 8911SOL    HW138195   0.023   0.534   3.326 -0.8150 -0.0779 -0.3579
 8911SOL    HW238196   0.025   0.676   3.371 -0.7082 -0.1701  0.4321
 8912SOL     OW38197   2.399   1.073   9.455 -0.8514  0.4647 -0.0360
 8912SOL    HW138198   2.489   1.044   9.470 -2.0181 -2.9868  0.2833
 8912SOL    HW238199   2.397   1.085   9.360 -0.8542 -1.5698 -0.2769
 8913SOL     OW38200   2.418   2.801   4.908  0.1598  0.4863  0.6261
 8913SOL    HW138201   2.383   2.723   4.950  0.8767  0.7053  1.6341
 8913SOL    HW238202   2.509   2.775   4.892 -0.7329 -1.4731 -1.2978
 8914SOL     OW38203   2.651   2.879   6.017 -0.6157 -0.6898 -0.0784
 8914SOL    HW138204   2.558   2.878   5.995 -0.1100  0.0996 -2.2569
 8914SOL    HW238205   2.672   2.945   5.951  1.3105 -0.5314  0.6900
 8915SOL     OW38206   1.884   3.762   1.595 -0.3790  0.3009  0.1067
 8915SOL    HW138207   1.897   3.856   1.581  0.4483  0.0532 -0.7792
 8915SOL    HW238208   1.967   3.726   1.563 -0.9555  1.3564 -2.5972
 8916SOL     OW38209   1.583   2.920   1.101  0.2427 -0.1946  0.0472
 8916SOL    HW138210   1.605   2.949   1.012 -0.0283  0.1162  0.0816
 8916SOL    HW238211   1.563   3.000   1.150  0.4015  1.2349 -2.1905
 8917SOL     OW38212   2.965   3.226  15.860 -0.0691  0.2571  0.3767
 8917SOL    HW138213   2.883   3.208  15.814 -0.1785 -0.6021  0.8921
 8917SOL    HW238214   3.024   3.259  15.792 -0.6852  1.6430  0.5295
 8918SOL     OW38215   2.885   0.976  10.252 -0.2807  0.4755 -0.4637
 8918SOL    HW138216   2.968   0.956  10.296 -0.1110 -0.1346 -1.0510
 8918SOL    HW238217   2.819   0.930  10.303 -0.5885  0.8379 -0.5425
 8919SOL     OW38218   3.703   0.565   2.841  0.2138  0.0452  0.1243
 8919SOL    HW138219   3.752   0.528   2.767 -0.9050  1.5543 -1.3749
 8919SOL    HW238220   3.750   0.648   2.846 -0.2790  0.3610 -0.4497
 8920SOL     OW38221   0.348   0.407   0.002  0.7021  0.1339 -0.2840
 8920SOL    HW138222   0.342   0.446   0.090 -1.4507 -0.7595 -0.0349
 8920SOL    HW238223   0.396   0.326   0.015  0.8993  0.2097 -0.5487
 8921SOL     OW38224   4.558   4.490  10.616 -0.0127 -0.4889  0.0413
 8921SOL    HW138225   4.495   4.556  10.590 -0.1735 -0.9312 -0.6872
 8921SOL    HW238226   4.627   4.501  10.551  1.3978  2.6522  2.1194
 8922SOL     OW38227   3.321   3.643   3.486  0.2064 -0.1734  0.2077
 8922SOL    HW138228   3.409   3.607   3.487 -0.4199 -1.6627  1.5480
 8922SOL    HW238229   3.317   3.658   3.392 -1.4436 -1.7994  0.0152
 8923SOL     OW38230   1.200   1.654   8.413 -0.2959  0.0743 -0.6028
 8923SOL    HW138231   1.287   1.694   8.404 -0.2946  0.1767 -0.1182
 8923SOL    HW238232   1.182   1.656   8.507 -0.8339 -1.0785 -0.6885
 8924SOL     OW38233   0.560   0.393   8.761 -0.1937  0.0628  0.3656
 8924SOL    HW138234   0.482   0.427   8.804 -0.7989  0.1448 -0.8252
 8924SOL    HW238235   0.604   0.357   8.839 -1.7050 -1.0746  0.7013
 8925SOL     OW38236   3.620   4.199   8.831  0.0129 -0.6061 -0.1469
 8925SOL    HW138237   3.581   4.276   8.790 -1.3144 -0.9357  0.4737
 8925SOL    HW238238   3.710   4.227   8.843 -0.3280 -0.2072  1.5546
 8926SOL     OW38239   4.658   3.575   5.925 -0.0052 -0.0888 -0.3951
 8926SOL    HW138240   4.679   3.639   5.857 -0.6068  0.2074 -0.3011
 8926SOL    HW238241   4.634   3.630   5.999 -0.2780 -0.2824 -0.3397
 8927SOL     OW38242   3.561   3.357  15.089  0.3837  0.1472 -0.6775
 8927SOL    HW138243   3.485   3.412  15.109  0.2085 -0.2083 -0.3689
 8927SOL    HW238244   3.578   3.386  15.000  0.0396  1.5895 -0.2664
 8928SOL     OW38245   0.479   1.255   3.924  0.3769 -0.0237 -0.3176
 8928SOL    HW138246   0.551   1.282   3.981  0.3338  0.8007 -0.6494
 8928SOL    HW238247   0.468   1.163   3.947 -3.6573  1.1824  2.7363
 8929SOL     OW38248   0.667   3.897   4.943  0.2752 -0.4330 -0.2876
 8929SOL    HW138249   0.713   3.965   4.992 -1.1347 -0.5934  1.2374
 8929SOL    HW238250   0.585   3.946   4.933 -0.3410 -1.0019  2.0442
 8930SOL     OW38251   3.257   0.678   7.759 -0.0818 -0.8595  0.3807
 8930SOL    HW138252   3.191   0.610   7.748 -1.1616  0.0505  1.2824
 8930SOL    HW238253   3.205   0.757   7.751  1.5461  0.4470  2.4581
 8931SOL     OW38254   2.124   2.113  10.094  0.1429 -0.0852  0.6518
 8931SOL    HW138255   2.182   2.121  10.019 -0.4089 -1.0771  0.1264
 8931SOL    HW238256   2.105   2.021  10.111  0.4428 -0.0230  1.3590
 8932SOL     OW38257   0.470   2.627   2.220 -0.0165  0.1144 -0.0828
 8932SOL    HW138258   0.449   2.648   2.311 -3.1254 -0.4040 -0.6878
 8932SOL    HW238259   0.564   2.645   2.208  0.7966 -3.5930  0.7279
 8933SOL     OW38260   1.018   3.387   8.523  0.6536  0.3626 -0.3526
 8933SOL    HW138261   1.054   3.442   8.592  0.6134  0.2162 -0.2148
 8933SOL    HW238262   0.924   3.398   8.536  0.9208  1.4658  0.7104
 8934SOL     OW38263   3.122   2.875   1.824  0.2664 -0.1384 -0.4375
 8934SOL    HW138264   3.090   2.962   1.847 -0.2124  1.1186 -5.6782
 8934SOL    HW238265   3.055   2.822   1.869 -0.7264 -1.8513 -3.8662
 8935SOL     OW38266   3.028   1.611   2.656  0.2202 -0.1506 -0.2513
 8935SOL    HW138267   2.963   1.600   2.726  1.6818 -1.7028  0.8631
 8935SOL    HW238268   2.982   1.646   2.580 -0.6190  3.5761  1.9575
 8936SOL     OW38269   2.238   0.026   7.944 -0.6797  0.2805  0.0128
 8936SOL    HW138270   2.317   0.061   7.903 -1.7675  2.5043 -0.1842
 8936SOL    HW238271   2.249   4.660   7.918  0.5476  1.0759 -2.2319
 8937SOL     OW38272   0.398   2.080   3.376  0.1212 -0.3875  0.4585
 8937SOL    HW138273   0.393   2.024   3.453 -0.1373 -0.1216  0.6370
 8937SOL    HW238274   0.477   2.130   3.398 -1.3422  1.9788  0.3203
 8938SOL     OW38275   2.559   3.815   3.098 -0.2852  0.0315  0.9254
 8938SOL    HW138276   2.649   3.846   3.102 -0.0243 -0.6940  0.5829
 8938SOL    HW238277   2.524   3.862   3.022  3.1968  2.4755  0.8476
 8939SOL     OW38278   3.815   4.423   5.604  0.4397 -0.7462  0.1926
 8939SOL    HW138279   3.819   4.373   5.522  0.1352  0.9428 -0.8519
 8939SOL    HW238280   3.721   4.416   5.619  0.7764 -2.5880  1.4429
 8940SOL     OW38281   4.480   0.674   3.493  0.3076  0.3903  0.0318
 8940SOL    HW138282   4.434   0.592   3.511 -0.6773  0.8107 -0.5656
 8940SOL    HW238283   4.572   0.653   3.482  0.6018  0.7139  1.8753
 8941SOL     OW38284   4.333   1.179  15.472 -0.1976  0.1490 -0.5085
 8941SOL    HW138285   4.315   1.272  15.488  1.0310  0.4171 -0.7363
 8941SOL    HW238286   4.282   1.141  15.544  1.7107  1.4186  1.5091
 8942SOL     OW38287   3.906   2.126   4.584  0.6135  0.3199  0.3500
 8942SOL    HW138288   3.874   2.187   4.650  1.0460  2.4906 -1.4368
 8942SOL    HW238289   3.995   2.160   4.569  0.6579  0.5891  1.2449
 8943SOL     OW38290   3.249   4.233   8.925  0.2262  0.2370  0.2774
 8943SOL    HW138291   3.235   4.194   8.839  1.2023 -1.5681  0.9274
 8943SOL    HW238292   3.158   4.258   8.937  0.0606 -1.1027  1.8001
 8944SOL     OW38293   2.753   2.675   7.899  0.6534  0.9077 -0.1600
 8944SOL    HW138294   2.693   2.748   7.886 -0.0241  0.2271 -0.8658
 8944SOL    HW238295   2.750   2.666   7.995 -1.1072 -0.6989 -0.3708
 8945SOL     OW38296   4.459   0.714   9.430  0.3129  0.6064 -0.1803
 8945SOL    HW138297   4.416   0.729   9.514 -0.9026 -1.6927 -0.3888
 8945SOL    HW238298   4.437   0.624   9.407 -1.1690  1.6454 -2.8136
 8946SOL     OW38299   2.789   3.177  13.627 -0.0871  0.6873 -0.7168
 8946SOL    HW138300   2.871   3.200  13.671  0.4136  0.8467 -1.7527
 8946SOL    HW238301   2.795   3.082  13.618  1.9573  0.9370 -1.8543
 8947SOL     OW38302   0.279   2.521   4.940 -0.1419 -0.0224  0.1020
 8947SOL    HW138303   0.339   2.579   4.894  0.8635 -1.4103 -0.3332
 8947SOL    HW238304   0.197   2.567   4.959  0.5994  0.8672  1.1049
 8948SOL     OW38305   3.335   2.011   2.768 -0.0952  0.5913 -0.0178
 8948SOL    HW138306   3.339   2.096   2.812  2.1982 -0.4317  1.7349
 8948SOL    HW238307   3.341   1.954   2.844 -1.1746  3.8483  2.5406
 8949SOL     OW38308   1.013   1.619  16.802  0.1934 -0.1645 -0.1016
 8949SOL    HW138309   1.100   1.659  16.813 -0.3015  0.6361  0.9033
 8949SOL    HW238310   1.039   1.529  16.825 -2.6277 -1.0085 -0.2677
 8950SOL     OW38311   0.960   4.561   9.652  0.8849 -0.2546  0.3983
 8950SOL    HW138312   0.889   4.608   9.695  1.2991 -2.3296  3.3507
 8950SOL    HW238313   0.997   4.628   9.595 -3.0798  0.9029 -0.8020
 8951SOL     OW38314   1.839   0.675   6.263 -0.0419  0.5497 -0.2631
 8951SOL    HW138315   1.797   0.592   6.287  0.9735  0.2971  0.6450
 8951SOL    HW238316   1.925   0.650   6.296 -1.5131 -1.4378  2.0862
 8952SOL     OW38317   1.678   2.122   4.155  0.0875 -0.2127 -0.0240
 8952SOL    HW138318   1.595   2.166   4.171  0.0348 -0.7232  1.1014
 8952SOL    HW238319   1.718   2.129   4.241  1.9486  1.1269 -0.9980
 8953SOL     OW38320   4.074   4.225   9.383 -0.1598 -0.5912 -0.0243
 8953SOL    HW138321   4.036   4.138   9.391 -2.2311  0.4998  2.1410
 8953SOL    HW238322   4.046   4.248   9.295 -1.9214 -2.7754 -0.0095
 8954SOL     OW38323   3.253   0.376   2.796 -0.1104 -0.0972  0.0957
 8954SOL    HW138324   3.242   0.348   2.887 -2.7097 -0.7033 -0.3958
 8954SOL    HW238325   3.239   0.471   2.797  1.6676  0.1716 -0.3563
 8955SOL     OW38326   0.426   3.729   5.627  0.0878  1.2188 -0.4611
 8955SOL    HW138327   0.347   3.746   5.679  0.5829 -0.4479  0.8025
 8955SOL    HW238328   0.493   3.782   5.671 -0.5405  2.4310 -0.9556
 8956SOL     OW38329   2.593   0.412   8.396 -0.4773  0.3629  0.2546
 8956SOL    HW138330   2.599   0.332   8.343 -2.7921  2.7333 -3.5762
 8956SOL    HW238331   2.586   0.481   8.330 -0.9181  0.5431  0.4944
 8957SOL     OW38332   3.017   3.323   9.580  0.1501  0.1031 -0.6836
 8957SOL    HW138333   3.070   3.273   9.642 -1.3627  0.2209  0.7143
 8957SOL    HW238334   3.034   3.411   9.614 -1.5898 -0.4447  1.6266
 8958SOL     OW38335   2.884   4.530   0.944 -0.2159  0.5485  0.0510
 8958SOL    HW138336   2.820   4.498   0.881 -0.9031 -0.1087  1.0653
 8958SOL    HW238337   2.956   4.570   0.896 -1.4393  0.4157 -1.8823
 8959SOL     OW38338   3.541   0.299  14.342  0.0395  0.2929  0.3660
 8959SOL    HW138339   3.455   0.342  14.346  1.1996  2.7007 -0.5237
 8959SOL    HW238340   3.537   0.237  14.416 -0.7730  0.7930  0.7493
 8960SOL     OW38341   2.391   2.025  17.295 -0.4438  0.6603  0.3342
 8960SOL    HW138342   2.342   2.104  17.273 -1.1573  0.1217 -0.0035
 8960SOL    HW238343   2.473   2.067  17.320  0.3753 -0.7040 -0.0407
 8961SOL     OW38344   3.747   0.014   5.322  0.0005 -0.0140  0.4353
 8961SOL    HW138345   3.670   0.053   5.364  1.0806  1.8787  0.6791
 8961SOL    HW238346   3.813   0.059   5.375  0.7169  0.1737 -0.6187
 8962SOL     OW38347   1.733   2.986   7.319  0.4048  0.2669 -0.0635
 8962SOL    HW138348   1.729   2.899   7.279  1.2937 -0.0785  0.5911
 8962SOL    HW238349   1.684   3.036   7.254  1.1234 -1.0395 -1.6056
 8963SOL     OW38350   1.666   1.355  15.675 -0.0280  0.4352 -0.2750
 8963SOL    HW138351   1.700   1.296  15.742 -0.6480  0.0073 -0.3432
 8963SOL    HW238352   1.709   1.436  15.705  0.8556 -1.1181  2.6421
 8964SOL     OW38353   0.893   3.057   8.395  0.1276  0.1419  0.2805
 8964SOL    HW138354   0.839   3.085   8.468  0.1381 -2.7906  1.4202
 8964SOL    HW238355   0.917   2.970   8.428 -1.1953 -0.6184 -0.8073
 8965SOL     OW38356   1.696   2.182   8.136  0.5648 -0.6267  0.7276
 8965SOL    HW138357   1.671   2.264   8.178  2.2265 -1.0737  2.5965
 8965SOL    HW238358   1.744   2.206   8.057  0.7290 -0.7967  0.7735
 8966SOL     OW38359   2.340   3.735   8.209 -0.0042 -0.1850  0.6850
 8966SOL    HW138360   2.424   3.771   8.237 -0.7403  1.4322  0.8209
 8966SOL    HW238361   2.356   3.694   8.124 -1.1024 -1.4274  1.0758
 8967SOL     OW38362   2.404   4.104   2.329  0.3078 -0.4176 -0.3539
 8967SOL    HW138363   2.313   4.132   2.314  0.4206  1.4669  2.4069
 8967SOL    HW238364   2.454   4.178   2.296 -0.7470 -1.2093 -3.6742
 8968SOL     OW38365   2.399   2.354  10.975  0.1749 -0.7441  0.0518
 8968SOL    HW138366   2.490   2.366  11.002  0.3313 -1.6087 -0.1176
 8968SOL    HW238367   2.416   2.311  10.892 -0.2391 -1.2817  0.2420
 8969SOL     OW38368   2.228   1.093   5.017 -0.2124  0.5193 -0.4809
 8969SOL    HW138369   2.153   1.136   5.059 -1.1289 -2.2196  0.7080
 8969SOL    HW238370   2.267   1.042   5.088  1.3034 -0.1580 -1.7958
 8970SOL     OW38371   3.939   0.332  10.751 -0.6478  0.1137 -0.0296
 8970SOL    HW138372   3.850   0.357  10.725 -1.0586 -1.8383 -0.4823
 8970SOL    HW238373   3.939   0.244  10.715 -2.7358  0.9019 -1.9444
 8971SOL     OW38374   1.122   2.898   6.193 -0.4317  0.2956 -0.3206
 8971SOL    HW138375   1.170   2.884   6.274 -2.7007  0.6128  1.0666
 8971SOL    HW238376   1.064   2.971   6.215 -1.4787 -0.1470 -1.5756
 8972SOL     OW38377   2.946   1.131   8.199 -0.1877 -0.0119 -0.0136
 8972SOL    HW138378   2.904   1.212   8.229 -0.7448 -0.0455 -0.6923
 8972SOL    HW238379   2.946   1.076   8.277 -0.2494  1.2407  0.8847
 8973SOL     OW38380   1.809   2.224   7.885 -0.3806 -0.2355 -0.0517
 8973SOL    HW138381   1.826   2.316   7.865 -0.3632 -0.6084 -1.8029
 8973SOL    HW238382   1.726   2.218   7.836  0.3982  2.4589 -1.6998
 8974SOL     OW38383   0.156   3.386  12.859  0.4796  0.7547 -0.2899
 8974SOL    HW138384   0.185   3.301  12.824 -0.6659 -0.0654  0.7426
 8974SOL    HW238385   0.217   3.448  12.819  0.6453  0.1286 -1.0199
 8975SOL     OW38386   1.869   1.768   6.570  0.2971 -0.1485 -0.7047
 8975SOL    HW138387   1.789   1.794   6.525 -0.9480  0.0695  1.6332
 8975SOL    HW238388   1.935   1.793   6.505 -1.1482 -2.2022 -2.9433
 8976SOL     OW38389   1.293   0.600  12.633 -0.3402  0.3566 -0.2238
 8976SOL    HW138390   1.331   0.537  12.572 -0.2772  2.2057 -2.0658
 8976SOL    HW238391   1.318   0.675  12.581 -0.6859  0.3939 -0.3349
 8977SOL     OW38392   4.592   0.690   3.964  0.3031  0.2940 -0.2356
 8977SOL    HW138393   4.651   0.615   3.970  1.1840  0.8565 -1.7998
 8977SOL    HW238394   4.534   0.655   3.896  1.0363  0.6957 -1.0642
 8978SOL     OW38395   0.113   3.868   6.049  0.1931 -0.1675  0.0658
 8978SOL    HW138396   0.040   3.918   6.013  0.0072 -0.3652  0.1645
 8978SOL    HW238397   0.101   3.891   6.141  1.7713  1.0632 -0.0567
 8979SOL     OW38398   2.483   2.592  14.283  0.3185 -0.4691 -0.1351
 8979SOL    HW138399   2.571   2.568  14.313  0.5001  1.7496  1.1650
 8979SOL    HW238400   2.432   2.552  14.353 -1.2282  1.2348 -0.2928
 8980SOL     OW38401   4.563   2.751   2.069 -0.2453  0.5112 -0.0219
 8980SOL    HW138402   4.628   2.822   2.062 -0.2052  0.7169  2.2920
 8980SOL    HW238403   4.483   2.803   2.062  0.2411  1.3808  0.7795
 8981SOL     OW38404   3.729   2.313   4.849  0.5541 -0.1183  0.2475
 8981SOL    HW138405   3.686   2.395   4.823  0.3508  0.4506  2.4495
 8981SOL    HW238406   3.684   2.253   4.789 -1.5817  0.2198  1.5352
 8982SOL     OW38407   3.869   3.050   7.151  0.0304 -0.0718 -0.1945
 8982SOL    HW138408   3.852   2.998   7.072 -1.5459 -0.3315  0.3181
 8982SOL    HW238409   3.958   3.023   7.171  0.9238  2.2461 -1.0824
 8983SOL     OW38410   1.140   2.044   3.093  0.2476  0.1162 -0.2748
 8983SOL    HW138411   1.083   1.969   3.109  0.2990 -0.3937 -2.4093
 8983SOL    HW238412   1.110   2.105   3.160 -0.9297 -1.0023  0.2288
 8984SOL     OW38413   4.329   2.394  11.738 -0.2605 -0.5802 -0.3576
 8984SOL    HW138414   4.283   2.441  11.668  0.7522  1.5157  0.3893
 8984SOL    HW238415   4.326   2.313  11.688  0.1994 -1.1521  0.5565
 8985SOL     OW38416   0.066   2.957   4.771 -0.0552 -0.3710  0.0304
 8985SOL    HW138417   0.058   2.884   4.832  0.0372  0.7513  1.3921
 8985SOL    HW238418   4.713   3.008   4.796  3.0527  3.8161  1.3092
 8986SOL     OW38419   2.912   4.042   9.368  0.3738  0.1624  0.2129
 8986SOL    HW138420   2.851   4.092   9.315  0.5148  0.0285 -0.0717
 8986SOL    HW238421   2.929   4.100   9.443 -0.3608  2.6720 -1.5716
 8987SOL     OW38422   4.697   3.442   5.415  0.4569 -0.3195 -0.0864
 8987SOL    HW138423   0.040   3.378   5.435  0.0133 -0.4383  1.0462
 8987SOL    HW238424   4.624   3.401   5.462 -0.1315 -1.5749 -2.1388
 8988SOL     OW38425   0.126   1.965   1.572  0.1733  0.0020 -0.0489
 8988SOL    HW138426   0.042   1.972   1.527  1.0941 -1.2039 -1.9578
 8988SOL    HW238427   0.175   2.026   1.517  2.1438 -1.8845 -0.3716
 8989SOL     OW38428   0.777   0.433   2.503 -0.0213 -0.5441  0.1787
 8989SOL    HW138429   0.705   0.495   2.496  0.6153  0.2735  0.8410
 8989SOL    HW238430   0.840   0.492   2.462 -0.1008  0.6604  1.7878
 8990SOL     OW38431   0.356   2.934   9.457  0.1696  0.0859  0.2145
 8990SOL    HW138432   0.393   3.010   9.502 -0.2468  0.1014  0.5326
 8990SOL    HW238433   0.372   2.868   9.525  0.4227  2.4475  2.4521
 8991SOL     OW38434   4.010   1.846  16.200  0.3052 -0.2627 -0.3332
 8991SOL    HW138435   4.013   1.836  16.105  0.3023 -0.6187 -0.2960
 8991SOL    HW238436   4.103   1.848  16.224  0.4271 -0.1469 -0.7985
 8992SOL     OW38437   2.070   3.813  17.675 -0.0359 -0.0768  0.2684
 8992SOL    HW138438   2.074   3.903  17.642  1.1871 -0.4610 -0.6029
 8992SOL    HW238439   2.012   3.775  17.608  2.9887 -1.9079 -1.2740
 8993SOL     OW38440   1.094   1.906  14.776  0.1149 -0.8015 -0.3245
 8993SOL    HW138441   1.175   1.864  14.746 -0.7907 -0.9757 -2.5311
 8993SOL    HW238442   1.089   1.879  14.867 -2.6562 -0.4261 -0.3701
 8994SOL     OW38443   0.167   4.470   4.711  0.4571  0.5123 -0.9571
 8994SOL    HW138444   0.242   4.449   4.655  1.8510  0.3907  0.9475
 8994SOL    HW238445   0.155   4.381   4.743 -1.8402  1.3571  0.4981
 8995SOL     OW38446   4.682   0.136  16.190  0.0718 -0.0657 -0.4989
 8995SOL    HW138447   4.638   0.202  16.243  0.4790 -1.0996  1.1269
 8995SOL    HW238448   4.645   0.162  16.106  0.8287  0.6331 -0.6193
 8996SOL     OW38449   2.405   1.445  12.988 -0.0501  0.1103 -0.2026
 8996SOL    HW138450   2.471   1.448  13.058 -0.8140 -0.1563  0.5256
 8996SOL    HW238451   2.345   1.390  13.039  0.6848  0.0401  0.5859
 8997SOL     OW38452   4.683   2.094   1.895  0.3582  0.4344 -0.1813
 8997SOL    HW138453   4.648   2.008   1.872 -0.1355  0.1853  1.4865
 8997SOL    HW238454   4.676   2.113   1.989 -1.1195  0.5943 -0.3215
 8998SOL     OW38455   1.166   3.296  11.602  0.2290 -0.0960 -0.7513
 8998SOL    HW138456   1.146   3.212  11.644  0.9888 -0.2137 -0.6200
 8998SOL    HW238457   1.238   3.266  11.547  1.1902  3.7641 -1.6263
 8999SOL     OW38458   0.587   4.276   5.265 -0.2996  0.1149  0.7981
 8999SOL    HW138459   0.527   4.349   5.249 -0.0363 -0.2957 -2.1690
 8999SOL    HW238460   0.603   4.285   5.359  1.6163  1.9494  0.3100
 9000SOL     OW38461   2.348   4.188  10.156  1.1026 -0.1679 -0.6173
 9000SOL    HW138462   2.301   4.153  10.081 -0.5008  0.5364  0.0539
 9000SOL    HW238463   2.380   4.268  10.114  0.2637  0.9521  0.8644
 9001SOL     OW38464   0.882   1.181   5.394 -0.5034 -0.3438 -0.0235
 9001SOL    HW138465   0.935   1.209   5.468 -0.4718  2.8545 -1.2360
 9001SOL    HW238466   0.945   1.163   5.324  0.2413  1.5649  0.1603
 9002SOL     OW38467   3.552   2.918  15.371 -0.2667  0.7117  0.1598
 9002SOL    HW138468   3.497   2.864  15.314 -0.4680  0.3987  0.6495
 9002SOL    HW238469   3.482   2.939  15.433 -1.5413  0.1633 -1.0771
 9003SOL     OW38470   3.967   4.132   3.974  0.1622  0.1845 -0.0223
 9003SOL    HW138471   3.998   4.097   4.058  2.3271  1.6816 -0.1971
 9003SOL    HW238472   4.002   4.066   3.915 -0.6567  0.9972 -1.4107
 9004SOL     OW38473   1.842   1.871   9.758  0.1023  0.5152  0.1370
 9004SOL    HW138474   1.841   1.810   9.685 -2.2123  1.4903 -0.6474
 9004SOL    HW238475   1.891   1.822   9.824  0.7859 -1.8442 -2.1202
 9005SOL     OW38476   2.435   1.848   6.472  0.3649  0.5639 -0.0750
 9005SOL    HW138477   2.473   1.779   6.418 -0.5040 -1.6803  2.2305
 9005SOL    HW238478   2.427   1.807   6.558 -2.6642  3.1999  0.8889
 9006SOL     OW38479   2.367   2.677   5.467  0.1896  0.1526 -0.4110
 9006SOL    HW138480   2.382   2.728   5.547 -1.1358  0.0977 -0.1259
 9006SOL    HW238481   2.456   2.657   5.439  0.5293  2.0420 -0.6853
 9007SOL     OW38482   0.908   1.653  13.245 -0.2471  0.2318 -0.4467
 9007SOL    HW138483   0.907   1.660  13.149 -2.2960 -2.2804 -0.6122
 9007SOL    HW238484   0.968   1.581  13.260 -2.1850 -0.5497  3.3843
 9008SOL     OW38485   3.180   1.534   6.414  0.2470  0.2435 -0.5250
 9008SOL    HW138486   3.094   1.558   6.378  0.1261 -0.1482 -0.5015
 9008SOL    HW238487   3.150   1.471   6.481  3.8703  1.3525  2.1461
 9009SOL     OW38488   2.740   2.753   3.678  0.0035  0.7462  0.0257
 9009SOL    HW138489   2.771   2.718   3.594 -0.5103 -2.6200  1.2254
 9009SOL    HW238490   2.730   2.678   3.737  3.0308 -0.2252 -0.6596
 9010SOL     OW38491   1.710   0.150   4.944  0.1498 -0.3277  0.2296
 9010SOL    HW138492   1.716   0.202   5.024 -0.5996  3.2526 -2.0534
 9010SOL    HW238493   1.643   0.088   4.974  0.7856 -1.2351 -0.2144
 9011SOL     OW38494   3.460   1.311   0.337 -0.3291  0.1852 -0.3377
 9011SOL    HW138495   3.483   1.402   0.320  1.4922 -0.7533 -2.8100
 9011SOL    HW238496   3.452   1.275   0.249 -0.6572  0.8070 -0.5544
 9012SOL     OW38497   0.061   1.810  13.048 -0.1649  0.0959 -0.7209
 9012SOL    HW138498   0.069   1.873  12.977  0.9707 -1.7109 -2.2056
 9012SOL    HW238499   4.694   1.816  13.076  0.4940  1.7261  1.1049
 9013SOL     OW38500   1.993   1.176   6.505  0.1654  0.4834  0.3892
 9013SOL    HW138501   2.035   1.107   6.454  0.3024  2.3549 -2.0606
 9013SOL    HW238502   1.905   1.145   6.524  0.3114 -1.5140 -2.1794
 9014SOL     OW38503   0.743   2.177  11.355 -0.3069  0.4817  0.7924
 9014SOL    HW138504   0.772   2.174  11.446  0.5146  0.6862  0.5320
 9014SOL    HW238505   0.688   2.255  11.356 -1.0098  0.0091 -0.4038
 9015SOL     OW38506   3.101   2.723  17.469  0.2855  0.1306 -0.2930
 9015SOL    HW138507   3.066   2.715  17.380  1.0362  0.4358 -0.6128
 9015SOL    HW238508   3.133   2.813  17.462 -1.7086  1.0642  2.4721
 9016SOL     OW38509   2.838   2.359  12.284 -0.5246 -0.1349 -0.0273
 9016SOL    HW138510   2.869   2.286  12.338 -3.6656  0.3892  2.4945
 9016SOL    HW238511   2.744   2.343  12.296 -0.3886 -0.8199  0.1025
 9017SOL     OW38512   1.803   4.303  14.105 -0.2770  0.0193  0.2972
 9017SOL    HW138513   1.798   4.398  14.117 -1.6762  0.0591 -0.6039
 9017SOL    HW238514   1.720   4.275  14.144 -0.2371 -0.7479 -0.1688
 9018SOL     OW38515   1.431   2.707   9.765  0.4423  0.2803  0.1186
 9018SOL    HW138516   1.510   2.742   9.723  1.3843 -0.0191  1.6520
 9018SOL    HW238517   1.453   2.727   9.856  3.7288  0.9931 -0.8026
 9019SOL     OW38518   0.626   0.500   4.519  0.5931 -0.4211 -0.1013
 9019SOL    HW138519   0.584   0.434   4.574  1.2398 -0.1882  0.6790
 9019SOL    HW238520   0.556   0.520   4.457 -0.2796 -1.2892  0.5996
 9020SOL     OW38521   4.499   4.523   2.120  0.1872 -0.1542 -0.9985
 9020SOL    HW138522   4.418   4.571   2.101  0.1309  0.8677  1.8107
 9020SOL    HW238523   4.558   4.577   2.067  0.2812 -0.2543 -0.9958
 9021SOL     OW38524   0.597   3.856   2.736 -0.3953  0.2718 -0.0885
 9021SOL    HW138525   0.691   3.845   2.721 -0.2315 -0.4789  1.4829
 9021SOL    HW238526   0.563   3.843   2.647  0.7950  0.5943 -0.5868
 9022SOL     OW38527   0.430   1.050   0.844 -0.5917  0.2378 -0.0035
 9022SOL    HW138528   0.496   1.107   0.804  0.8143 -3.8746 -3.5782
 9022SOL    HW238529   0.481   1.006   0.912 -1.5594 -1.7972 -0.5827
 9023SOL     OW38530   0.144   0.094  17.108 -0.1019 -0.4413  0.4077
 9023SOL    HW138531   0.171   0.003  17.096 -0.6713 -0.3829 -1.2937
 9023SOL    HW238532   0.184   0.131  17.187  0.0737 -1.2475  0.7037
 9024SOL     OW38533   2.073   0.098   9.511  0.2809 -0.4002 -0.1979
 9024SOL    HW138534   1.981   0.093   9.536  0.2494 -1.4819 -0.5426
 9024SOL    HW238535   2.087   0.003   9.511  1.9541 -0.1639 -3.0248
 9025SOL     OW38536   0.363   3.577   8.204  0.3406  0.6342  0.4008
 9025SOL    HW138537   0.430   3.521   8.244  1.5021  1.7415 -0.0197
 9025SOL    HW238538   0.406   3.661   8.221  1.2184 -0.2614  2.6137
 9026SOL     OW38539   4.654   2.068   5.758  0.3214 -0.4221 -0.1949
 9026SOL    HW138540   4.659   2.024   5.843  1.7807 -0.3775 -0.2615
 9026SOL    HW238541   4.617   2.152   5.786 -0.0620 -0.5486 -0.3235
 9027SOL     OW38542   0.839   0.407   7.969  0.4872 -0.0222 -0.5518
 9027SOL    HW138543   0.800   0.488   7.936  1.4934 -0.2730 -2.3517
 9027SOL    HW238544   0.809   0.341   7.907  0.2893 -0.5483  0.0974
 9028SOL     OW38545   2.228   2.972   4.825 -0.2642  0.3014 -0.4166
 9028SOL    HW138546   2.149   2.924   4.799 -0.2249  0.9194 -1.6857
 9028SOL    HW238547   2.284   2.897   4.845 -1.2435 -0.5747 -0.9468
 9029SOL     OW38548   0.178   3.986   2.370 -0.3041 -0.1772  0.0113
 9029SOL    HW138549   0.112   4.007   2.305  0.0291  1.1956  0.1116
 9029SOL    HW238550   0.258   4.020   2.330 -1.1659  1.0535 -0.6835
 9030SOL     OW38551   3.799   2.966   3.467  0.1270  0.5960  0.3346
 9030SOL    HW138552   3.859   2.891   3.461 -0.3866  0.2536 -0.4778
 9030SOL    HW238553   3.835   3.027   3.403 -1.8190  1.3906  0.0042
 9031SOL     OW38554   0.214   2.867   5.530 -0.1882  0.2086  0.1382
 9031SOL    HW138555   0.180   2.906   5.610 -3.1580 -2.3375  0.0979
 9031SOL    HW238556   0.183   2.778   5.544 -0.6055  0.0161 -2.0364
 9032SOL     OW38557   3.339   4.543   8.297  0.5726  0.8699  0.1341
 9032SOL    HW138558   3.345   4.566   8.204  0.8964  1.9142  0.4112
 9032SOL    HW238559   3.290   4.461   8.300  1.2459  0.4381 -0.6203
 9033SOL     OW38560   1.977   2.845  14.239 -0.6556  0.1230  0.2429
 9033SOL    HW138561   1.977   2.921  14.297 -0.3625  1.0713 -0.9904
 9033SOL    HW238562   1.993   2.880  14.151 -1.3669 -0.1839 -0.0085
 9034SOL     OW38563   3.398   2.988  15.549 -0.3215  0.0585  0.4126
 9034SOL    HW138564   3.326   3.030  15.502 -1.6325 -1.8215  0.7433
 9034SOL    HW238565   3.409   3.043  15.627  0.2945 -0.9925  1.0830
 9035SOL     OW38566   2.824   2.951   9.337 -0.3284  0.1702  0.0280
 9035SOL    HW138567   2.796   3.036   9.372  0.8588  1.0670 -1.2474
 9035SOL    HW238568   2.895   2.935   9.400 -1.1451  1.2479  1.2259
 9036SOL     OW38569   0.219   3.835  12.852 -0.0372 -0.0019 -0.4374
 9036SOL    HW138570   0.231   3.919  12.896 -0.7358 -1.2071  2.0709
 9036SOL    HW238571   0.197   3.866  12.764 -1.3051  0.3416  0.0060
 9037SOL     OW38572   0.910   2.681   7.014  1.2015  0.1744  0.2812
 9037SOL    HW138573   0.916   2.754   6.952  1.2259  0.6944  0.8989
 9037SOL    HW238574   0.816   2.675   7.032  1.0653 -0.8457 -0.7853
 9038SOL     OW38575   0.120   3.414   0.821 -0.2553  0.7647  0.7917
 9038SOL    HW138576   0.034   3.455   0.810  0.1843  1.1496 -1.0651
 9038SOL    HW238577   0.089   3.364   0.897  3.3120 -1.1248  0.9938
 9039SOL     OW38578   3.165   3.510  14.186  0.5140 -0.1798  0.2256
 9039SOL    HW138579   3.091   3.565  14.161  0.6437 -0.0573  0.1150
 9039SOL    HW238580   3.132   3.481  14.271  0.5103  3.8515  1.5873
 9040SOL     OW38581   2.082   1.874   6.351 -0.7705  0.1354  0.6748
 9040SOL    HW138582   2.127   1.951   6.384  0.3567  0.0560 -0.6504
 9040SOL    HW238583   2.142   1.802   6.370 -0.9441  0.3258  1.9469
 9041SOL     OW38584   4.714   1.196   7.613  0.1964  0.0434 -0.6391
 9041SOL    HW138585   4.642   1.210   7.551 -0.5202  0.4075  0.2662
 9041SOL    HW238586   4.698   1.269   7.674 -0.1025  2.0235 -3.0596
 9042SOL     OW38587   0.043   0.837   6.798  0.0079  0.2149 -0.4845
 9042SOL    HW138588   4.712   0.763   6.772  0.7701  0.2609 -2.2698
 9042SOL    HW238589   0.047   0.832   6.893 -0.0359 -1.0308 -0.5487
 9043SOL     OW38590   1.694   0.699   0.659  0.4938 -0.5840 -0.5880
 9043SOL    HW138591   1.694   0.616   0.612 -0.1671 -1.3973  0.8175
 9043SOL    HW238592   1.770   0.747   0.627 -0.3210 -0.1713 -1.9142
 9044SOL     OW38593   3.573   0.823   1.214  0.3593  0.8699 -0.1326
 9044SOL    HW138594   3.531   0.737   1.216  1.5754  0.2777  0.2102
 9044SOL    HW238595   3.506   0.884   1.181  0.0669  0.9079  0.5303
 9045SOL     OW38596   3.341   1.988   4.745 -0.4121 -0.0512  0.2471
 9045SOL    HW138597   3.341   1.898   4.711  3.0642  0.4016 -0.9650
 9045SOL    HW238598   3.262   2.021   4.702  0.0935  2.9653  1.6621
 9046SOL     OW38599   4.614   4.514   0.872 -0.5662 -0.1975 -0.7453
 9046SOL    HW138600   4.656   4.516   0.786 -0.5648  1.4524 -0.7109
 9046SOL    HW238601   4.523   4.515   0.843 -0.9257  0.7329  0.3941
 9047SOL     OW38602   1.994   4.412   3.445 -0.0895  0.0302 -0.1890
 9047SOL    HW138603   2.067   4.422   3.383 -0.3292 -1.4808 -0.7218
 9047SOL    HW238604   2.040   4.372   3.519 -1.6299 -1.9491 -0.2848
 9048SOL     OW38605   4.196   0.194  11.631 -0.2102 -0.1036  0.5465
 9048SOL    HW138606   4.171   0.113  11.586  0.8590  0.7608 -1.6083
 9048SOL    HW238607   4.280   0.170  11.670  1.0127  1.2993 -1.2495
 9049SOL     OW38608   2.988   0.045   7.148  0.6908 -0.1072  0.0322
 9049SOL    HW138609   3.060   0.023   7.207  0.7769 -2.4907 -0.9526
 9049SOL    HW238610   2.951   0.123   7.189  2.9190  1.8592 -1.7239
 9050SOL     OW38611   3.049   2.482   9.747 -0.2089  0.3150  0.0308
 9050SOL    HW138612   3.126   2.433   9.776  0.9019  1.3175 -1.2255
 9050SOL    HW238613   2.992   2.407   9.727  1.2463 -0.5814 -0.8019
 9051SOL     OW38614   2.047   4.626   5.071  0.1232 -0.0554  0.0335
 9051SOL    HW138615   2.041   4.644   4.977  0.1554 -0.1754  0.0081
 9051SOL    HW238616   1.991   4.549   5.057 -1.4523  0.9164  1.0163
 9052SOL     OW38617   2.051   0.854   7.422  0.1024 -0.2696  0.1813
 9052SOL    HW138618   2.099   0.839   7.341  1.1975  2.0357  0.3961
 9052SOL    HW238619   1.978   0.903   7.382  1.0862  1.1375  0.1252
 9053SOL     OW38620   1.895   1.169   5.611  0.1818  0.1393  0.1456
 9053SOL    HW138621   1.856   1.122   5.685  0.1578 -0.8699 -0.5165
 9053SOL    HW238622   1.928   1.099   5.555  0.6146  0.0700  0.4897
 9054SOL     OW38623   1.620   3.395   4.544 -0.0482  0.5753 -0.8096
 9054SOL    HW138624   1.617   3.419   4.637  1.3454 -2.1972 -0.0432
 9054SOL    HW238625   1.593   3.304   4.541 -1.1972  0.9275 -1.0386
 9055SOL     OW38626   3.276   0.004   4.267 -0.4456 -0.6179 -0.1101
 9055SOL    HW138627   3.247   4.706   4.355 -0.3134  1.9670  0.6157
 9055SOL    HW238628   3.330   4.650   4.258  1.0111  0.5368 -1.4346
 9056SOL     OW38629   0.024   1.094   6.680  0.1224 -0.5124 -0.2250
 9056SOL    HW138630   0.111   1.084   6.642  0.2764 -1.3823  0.3477
 9056SOL    HW238631   0.020   1.009   6.724 -2.6002  0.1074  0.7027
 9057SOL     OW38632   2.717   0.308   7.886 -0.4998 -0.4660 -0.0290
 9057SOL    HW138633   2.631   0.348   7.869 -1.3317 -1.7628  1.1104
 9057SOL    HW238634   2.754   0.291   7.800  0.7171  1.2581  0.1520
 9058SOL     OW38635   4.326   3.033   2.229  0.7030 -0.0793 -0.3530
 9058SOL    HW138636   4.286   3.119   2.224  0.9229 -0.0718 -1.8848
 9058SOL    HW238637   4.330   3.017   2.135  0.7136  3.0509 -0.8758
 9059SOL     OW38638   1.710   0.781   8.842  0.5664 -0.0881 -0.1722
 9059SOL    HW138639   1.797   0.812   8.868  0.3165  0.3271  0.1628
 9059SOL    HW238640   1.662   0.861   8.822 -1.0920 -1.3508 -1.2224
 9060SOL     OW38641   4.003   3.262   2.819 -0.1221  0.0618 -0.1303
 9060SOL    HW138642   3.985   3.169   2.807 -1.0144  0.0413  1.3032
 9060SOL    HW238643   3.974   3.293   2.734 -0.4282 -1.6214 -0.6262
 9061SOL     OW38644   4.411   0.537   8.188 -0.0644  0.2560  0.2010
 9061SOL    HW138645   4.497   0.561   8.221 -0.0846  0.4586  0.1105
 9061SOL    HW238646   4.354   0.593   8.240 -0.3770 -1.1584  1.3804
 9062SOL     OW38647   1.198   4.570   3.601 -0.3942  0.4165 -0.2574
 9062SOL    HW138648   1.109   4.536   3.594 -0.0652 -0.0610 -2.3223
 9062SOL    HW238649   1.188   4.639   3.535 -0.4524  0.2569 -0.4168
 9063SOL     OW38650   1.896   4.178  16.546  0.0439 -0.2881 -0.1600
 9063SOL    HW138651   1.861   4.252  16.595  1.0648 -0.4918  0.8748
 9063SOL    HW238652   1.816   4.137  16.514  0.3068  0.9287 -2.3823
 9064SOL     OW38653   1.845   3.556   2.462  0.4239  0.6104  0.4666
 9064SOL    HW138654   1.913   3.619   2.487  1.4704 -0.5452  0.5293
 9064SOL    HW238655   1.898   3.486   2.426  0.9594  2.1450 -1.6955
 9065SOL     OW38656   0.501   1.242  14.924 -0.0731  0.1596  0.4149
 9065SOL    HW138657   0.455   1.324  14.940  1.2435  1.2837 -1.5057
 9065SOL    HW238658   0.542   1.228  15.009 -1.8152  1.7638  1.5181
 9066SOL     OW38659   1.759   2.626   8.322 -0.1617 -0.3602  0.3491
 9066SOL    HW138660   1.727   2.713   8.346 -0.3008  0.5437 -3.1028
 9066SOL    HW238661   1.846   2.643   8.357  0.5143 -1.5984 -0.7367
 9067SOL     OW38662   4.408   2.615  12.672 -0.2365 -0.0365  0.0073
 9067SOL    HW138663   4.400   2.574  12.585 -1.6791 -1.1097  0.6437
 9067SOL    HW238664   4.492   2.659  12.664 -0.3868  0.3294  0.4166
 9068SOL     OW38665   4.619   3.242   8.821  0.0559 -0.3772 -0.2771
 9068SOL    HW138666   4.708   3.266   8.795  0.0190 -0.2307 -0.2687
 9068SOL    HW238667   4.596   3.200   8.738 -1.4018 -0.7600  0.3167
 9069SOL     OW38668   1.359   0.949   4.193 -0.2861  0.0949  0.9405
 9069SOL    HW138669   1.361   0.862   4.153 -0.0202  0.3385  0.4377
 9069SOL    HW238670   1.314   0.997   4.124 -3.2656 -1.5575  1.7079
 9070SOL     OW38671   3.416   0.541   7.311  0.8636  0.5417  0.2678
 9070SOL    HW138672   3.498   0.512   7.271  1.3931 -1.9292  3.2148
 9070SOL    HW238673   3.444   0.556   7.401 -0.9643  4.0190  0.2841
 9071SOL     OW38674   3.323   2.529   6.338 -0.1399 -0.1201  0.0637
 9071SOL    HW138675   3.408   2.514   6.298 -0.8991 -0.0199 -1.5850
 9071SOL    HW238676   3.327   2.623   6.355  2.2971 -0.4878  1.3810
 9072SOL     OW38677   3.300   0.652   3.211  0.2434 -0.0664 -0.3992
 9072SOL    HW138678   3.287   0.746   3.224 -0.2249 -0.2982  0.8437
 9072SOL    HW238679   3.358   0.653   3.135 -0.3434 -0.3299 -0.8504
 9073SOL     OW38680   3.180   4.671   4.499 -0.0818 -0.6471  0.3902
 9073SOL    HW138681   3.143   0.030   4.525 -0.3507 -0.7032  0.1862
 9073SOL    HW238682   3.241   4.649   4.570  1.1430 -1.8393 -1.0401
 9074SOL     OW38683   4.147   0.697  16.006  0.2402 -0.5096 -0.1763
 9074SOL    HW138684   4.121   0.750  16.081  1.1381 -1.9733  1.1606
 9074SOL    HW238685   4.122   0.606  16.021  0.2084 -0.8964 -2.5080
 9075SOL     OW38686   1.819   3.245  10.746  0.1660  0.0755 -0.2794
 9075SOL    HW138687   1.822   3.173  10.809  1.3365 -0.6561 -1.1721
 9075SOL    HW238688   1.837   3.311  10.813 -1.0818  0.1443 -0.0090
 9076SOL     OW38689   1.994   2.248   3.540  0.8930  0.2601  0.3349
 9076SOL    HW138690   2.055   2.232   3.467 -0.2435  0.3759 -0.6377
 9076SOL    HW238691   1.912   2.216   3.502  0.9163  0.7254 -0.1149
 9077SOL     OW38692   4.215   3.945   9.129  0.1417 -0.6910  0.1382
 9077SOL    HW138693   4.283   4.002   9.165  1.5111 -0.5929 -2.6228
 9077SOL    HW238694   4.261   3.879   9.078  2.2303 -0.0441  1.1980
 9078SOL     OW38695   2.512   0.121   8.461 -0.2284  0.0825 -0.7671
 9078SOL    HW138696   2.478   0.032   8.462  0.3587 -0.1348  0.8351
 9078SOL    HW238697   2.499   0.148   8.370  3.7648 -2.6066 -2.1251
 9079SOL     OW38698   0.065   2.100   6.520 -0.0296 -0.1446 -0.3420
 9079SOL    HW138699   0.087   2.099   6.613 -0.0025 -0.8600 -0.3553
 9079SOL    HW238700   0.151   2.119   6.481 -0.1762  1.7005  0.2342
 9080SOL     OW38701   2.457   2.142  14.151 -0.0803 -0.2155 -0.2484
 9080SOL    HW138702   2.507   2.188  14.218  1.8393 -3.3839  0.4725
 9080SOL    HW238703   2.374   2.126  14.196  0.1506 -1.8076 -0.3777
 9081SOL     OW38704   4.233   3.985  14.924 -0.2021 -0.5859  0.5184
 9081SOL    HW138705   4.237   3.894  14.897 -3.6193 -0.4069 -0.6152
 9081SOL    HW238706   4.139   3.991  14.906 -0.0849  1.2446  0.4935
 9082SOL     OW38707   4.323   1.396   5.508  1.0447  0.0938  0.5084
 9082SOL    HW138708   4.280   1.481   5.501 -0.6114 -0.5736  2.2902
 9082SOL    HW238709   4.413   1.414   5.535  0.8548  1.2542  0.3517
 9083SOL     OW38710   0.204   2.737   3.496 -0.5191 -0.2726 -0.0533
 9083SOL    HW138711   0.199   2.689   3.579 -0.9149 -3.1876 -1.7904
 9083SOL    HW238712   0.208   2.665   3.433  1.1812  0.3741 -0.6792
 9084SOL     OW38713   2.477   2.961  10.138  0.3454  0.2718 -0.0628
 9084SOL    HW138714   2.515   2.911  10.210  1.8738 -2.2306 -2.6394
 9084SOL    HW238715   2.543   3.030  10.129 -0.3898  0.9593 -0.2231
 9085SOL     OW38716   2.813   2.824   5.306 -0.6181 -0.6994  0.5845
 9085SOL    HW138717   2.901   2.785   5.302  0.4279  1.6314  0.7338
 9085SOL    HW238718   2.830   2.881   5.381  0.0953 -0.9784  0.6459
 9086SOL     OW38719   2.987   4.169   7.090 -0.4983 -0.1602  0.4884
 9086SOL    HW138720   3.044   4.161   7.013  0.3493  0.3691  1.0753
 9086SOL    HW238721   2.935   4.246   7.068  3.9941  2.9792  1.1368
 9087SOL     OW38722   0.337   0.546  12.886  0.3174  0.3267  0.1317
 9087SOL    HW138723   0.299   0.538  12.798 -2.1301 -0.5794  1.2773
 9087SOL    HW238724   0.352   0.640  12.887 -0.9851  0.5040  3.7379
 9088SOL     OW38725   4.014   3.144  15.787 -0.4071 -0.2143  0.2943
 9088SOL    HW138726   4.057   3.059  15.796  0.2177  0.0773  0.0555
 9088SOL    HW238727   4.070   3.191  15.725  0.3374 -0.4663  0.7661
 9089SOL     OW38728   4.185   1.754  16.985  0.1435 -0.1834  0.1174
 9089SOL    HW138729   4.231   1.681  17.025 -0.7486 -0.4639  0.6193
 9089SOL    HW238730   4.118   1.775  17.050 -0.3464 -0.7303 -0.2169
 9090SOL     OW38731   0.839   1.500   2.371 -0.5528  0.2361  0.6843
 9090SOL    HW138732   0.763   1.546   2.407 -0.2930  1.3653 -0.1876
 9090SOL    HW238733   0.900   1.574   2.361  1.0953 -0.9807  1.8735
 9091SOL     OW38734   2.414   1.950   7.284 -0.2443  0.7440 -0.4836
 9091SOL    HW138735   2.374   2.011   7.346  0.8055  1.8513 -0.8827
 9091SOL    HW238736   2.497   1.996   7.272 -0.9226  2.1740  0.3255
 9092SOL     OW38737   4.709   4.537   2.435 -0.4564  0.1206  0.6662
 9092SOL    HW138738   4.700   4.595   2.511 -2.1094  2.5017 -1.3585
 9092SOL    HW238739   4.616   4.514   2.435 -0.1495 -1.0659 -4.1083
 9093SOL     OW38740   1.898   2.009   5.217 -0.0689  0.3891  0.2401
 9093SOL    HW138741   1.831   2.007   5.286 -1.6300  1.8125 -1.2320
 9093SOL    HW238742   1.950   2.085   5.241 -2.1816  1.5213  1.2549
 9094SOL     OW38743   0.698   3.536   9.174  0.1535 -0.1737 -0.5837
 9094SOL    HW138744   0.677   3.522   9.267 -0.5189  0.5611 -0.6341
 9094SOL    HW238745   0.612   3.554   9.136 -1.1347  0.4248  2.6298
 9095SOL     OW38746   4.504   2.226   2.403  0.3332  0.4771  0.3301
 9095SOL    HW138747   4.475   2.308   2.444  0.2763 -0.4726  2.1692
 9095SOL    HW238748   4.581   2.198   2.452 -0.3621 -1.5119  0.3055
 9096SOL     OW38749   1.126   2.323   7.833  0.0679  0.2201 -0.5314
 9096SOL    HW138750   1.032   2.343   7.832 -0.0866 -0.4648  0.3473
 9096SOL    HW238751   1.124   2.264   7.908  1.9262  0.0740 -0.5917
 9097SOL     OW38752   3.768   4.089   6.522 -0.1437  0.5560  0.3667
 9097SOL    HW138753   3.681   4.071   6.558 -0.1964  3.0807  1.4471
 9097SOL    HW238754   3.775   4.183   6.539  1.9417  0.3130  0.8339
 9098SOL     OW38755   1.207   4.561  12.581  0.3214 -0.5118 -0.0955
 9098SOL    HW138756   1.230   4.595  12.667 -1.3006 -2.1343  0.9797
 9098SOL    HW238757   1.174   4.644  12.547  0.7879 -0.2178  0.1749
 9099SOL     OW38758   3.977   0.450   7.039 -0.7228  0.0384 -0.1961
 9099SOL    HW138759   4.073   0.446   7.029 -0.7347 -0.6051 -0.0432
 9099SOL    HW238760   3.963   0.461   7.133  0.0766  3.3112 -0.4419
 9100SOL     OW38761   0.981   0.404  12.576 -0.0814 -0.1315  0.0985
 9100SOL    HW138762   0.929   0.398  12.656  2.0544  0.6118  1.5374
 9100SOL    HW238763   0.995   0.497  12.560 -1.6252  0.4691  2.2727
 9101SOL     OW38764   3.783   0.229  13.451  0.0507  0.7228  0.3616
 9101SOL    HW138765   3.734   0.210  13.371  1.1445 -2.2516  0.4066
 9101SOL    HW238766   3.838   0.151  13.445 -1.0590 -0.1638  1.7264
 9102SOL     OW38767   3.463   3.241   5.539  0.1424 -0.4901  1.0434
 9102SOL    HW138768   3.374   3.273   5.522  0.8824  0.3100 -1.2662
 9102SOL    HW238769   3.466   3.169   5.476 -0.6835 -0.4470  0.9476
 9103SOL     OW38770   1.387   0.524   0.817 -0.4522 -0.4721  0.7383
 9103SOL    HW138771   1.372   0.458   0.749  0.1838  0.9651 -0.8138
 9103SOL    HW238772   1.299   0.552   0.840  0.5049  1.5791  1.8938
 9104SOL     OW38773   4.153   1.289  10.310  0.4567  0.1848 -0.5703
 9104SOL    HW138774   4.237   1.324  10.281  0.7789 -0.0159  0.1182
 9104SOL    HW238775   4.150   1.205  10.266 -0.6992 -0.1086  0.0499
 9105SOL     OW38776   2.260   4.270   5.362  0.3673 -0.0329 -0.0073
 9105SOL    HW138777   2.335   4.211   5.353  1.6167  1.4293  0.8087
 9105SOL    HW238778   2.224   4.231   5.442  0.2095 -0.2775 -0.1951
 9106SOL     OW38779   2.164   3.934   5.228 -0.1978  0.0802  0.1472
 9106SOL    HW138780   2.127   3.982   5.302 -1.9838 -1.0553 -0.0129
 9106SOL    HW238781   2.256   3.945   5.251 -0.8910  0.9125  2.5806
 9107SOL     OW38782   2.473   3.523  11.847  0.5403 -0.0956 -0.3475
 9107SOL    HW138783   2.499   3.467  11.921 -2.1132 -0.8170  0.0478
 9107SOL    HW238784   2.416   3.579  11.899  0.9566  1.0054 -1.0901
 9108SOL     OW38785   3.538   1.219   6.240  0.0026 -0.0346  0.0401
 9108SOL    HW138786   3.503   1.146   6.189 -0.2785 -0.1145  0.3429
 9108SOL    HW238787   3.628   1.188   6.244  0.0984  0.5410  2.6348
 9109SOL     OW38788   1.122   2.454   6.857  0.7792  0.5778  0.2243
 9109SOL    HW138789   1.097   2.433   6.947 -0.5490  0.8165 -0.0860
 9109SOL    HW238790   1.036   2.455   6.816 -0.3314 -0.6770  2.5715
 9110SOL     OW38791   3.283   3.729  12.346 -0.1335  0.1158  0.0890
 9110SOL    HW138792   3.289   3.765  12.434 -2.6261  0.3095  0.1627
 9110SOL    HW238793   3.252   3.639  12.354  0.5275 -0.3471 -2.3531
 9111SOL     OW38794   4.405   3.711   6.432 -0.3199  0.1079  0.2258
 9111SOL    HW138795   4.386   3.797   6.470  0.8357  1.1136 -1.4700
 9111SOL    HW238796   4.327   3.683   6.383  0.3282 -1.2008 -0.0496
 9112SOL     OW38797   1.403   1.992   5.344 -0.2230 -0.1834 -0.5379
 9112SOL    HW138798   1.359   1.916   5.307  1.3645 -0.7254 -1.2885
 9112SOL    HW238799   1.455   1.963   5.419 -0.6311 -0.1017 -0.2235
 9113SOL     OW38800   1.081   1.033   9.115  0.1101 -0.2963  0.4512
 9113SOL    HW138801   1.070   1.111   9.061  0.7407 -0.6169 -0.1401
 9113SOL    HW238802   1.136   0.975   9.062 -1.9559 -0.5902 -1.3554
 9114SOL     OW38803   0.764   3.132   5.254  0.3075 -0.5532  0.3381
 9114SOL    HW138804   0.798   3.206   5.304 -0.1128  0.1863 -0.4678
 9114SOL    HW238805   0.683   3.172   5.222  1.5979 -0.1397 -2.3825
 9115SOL     OW38806   0.039   0.853   3.363  1.0366  0.1635  0.3644
 9115SOL    HW138807   0.107   0.865   3.297 -0.1053 -0.6374 -0.9637
 9115SOL    HW238808   4.715   0.933   3.344 -2.2857 -2.0564 -0.4197
 9116SOL     OW38809   1.553   2.302   9.744 -0.1529 -0.2832 -0.4070
 9116SOL    HW138810   1.645   2.297   9.769 -0.2370 -4.6308 -1.0114
 9116SOL    HW238811   1.562   2.338   9.656 -0.8859  2.5825  0.6746
 9117SOL     OW38812   2.226   4.477   5.743  0.0524  0.0608  0.5162
 9117SOL    HW138813   2.267   4.498   5.827  1.0238 -0.5976  0.2031
 9117SOL    HW238814   2.310   4.483   5.698  1.1952 -0.0573  2.6121
 9118SOL     OW38815   1.178   1.614   4.191 -0.0061 -0.2878  0.3749
 9118SOL    HW138816   1.200   1.628   4.099  0.1072 -1.5398  0.2144
 9118SOL    HW238817   1.175   1.703   4.228 -1.2234  0.9481 -2.7182
 9119SOL     OW38818   0.234   4.189   9.697 -0.1885 -0.0680 -0.1319
 9119SOL    HW138819   0.220   4.251   9.626  0.2117  1.1010  0.7873
 9119SOL    HW238820   0.298   4.135   9.652  1.1042 -0.4764  2.1823
 9120SOL     OW38821   4.666   0.624   4.454  0.4698  0.1219 -0.8263
 9120SOL    HW138822   4.694   0.716   4.447  0.4677  0.3997  2.5775
 9120SOL    HW238823   4.571   0.637   4.464  0.6989  2.4062 -1.6808
 9121SOL     OW38824   2.448   2.966   2.921 -0.1860  0.3057 -0.3490
 9121SOL    HW138825   2.460   2.880   2.960  0.5269  1.1498  1.3052
 9121SOL    HW238826   2.519   3.018   2.960 -0.5416  1.8498 -1.7551
 9122SOL     OW38827   4.364   1.904   3.744 -0.3391 -0.3680 -0.5936
 9122SOL    HW138828   4.417   1.970   3.699 -2.1319 -0.5469 -2.9747
 9122SOL    HW238829   4.274   1.932   3.728 -1.1297 -1.6954  1.5177
 9123SOL     OW38830   1.004   1.997   7.028  0.4282  0.6319 -0.1148
 9123SOL    HW138831   1.080   2.044   7.061 -0.8387  0.1550  3.4726
 9123SOL    HW238832   0.936   2.019   7.092  0.3341 -0.2623  0.0931
 9124SOL     OW38833   2.816   2.155   0.358  0.7858  0.3448 -0.0677
 9124SOL    HW138834   2.758   2.089   0.394 -3.1203  1.4586 -4.3000
 9124SOL    HW238835   2.757   2.228   0.339 -0.0246 -1.1193 -3.2144
 9125SOL     OW38836   1.149   3.972   6.311  0.2353 -0.0597  0.4544
 9125SOL    HW138837   1.222   3.937   6.260  2.4456  0.8173  3.0465
 9125SOL    HW238838   1.179   4.057   6.341  2.1560 -0.1939 -1.0697
 9126SOL     OW38839   2.214   2.954  17.339  0.1964  0.1257  0.5569
 9126SOL    HW138840   2.305   2.953  17.366  0.1808  1.6917  0.6982
 9126SOL    HW238841   2.174   2.873  17.370 -1.2594  0.9196  0.7660
 9127SOL     OW38842   4.452   1.693  11.638  0.1944 -0.5305  0.5728
 9127SOL    HW138843   4.375   1.637  11.625 -0.9279  1.3206 -0.6083
 9127SOL    HW238844   4.498   1.680  11.555 -1.8196  0.4383 -0.6838
 9128SOL     OW38845   1.220   2.579  11.566 -0.7864  0.0483  0.1982
 9128SOL    HW138846   1.262   2.553  11.483 -1.0405 -1.8351  0.6439
 9128SOL    HW238847   1.127   2.565  11.548 -0.6255 -2.5609  1.3275
 9129SOL     OW38848   2.166   0.042   5.853  0.0431 -0.1217  0.1190
 9129SOL    HW138849   2.136   4.676   5.854  0.6810 -0.3557 -1.5214
 9129SOL    HW238850   2.259   0.033   5.872  0.7663  1.7578 -2.5149
 9130SOL     OW38851   4.169   1.033  15.652 -0.3219  0.3077  0.0030
 9130SOL    HW138852   4.096   1.086  15.684  0.0843  0.5332  0.5644
 9130SOL    HW238853   4.197   0.983  15.729  1.0109  3.9689  1.8975
 9131SOL     OW38854   2.197   1.999   4.181 -0.4252  0.2571  0.0066
 9131SOL    HW138855   2.187   1.907   4.160  1.5342  0.0566 -0.0341
 9131SOL    HW238856   2.192   2.034   4.092  0.1861  1.2711  0.3640
 9132SOL     OW38857   2.075   4.715   0.922 -1.0243 -0.2167 -0.4033
 9132SOL    HW138858   2.004   4.711   0.858  0.9299 -2.4802 -2.4098
 9132SOL    HW238859   2.051   0.071   0.969 -0.8073  2.0452 -4.1784
 9133SOL     OW38860   0.116   0.827   3.740  0.1928 -0.1045 -0.4467
 9133SOL    HW138861   0.090   0.736   3.754 -1.4472  1.2538  5.2707
 9133SOL    HW238862   0.038   0.857   3.693  0.8348  1.0868 -0.7525
 9134SOL     OW38863   3.174   1.418  15.272 -0.0422 -0.2190  0.0447
 9134SOL    HW138864   3.096   1.380  15.311 -2.8107  3.6643 -1.6849
 9134SOL    HW238865   3.180   1.365  15.193  0.4852  2.0526 -1.4445
 9135SOL     OW38866   0.735   4.017   9.527 -0.0674 -0.7319  0.6278
 9135SOL    HW138867   0.822   4.040   9.561  0.7028 -2.0443 -0.4566
 9135SOL    HW238868   0.747   4.053   9.439  1.0172 -1.9744  0.2577
 9136SOL     OW38869   3.599   2.655   8.396  0.5509 -0.6424 -0.1697
 9136SOL    HW138870   3.592   2.595   8.321 -1.7829 -0.4036 -0.1614
 9136SOL    HW238871   3.694   2.664   8.391  0.9501 -2.7115  4.2284
 9137SOL     OW38872   3.520   0.973   2.492 -0.0465  0.1417 -0.3670
 9137SOL    HW138873   3.592   0.967   2.429  0.3968 -0.7234  0.2157
 9137SOL    HW238874   3.561   1.005   2.573 -1.0217  1.3396 -0.3459
 9138SOL     OW38875   3.141   2.486  14.874 -0.3296 -0.2385  0.0448
 9138SOL    HW138876   3.121   2.529  14.791  2.0840 -0.1703 -0.5040
 9138SOL    HW238877   3.219   2.436  14.848  0.3616 -0.0321  1.6740
 9139SOL     OW38878   2.143   1.634   7.806 -0.6003  0.0860  0.1502
 9139SOL    HW138879   2.100   1.579   7.742  0.4644  0.2396 -0.7016
 9139SOL    HW238880   2.139   1.724   7.774 -1.5896 -0.0695 -0.1464
 9140SOL     OW38881   2.421   0.130  17.403 -0.2910  0.1842 -0.0683
 9140SOL    HW138882   2.330   0.157  17.387  0.2192  0.6836 -2.1152
 9140SOL    HW238883   2.404   0.063  17.469 -2.3865  0.7133 -0.0590
 9141SOL     OW38884   0.267   4.385   9.458  0.2341 -0.2356 -0.0408
 9141SOL    HW138885   0.255   4.478   9.478 -2.4673 -0.7765  0.8594
 9141SOL    HW238886   0.335   4.386   9.390 -0.1124  0.9787 -0.3694
 9142SOL     OW38887   0.068   4.640  15.686 -0.3552  0.0599  0.5098
 9142SOL    HW138888   0.006   4.619  15.756 -0.3843 -0.5633  0.2933
 9142SOL    HW238889   0.135   4.661  15.751  0.8569  0.2901 -0.8215
 9143SOL     OW38890   4.491   1.316  11.887  0.2894  0.2559 -0.0387
 9143SOL    HW138891   4.539   1.397  11.905  0.4008  0.2611 -0.3493
 9143SOL    HW238892   4.452   1.335  11.802  0.7467  0.6307 -0.1679
 9144SOL     OW38893   2.282   0.966   4.449  0.0507  0.4854  0.1362
 9144SOL    HW138894   2.329   1.008   4.521 -1.3747 -0.1064  1.4065
 9144SOL    HW238895   2.341   0.897   4.418  1.3749  1.6255  0.1234
 9145SOL     OW38896   0.952   1.266  11.600 -0.3323 -0.1493 -0.5322
 9145SOL    HW138897   0.971   1.269  11.506  0.1747  1.3089 -0.3809
 9145SOL    HW238898   1.028   1.315  11.632  1.1007 -2.1110 -0.8932
 9146SOL     OW38899   1.198   1.153   7.537  0.5370 -0.6264 -0.3905
 9146SOL    HW138900   1.207   1.154   7.442 -1.6927  0.8477 -0.5908
 9146SOL    HW238901   1.254   1.077   7.553  2.3750  0.3701 -2.1058
 9147SOL     OW38902   1.364   3.228   5.317 -0.3120  0.1100 -0.4455
 9147SOL    HW138903   1.332   3.214   5.406  2.2321  0.2152  0.4871
 9147SOL    HW238904   1.353   3.323   5.307  2.0000  0.2093 -1.7678
 9148SOL     OW38905   0.146   0.120   8.350  0.0550 -0.2355 -0.4557
 9148SOL    HW138906   0.199   0.130   8.429  0.1380 -1.7043 -0.3194
 9148SOL    HW238907   0.114   0.206   8.321 -0.0158  0.1276  0.7190
 9149SOL     OW38908   3.666   0.394   1.405 -0.4790  0.4490  0.0398
 9149SOL    HW138909   3.748   0.369   1.362 -0.2828  0.9051  0.1462
 9149SOL    HW238910   3.628   0.307   1.413 -2.1919  1.1663 -0.2174
 9150SOL     OW38911   0.634   1.932  14.846  0.2169 -0.3787  0.7687
 9150SOL    HW138912   0.685   2.013  14.840  2.6463 -1.8127  2.1858
 9150SOL    HW238913   0.574   1.941  14.772  2.7200  0.8929 -1.1090
 9151SOL     OW38914   4.610   0.959  16.748 -0.1312 -0.1547  0.0607
 9151SOL    HW138915   4.648   1.028  16.693  0.2731 -0.6215 -0.2395
 9151SOL    HW238916   4.681   0.920  16.798 -0.0127  1.3590  1.0593
 9152SOL     OW38917   0.933   2.302   6.061  0.5081  0.4965  0.0185
 9152SOL    HW138918   1.000   2.348   6.111  0.9505  0.2725 -0.3635
 9152SOL    HW238919   0.851   2.332   6.099 -0.5798  1.0956 -2.7978
 9153SOL     OW38920   1.126   0.286   4.578 -0.2759 -0.2188 -0.5152
 9153SOL    HW138921   1.067   0.361   4.586  0.8947  0.4426  2.0295
 9153SOL    HW238922   1.189   0.300   4.649 -0.6852  1.2084 -0.4346
 9154SOL     OW38923   1.746   0.482   4.514  0.4057 -0.0122  0.0593
 9154SOL    HW138924   1.664   0.531   4.523  0.6201  0.6151 -1.3972
 9154SOL    HW238925   1.709   0.396   4.494  0.1034 -0.2366  1.5587
 9155SOL     OW38926   1.307   3.346   9.570 -0.0190  0.0044  0.0136
 9155SOL    HW138927   1.381   3.324   9.627  0.4534  2.4380  0.3747
 9155SOL    HW238928   1.255   3.388   9.639  1.8061  0.9001  0.8346
 9156SOL     OW38929   0.861   3.009   4.996  0.1908  0.2457  0.4539
 9156SOL    HW138930   0.825   3.038   5.080  0.4746 -3.2183  1.7740
 9156SOL    HW238931   0.798   3.033   4.928 -0.3288 -0.9371  0.5297
 9157SOL     OW38932   0.813   1.979   9.123 -0.1198  0.3006 -0.7464
 9157SOL    HW138933   0.758   1.911   9.163 -0.7428  1.5389  0.4783
 9157SOL    HW238934   0.871   1.998   9.196  0.8509 -0.3367 -1.3426
 9158SOL     OW38935   1.046   1.948   0.605 -0.2444  0.2715  0.6397
 9158SOL    HW138936   1.056   1.973   0.513 -0.2899 -0.1857  0.5090
 9158SOL    HW238937   0.958   1.911   0.609 -0.2837  0.5371  2.1087
 9159SOL     OW38938   3.487   2.181  14.153 -0.0282  0.5242 -0.0935
 9159SOL    HW138939   3.489   2.131  14.234  0.3236  1.5481  0.5258
 9159SOL    HW238940   3.399   2.155  14.125 -0.0690 -0.7703  1.2381
 9160SOL     OW38941   2.128   4.242   5.632 -0.1091 -0.0521  0.0213
 9160SOL    HW138942   2.159   4.317   5.683  0.8262 -0.9589  0.7936
 9160SOL    HW238943   2.131   4.176   5.701 -2.9033  1.3038  1.4196
 9161SOL     OW38944   0.771   4.467   2.934 -0.0576 -0.0999  0.2836
 9161SOL    HW138945   0.743   4.515   3.012 -2.5805 -2.9329  1.1282
 9161SOL    HW238946   0.794   4.530   2.866  0.4334 -0.1349  0.4205
 9162SOL     OW38947   1.295   3.122  14.335  0.0947  0.5123 -0.4722
 9162SOL    HW138948   1.240   3.044  14.326  0.2352  0.2413  1.0650
 9162SOL    HW238949   1.240   3.179  14.388 -0.7808 -1.2638  0.5384
 9163SOL     OW38950   0.927   3.278  11.461  0.0685  0.0481 -0.6074
 9163SOL    HW138951   1.002   3.298  11.517 -0.9741 -0.1320  0.8555
 9163SOL    HW238952   0.857   3.321  11.511 -2.4685 -1.9714 -2.4219
 9164SOL     OW38953   2.201   4.096  12.039  0.0080  0.1665  0.4201
 9164SOL    HW138954   2.185   4.064  11.950  0.4999 -0.6651  0.6350
 9164SOL    HW238955   2.124   4.151  12.051 -1.2958 -1.2691 -1.3549
 9165SOL     OW38956   3.570   3.082  15.066  0.6867 -0.0336  0.3844
 9165SOL    HW138957   3.535   3.051  15.150 -3.9033  1.0085 -1.1275
 9165SOL    HW238958   3.577   3.172  15.097 -2.0014  0.3018  0.0251
 9166SOL     OW38959   1.761   3.995   7.320  0.4151 -0.0133  0.3639
 9166SOL    HW138960   1.725   4.067   7.372  1.8896  1.3656 -0.5236
 9166SOL    HW238961   1.733   3.913   7.360  0.3492  0.5105  1.3675
 9167SOL     OW38962   0.263   1.808   7.179 -0.4230  0.8864 -0.8383
 9167SOL    HW138963   0.243   1.880   7.238 -0.6224 -0.3590  0.6279
 9167SOL    HW238964   0.281   1.852   7.096 -0.4243  0.1862 -1.2088
 9168SOL     OW38965   3.098   2.896  13.798  0.0065  0.0341  0.2646
 9168SOL    HW138966   3.015   2.929  13.832  0.0234  0.3625 -0.0092
 9168SOL    HW238967   3.078   2.901  13.705  0.0284 -0.7594  0.2186
 9169SOL     OW38968   0.587   3.643   1.693  0.0988  0.1084 -0.2499
 9169SOL    HW138969   0.621   3.567   1.741  1.5758  1.1551  0.3703
 9169SOL    HW238970   0.638   3.636   1.612 -2.4822  0.6453 -1.8919
 9170SOL     OW38971   2.507   1.122   3.295  0.5368  0.2607 -0.6159
 9170SOL    HW138972   2.467   1.179   3.230  0.1136  1.3574  0.5993
 9170SOL    HW238973   2.494   1.031   3.266  2.4964 -0.0262 -0.5783
 9171SOL     OW38974   3.147   2.645   4.597  0.7456 -0.1045  0.2857
 9171SOL    HW138975   3.208   2.717   4.617  1.9883 -1.2078  0.5034
 9171SOL    HW238976   3.197   2.576   4.641 -1.5888  0.0316  3.1494
 9172SOL     OW38977   1.998   3.000   7.810  0.2923  0.3021  0.1227
 9172SOL    HW138978   1.913   2.958   7.827  0.6263  0.2252  1.6531
 9172SOL    HW238979   1.977   3.092   7.796  3.6318  0.8285 -1.2713
 9173SOL     OW38980   1.659   1.242   6.707 -0.1058 -0.1870  0.4274
 9173SOL    HW138981   1.619   1.180   6.646  0.5834 -0.1153 -0.0945
 9173SOL    HW238982   1.596   1.314   6.711  1.4864  1.1858  0.9222
 9174SOL     OW38983   3.966   2.047  16.998  0.2879  0.3612 -0.0244
 9174SOL    HW138984   4.002   2.033  16.911  2.8368 -0.8991  1.2159
 9174SOL    HW238985   4.051   2.053  17.042  0.5682 -0.5213 -0.4381
 9175SOL     OW38986   1.334   1.792   4.694 -0.3731 -0.3565 -0.0730
 9175SOL    HW138987   1.390   1.838   4.632 -0.5393  0.6358  0.5161
 9175SOL    HW238988   1.330   1.707   4.650  0.2757 -0.9252  0.9754
 9176SOL     OW38989   1.675   2.429  13.561  0.2668 -0.2738  0.0608
 9176SOL    HW138990   1.766   2.452  13.542  0.0650  0.2964 -0.2152
 9176SOL    HW238991   1.640   2.449  13.474  1.5638 -0.8076 -0.5892
 9177SOL     OW38992   2.990   2.639   8.296  0.4682  0.0649 -0.4311
 9177SOL    HW138993   3.005   2.562   8.351  2.0594  0.4033 -0.3887
 9177SOL    HW238994   3.046   2.696   8.349 -1.1176  0.7633  0.5212
 9178SOL     OW38995   3.036   4.632   7.660 -0.3969 -0.4568 -0.2217
 9178SOL    HW138996   2.952   4.613   7.703 -0.9327  2.7820  0.1095
 9178SOL    HW238997   3.095   4.664   7.728 -0.8294 -0.7544  0.2987
 9179SOL     OW38998   4.376   3.786   2.188 -0.1302 -0.2420 -0.5836
 9179SOL    HW138999   4.446   3.726   2.216 -2.4967 -2.3759  0.6934
 9179SOL    HW239000   4.300   3.730   2.172 -1.1311  1.6084 -2.3225
 9180SOL     OW39001   1.612   0.649  12.280  0.3508 -0.3149  0.2011
 9180SOL    HW139002   1.661   0.661  12.199  0.8878 -1.4815  0.3488
 9180SOL    HW239003   1.524   0.679  12.259  0.7313  2.7300  2.9707
 9181SOL     OW39004   1.709   0.341   0.840 -0.6370 -0.0758  0.3887
 9181SOL    HW139005   1.662   0.316   0.920 -2.4826  0.9324 -0.3725
 9181SOL    HW239006   1.688   0.434   0.836 -1.4605 -0.1796  2.2295
 9182SOL     OW39007   0.089   2.900  13.664  0.1330 -0.2360 -0.2645
 9182SOL    HW139008   0.171   2.854  13.684 -0.6383 -1.4209  0.2442
 9182SOL    HW239009   0.091   2.866  13.575 -0.1310 -0.8509 -0.0382
 9183SOL     OW39010   0.645   2.802  15.121 -0.1433  0.2318  0.2469
 9183SOL    HW139011   0.617   2.833  15.035 -2.2108 -1.8821  0.1859
 9183SOL    HW239012   0.569   2.837  15.167  0.5651 -1.1382  2.4423
 9184SOL     OW39013   1.269   3.592  12.043 -0.4312 -0.4112  0.1216
 9184SOL    HW139014   1.269   3.621  12.134 -1.7216  0.3650 -0.1138
 9184SOL    HW239015   1.241   3.673  12.000  2.2952  1.0664  1.1408
 9185SOL     OW39016   0.099   1.526   4.963  0.0370  0.3875  0.0817
 9185SOL    HW139017   0.132   1.610   4.932 -0.6361  0.1168 -1.3340
 9185SOL    HW239018   0.006   1.545   4.972  0.2345  1.1332  0.5322
 9186SOL     OW39019   0.524   0.479  11.966  0.1809 -0.3675  0.5373
 9186SOL    HW139020   0.599   0.493  11.908  0.4955  1.0233  1.2713
 9186SOL    HW239021   0.530   0.560  12.017 -0.3982  0.8042 -1.2766
 9187SOL     OW39022   3.868   2.791  11.108  0.2964  0.1314 -0.5054
 9187SOL    HW139023   3.920   2.761  11.182  2.6715 -0.5050 -2.4248
 9187SOL    HW239024   3.910   2.749  11.033 -1.1211 -0.4103 -0.9974
 9188SOL     OW39025   2.111   1.855   3.537 -0.7601 -0.1911  0.1189
 9188SOL    HW139026   2.173   1.923   3.512  1.0807 -1.7674  0.4154
 9188SOL    HW239027   2.138   1.779   3.485  1.2329  1.2183 -0.9213
 9189SOL     OW39028   2.986   1.297   3.545 -0.5224  0.1717  0.2823
 9189SOL    HW139029   2.895   1.296   3.515 -0.4004  0.6641 -0.0899
 9189SOL    HW239030   3.019   1.335   3.464  0.5808 -0.6792  0.3284
 9190SOL     OW39031   3.891   2.285   6.654 -0.3924  0.4239  0.2375
 9190SOL    HW139032   3.982   2.290   6.683 -1.0709  1.4351  2.1871
 9190SOL    HW239033   3.877   2.379   6.641  0.1821  0.5332  0.3918
 9191SOL     OW39034   0.645   0.716   1.809 -0.3137 -0.2923 -0.1402
 9191SOL    HW139035   0.729   0.705   1.852 -0.5626  4.3461  1.5489
 9191SOL    HW239036   0.610   0.779   1.872 -0.1741  1.2659 -1.6420
 9192SOL     OW39037   1.335   0.774   4.407 -0.1247 -0.0199 -0.8707
 9192SOL    HW139038   1.247   0.743   4.384 -1.1741  0.5938  2.3028
 9192SOL    HW239039   1.352   0.823   4.327 -0.9569 -0.5155 -1.3528
 9193SOL     OW39040   4.030   0.487   6.230 -0.0894 -0.7615 -0.5488
 9193SOL    HW139041   4.073   0.495   6.315 -0.5957  0.6953 -0.4232
 9193SOL    HW239042   4.090   0.425   6.189 -2.2322 -1.4054 -2.7257
 9194SOL     OW39043   0.055   4.349   8.525 -0.3485 -0.2003 -0.8545
 9194SOL    HW139044   0.106   4.286   8.473 -0.7696  0.1354 -1.6545
 9194SOL    HW239045   0.066   4.316   8.615  0.2984  0.8139 -0.5634
 9195SOL     OW39046   0.480   2.161   0.328 -0.4296  0.2212 -0.1296
 9195SOL    HW139047   0.462   2.160   0.421 -0.5527 -0.9822 -0.1724
 9195SOL    HW239048   0.398   2.132   0.288 -1.5850 -0.4475  2.7595
 9196SOL     OW39049   2.524   1.610  10.385 -0.1150 -0.1040 -0.0435
 9196SOL    HW139050   2.592   1.546  10.402  0.6953  0.9032  0.4842
 9196SOL    HW239051   2.496   1.640  10.472  0.6570  1.0078 -0.1785
 9197SOL     OW39052   3.097   2.859   3.868  0.2602 -0.5921  0.4100
 9197SOL    HW139053   3.030   2.896   3.810  0.6031 -0.8266 -0.1380
 9197SOL    HW239054   3.160   2.812   3.813  0.1887 -0.2578  0.0447
 9198SOL     OW39055   0.218   3.073   7.300  0.0768  0.0689  0.1472
 9198SOL    HW139056   0.205   3.071   7.395 -3.9960  2.7611 -0.3452
 9198SOL    HW239057   0.258   3.159   7.287 -1.3268  0.8596  1.0463
 9199SOL     OW39058   4.601   1.144   5.155  0.3240 -0.2836  0.3260
 9199SOL    HW139059   4.562   1.220   5.197 -1.6160 -2.3845  2.2986
 9199SOL    HW239060   4.526   1.084   5.161 -1.4199  1.4763 -3.5216
 9200SOL     OW39061   2.124   0.345  15.468 -0.5447  0.0549 -0.8258
 9200SOL    HW139062   2.063   0.362  15.395 -0.3266 -1.4277 -1.3574
 9200SOL    HW239063   2.055   0.353  15.534 -0.8669 -1.7511 -0.9531
 9201SOL     OW39064   3.149   4.595   8.901  0.1509  0.2426  0.3415
 9201SOL    HW139065   3.105   4.674   8.869  0.8733  0.3972 -0.2626
 9201SOL    HW239066   3.171   4.552   8.819  0.1782  1.3858 -0.2581
 9202SOL     OW39067   0.178   2.347   4.719  0.1881 -0.6603 -0.4392
 9202SOL    HW139068   0.233   2.366   4.795 -0.1248  1.3029 -0.6990
 9202SOL    HW239069   0.126   2.427   4.717  0.1608 -0.6548  0.2390
 9203SOL     OW39070   0.164   2.126   5.637 -0.5371 -0.2754  0.1516
 9203SOL    HW139071   0.146   2.220   5.636  1.6578  0.1170 -1.9840
 9203SOL    HW239072   0.086   2.096   5.684 -0.9185 -3.4529 -2.5604
 9204SOL     OW39073   2.318   2.511   6.962  0.5423  0.0989 -0.5763
 9204SOL    HW139074   2.248   2.576   6.952 -0.1397 -0.3150  1.6492
 9204SOL    HW239075   2.386   2.557   7.011  0.4284 -0.1449 -0.1923
 9205SOL     OW39076   2.824   1.123   5.313  0.3138 -0.6190 -0.1533
 9205SOL    HW139077   2.786   1.088   5.393  1.2204  1.6218  1.2454
 9205SOL    HW239078   2.745   1.132   5.260 -0.4672 -0.5255  1.0247
 9206SOL     OW39079   2.498   1.287   2.276 -0.1166 -0.8138  0.2915
 9206SOL    HW139080   2.438   1.302   2.348 -0.3122 -0.7911  0.1235
 9206SOL    HW239081   2.452   1.217   2.230  1.5156 -0.7518 -1.4960
 9207SOL     OW39082   2.693   3.593   1.866  0.0403  0.5873 -0.2212
 9207SOL    HW139083   2.599   3.577   1.861  0.6995 -3.1244 -1.3460
 9207SOL    HW239084   2.693   3.636   1.951  0.0419  1.0314 -0.4458
 9208SOL     OW39085   4.329   3.119  14.214  0.2493 -0.1020 -0.4126
 9208SOL    HW139086   4.381   3.185  14.260  0.8437 -0.8797  0.0225
 9208SOL    HW239087   4.393   3.055  14.181 -0.3023 -0.3518 -0.9882
 9209SOL     OW39088   0.530   0.963  16.780  0.1200 -0.1316  0.1393
 9209SOL    HW139089   0.579   1.043  16.798  0.6513 -0.2390 -0.7969
 9209SOL    HW239090   0.569   0.903  16.842 -1.8831 -0.5900  0.9538
 9210SOL     OW39091   0.039   1.774  11.913  0.2375  0.2819 -0.0128
 9210SOL    HW139092   0.029   1.814  11.826 -0.1573 -1.0193 -0.5587
 9210SOL    HW239093   0.135   1.773  11.916  0.2166  0.3194  0.6408
 9211SOL     OW39094   0.064   0.103  10.885  0.2761 -0.2459 -0.6000
 9211SOL    HW139095   0.117   0.078  10.960  0.0855  2.7116  0.5229
 9211SOL    HW239096   4.715   0.041  10.886  0.6161 -0.6318  0.0125
 9212SOL     OW39097   2.612   3.519   7.460 -0.5411  0.0934 -0.1852
 9212SOL    HW139098   2.565   3.599   7.484  0.3418  0.3174  0.8078
 9212SOL    HW239099   2.604   3.459   7.533  2.0745  0.9856  0.8267
 9213SOL     OW39100   0.956   0.110   3.656  0.3506  0.5453  0.3128
 9213SOL    HW139101   1.019   0.090   3.587 -0.9340  0.5286 -0.8473
 9213SOL    HW239102   0.918   0.024   3.675  1.4621 -0.0963 -0.3874
 9214SOL     OW39103   3.588   4.554   2.428  0.4165  0.1818 -0.3395
 9214SOL    HW139104   3.520   4.493   2.456 -1.0052  0.9193 -2.1574
 9214SOL    HW239105   3.637   4.497   2.369  1.4807  1.5123 -0.7632
 9215SOL     OW39106   1.866   4.476  12.741  0.2216 -0.3170  0.0871
 9215SOL    HW139107   1.771   4.471  12.750  0.3443 -0.4741  1.1918
 9215SOL    HW239108   1.885   4.488  12.647  0.8010  2.4264  0.5625
 9216SOL     OW39109   0.654   2.342   7.881  0.2492 -0.1097 -0.2835
 9216SOL    HW139110   0.695   2.414   7.930 -0.7127  0.7448 -0.7208
 9216SOL    HW239111   0.561   2.360   7.895  0.0878 -1.7036  0.6740
 9217SOL     OW39112   2.924   2.808   1.151  0.3190 -0.1632 -0.1057
 9217SOL    HW139113   2.872   2.821   1.230  0.6789 -1.3037  0.3120
 9217SOL    HW239114   2.859   2.831   1.084  1.1507 -0.8699 -1.1522
 9218SOL     OW39115   1.109   1.871  15.023 -0.0545  0.4888  0.6195
 9218SOL    HW139116   1.027   1.920  15.026 -1.0981 -1.2948  1.2004
 9218SOL    HW239117   1.140   1.883  15.113 -0.3028 -0.2545  0.8025
 9219SOL     OW39118   1.654   0.018   7.621  0.2568 -0.4679 -0.0521
 9219SOL    HW139119   1.668   4.650   7.641  0.6130 -0.6746 -1.2401
 9219SOL    HW239120   1.570   0.041   7.662 -0.0820 -1.4429 -0.2024
 9220SOL     OW39121   2.687   2.178   9.833 -0.0645 -0.0589 -0.1200
 9220SOL    HW139122   2.771   2.171   9.786 -1.0163  0.9188 -1.9920
 9220SOL    HW239123   2.674   2.091   9.871 -1.2708  0.7605  1.3117
 9221SOL     OW39124   4.396   1.667   7.690 -0.0701  0.2838  0.6285
 9221SOL    HW139125   4.375   1.574   7.699 -0.7925  0.5635  2.0070
 9221SOL    HW239126   4.324   1.716   7.733 -2.0166 -0.9347 -1.2617
 9222SOL     OW39127   1.518   2.291   9.382 -0.3535  0.1288 -0.3135
 9222SOL    HW139128   1.422   2.295   9.378 -0.3354  0.7359 -0.2061
 9222SOL    HW239129   1.536   2.321   9.292  0.1293 -1.0520 -0.6062
 9223SOL     OW39130   0.091   3.100   5.728  0.2675  0.0645 -0.4088
 9223SOL    HW139131   0.046   3.124   5.809  0.9618  0.2334 -0.0665
 9223SOL    HW239132   0.180   3.090   5.764  0.5598 -3.0784 -2.0322
 9224SOL     OW39133   3.279   1.600   0.823 -0.1564 -0.1303 -0.4838
 9224SOL    HW139134   3.294   1.586   0.729  1.7154  1.2410 -0.3904
 9224SOL    HW239135   3.187   1.578   0.836  0.3891 -2.1121 -0.0703
 9225SOL     OW39136   0.149   3.136   8.163  0.4444 -0.1843 -0.2994
 9225SOL    HW139137   0.077   3.073   8.171  2.9330 -3.0705 -0.7399
 9225SOL    HW239138   0.113   3.217   8.199  0.4644 -0.1008 -0.4649
 9226SOL     OW39139   2.131   3.749   7.566 -0.2583  0.0758  0.0686
 9226SOL    HW139140   2.147   3.660   7.535 -0.0170 -0.3753  1.5021
 9226SOL    HW239141   2.101   3.793   7.486 -0.5891  0.1377  0.2289
 9227SOL     OW39142   4.193   3.313   5.544 -0.1022  0.1696  0.4590
 9227SOL    HW139143   4.140   3.384   5.509  0.0235 -0.0901 -0.2477
 9227SOL    HW239144   4.174   3.316   5.638  0.8320 -2.0097  0.7232
 9228SOL     OW39145   1.237   1.317   7.073 -0.1873 -0.1946 -0.1000
 9228SOL    HW139146   1.310   1.319   7.011  0.3077 -2.7931  0.3998
 9228SOL    HW239147   1.277   1.361   7.147  1.0885 -0.4382 -0.6383
 9229SOL     OW39148   3.799   2.945   1.757  0.1524 -0.1050 -0.0836
 9229SOL    HW139149   3.712   2.909   1.774  0.6411 -0.9289  0.7078
 9229SOL    HW239150   3.842   2.945   1.843 -2.9036 -2.9644  1.4325
 9230SOL     OW39151   3.058   4.694   3.005  1.0690 -0.4213 -0.1078
 9230SOL    HW139152   2.988   4.649   3.053 -1.8531  3.4554 -0.7910
 9230SOL    HW239153   3.014   4.692   2.920  1.2559  0.3042 -0.2158
 9231SOL     OW39154   1.324   2.980   7.330  0.2437  0.3215 -0.1528
 9231SOL    HW139155   1.334   2.900   7.279 -5.0495 -0.4935  0.0895
 9231SOL    HW239156   1.230   2.972   7.348  0.1387 -3.2049 -2.3201
 9232SOL     OW39157   0.647   1.207   0.760  0.0312 -0.0157 -0.1404
 9232SOL    HW139158   0.637   1.301   0.773 -1.6793 -0.3306  0.8793
 9232SOL    HW239159   0.723   1.192   0.816 -0.7122  1.4163  1.2591
 9233SOL     OW39160   4.153   4.530  11.716  0.1829  1.1214  0.2474
 9233SOL    HW139161   4.233   4.541  11.768  1.3236  1.6845 -1.6432
 9233SOL    HW239162   4.166   4.583  11.638  2.2981 -0.9471 -0.7989
 9234SOL     OW39163   2.822   1.643   6.682 -0.6069 -0.0438 -0.4917
 9234SOL    HW139164   2.816   1.558   6.638 -0.5854 -2.0972  3.5371
 9234SOL    HW239165   2.814   1.701   6.606 -0.4288  1.6492  0.7974
 9235SOL     OW39166   1.897   4.025   8.793  0.6035 -0.1796 -0.1976
 9235SOL    HW139167   1.834   4.054   8.727  0.9410  2.1861  0.5068
 9235SOL    HW239168   1.873   3.933   8.805  0.6400 -0.2158 -0.4006
 9236SOL     OW39169   4.150   1.941   1.270  0.1803  0.0844 -0.3472
 9236SOL    HW139170   4.114   2.030   1.265 -0.4245 -0.1448 -0.0956
 9236SOL    HW239171   4.160   1.927   1.365  0.8103 -1.7342 -0.6887
 9237SOL     OW39172   3.663   3.073   4.653 -0.5776  0.5577 -0.1765
 9237SOL    HW139173   3.723   3.147   4.650  1.3442 -0.9492  0.6106
 9237SOL    HW239174   3.586   3.123   4.629 -1.0570  1.0441  2.3602
 9238SOL     OW39175   2.370   1.955   4.721 -0.2013 -0.5977  0.7072
 9238SOL    HW139176   2.322   1.880   4.757 -1.3270 -0.2739 -0.1370
 9238SOL    HW239177   2.311   1.996   4.658 -2.1137 -4.3909  0.0154
 9239SOL     OW39178   2.652   2.787  13.840  0.1015 -0.3827 -0.3756
 9239SOL    HW139179   2.667   2.693  13.841 -1.2141 -0.5972 -0.2843
 9239SOL    HW239180   2.563   2.795  13.875  0.6079 -0.3285  0.9114
 9240SOL     OW39181   0.427   0.953  11.910 -0.0624 -0.0262  0.4243
 9240SOL    HW139182   0.429   1.041  11.948  0.5861  0.3679 -0.5004
 9240SOL    HW239183   0.518   0.925  11.903  0.7514  2.6904  0.1575
 9241SOL     OW39184   3.600   3.474   4.484 -0.0322 -0.4730 -0.0589
 9241SOL    HW139185   3.580   3.465   4.391  0.3067  0.3234 -0.2048
 9241SOL    HW239186   3.538   3.410   4.518 -0.1193  1.1601  2.8409
 9242SOL     OW39187   2.653   4.484  12.781  0.0286  0.3962 -0.0657
 9242SOL    HW139188   2.746   4.463  12.774 -0.2636 -1.7160  2.4828
 9242SOL    HW239189   2.620   4.416  12.840  1.2038  1.4719  1.8166
 9243SOL     OW39190   3.314   3.588   6.796 -0.0240  0.0810  0.3827
 9243SOL    HW139191   3.403   3.595   6.762 -0.1660 -0.5261 -0.1049
 9243SOL    HW239192   3.316   3.662   6.856 -1.5559 -1.1282  1.9242
 9244SOL     OW39193   2.107   2.380   7.787 -0.8266 -0.0592  0.4653
 9244SOL    HW139194   2.148   2.416   7.865 -0.0568  2.2902 -1.0307
 9244SOL    HW239195   2.024   2.427   7.785 -0.5698  0.4147  0.9330
 9245SOL     OW39196   1.915   3.284   7.743  0.5657 -0.4927 -0.5676
 9245SOL    HW139197   1.910   3.380   7.746  0.7144 -0.4870 -0.5027
 9245SOL    HW239198   1.861   3.260   7.668 -0.7399 -0.5815  0.4022
 9246SOL     OW39199   3.741   1.654  10.563  0.0927  0.1432 -0.0820
 9246SOL    HW139200   3.656   1.666  10.522 -1.2415 -0.2411  2.5291
 9246SOL    HW239201   3.724   1.686  10.652 -3.5667  1.7360 -1.3842
 9247SOL     OW39202   1.182   3.798   5.452  0.0486 -0.4850 -0.0109
 9247SOL    HW139203   1.124   3.750   5.393  0.6677 -2.9061  1.3661
 9247SOL    HW239204   1.258   3.741   5.445  1.2804  0.9631  1.9810
 9248SOL     OW39205   1.180   1.525   8.173 -0.0965  0.0594  0.6524
 9248SOL    HW139206   1.086   1.504   8.179 -0.4320  1.2872 -0.3603
 9248SOL    HW239207   1.180   1.566   8.260  2.4294  0.0904  0.6342
 9249SOL     OW39208   1.438   3.243   1.888  0.5443  0.2948 -0.0129
 9249SOL    HW139209   1.509   3.288   1.933 -1.5774  3.3074  0.3570
 9249SOL    HW239210   1.367   3.253   1.952  1.2266  0.2771  0.7416
 9250SOL     OW39211   2.210   3.029   7.518  0.1786  0.6258  0.2637
 9250SOL    HW139212   2.177   3.116   7.542 -3.2700 -0.2801 -1.1740
 9250SOL    HW239213   2.163   3.012   7.436  1.0331 -0.3983 -0.0041
 9251SOL     OW39214   3.011   0.673  13.090 -0.6633  0.3864 -0.1356
 9251SOL    HW139215   2.978   0.745  13.035 -0.3170  0.2691 -0.4997
 9251SOL    HW239216   3.011   0.713  13.177 -0.5712  1.3292 -0.5615
 9252SOL     OW39217   2.716   3.561   6.764 -0.0697 -0.1391  0.0322
 9252SOL    HW139218   2.802   3.529   6.792  0.7492  0.2271 -2.0478
 9252SOL    HW239219   2.728   3.583   6.672  1.0476 -0.1612  0.1698
 9253SOL     OW39220   2.199   3.217   8.845  0.2130 -0.6401  0.7100
 9253SOL    HW139221   2.222   3.190   8.934  1.8084  0.4939  0.6468
 9253SOL    HW239222   2.242   3.303   8.853 -0.9346 -0.1217  1.3751
 9254SOL     OW39223   3.111   2.625   6.177  0.3630 -0.1426  0.0019
 9254SOL    HW139224   3.110   2.582   6.091  0.7451  0.0513 -0.1019
 9254SOL    HW239225   3.177   2.574   6.224 -0.3151 -0.3605  0.7066
 9255SOL     OW39226   3.770   4.042   7.153 -0.4687 -0.6002 -0.5155
 9255SOL    HW139227   3.761   4.131   7.188 -1.8206 -0.5770 -0.9072
 9255SOL    HW239228   3.843   4.052   7.092 -0.3381 -1.0372 -0.4244
 9256SOL     OW39229   4.567   3.549   3.008  0.0059  0.7634 -0.3245
 9256SOL    HW139230   4.583   3.549   3.103  0.8862 -0.6360 -0.4776
 9256SOL    HW239231   4.473   3.556   2.988 -0.0856 -1.0893 -0.5505
 9257SOL     OW39232   1.383   1.869  11.008  0.1864 -0.1829 -0.1828
 9257SOL    HW139233   1.385   1.842  10.916 -2.5413 -0.4839 -0.1601
 9257SOL    HW239234   1.339   1.951  10.986 -0.2251  0.1344  1.8637
 9258SOL     OW39235   1.992   1.628   4.341 -1.0668  0.9350 -0.1187
 9258SOL    HW139236   2.064   1.609   4.402 -1.2137  1.9130  0.3535
 9258SOL    HW239237   1.972   1.542   4.303  1.5139  0.5957 -0.7222
 9259SOL     OW39238   4.139   3.852  17.456  0.6803 -0.0378  0.2422
 9259SOL    HW139239   4.182   3.767  17.459  0.5170 -0.1490 -0.4096
 9259SOL    HW239240   4.145   3.888  17.544 -0.0176 -2.2071  1.1632
 9260SOL     OW39241   4.101   0.920  17.381 -0.0323  0.2762 -0.1044
 9260SOL    HW139242   4.192   0.936  17.357  1.1338 -0.8376  3.5403
 9260SOL    HW239243   4.099   0.924  17.477  0.7155  0.1040 -0.0805
 9261SOL     OW39244   4.073   2.297   3.444 -0.5864 -0.4087  0.0612
 9261SOL    HW139245   4.129   2.360   3.399 -0.5753 -0.1959  0.3728
 9261SOL    HW239246   3.997   2.352   3.464  0.1332  0.1029  1.3896
 9262SOL     OW39247   2.127   1.122   3.675 -0.2667 -0.5729  0.4662
 9262SOL    HW139248   2.042   1.079   3.683 -1.1087  0.8250 -1.0296
 9262SOL    HW239249   2.169   1.071   3.744 -0.5020  0.0287  1.0538
 9263SOL     OW39250   1.691   4.371   2.817  0.0089 -0.1492 -0.4497
 9263SOL    HW139251   1.705   4.466   2.816  1.4793 -0.3805 -2.5613
 9263SOL    HW239252   1.705   4.359   2.723  2.8553 -0.2294 -0.0225
 9264SOL     OW39253   3.339   4.114   0.604  0.1415  0.2999 -0.3707
 9264SOL    HW139254   3.274   4.048   0.629 -1.0474  1.6670  0.2440
 9264SOL    HW239255   3.417   4.072   0.639 -1.0185 -1.0285  0.6372
 9265SOL     OW39256   0.028   2.886   1.311 -0.7661  0.0442 -0.1998
 9265SOL    HW139257   4.699   2.948   1.262  0.2841  0.0463 -1.3259
 9265SOL    HW239258   0.004   2.916   1.399 -0.8478 -0.8783  0.0925
 9266SOL     OW39259   1.330   3.252   9.904 -0.2977  0.4981 -0.3725
 9266SOL    HW139260   1.283   3.322   9.858  1.4280  0.7261 -1.7883
 9266SOL    HW239261   1.419   3.276   9.875 -0.5525 -0.4215 -1.9228
 9267SOL     OW39262   0.460   3.246  17.612  0.4657  0.5480 -0.3024
 9267SOL    HW139263   0.452   3.150  17.610  1.0014  0.4771  1.2121
 9267SOL    HW239264   0.417   3.268  17.694 -0.7681  2.5517 -1.4781
 9268SOL     OW39265   1.672   1.009  16.499  0.4223 -0.4049 -0.5688
 9268SOL    HW139266   1.642   0.918  16.506 -0.2511 -0.0452  1.5475
 9268SOL    HW239267   1.586   1.052  16.501  0.9066  0.6622 -2.9905
 9269SOL     OW39268   0.112   3.759   7.224  0.0424  0.1582  0.3337
 9269SOL    HW139269   0.192   3.804   7.196  0.2466  0.7585  1.8905
 9269SOL    HW239270   0.059   3.765   7.144  1.6072  0.3863 -0.6810
 9270SOL     OW39271   1.254   3.392   0.243 -0.1565  0.3982  0.2961
 9270SOL    HW139272   1.222   3.381   0.154 -0.7338 -2.7717  0.8803
 9270SOL    HW239273   1.168   3.395   0.287 -0.1972  0.8298  0.1899
 9271SOL     OW39274   2.914   4.133  15.340 -0.4279 -0.0112 -0.0923
 9271SOL    HW139275   2.942   4.116  15.429 -0.5591  0.7079  0.0919
 9271SOL    HW239276   2.821   4.110  15.347 -0.5007  0.2235 -0.2609
 9272SOL     OW39277   4.138   0.381   3.848  0.1526  0.2145  0.1827
 9272SOL    HW139278   4.050   0.353   3.823 -0.4414  0.5806  1.8375
 9272SOL    HW239279   4.190   0.301   3.846  1.3235  0.9386  1.2438
 9273SOL     OW39280   3.271   3.127   5.983  0.2305 -0.0292  1.0689
 9273SOL    HW139281   3.197   3.138   5.924  0.4304  0.8341  0.9804
 9273SOL    HW239282   3.291   3.218   6.007 -0.7810  0.2038  1.0400
 9274SOL     OW39283   2.053   1.009   3.947  0.0740 -0.0205  0.0382
 9274SOL    HW139284   2.010   1.094   3.962 -1.5184 -0.6498 -1.0331
 9274SOL    HW239285   1.981   0.954   3.977 -0.4888  0.8828  0.3523
 9275SOL     OW39286   2.806   3.257   6.462  0.0517 -0.0753 -0.2027
 9275SOL    HW139287   2.845   3.180   6.504 -0.4614 -0.8453 -1.1535
 9275SOL    HW239288   2.762   3.216   6.388 -0.9851  1.8136 -0.6450
 9276SOL     OW39289   3.153   4.075   5.363  0.1557 -0.3152 -0.0024
 9276SOL    HW139290   3.248   4.086   5.359  0.2032 -1.7352 -2.6500
 9276SOL    HW239291   3.127   4.164   5.339 -0.2843 -0.2875  0.5776
 9277SOL     OW39292   0.723   3.176   8.560  0.1561  0.0649 -0.4599
 9277SOL    HW139293   0.651   3.143   8.613  2.0361 -0.8106  1.5735
 9277SOL    HW239294   0.722   3.270   8.579  1.1817  0.0552 -0.3287
 9278SOL     OW39295   2.825   3.084   9.813 -0.0827 -0.6277 -0.2828
 9278SOL    HW139296   2.890   3.100   9.745 -0.1336  2.3064  0.3733
 9278SOL    HW239297   2.772   3.162   9.795  0.0459  0.1525  2.8655
 9279SOL     OW39298   4.320   3.272   4.983  0.3300 -0.4781 -0.0161
 9279SOL    HW139299   4.385   3.203   4.996 -2.1797 -2.6550  1.0070
 9279SOL    HW239300   4.360   3.344   5.031  2.7262 -0.4294 -2.0946
 9280SOL     OW39301   1.818   3.340   8.424 -0.3163  0.1645  0.3913
 9280SOL    HW139302   1.728   3.366   8.405 -0.8463 -0.2353  2.3224
 9280SOL    HW239303   1.802   3.266   8.482 -0.1752 -1.6685 -1.9071
 9281SOL     OW39304   3.122   2.160  16.462 -0.0768 -0.0088  0.3277
 9281SOL    HW139305   3.167   2.223  16.518  0.8299  0.6464 -1.1683
 9281SOL    HW239306   3.029   2.174  16.484 -0.0304 -0.4802  0.8243
 9282SOL     OW39307   0.752   2.860   2.525 -0.6117 -0.1808 -0.1350
 9282SOL    HW139308   0.820   2.861   2.457 -0.1547  1.0572  0.3525
 9282SOL    HW239309   0.691   2.929   2.501 -0.6963  0.6510  2.5463
 9283SOL     OW39310   0.547   2.283   9.187 -0.3956 -0.7076 -0.5214
 9283SOL    HW139311   0.620   2.345   9.189 -1.5502  0.6538 -0.2313
 9283SOL    HW239312   0.589   2.199   9.171 -0.2640 -0.7918  0.2446
 9284SOL     OW39313   1.711   2.566   6.271 -0.2562  0.1340  0.3130
 9284SOL    HW139314   1.684   2.515   6.195 -0.0433  0.5508 -0.0465
 9284SOL    HW239315   1.699   2.492   6.330  1.6538 -0.4619 -0.0227
 9285SOL     OW39316   2.550   0.236  15.530 -0.4944 -0.4082  0.2329
 9285SOL    HW139317   2.586   0.319  15.499  2.0495 -1.0293  1.5107
 9285SOL    HW239318   2.586   0.181  15.460 -0.7902  1.4331 -1.3639
 9286SOL     OW39319   3.338   2.779  15.189  0.3101 -0.3020 -0.0717
 9286SOL    HW139320   3.402   2.708  15.181 -0.9102 -1.4119 -0.0151
 9286SOL    HW239321   3.296   2.749  15.270  0.8790 -1.4974 -0.2314
 9287SOL     OW39322   2.112   1.647   9.245  0.1111  0.3020  0.3000
 9287SOL    HW139323   2.070   1.627   9.161  0.0054  1.6596  0.0393
 9287SOL    HW239324   2.170   1.573   9.263  0.8916  0.7006 -0.5543
 9288SOL     OW39325   1.650   0.206   6.718  0.6345  0.1875 -0.3710
 9288SOL    HW139326   1.733   0.249   6.740  1.3313 -0.6540 -1.3216
 9288SOL    HW239327   1.681   0.157   6.642 -2.3971  2.2678 -2.9336
 9289SOL     OW39328   0.359   3.306   5.679  0.0518  0.3426 -0.6006
 9289SOL    HW139329   0.363   3.220   5.722  1.2941  0.8143  0.2041
 9289SOL    HW239330   0.350   3.361   5.756  1.7153  0.2784 -0.3711
 9290SOL     OW39331   2.352   1.775  14.050  0.4031  0.8882  0.4366
 9290SOL    HW139332   2.314   1.755  13.965 -1.7569  3.6543  0.7790
 9290SOL    HW239333   2.406   1.696  14.062 -1.4777 -0.7573 -1.7878
 9291SOL     OW39334   2.326   0.015   3.479 -0.1814 -0.3628 -0.2535
 9291SOL    HW139335   2.253   0.021   3.540  0.9244 -0.4080  1.0843
 9291SOL    HW239336   2.368   0.097   3.505 -0.2690 -0.9204  1.5801
 9292SOL     OW39337   4.228   0.383   2.593 -0.4021 -0.3885 -0.5782
 9292SOL    HW139338   4.287   0.340   2.531 -2.9624 -1.1030 -2.5702
 9292SOL    HW239339   4.283   0.460   2.603  0.3730 -1.1107  0.7131
 9293SOL     OW39340   1.173   2.192   2.859 -0.1761  0.4565  0.3765
 9293SOL    HW139341   1.197   2.136   2.933 -0.0970 -0.3212 -0.2355
 9293SOL    HW239342   1.126   2.262   2.904 -2.4450 -2.0147  1.8685
 9294SOL     OW39343   3.510   1.688   6.763  0.3822  0.6880 -0.1652
 9294SOL    HW139344   3.434   1.745   6.767  1.1132  1.6181  0.3950
 9294SOL    HW239345   3.477   1.624   6.827  1.6488 -0.9261 -1.1445
 9295SOL     OW39346   3.224   4.113   8.652 -0.1927 -0.2077 -0.0220
 9295SOL    HW139347   3.181   4.039   8.609  3.1990 -1.2505 -1.6217
 9295SOL    HW239348   3.251   4.170   8.580  1.1009 -0.3426  0.3469
 9296SOL     OW39349   0.318   0.487   8.862 -0.1979  0.3871 -0.2354
 9296SOL    HW139350   0.266   0.521   8.789 -0.5768 -0.7902 -0.5119
 9296SOL    HW239351   0.292   0.534   8.941 -0.3355 -1.6555  0.9556
 9297SOL     OW39352   4.622   3.784   4.147 -0.1231  0.0801 -0.2208
 9297SOL    HW139353   4.694   3.734   4.107  1.4226  0.5010  2.0026
 9297SOL    HW239354   4.664   3.868   4.166 -0.2677 -0.1346  1.0762
 9298SOL     OW39355   0.767   2.376   9.554  0.0660  0.2138  0.0685
 9298SOL    HW139356   0.832   2.389   9.623 -0.1164  3.1374 -0.3401
 9298SOL    HW239357   0.779   2.451   9.496  0.7769  0.3403  0.3843
 9299SOL     OW39358   3.962   2.125   5.023  0.6219  0.2053 -0.0900
 9299SOL    HW139359   3.951   2.056   4.958 -2.2292  0.0926  0.5488
 9299SOL    HW239360   3.905   2.095   5.094  1.4145  1.5835  1.1348
 9300SOL     OW39361   2.396   2.140   0.321  0.1356  0.3149 -0.1290
 9300SOL    HW139362   2.332   2.164   0.254 -1.9996  1.1304  2.1785
 9300SOL    HW239363   2.404   2.219   0.375  0.5617  0.4587 -0.4095
 9301SOL     OW39364   2.074   4.309  12.622 -0.1628  0.5470 -0.1803
 9301SOL    HW139365   2.070   4.332  12.529 -0.5459  0.4045 -0.1958
 9301SOL    HW239366   1.995   4.355  12.649  0.2019  2.1009 -1.7172
 9302SOL     OW39367   0.411   3.866  10.867  0.1851  0.1443  0.2040
 9302SOL    HW139368   0.477   3.935  10.861 -0.7593  1.1407  1.2730
 9302SOL    HW239369   0.397   3.850  10.774 -2.7098 -0.0716  0.6677
 9303SOL     OW39370   2.029   1.237   8.135 -0.0251  0.0752  0.1548
 9303SOL    HW139371   1.998   1.307   8.078  1.5577 -0.5071 -1.4296
 9303SOL    HW239372   1.943   1.214   8.170 -0.6699  2.8218  0.3154
 9304SOL     OW39373   2.595   2.786  13.229  0.0310  0.1384 -0.5267
 9304SOL    HW139374   2.603   2.882  13.233 -0.2689  0.0578  2.0558
 9304SOL    HW239375   2.515   2.788  13.177  0.7908  0.7140 -1.6912
 9305SOL     OW39376   1.987   1.287   4.027 -0.4781 -0.4274  0.3930
 9305SOL    HW139377   1.983   1.313   4.118  0.2063 -1.6438  0.7716
 9305SOL    HW239378   2.081   1.302   4.026 -0.7128  0.8973 -1.3812
 9306SOL     OW39379   0.676   4.530  14.174 -0.1250  0.4705 -0.2004
 9306SOL    HW139380   0.614   4.572  14.114 -1.3102  0.8829  1.3439
 9306SOL    HW239381   0.748   4.520  14.111  0.8825  1.8153  0.7386
 9307SOL     OW39382   4.090   3.523  16.461  0.0210  0.0345  0.1299
 9307SOL    HW139383   4.045   3.441  16.483  2.2717 -0.8777  1.4125
 9307SOL    HW239384   4.103   3.498  16.369  3.7964  0.6804  0.4891
 9308SOL     OW39385   4.468   2.373   8.589 -0.1631 -0.0615  0.6848
 9308SOL    HW139386   4.547   2.319   8.598  0.7797  0.7055 -2.9594
 9308SOL    HW239387   4.489   2.410   8.504  0.2966 -0.8769  0.4415
 9309SOL     OW39388   2.554   3.534   1.600 -0.0715  0.3449 -0.2040
 9309SOL    HW139389   2.605   3.593   1.654  1.8191 -0.1468 -1.4495
 9309SOL    HW239390   2.594   3.448   1.610 -0.5612  0.0205 -0.9979
 9310SOL     OW39391   0.099   2.457   8.356  0.3376 -0.0733 -0.7192
 9310SOL    HW139392   0.097   2.549   8.379 -1.1475  0.0364 -1.3258
 9310SOL    HW239393   0.161   2.416   8.417 -0.1132 -1.8113 -1.4267
 9311SOL     OW39394   2.235   2.824   2.617  0.0526  0.0634 -0.0569
 9311SOL    HW139395   2.271   2.791   2.699 -0.1565 -0.8009 -0.3123
 9311SOL    HW239396   2.287   2.763   2.564 -0.2859  0.4170 -0.8025
 9312SOL     OW39397   1.613   3.550   3.909  0.2113 -0.3459 -0.1911
 9312SOL    HW139398   1.702   3.530   3.937 -0.1848 -4.3175 -1.7926
 9312SOL    HW239399   1.562   3.564   3.989 -0.8716  2.3874 -1.3464
 9313SOL     OW39400   2.028   3.173   0.868 -0.1830 -0.3314 -0.6515
 9313SOL    HW139401   2.024   3.090   0.819  0.3901 -0.7493  0.0107
 9313SOL    HW239402   1.973   3.136   0.937 -0.9635  1.6820 -0.1966
 9314SOL     OW39403   4.169   0.858  10.972  0.0657  0.1325 -0.1042
 9314SOL    HW139404   4.258   0.869  11.004 -0.5550 -0.3027  1.7974
 9314SOL    HW239405   4.128   0.797  11.033 -0.7917  0.4601 -0.3438
 9315SOL     OW39406   3.012   4.120   1.152 -0.5671 -0.3567 -0.4835
 9315SOL    HW139407   2.961   4.190   1.195  0.5779 -0.2087  0.6102
 9315SOL    HW239408   3.052   4.175   1.084 -0.6987  1.4513  0.8885
 9316SOL     OW39409   0.902   4.349   5.802  0.2016  0.0343 -0.3421
 9316SOL    HW139410   0.987   4.330   5.762  0.7574  1.1664  0.2946
 9316SOL    HW239411   0.864   4.414   5.743 -0.3705 -0.9953 -1.1012
 9317SOL     OW39412   2.654   3.500   7.951 -0.2133  0.4518 -0.0240
 9317SOL    HW139413   2.610   3.583   7.934  1.9277  1.8270  1.2594
 9317SOL    HW239414   2.584   3.440   7.923 -1.4798  1.5178  0.8704
 9318SOL     OW39415   3.147   2.036   9.136 -0.2438  0.2751  0.1687
 9318SOL    HW139416   3.206   1.993   9.198 -1.1336  2.6705  2.6576
 9318SOL    HW239417   3.180   2.124   9.153  2.0664 -0.3909 -0.8195
 9319SOL     OW39418   1.184   0.900   2.328  0.3296  0.0400 -0.2911
 9319SOL    HW139419   1.215   0.818   2.366 -0.4050  1.2522  2.8721
 9319SOL    HW239420   1.140   0.932   2.407 -2.9953  0.0635 -2.1576
 9320SOL     OW39421   2.041   3.044   2.722 -0.1575 -0.4225  0.6444
 9320SOL    HW139422   2.073   2.955   2.708  2.8115  0.8274 -0.6459
 9320SOL    HW239423   1.995   3.032   2.805 -1.3224 -0.2897  0.0153
 9321SOL     OW39424   1.804   4.591  14.110 -0.2893  0.1504  0.7389
 9321SOL    HW139425   1.890   4.576  14.150 -0.0978  1.0490  0.6680
 9321SOL    HW239426   1.832   4.639  14.032 -0.3347 -0.0931  0.5729
 9322SOL     OW39427   2.100   3.369  13.601  0.2038  0.1597 -0.0670
 9322SOL    HW139428   2.180   3.359  13.549  1.1830 -1.1416  1.6943
 9322SOL    HW239429   2.110   3.318  13.682 -0.3377 -1.1697 -0.8416
 9323SOL     OW39430   1.269   3.526  10.837 -0.7325 -0.0964 -0.0880
 9323SOL    HW139431   1.215   3.448  10.849 -0.8572  0.0962  0.6129
 9323SOL    HW239432   1.322   3.523  10.917 -0.3918  0.9865 -0.2644
 9324SOL     OW39433   3.818   3.812   4.466  0.0615  0.6603 -0.1916
 9324SOL    HW139434   3.901   3.819   4.514  0.4118 -1.4561 -0.4923
 9324SOL    HW239435   3.778   3.743   4.519  2.3821 -0.6455 -0.1453
 9325SOL     OW39436   2.738   3.964  12.120  0.1336  0.3513 -0.3435
 9325SOL    HW139437   2.707   3.895  12.062  0.3400  0.0520 -0.0950
 9325SOL    HW239438   2.794   4.011  12.058 -0.7884 -0.0787 -1.4947
 9326SOL     OW39439   2.253   0.175   3.225  0.1410 -0.0980 -0.7528
 9326SOL    HW139440   2.198   0.101   3.201  2.1532 -2.5565  2.3019
 9326SOL    HW239441   2.320   0.137   3.282 -1.2366 -2.9941 -1.1040
 9327SOL     OW39442   3.430   2.507  11.982 -0.5032  0.0627  0.2186
 9327SOL    HW139443   3.433   2.448  11.907 -1.1269 -0.8876  0.9391
 9327SOL    HW239444   3.348   2.556  11.968  0.9321  2.6586  0.8854
 9328SOL     OW39445   3.768   0.008   7.627  0.2597  0.3299 -0.2672
 9328SOL    HW139446   3.792   0.056   7.547  2.0249 -0.2552 -0.1013
 9328SOL    HW239447   3.854   4.698   7.654 -0.2766 -0.6753  0.1502
 9329SOL     OW39448   1.226   1.102   5.896 -0.1321  0.0903  0.2642
 9329SOL    HW139449   1.236   1.192   5.866  2.8530 -1.0441 -2.2574
 9329SOL    HW239450   1.255   1.061   5.814 -0.2252  0.4434  0.0584
 9330SOL     OW39451   4.637   1.687   2.251  0.3049 -0.3699 -0.3875
 9330SOL    HW139452   4.642   1.663   2.344  0.9133 -0.7093 -0.5090
 9330SOL    HW239453   4.703   1.757   2.253 -1.4544  1.2505  0.2106
 9331SOL     OW39454   2.987   0.186  15.652 -0.2531  0.1470  0.0126
 9331SOL    HW139455   2.949   0.243  15.584 -0.9791 -1.1677 -0.6901
 9331SOL    HW239456   2.925   0.204  15.723 -0.6216  1.5664 -0.6666
 9332SOL     OW39457   3.258   2.734  15.728  0.0013 -0.4121 -0.1082
 9332SOL    HW139458   3.188   2.787  15.691 -0.9648 -1.1196  0.7498
 9332SOL    HW239459   3.307   2.803  15.772  0.9916 -1.2898  0.1948
 9333SOL     OW39460   4.571   4.489   9.018  0.2074  0.1109 -0.2847
 9333SOL    HW139461   4.641   4.453   9.072  0.4821  0.9448 -0.0746
 9333SOL    HW239462   4.605   4.479   8.929 -0.4104  2.5200 -0.7999
 9334SOL     OW39463   2.485   4.421   7.601 -0.7827 -0.1496  0.0476
 9334SOL    HW139464   2.539   4.430   7.522 -0.1654  0.0685  0.4974
 9334SOL    HW239465   2.547   4.420   7.674  1.5957  1.8517 -1.9396
 9335SOL     OW39466   2.238   4.241   8.027 -0.0273 -0.6032  0.0004
 9335SOL    HW139467   2.256   4.181   8.100  0.4207  1.0717  1.2802
 9335SOL    HW239468   2.171   4.195   7.977  1.8665 -1.5749 -1.6316
 9336SOL     OW39469   3.091   2.111   2.993  0.3313 -0.1473  0.3708
 9336SOL    HW139470   3.137   2.062   3.061  1.9455  1.0920  0.1564
 9336SOL    HW239471   3.168   2.137   2.942  0.1824  2.1512  1.3501
 9337SOL     OW39472   2.643   0.691   2.909  0.1187 -0.5980  0.5548
 9337SOL    HW139473   2.559   0.676   2.864 -0.1481  2.2170  0.1541
 9337SOL    HW239474   2.655   0.782   2.884  0.6703 -1.4115 -2.1256
 9338SOL     OW39475   3.467   2.632   3.869 -0.2421  0.2956  0.1525
 9338SOL    HW139476   3.475   2.650   3.775  0.5550 -0.2607  0.1131
 9338SOL    HW239477   3.522   2.706   3.896  0.3769  0.1686 -0.7262
 9339SOL     OW39478   0.912   0.480   2.130  0.5849  0.2757  0.1108
 9339SOL    HW139479   0.956   0.479   2.215  0.5817 -0.6595  0.0995
 9339SOL    HW239480   0.918   0.389   2.103  2.0713  0.0682  1.1753
 9340SOL     OW39481   2.768   1.755   5.362 -0.5831  0.2810  0.1389
 9340SOL    HW139482   2.787   1.693   5.432 -2.2460 -0.5064 -0.1008
 9340SOL    HW239483   2.830   1.723   5.296 -1.8653  0.8594 -1.3641
 9341SOL     OW39484   2.811   2.043   8.863 -0.0973 -0.2369  0.8320
 9341SOL    HW139485   2.858   2.125   8.880  1.1285 -1.4057  3.0507
 9341SOL    HW239486   2.862   1.984   8.918  0.6082  2.0927  2.6914
 9342SOL     OW39487   3.244   0.546   5.140  0.0590  0.1488 -0.2250
 9342SOL    HW139488   3.292   0.535   5.222 -1.3298 -0.6421  0.4706
 9342SOL    HW239489   3.300   0.495   5.082 -2.0339 -1.0991 -1.1360
 9343SOL     OW39490   0.414   1.059   9.275 -0.1156 -0.0420 -0.1486
 9343SOL    HW139491   0.492   1.028   9.321 -0.2151 -0.5207 -0.2988
 9343SOL    HW239492   0.450   1.130   9.222  0.3910  0.4162  0.8153
 9344SOL     OW39493   2.697   3.715   3.993  0.4846 -0.1622  0.3159
 9344SOL    HW139494   2.604   3.740   3.998  0.2201 -0.7928 -1.3270
 9344SOL    HW239495   2.696   3.620   4.007  0.9240 -0.6077 -2.6700
 9345SOL     OW39496   4.146   1.460  15.291  0.2265  0.3540  0.1990
 9345SOL    HW139497   4.143   1.372  15.253  0.4102  0.9631 -1.2122
 9345SOL    HW239498   4.099   1.452  15.375  0.3032  0.4546  0.2519
 9346SOL     OW39499   0.652   0.352   0.940  0.0089  0.3333  0.5551
 9346SOL    HW139500   0.691   0.289   1.000  3.5978  1.5345 -0.4772
 9346SOL    HW239501   0.652   0.300   0.860  2.1436  2.1720 -0.6359
 9347SOL     OW39502   3.470   0.410   0.961  0.0006 -0.2578  0.2899
 9347SOL    HW139503   3.463   0.412   0.865  0.7172 -0.5152  0.2294
 9347SOL    HW239504   3.432   0.324   0.976  0.5543 -0.7490 -1.1069
 9348SOL     OW39505   1.938   3.509  13.248  0.5009  0.1377 -0.3243
 9348SOL    HW139506   2.029   3.477  13.253  0.2474 -0.7153 -0.9897
 9348SOL    HW239507   1.932   3.568  13.173  0.5585 -1.6616 -1.7759
 9349SOL     OW39508   2.704   3.285   1.983 -0.0728 -0.0921  0.0720
 9349SOL    HW139509   2.733   3.369   1.948 -1.9575  1.3522  1.9872
 9349SOL    HW239510   2.672   3.232   1.910 -2.6149  2.4033 -0.6295
 9350SOL     OW39511   2.336   2.246  12.518  0.4021  0.1780  0.1043
 9350SOL    HW139512   2.334   2.230  12.612 -1.6473 -0.4501 -0.0395
 9350SOL    HW239513   2.279   2.321  12.503  2.2484  2.0037  2.2656
 9351SOL     OW39514   2.611   2.034   1.518 -0.1692 -0.5825 -0.0648
 9351SOL    HW139515   2.561   1.978   1.458 -1.1380  0.6145 -0.3684
 9351SOL    HW239516   2.542   2.041   1.583 -0.1960  0.0220 -0.1541
 9352SOL     OW39517   0.763   0.558   7.714 -0.0718 -0.4176  0.4022
 9352SOL    HW139518   0.754   0.603   7.798 -0.8157 -1.7198  1.0149
 9352SOL    HW239519   0.751   0.633   7.656  0.2027 -1.5912 -1.1847
 9353SOL     OW39520   4.688   3.147   9.178  0.5813 -0.0797 -0.1659
 9353SOL    HW139521   4.644   3.157   9.262 -1.5466 -0.2391 -1.2682
 9353SOL    HW239522   0.018   3.070   9.195  0.8288  0.3806  1.1462
 9354SOL     OW39523   2.583   3.907   0.730  0.2361  0.1079 -0.5964
 9354SOL    HW139524   2.567   3.905   0.636  0.7967  1.7414 -0.7184
 9354SOL    HW239525   2.664   3.856   0.736 -0.2913 -0.7193 -0.5261
 9355SOL     OW39526   2.657   1.418   7.119 -0.7482 -0.0765  1.2356
 9355SOL    HW139527   2.592   1.485   7.137 -0.0894  1.4258 -1.8812
 9355SOL    HW239528   2.738   1.468   7.106 -1.5791  1.6906  2.9768
 9356SOL     OW39529   4.186   1.745   1.783 -0.0113  0.7811 -0.7319
 9356SOL    HW139530   4.252   1.772   1.848  0.3033  0.0097 -0.7288
 9356SOL    HW239531   4.108   1.755   1.837 -0.0560 -0.6093 -0.5344
 9357SOL     OW39532   4.251   1.231  17.287  0.5328 -0.8155  0.2106
 9357SOL    HW139533   4.240   1.238  17.192 -0.2917  2.2082  0.5276
 9357SOL    HW239534   4.274   1.138  17.279  1.3909 -0.4698 -1.3110
 9358SOL     OW39535   4.629   4.696   1.094 -0.1617  0.0616 -0.3905
 9358SOL    HW139536   4.555   4.655   1.140 -0.2050  0.7443  0.1532
 9358SOL    HW239537   4.636   4.633   1.022  0.7054 -0.0281 -0.2269
 9359SOL     OW39538   1.468   2.824   8.561 -0.5252 -0.2451  0.7086
 9359SOL    HW139539   1.432   2.849   8.645 -0.1487  0.5805  0.6240
 9359SOL    HW239540   1.510   2.743   8.590  0.2366 -0.2749 -0.4708
 9360SOL     OW39541   3.905   2.588  11.733  0.1469 -0.4034  0.4479
 9360SOL    HW139542   3.824   2.564  11.778 -1.2253 -0.2165 -1.8749
 9360SOL    HW239543   3.907   2.681  11.755  0.9282 -0.0235 -1.2147
 9361SOL     OW39544   4.254   4.297  14.114 -0.3127 -0.4901 -0.0409
 9361SOL    HW139545   4.330   4.331  14.161 -1.3544  0.0656  1.2469
 9361SOL    HW239546   4.247   4.207  14.145  0.1607 -1.0122 -1.4687
 9362SOL     OW39547   0.190   2.268   7.192 -0.0151  0.2054  0.0368
 9362SOL    HW139548   0.144   2.334   7.141  0.4172 -0.5742 -1.3731
 9362SOL    HW239549   0.129   2.267   7.266  1.8763 -1.0560  1.5967
 9363SOL     OW39550   2.526   4.486   3.538 -0.1988 -0.1322  0.1999
 9363SOL    HW139551   2.487   4.518   3.456 -1.7403 -1.4877  0.3919
 9363SOL    HW239552   2.507   4.392   3.542  0.7295 -0.3473 -0.4656
 9364SOL     OW39553   3.809   4.004  15.499  0.7641  0.0145  0.4746
 9364SOL    HW139554   3.883   4.064  15.493  1.5375 -1.0583 -0.8984
 9364SOL    HW239555   3.764   4.045  15.572  3.2260 -1.2723  2.6941
 9365SOL     OW39556   0.042   1.874  12.761 -0.1691  0.3166  0.2933
 9365SOL    HW139557   4.700   1.856  12.695 -0.6369 -0.3063  0.9392
 9365SOL    HW239558   0.049   1.969  12.747  0.6287  0.6932  3.3065
 9366SOL     OW39559   3.068   3.158   1.843  0.4401  0.3937 -0.2405
 9366SOL    HW139560   3.054   3.251   1.823  0.1955  0.1805 -1.0436
 9366SOL    HW239561   3.163   3.151   1.837  0.3178 -0.7219 -0.8550
 9367SOL     OW39562   2.516   2.410  15.364 -0.1774 -0.1572  0.2547
 9367SOL    HW139563   2.527   2.318  15.340  1.5937  0.2964 -0.6357
 9367SOL    HW239564   2.468   2.450  15.290  1.4469 -0.8267 -1.1631
 9368SOL     OW39565   4.683   4.655   5.785  0.0920  0.3545  0.0563
 9368SOL    HW139566   4.594   4.683   5.807  0.3012  0.4567  0.7436
 9368SOL    HW239567   4.714   0.000   5.727 -0.7182  0.8836  0.2633
 9369SOL     OW39568   3.367   2.617   2.398 -0.3202  0.1000 -0.1773
 9369SOL    HW139569   3.311   2.657   2.332 -0.4012 -0.9203 -0.7209
 9369SOL    HW239570   3.331   2.528   2.405 -0.5045  0.2715  0.9804
 9370SOL     OW39571   0.930   2.416   5.794 -0.4454 -0.3039  0.3630
 9370SOL    HW139572   0.918   2.399   5.887  0.4045  0.2815  0.5853
 9370SOL    HW239573   0.956   2.327   5.770 -1.1593 -0.6022  0.7160
 9371SOL     OW39574   0.853   1.934   8.619 -0.3017 -0.4025  0.3362
 9371SOL    HW139575   0.927   1.958   8.676  1.5424 -1.0496 -1.7911
 9371SOL    HW239576   0.800   1.881   8.678  1.0667 -2.7735 -0.5746
 9372SOL     OW39577   1.610   2.940   8.980 -0.1776 -0.1272 -0.5434
 9372SOL    HW139578   1.673   2.941   9.052 -1.0012 -0.9440  0.1829
 9372SOL    HW239579   1.670   2.952   8.906 -0.6660  0.2138 -0.8847
 9373SOL     OW39580   1.642   2.636   8.651  0.4078 -0.1930  0.0130
 9373SOL    HW139581   1.738   2.640   8.649  0.2855  2.8535 -0.1105
 9373SOL    HW239582   1.633   2.541   8.651 -0.1061 -0.1351 -0.9223
 9374SOL     OW39583   1.000   4.454   1.157  0.5284 -0.2085 -0.3786
 9374SOL    HW139584   1.082   4.431   1.115  2.8219  2.9301  2.4177
 9374SOL    HW239585   0.993   4.394   1.231 -0.3502  1.1570  0.6572
 9375SOL     OW39586   0.602   3.279  16.577  0.2256 -0.2082 -0.1312
 9375SOL    HW139587   0.617   3.373  16.587  1.6978 -0.4527 -0.0746
 9375SOL    HW239588   0.575   3.273  16.486 -0.0997 -0.7806  0.0051
 9376SOL     OW39589   0.463   1.638   2.706  0.4815 -0.0047 -0.3286
 9376SOL    HW139590   0.399   1.708   2.692 -0.5834 -0.6535  1.3121
 9376SOL    HW239591   0.490   1.646   2.797  0.3624  1.5721 -0.4192
 9377SOL     OW39592   1.656   2.486   4.783 -0.5941  0.2438  0.4782
 9377SOL    HW139593   1.647   2.428   4.707 -0.0082  1.3579 -0.4335
 9377SOL    HW239594   1.616   2.433   4.853  0.8262 -0.5644  0.6777
 9378SOL     OW39595   2.353   1.024  10.367  0.7491 -0.2368 -0.1136
 9378SOL    HW139596   2.358   1.019  10.462 -1.2665 -1.1300 -0.0435
 9378SOL    HW239597   2.290   1.096  10.360  0.2402 -0.5678  1.0430
 9379SOL     OW39598   1.674   1.337   8.455  0.3961  0.3331 -0.4656
 9379SOL    HW139599   1.579   1.333   8.469  0.8741 -0.5141  2.5719
 9379SOL    HW239600   1.673   1.332   8.359  1.2856  1.0665 -0.5049
 9380SOL     OW39601   3.503   2.633   2.620 -0.1668  0.6347 -0.4401
 9380SOL    HW139602   3.448   2.636   2.541 -1.5453  0.2548  0.5045
 9380SOL    HW239603   3.586   2.644   2.574 -0.1221 -0.0921 -0.5448
 9381SOL     OW39604   1.467   1.860   5.822 -0.0909  0.6299 -0.3854
 9381SOL    HW139605   1.426   1.804   5.888  1.1835 -2.4631 -2.1910
 9381SOL    HW239606   1.408   1.935   5.818  0.7218  1.2874  0.0939
 9382SOL     OW39607   1.389   0.789   3.560  0.4001 -0.3067  0.5682
 9382SOL    HW139608   1.329   0.829   3.498  0.9277 -0.4982 -0.0627
 9382SOL    HW239609   1.470   0.798   3.509 -1.0825  1.8330 -1.3775
 9383SOL     OW39610   3.506   2.436   2.963  0.2950  0.2532 -0.6969
 9383SOL    HW139611   3.571   2.504   2.941  2.1190 -0.7266  1.6868
 9383SOL    HW239612   3.512   2.444   3.058  3.0993 -2.5646 -0.6431
 9384SOL     OW39613   2.888   4.522  10.427 -0.4361  0.6920 -0.0584
 9384SOL    HW139614   2.964   4.468  10.403 -0.6653  0.5393 -0.4542
 9384SOL    HW239615   2.933   4.582  10.486 -1.2295  0.8359  0.4083
 9385SOL     OW39616   4.563   0.658   8.471 -0.5389  0.3681 -0.4790
 9385SOL    HW139617   4.543   0.566   8.490  1.3965  0.5393  2.4540
 9385SOL    HW239618   4.611   0.654   8.389 -2.2282  2.4110 -1.5646
 9386SOL     OW39619   3.454   1.906  16.179 -0.6315  0.2891 -0.4560
 9386SOL    HW139620   3.444   1.972  16.247  0.3201  0.7431 -0.7519
 9386SOL    HW239621   3.514   1.841  16.215 -0.7217  0.7955  0.5792
 9387SOL     OW39622   4.104   2.646   7.027 -0.6554 -0.1697 -0.5803
 9387SOL    HW139623   4.190   2.647   7.070  0.0186  1.0595 -1.9429
 9387SOL    HW239624   4.113   2.717   6.964  3.0268 -0.1283 -0.0342
 9388SOL     OW39625   2.102   1.331  12.872 -0.1485  0.4544 -0.3339
 9388SOL    HW139626   2.193   1.325  12.903  0.0076 -3.8355 -1.6069
 9388SOL    HW239627   2.109   1.380  12.791  1.1432  0.1671 -0.3928
 9389SOL     OW39628   3.107   4.016  16.535  0.1010  0.4297  0.3707
 9389SOL    HW139629   3.022   3.980  16.509 -0.4600  2.1319 -0.1182
 9389SOL    HW239630   3.089   4.085  16.598  1.0116  0.4212  0.6427
 9390SOL     OW39631   2.443   3.237   3.806  0.5134 -0.5679 -0.1793
 9390SOL    HW139632   2.470   3.325   3.783  0.7308 -0.2478  1.2763
 9390SOL    HW239633   2.348   3.244   3.818  0.6934  0.9980  0.3116
 9391SOL     OW39634   3.437   1.402  15.041 -0.1282 -0.4021 -0.5320
 9391SOL    HW139635   3.373   1.336  15.065  0.6209  0.0215  2.6348
 9391SOL    HW239636   3.448   1.389  14.947 -0.3894 -0.5917 -0.5351
 9392SOL     OW39637   2.644   2.103   3.739  0.1391  0.2362 -0.3879
 9392SOL    HW139638   2.595   2.135   3.815 -0.8334  0.6042 -1.1782
 9392SOL    HW239639   2.735   2.100   3.769 -0.1833  0.5798  0.6183
 9393SOL     OW39640   1.117   3.091   8.556 -0.2358 -0.1204 -0.1339
 9393SOL    HW139641   1.067   3.163   8.519 -0.3003  0.5667  1.2780
 9393SOL    HW239642   1.083   3.009   8.522  0.0921  0.0576 -0.9009
 9394SOL     OW39643   0.410   0.523   1.903  0.0172  0.2224 -0.0577
 9394SOL    HW139644   0.426   0.433   1.876 -1.7889 -0.3276  0.7231
 9394SOL    HW239645   0.494   0.569   1.899 -0.1941  0.4894 -1.5026
 9395SOL     OW39646   1.192   2.525   3.011 -0.0845 -0.1651  0.0730
 9395SOL    HW139647   1.236   2.560   2.934  0.5169 -2.6409 -0.7074
 9395SOL    HW239648   1.160   2.607   3.049 -1.2238 -0.6625  0.2068
 9396SOL     OW39649   0.823   0.427  14.340  0.3035  0.1982 -0.3581
 9396SOL    HW139650   0.830   0.339  14.303 -1.3526  0.5597 -1.5478
 9396SOL    HW239651   0.869   0.476  14.271 -0.8643 -1.3743 -2.2412
 9397SOL     OW39652   3.041   3.863   2.640 -0.0545  0.2130 -0.0981
 9397SOL    HW139653   3.121   3.811   2.653 -0.4304 -0.2031  0.5848
 9397SOL    HW239654   2.977   3.801   2.604 -0.0737 -0.1973  0.6331
 9398SOL     OW39655   4.559   1.897   2.877  0.5384  0.0404 -0.0814
 9398SOL    HW139656   4.489   1.846   2.918 -0.0760  0.6602 -0.3713
 9398SOL    HW239657   4.549   1.881   2.783 -1.5203 -1.3019  0.3687
 9399SOL     OW39658   3.079   4.326   5.330  0.1315 -0.5781  0.4342
 9399SOL    HW139659   2.984   4.322   5.333 -0.0717  2.3034 -1.9712
 9399SOL    HW239660   3.087   4.421   5.333 -0.0340 -0.5871  1.4155
 9400SOL     OW39661   4.249   3.387   3.696  0.1425  0.0174 -0.0173
 9400SOL    HW139662   4.173   3.416   3.646  0.0198  0.7273  0.5863
 9400SOL    HW239663   4.314   3.445   3.656  0.9490 -3.1818 -3.3494
 9401SOL     OW39664   1.831   3.988  15.234 -0.4446 -0.8730 -0.6777
 9401SOL    HW139665   1.924   3.966  15.229 -0.1979  0.2793 -1.1358
 9401SOL    HW239666   1.806   3.968  15.324  1.4956 -0.7010 -0.0814
 9402SOL     OW39667   4.657   3.048   7.596 -0.3665 -0.6661 -0.0502
 9402SOL    HW139668   4.624   3.106   7.665  1.2769  0.4851 -0.2370
 9402SOL    HW239669   0.024   3.063   7.576  0.0242 -0.0965  2.2476
 9403SOL     OW39670   1.940   1.447   5.010 -0.4695 -0.3292  0.3207
 9403SOL    HW139671   1.856   1.422   4.971 -0.2368 -1.3066  0.4714
 9403SOL    HW239672   1.962   1.359   5.039 -1.1372 -0.0369  1.6917
 9404SOL     OW39673   2.843   0.067   5.060  0.0522 -0.2582 -0.6461
 9404SOL    HW139674   2.837   0.110   5.145 -0.3950 -0.8014 -0.4013
 9404SOL    HW239675   2.906   0.002   5.092  0.6090  0.5497 -0.1113
 9405SOL     OW39676   3.679   2.698   7.343  0.2445  0.0760  0.7921
 9405SOL    HW139677   3.695   2.778   7.394  1.0453  0.5523 -0.2032
 9405SOL    HW239678   3.743   2.700   7.272 -1.5606  3.3371 -0.7576
 9406SOL     OW39679   0.199   2.326   3.838  0.2090 -0.1502  0.5269
 9406SOL    HW139680   0.251   2.360   3.910  2.6058  0.4532 -1.4829
 9406SOL    HW239681   0.264   2.310   3.770  1.5642 -0.1407  1.8190
 9407SOL     OW39682   0.743   2.787   6.485 -0.0091  0.3874  0.4101
 9407SOL    HW139683   0.678   2.770   6.417 -0.1781  0.3804  0.5699
 9407SOL    HW239684   0.816   2.832   6.444  0.9053 -0.1741  1.4167
 9408SOL     OW39685   0.254   0.643   9.072  0.3446  0.1952  0.0346
 9408SOL    HW139686   0.235   0.732   9.043 -0.6320  0.0729  0.3120
 9408SOL    HW239687   0.230   0.647   9.164  2.9513 -0.0674  0.7453
 9409SOL     OW39688   1.962   1.879   2.337 -0.6008 -0.0524 -0.2875
 9409SOL    HW139689   1.987   1.971   2.345 -2.8335  0.3578  1.7883
 9409SOL    HW239690   2.038   1.833   2.301 -0.3084  2.0814 -2.4382
 9410SOL     OW39691   0.834   2.207  13.228 -0.1633  0.0125  0.2408
 9410SOL    HW139692   0.891   2.255  13.288 -0.2229  0.4844 -0.0770
 9410SOL    HW239693   0.747   2.245  13.239 -0.9237 -0.9017 -2.7887
 9411SOL     OW39694   3.997   2.060  12.066 -0.4582  0.1825  0.0413
 9411SOL    HW139695   4.034   2.089  11.983  0.4770  0.5327  0.5768
 9411SOL    HW239696   4.062   2.083  12.132  0.0399 -4.1864  1.0880
 9412SOL     OW39697   2.380   4.349   1.881  0.5609 -0.1961 -0.5067
 9412SOL    HW139698   2.388   4.260   1.849  2.5505 -0.6623  1.2650
 9412SOL    HW239699   2.471   4.380   1.883  0.3118  0.6290 -2.2834
 9413SOL     OW39700   0.997   2.258  14.299  0.2203  0.2570  0.2724
 9413SOL    HW139701   0.987   2.188  14.363 -0.7990  0.0807 -0.0882
 9413SOL    HW239702   1.086   2.233  14.273  0.7616  3.4771 -1.0486
 9414SOL     OW39703   4.560   4.032   5.985 -0.2307 -0.1437  0.2553
 9414SOL    HW139704   4.618   4.106   6.007  0.2519 -0.7045  0.8462
 9414SOL    HW239705   4.485   4.064   5.934 -1.3793  0.6495  2.4509
 9415SOL     OW39706   4.017   1.741   1.992  0.3497 -0.3046 -0.5147
 9415SOL    HW139707   4.072   1.785   2.056 -1.4195  1.0576  0.0687
 9415SOL    HW239708   4.035   1.648   1.998  0.2668 -0.1450  1.9885
 9416SOL     OW39709   1.381   0.743   9.303  0.8518 -0.0946  0.5330
 9416SOL    HW139710   1.452   0.709   9.358  0.4417 -0.8754  0.5814
 9416SOL    HW239711   1.308   0.706   9.352  0.6472 -2.0114 -1.1913
 9417SOL     OW39712   2.336   4.451   0.616  0.3090  0.1491 -0.0925
 9417SOL    HW139713   2.280   4.455   0.694  1.5190  1.5291  0.7007
 9417SOL    HW239714   2.360   4.543   0.609 -2.0032  0.6475 -1.5229
 9418SOL     OW39715   3.999   0.126   0.057 -0.1190  0.0457  0.0838
 9418SOL    HW139716   4.043   0.071   0.122 -0.4657 -0.6240 -0.2509
 9418SOL    HW239717   4.073   0.169   0.015  0.0699 -0.9595 -0.6308
 9419SOL     OW39718   1.637   1.676   7.123 -0.3637  0.3148  0.4105
 9419SOL    HW139719   1.551   1.699   7.161 -1.2884  1.0446 -2.1527
 9419SOL    HW239720   1.684   1.689   7.206 -0.5999  0.8751  0.4557
 9420SOL     OW39721   3.739   4.397   3.983  0.5093 -0.3103 -0.2457
 9420SOL    HW139722   3.832   4.381   3.967  0.9094  1.8275 -0.0765
 9420SOL    HW239723   3.700   4.364   3.902 -1.0274  0.0461  0.3503
 9421SOL     OW39724   2.754   3.249   9.595 -0.2857 -0.0061  0.2146
 9421SOL    HW139725   2.721   3.339   9.604 -2.8051 -0.9686  0.2547
 9421SOL    HW239726   2.847   3.274   9.597  0.1249 -1.5283  0.2405
 9422SOL     OW39727   2.506   3.326   5.052 -0.7648 -0.2898 -0.1118
 9422SOL    HW139728   2.504   3.250   4.994  0.2006 -0.2169 -0.2484
 9422SOL    HW239729   2.507   3.273   5.132  0.2229  2.8713  1.9892
 9423SOL     OW39730   0.776   2.068   6.065  0.1464 -0.1971  0.6496
 9423SOL    HW139731   0.732   2.132   6.121 -0.4152  0.7735 -0.9000
 9423SOL    HW239732   0.845   2.127   6.036 -0.1111 -0.6226 -0.7934
 9424SOL     OW39733   1.698   1.390   5.664  0.2790  0.0425 -0.3767
 9424SOL    HW139734   1.719   1.456   5.598 -2.8855  0.0070 -1.4179
 9424SOL    HW239735   1.769   1.329   5.645  0.6904  1.3173 -2.9044
 9425SOL     OW39736   0.161   2.156   5.277  0.4008 -0.0722 -0.1729
 9425SOL    HW139737   0.101   2.090   5.311 -1.2229  2.2934  1.5559
 9425SOL    HW239738   0.216   2.099   5.224  1.1054 -0.9509  1.5042
 9426SOL     OW39739   1.050   1.097   4.920  0.1021 -0.3304 -0.2721
 9426SOL    HW139740   0.958   1.097   4.949 -0.0336 -0.8304 -0.7077
 9426SOL    HW239741   1.094   1.074   5.001  1.4322  1.6110 -0.4595
 9427SOL     OW39742   2.447   4.565   9.314  0.1423 -0.3912 -0.2361
 9427SOL    HW139743   2.500   4.618   9.373  1.6179 -3.1646  0.8904
 9427SOL    HW239744   2.392   4.508   9.366 -3.6323  1.3429 -2.2849
 9428SOL     OW39745   2.112   1.316   5.652 -0.4224 -0.0322 -0.6620
 9428SOL    HW139746   2.026   1.275   5.646 -1.8282  2.7955  0.0525
 9428SOL    HW239747   2.120   1.314   5.747  1.9489  0.3198 -0.8383
 9429SOL     OW39748   0.752   4.195   4.757 -0.0212  0.1070 -0.1260
 9429SOL    HW139749   0.835   4.186   4.805 -2.2413 -1.8624  3.4072
 9429SOL    HW239750   0.696   4.251   4.811  1.2088  1.9687 -0.7838
 9430SOL     OW39751   3.167   0.789   9.689  0.7238 -0.1817 -0.4667
 9430SOL    HW139752   3.121   0.808   9.607 -0.9726  2.8287  1.1839
 9430SOL    HW239753   3.172   0.868   9.743 -1.4555 -0.6878  0.5112
 9431SOL     OW39754   1.256   1.686   3.474  0.0260 -0.0036 -0.1877
 9431SOL    HW139755   1.204   1.730   3.542  3.3503  2.1017  0.9771
 9431SOL    HW239756   1.317   1.753   3.443  1.5451 -0.9692  0.7363
 9432SOL     OW39757   0.798   4.609   2.033  0.1316 -0.7750 -0.4240
 9432SOL    HW139758   0.860   4.548   2.073 -0.2196 -1.0298 -0.2626
 9432SOL    HW239759   0.792   4.571   1.946  1.5253  0.6194 -1.1111
 9433SOL     OW39760   4.474   0.374   4.211 -0.3369 -0.1888  0.0081
 9433SOL    HW139761   4.489   0.453   4.160 -1.2079 -1.0038 -1.5101
 9433SOL    HW239762   4.474   0.299   4.151 -1.8966  0.6527 -1.0377
 9434SOL     OW39763   2.396   3.955  12.125 -0.3685  0.4324 -0.1579
 9434SOL    HW139764   2.326   4.013  12.095  0.5777  1.4504 -0.4163
 9434SOL    HW239765   2.419   3.999  12.207 -1.0221  1.0095 -0.2762
 9435SOL     OW39766   1.429   1.257   7.283  0.1118  0.2416  0.1947
 9435SOL    HW139767   1.360   1.190   7.283  0.2450  0.1029  0.2144
 9435SOL    HW239768   1.464   1.245   7.195 -0.5235 -1.4331  0.1679
 9436SOL     OW39769   1.296   1.901   4.927  0.3893 -0.0047 -0.3620
 9436SOL    HW139770   1.387   1.919   4.952  0.9302 -1.7934 -0.9928
 9436SOL    HW239771   1.300   1.863   4.839 -1.2983  3.4260 -1.8826
 9437SOL     OW39772   2.286   3.312   2.309 -0.1035 -0.1589 -0.3509
 9437SOL    HW139773   2.295   3.241   2.372  1.5366  1.5411  1.3113
 9437SOL    HW239774   2.345   3.279   2.241  0.7273 -2.4081  1.4819
 9438SOL     OW39775   4.401   1.594  15.167 -0.4067  0.7681  0.3788
 9438SOL    HW139776   4.447   1.514  15.144  0.3763  1.8871 -1.8837
 9438SOL    HW239777   4.334   1.560  15.227 -0.2338  1.0947  0.7622
 9439SOL     OW39778   0.263   2.245   1.597 -0.2748 -0.0898 -0.8613
 9439SOL    HW139779   0.337   2.293   1.634 -2.6438  0.5448  3.0685
 9439SOL    HW239780   0.283   2.247   1.503 -2.6330 -0.8132 -1.3802
 9440SOL     OW39781   2.999   3.572   5.608 -0.3033  0.0056 -0.3872
 9440SOL    HW139782   2.985   3.569   5.703  2.7930  1.8817  0.1186
 9440SOL    HW239783   2.962   3.656   5.582  1.7393  1.8211  2.6843
 9441SOL     OW39784   1.548   4.546   3.588  0.1508 -0.8574  0.7811
 9441SOL    HW139785   1.642   4.554   3.601 -0.0188  0.2804  1.2767
 9441SOL    HW239786   1.525   4.639   3.590 -0.5228 -0.9806 -1.0164
 9442SOL     OW39787   1.814   3.225   2.507  0.2166 -0.0889 -0.3971
 9442SOL    HW139788   1.896   3.243   2.553 -0.2127  2.8502 -0.7870
 9442SOL    HW239789   1.848   3.274   2.432 -0.8825  1.2952  0.0005
 9443SOL     OW39790   1.241   0.664   2.497  0.5352  0.1691  0.2721
 9443SOL    HW139791   1.303   0.711   2.553  1.7264 -3.4233  1.9266
 9443SOL    HW239792   1.292   0.587   2.471 -0.3386  0.0570 -1.1537
 9444SOL     OW39793   1.771   4.017   7.818 -0.2496 -0.2096  0.1014
 9444SOL    HW139794   1.790   4.006   7.911 -0.2190  2.2213  0.3933
 9444SOL    HW239795   1.822   3.943   7.787 -0.5290 -0.1432 -0.5244
 9445SOL     OW39796   0.279   2.086   8.596  0.0196  0.6177 -0.1667
 9445SOL    HW139797   0.350   2.112   8.538  0.1005  1.0305  0.1229
 9445SOL    HW239798   0.216   2.075   8.524 -0.9873 -0.5061  0.8667
 9446SOL     OW39799   0.258   3.458   0.593  0.2691 -0.1490  0.0281
 9446SOL    HW139800   0.177   3.479   0.640  0.8081 -1.1124  1.3675
 9446SOL    HW239801   0.262   3.364   0.606  2.1770  0.0688  1.0198
 9447SOL     OW39802   1.903   2.489  16.497 -0.1817  0.2359  0.0784
 9447SOL    HW139803   1.904   2.547  16.573 -0.7419  0.1959  0.1179
 9447SOL    HW239804   1.817   2.447  16.504  1.0463 -2.1188  0.8190
 9448SOL     OW39805   4.330   0.353   3.499 -0.1726 -0.1289  0.8266
 9448SOL    HW139806   4.348   0.322   3.410 -2.8266  1.3866 -0.2512
 9448SOL    HW239807   4.368   0.288   3.558  2.0431 -1.1866 -1.7515
 9449SOL     OW39808   3.244   3.669   9.523  0.2828  0.3374  0.0622
 9449SOL    HW139809   3.161   3.678   9.477 -0.8125  2.0009  2.4274
 9449SOL    HW239810   3.303   3.697   9.452 -0.2626 -0.9599 -0.9031
 9450SOL     OW39811   3.001   0.283  16.486  0.8589 -0.2921  0.5123
 9450SOL    HW139812   2.924   0.317  16.532  0.6964 -1.4031  1.0770
 9450SOL    HW239813   2.941   0.226  16.437  2.8574 -0.5263 -1.6247
 9451SOL     OW39814   3.072   3.354   6.184 -0.2284 -0.5520 -0.2120
 9451SOL    HW139815   3.160   3.372   6.150  0.2906 -3.5739 -0.4744
 9451SOL    HW239816   3.096   3.353   6.277  1.0647 -1.7330 -0.5552
 9452SOL     OW39817   3.964   4.352   1.758 -0.1203 -0.4362 -0.0723
 9452SOL    HW139818   4.040   4.404   1.731 -2.4219  2.7539 -0.4054
 9452SOL    HW239819   3.982   4.265   1.724  2.1869 -0.1033  0.3433
 9453SOL     OW39820   1.854   0.999   7.806  0.4057 -0.2769  0.1554
 9453SOL    HW139821   1.940   1.034   7.782 -1.2779  2.6122 -1.6476
 9453SOL    HW239822   1.810   1.077   7.839 -0.3052 -1.0952  1.1241
 9454SOL     OW39823   0.092   4.357   6.722  0.0732  0.2461  1.0385
 9454SOL    HW139824   0.084   4.451   6.740  4.0237  0.5002  1.3591
 9454SOL    HW239825   0.039   4.350   6.643  1.3140  0.3239  0.2035
 9455SOL     OW39826   0.197   4.371   6.112 -0.3667  0.4723 -0.1288
 9455SOL    HW139827   0.123   4.310   6.113  0.0998 -0.0811  2.4891
 9455SOL    HW239828   0.265   4.313   6.077 -0.0611 -0.8249  2.5580
 9456SOL     OW39829   2.543   1.657   3.158  0.0706  0.1067  0.0397
 9456SOL    HW139830   2.542   1.753   3.161  0.1084  0.1146 -0.1762
 9456SOL    HW239831   2.469   1.636   3.101  0.6554 -1.5562 -0.1007
 9457SOL     OW39832   2.184   4.297   0.831 -0.6919  0.7784  0.3640
 9457SOL    HW139833   2.207   4.211   0.796 -0.6869  0.3456  1.4214
 9457SOL    HW239834   2.184   4.286   0.926  0.1461 -0.9863  0.1581
 9458SOL     OW39835   4.355   2.116  12.772  0.1881 -0.2974  0.3467
 9458SOL    HW139836   4.374   2.043  12.713  0.7064  0.1509 -0.0580
 9458SOL    HW239837   4.264   2.100  12.795  0.2264  0.8028  1.2373
 9459SOL     OW39838   3.593   3.395   7.581  0.3023  0.6239 -0.0730
 9459SOL    HW139839   3.568   3.388   7.673 -0.8913 -3.1001 -0.6940
 9459SOL    HW239840   3.520   3.441   7.539 -0.8509  1.3254  2.7011
 9460SOL     OW39841   2.691   0.856  11.011 -0.1496  0.0726 -0.3943
 9460SOL    HW139842   2.784   0.840  11.023 -0.4241 -1.2886 -0.1178
 9460SOL    HW239843   2.697   0.942  10.969  1.0728  0.3181  0.2847
 9461SOL     OW39844   2.249   1.819   2.620  1.0044 -0.4457 -0.2760
 9461SOL    HW139845   2.257   1.815   2.715 -0.0708 -0.4185 -0.1914
 9461SOL    HW239846   2.188   1.891   2.602  0.2482 -0.6613  1.4789
 9462SOL     OW39847   1.969   4.493   1.127 -0.1156  0.1257  0.4960
 9462SOL    HW139848   2.032   4.561   1.104 -1.0126 -0.0652 -2.4701
 9462SOL    HW239849   2.026   4.416   1.132  0.7877  0.5944 -2.9067
 9463SOL     OW39850   4.140   1.852   7.617 -0.1576  0.3771 -0.5252
 9463SOL    HW139851   4.064   1.909   7.613 -1.6269 -1.5676 -0.0703
 9463SOL    HW239852   4.192   1.901   7.553 -0.1482  0.3725 -0.5211
 9464SOL     OW39853   0.958   2.110   0.911 -0.2695  0.1224 -0.5682
 9464SOL    HW139854   0.909   2.164   0.848 -2.2520 -0.0246  0.8634
 9464SOL    HW239855   1.044   2.139   0.881 -0.5274 -0.0350 -1.4729
 9465SOL     OW39856   4.671   3.035   3.621 -1.2268 -0.6276 -0.3742
 9465SOL    HW139857   0.030   3.011   3.582 -1.2929 -0.5637 -0.5533
 9465SOL    HW239858   4.693   3.109   3.678  2.8362 -2.5015  0.5013
 9466SOL     OW39859   3.572   2.114   5.853  0.1675  0.5312 -0.0900
 9466SOL    HW139860   3.641   2.180   5.847 -0.0358  0.7719  0.2312
 9466SOL    HW239861   3.529   2.151   5.930 -1.6309 -0.5543 -0.5738
 9467SOL     OW39862   2.842   2.462   6.283  0.3311 -0.6553  0.4540
 9467SOL    HW139863   2.872   2.552   6.295 -0.2507 -0.3312 -0.4607
 9467SOL    HW239864   2.874   2.436   6.196  1.3495 -0.7575  0.8652
 9468SOL     OW39865   2.414   4.085   1.794 -0.1325  0.0495  0.3014
 9468SOL    HW139866   2.432   4.020   1.726  0.2600 -0.0995  0.5459
 9468SOL    HW239867   2.503   4.085   1.829 -0.1227 -1.8043  0.2860
 9469SOL     OW39868   4.696   2.949   2.922  0.4582  0.0929  0.6904
 9469SOL    HW139869   4.677   3.028   2.872  1.0473 -0.9446 -1.1340
 9469SOL    HW239870   0.064   2.963   2.940  0.9820  1.3453 -3.0444
 9470SOL     OW39871   1.411   0.471   3.898 -0.2767 -0.0427 -0.0923
 9470SOL    HW139872   1.328   0.455   3.942 -0.4796 -0.0741 -0.4852
 9470SOL    HW239873   1.482   0.442   3.956 -0.2539  1.9980  0.9076
 9471SOL     OW39874   1.440   3.560  13.600  0.2825  0.4107 -0.1182
 9471SOL    HW139875   1.389   3.554  13.519 -1.8679 -1.4965  1.3657
 9471SOL    HW239876   1.500   3.485  13.599 -0.8374 -0.4817 -1.4484
 9472SOL     OW39877   0.029   3.716   9.303 -0.1227 -0.3758 -0.3188
 9472SOL    HW139878   0.118   3.681   9.302 -0.7599 -1.9755 -0.2651
 9472SOL    HW239879   0.023   3.769   9.224 -2.2935 -0.0470  0.0595
 9473SOL     OW39880   1.134   1.992   7.430 -0.4978 -0.0656 -0.5441
 9473SOL    HW139881   1.137   2.005   7.335 -2.9859 -2.7937 -0.9899
 9473SOL    HW239882   1.093   2.075   7.451  1.6501  0.6238  0.9513
 9474SOL     OW39883   0.057   0.731   2.743  0.1704 -0.1617  0.6553
 9474SOL    HW139884   0.084   0.743   2.652  0.0989 -1.9029  0.4207
 9474SOL    HW239885   4.688   0.748   2.740  0.3295  0.1810 -1.8835
 9475SOL     OW39886   2.868   1.629  14.317 -0.0909 -0.0786 -0.5940
 9475SOL    HW139887   2.920   1.709  14.323  0.3171 -0.2321 -2.2142
 9475SOL    HW239888   2.800   1.647  14.253 -1.4128 -3.3592 -0.1102
 9476SOL     OW39889   3.653   3.665  15.105 -0.2119  0.3626  0.1923
 9476SOL    HW139890   3.668   3.588  15.160  0.8098  2.2230  2.4896
 9476SOL    HW239891   3.679   3.611  15.029 -2.5651  1.0289 -1.0842
 9477SOL     OW39892   1.825   2.219   4.385  0.0292 -0.0911  0.0428
 9477SOL    HW139893   1.840   2.290   4.447 -2.2582  1.1284 -0.8262
 9477SOL    HW239894   1.904   2.245   4.337  0.5664  0.1179  1.0282
 9478SOL     OW39895   3.526   0.906   5.189 -0.0254  0.3881  0.0154
 9478SOL    HW139896   3.454   0.887   5.249 -0.5634  0.9880 -0.4394
 9478SOL    HW239897   3.584   0.832   5.208  0.4145  0.4775 -0.9875
 9479SOL     OW39898   2.879   1.117  15.156  0.5489  0.6635 -0.1354
 9479SOL    HW139899   2.911   1.202  15.126  0.8832  0.1656 -1.2050
 9479SOL    HW239900   2.949   1.054  15.139 -0.9827 -0.4459 -2.4445
 9480SOL     OW39901   1.251   4.095  16.074  0.0235  0.4364  0.2788
 9480SOL    HW139902   1.206   4.178  16.093  1.1452  1.2600 -0.7280
 9480SOL    HW239903   1.317   4.123  16.012 -0.1180  0.5067  0.1604
 9481SOL     OW39904   1.055   2.224   3.321  0.3558  0.4406  0.6667
 9481SOL    HW139905   0.985   2.207   3.385 -0.8370 -1.2780 -1.0966
 9481SOL    HW239906   1.130   2.189   3.369  0.3275  0.0617  0.4324
 9482SOL     OW39907   4.086   1.649  16.765 -0.2261  0.7795  0.3387
 9482SOL    HW139908   4.114   1.707  16.836  1.8124 -0.4508  0.5656
 9482SOL    HW239909   4.015   1.598  16.805  1.5048 -0.5251  1.7797
 9483SOL     OW39910   2.279   0.607   6.585  0.0336  0.0743  0.2207
 9483SOL    HW139911   2.287   0.688   6.534 -2.9565 -1.2410 -2.3546
 9483SOL    HW239912   2.296   0.655   6.666  0.7297 -1.3733  0.9378
 9484SOL     OW39913   2.760   0.203  15.777 -0.3665  0.2523 -0.5707
 9484SOL    HW139914   2.687   0.166  15.826 -0.5405  0.7434 -0.4591
 9484SOL    HW239915   2.712   0.244  15.705 -0.4795 -0.4373 -0.8834
 9485SOL     OW39916   3.462   3.638   7.552  0.1510 -0.2562 -0.2847
 9485SOL    HW139917   3.405   3.666   7.624  0.4584  0.7545 -0.4399
 9485SOL    HW239918   3.407   3.662   7.477  0.8555  1.2231 -0.3253
 9486SOL     OW39919   2.371   0.680  17.483 -0.0007  0.2393  1.0318
 9486SOL    HW139920   2.438   0.650  17.544 -1.1593  0.1349  2.2607
 9486SOL    HW239921   2.392   0.772  17.472 -2.2082  0.6582  0.3322
 9487SOL     OW39922   3.933   2.706  17.304  0.4477 -0.0571 -0.0917
 9487SOL    HW139923   3.966   2.784  17.261  0.2214 -0.5433 -1.1497
 9487SOL    HW239924   3.839   2.716  17.289  0.4391  1.1368  0.8035
 9488SOL     OW39925   0.303   1.892   2.267 -0.5072 -0.2065  0.4732
 9488SOL    HW139926   0.396   1.910   2.271 -1.0780  3.2585 -2.1649
 9488SOL    HW239927   0.260   1.936   2.340  0.1507 -0.5498  1.0662
 9489SOL     OW39928   0.622   3.171   9.839 -0.2804 -0.6936 -1.2619
 9489SOL    HW139929   0.651   3.117   9.913  2.2100  1.2501 -0.8386
 9489SOL    HW239930   0.557   3.226   9.883  2.0984  1.8020 -0.8703
 9490SOL     OW39931   0.824   2.726  16.605  0.1883  0.3796  0.4174
 9490SOL    HW139932   0.901   2.725  16.548 -0.1090 -1.4098  0.0666
 9490SOL    HW239933   0.844   2.800  16.663 -0.1253 -1.0888  2.3845
 9491SOL     OW39934   4.434   3.067   8.011  0.0891 -0.0356 -0.6144
 9491SOL    HW139935   4.517   3.040   7.972  0.7394  0.5681  0.3470
 9491SOL    HW239936   4.389   2.985   7.992  0.1004 -0.0723 -0.4769
 9492SOL     OW39937   1.925   0.015  12.376 -0.7726 -0.3698 -0.0551
 9492SOL    HW139938   1.956   4.703  12.293  0.8063 -1.3313  0.9450
 9492SOL    HW239939   1.980   0.094  12.378  0.6972 -1.4271  1.5234
 9493SOL     OW39940   2.604   3.599   8.772 -0.0026  0.0978 -0.3105
 9493SOL    HW139941   2.538   3.551   8.823  0.7120  0.9096  1.3930
 9493SOL    HW239942   2.656   3.620   8.849 -0.5574 -0.0962  0.1183
 9494SOL     OW39943   0.511   3.114   8.746 -0.3027 -0.0829  0.0816
 9494SOL    HW139944   0.446   3.062   8.794 -0.2279 -2.3235 -2.2529
 9494SOL    HW239945   0.544   3.162   8.822 -2.3544 -1.8865  2.1322
 9495SOL     OW39946   2.352   3.526   6.246  0.1516  0.0127  0.1737
 9495SOL    HW139947   2.301   3.481   6.179 -1.1735  1.3435  0.2805
 9495SOL    HW239948   2.295   3.509   6.321 -0.4259 -0.0515 -0.2783
 9496SOL     OW39949   1.166   0.873   5.384  0.1214  0.0326 -0.3166
 9496SOL    HW139950   1.090   0.893   5.438 -0.4364 -0.8150 -0.7941
 9496SOL    HW239951   1.134   0.790   5.349  1.2203 -0.0169 -1.2208
 9497SOL     OW39952   1.057   2.444   3.906 -0.0730  0.5836  0.4747
 9497SOL    HW139953   1.095   2.515   3.958 -0.8830  1.3701 -0.0139
 9497SOL    HW239954   1.130   2.381   3.909  0.2535  0.9470  0.2417
 9498SOL     OW39955   4.416   3.881  12.117 -0.3229  0.0098  0.4584
 9498SOL    HW139956   4.494   3.867  12.170  0.0752  0.5519  0.0226
 9498SOL    HW239957   4.454   3.872  12.030 -2.3219 -1.6569 -0.2341
 9499SOL     OW39958   2.056   1.201  10.742 -0.8725  0.1022  0.1338
 9499SOL    HW139959   2.032   1.117  10.702  3.0432 -0.4489 -1.1044
 9499SOL    HW239960   2.059   1.182  10.836  2.2828 -0.5870 -0.0775
 9500SOL     OW39961   1.276   0.459   8.099 -0.3287 -0.0108 -0.0904
 9500SOL    HW139962   1.292   0.540   8.050 -2.0977  2.0222  2.6854
 9500SOL    HW239963   1.181   0.446   8.097 -0.6159  1.9694  0.4893
 9501SOL     OW39964   1.144   0.006   4.200 -0.0811  0.0171  0.3551
 9501SOL    HW139965   1.166   0.032   4.289 -0.3824  1.1518  0.1057
 9501SOL    HW239966   1.201   4.657   4.181 -0.1670  0.3979 -1.3962
 9502SOL     OW39967   3.720   4.018   7.478 -0.5991  0.2804  0.4349
 9502SOL    HW139968   3.786   3.956   7.510  1.2646  1.1654 -1.6858
 9502SOL    HW239969   3.659   4.007   7.550 -1.5302 -1.1829 -0.5812
 9503SOL     OW39970   3.739   0.167   0.942 -0.1703 -0.4918  0.5214
 9503SOL    HW139971   3.777   0.159   1.030 -0.6776 -0.2875  0.7593
 9503SOL    HW239972   3.647   0.160   0.967 -0.4994  0.2087 -0.4804
 9504SOL     OW39973   2.499   4.259  12.957 -0.7308  0.3087 -0.1549
 9504SOL    HW139974   2.507   4.195  13.028  1.0970 -0.5656 -1.1569
 9504SOL    HW239975   2.405   4.251  12.943 -0.1647 -1.6688 -2.9398
 9505SOL     OW39976   1.755   3.772  10.667  0.2192 -0.1635  0.5073
 9505SOL    HW139977   1.687   3.803  10.727  0.0565  1.1129 -0.3173
 9505SOL    HW239978   1.722   3.684  10.652  1.8558 -0.9519  1.5569
 9506SOL     OW39979   3.421   4.625   8.949  0.0375 -0.5777  0.2473
 9506SOL    HW139980   3.419   4.704   9.004  1.9839 -0.3794  0.0376
 9506SOL    HW239981   3.326   4.616   8.944  0.1251 -1.2825 -0.1532
 9507SOL     OW39982   1.370   3.332   4.153 -0.2717 -0.2236  0.2477
 9507SOL    HW139983   1.315   3.381   4.092  3.8492  0.6998 -2.7276
 9507SOL    HW239984   1.435   3.401   4.165 -0.7861  0.2423  0.3559
 9508SOL     OW39985   1.439   1.746   6.245  1.0861 -0.3994  0.4553
 9508SOL    HW139986   1.413   1.670   6.194 -0.1543  0.7488 -0.6340
 9508SOL    HW239987   1.371   1.804   6.210 -0.3067 -1.1687  1.9212
 9509SOL     OW39988   2.870   3.831  14.554  0.2525 -0.4403 -0.2853
 9509SOL    HW139989   2.958   3.868  14.551 -0.9522  2.2991 -1.4832
 9509SOL    HW239990   2.878   3.769  14.482  1.8200  0.5828 -0.9853
 9510SOL     OW39991   3.801   4.686  17.660  0.4326 -0.5023  0.1632
 9510SOL    HW139992   3.835   0.042  17.698  0.8571 -0.5354 -0.1503
 9510SOL    HW239993   3.869   4.678  17.593 -0.6282 -0.6031 -0.8977
 9511SOL     OW39994   3.919   2.632   8.092 -0.3770 -0.4124 -0.0275
 9511SOL    HW139995   3.852   2.568   8.070 -1.4536  0.9274 -0.5858
 9511SOL    HW239996   3.880   2.717   8.073 -1.6382 -0.4348  2.5293
 9512SOL     OW39997   4.435   2.120  14.762  0.1599 -0.4928 -0.6204
 9512SOL    HW139998   4.363   2.155  14.709 -0.6623 -0.7750  0.3045
 9512SOL    HW239999   4.378   2.062  14.814  0.7055 -0.9789 -0.5657
 9513SOL     OW40000   0.311   0.500  15.143  0.8665  0.2817 -0.0916
 9513SOL    HW140001   0.403   0.517  15.125  0.8436  0.9331  0.4114
 9513SOL    HW240002   0.320   0.441  15.218 -3.3038 -0.6180 -0.2979
 9514SOL     OW40003   0.263   4.475   6.349  0.3320 -0.2531 -0.1557
 9514SOL    HW140004   0.232   4.424   6.274  0.8489 -0.3272 -0.3218
 9514SOL    HW240005   0.310   4.543   6.301  0.7418 -0.1202  0.4294
 9515SOL     OW40006   3.141   1.214   4.376 -0.0143 -0.3127  0.2492
 9515SOL    HW140007   3.120   1.307   4.362  0.3452 -0.3004 -0.2300
 9515SOL    HW240008   3.110   1.164   4.300  3.3519  0.5149 -1.7114
 9516SOL     OW40009   2.181   3.828   4.273  0.3463 -0.9312  0.5888
 9516SOL    HW140010   2.196   3.833   4.178 -3.3243  1.7562  0.1704
 9516SOL    HW240011   2.113   3.761   4.275 -0.4579 -0.0311  3.1719
 9517SOL     OW40012   4.276   4.495   5.885  0.0881 -0.3869 -0.1014
 9517SOL    HW140013   4.332   4.425   5.918  0.9125  0.2423 -0.1612
 9517SOL    HW240014   4.206   4.493   5.951 -0.7553  0.2519 -0.9615
 9518SOL     OW40015   1.616   3.297   3.568 -0.3056  0.3936  0.3814
 9518SOL    HW140016   1.594   3.268   3.656 -1.0776  0.3493  0.1729
 9518SOL    HW240017   1.551   3.254   3.513  0.2525  1.9359 -1.5053
 9519SOL     OW40018   3.429   1.632   6.372 -0.6255  0.2061  0.2370
 9519SOL    HW140019   3.344   1.588   6.375 -0.6896  0.2864 -0.2968
 9519SOL    HW240020   3.472   1.568   6.315 -1.4649  0.5139 -0.7672
 9520SOL     OW40021   0.339   2.316   0.936  0.3303  0.0890 -0.0569
 9520SOL    HW140022   0.268   2.336   0.997  1.0849  1.4810  0.3648
 9520SOL    HW240023   0.297   2.313   0.850 -0.9177 -1.2355  0.6074
 9521SOL     OW40024   1.110   4.430   6.403 -0.0861 -0.0780 -0.0409
 9521SOL    HW140025   1.112   4.474   6.487  2.6706 -0.1269 -0.0698
 9521SOL    HW240026   1.018   4.402   6.409  0.2642 -0.9516  1.1574
 9522SOL     OW40027   3.759   0.474   8.243 -0.3390 -0.2145  0.1680
 9522SOL    HW140028   3.827   0.408   8.256 -0.7988 -0.9066 -0.9133
 9522SOL    HW240029   3.801   0.553   8.277  0.0006 -0.0103 -0.7141
 9523SOL     OW40030   3.468   2.287   3.831  0.2005 -0.1229  0.2686
 9523SOL    HW140031   3.503   2.202   3.857 -1.6596 -2.1316 -3.8442
 9523SOL    HW240032   3.408   2.255   3.763 -0.5939 -0.4278  1.1096
 9524SOL     OW40033   0.373   4.680   2.350 -0.3191  0.2457  0.6055
 9524SOL    HW140034   0.454   4.639   2.320 -0.4450  0.7251 -0.4024
 9524SOL    HW240035   0.400   0.046   2.361 -0.5798  0.4301 -0.2391
 9525SOL     OW40036   4.251   1.351   2.901 -0.1918  0.1805 -0.2304
 9525SOL    HW140037   4.287   1.337   2.988 -2.3263  2.3235  0.9895
 9525SOL    HW240038   4.266   1.261   2.872 -1.8721  0.4407 -1.9318
 9526SOL     OW40039   3.512   0.569  11.490 -0.0055 -0.2340 -0.4643
 9526SOL    HW140040   3.555   0.498  11.442  1.0718 -0.2634  0.5492
 9526SOL    HW240041   3.511   0.529  11.577 -3.1141 -2.3193 -1.4759
 9527SOL     OW40042   1.765   4.680   4.313  0.5781  0.0047 -0.2507
 9527SOL    HW140043   1.831   4.657   4.378 -1.2038 -2.0575  0.8431
 9527SOL    HW240044   1.693   4.686   4.376 -0.3950 -1.3735 -1.2310
 9528SOL     OW40045   2.655   4.294  12.019  0.4950 -0.0076  0.0077
 9528SOL    HW140046   2.602   4.231  11.970 -0.1100  1.4328 -1.2085
 9528SOL    HW240047   2.624   4.279  12.108 -0.6296  1.3726 -0.1541
 9529SOL     OW40048   3.101   0.298   6.207  0.2957  0.3279 -0.9126
 9529SOL    HW140049   3.096   0.361   6.135  1.6040  1.4220 -0.0321
 9529SOL    HW240050   3.088   0.347   6.288 -2.1800 -0.1102 -1.0290
 9530SOL     OW40051   2.847   2.490   7.495  0.3303 -0.2232  0.6054
 9530SOL    HW140052   2.924   2.486   7.552 -1.0169  2.4840  2.5936
 9530SOL    HW240053   2.778   2.468   7.558  0.4242  0.1793  0.8470
 9531SOL     OW40054   1.891   3.505   5.705 -0.0459  0.0017  0.2495
 9531SOL    HW140055   1.982   3.500   5.678  0.0426 -0.7953  0.6933
 9531SOL    HW240056   1.848   3.472   5.626 -2.8971  1.7446  1.0661
 9532SOL     OW40057   3.988   2.798   4.800 -0.0669 -0.1929 -0.2459
 9532SOL    HW140058   4.050   2.859   4.840 -2.1381  0.8119  1.4443
 9532SOL    HW240059   3.976   2.742   4.877  1.6621  0.5802  0.5917
 9533SOL     OW40060   0.016   1.273   9.060 -0.1178 -0.1558  0.6149
 9533SOL    HW140061   0.035   1.182   9.082 -1.1976  0.0170  2.2824
 9533SOL    HW240062   4.645   1.266   9.057  0.0426 -1.4433 -1.5767
 9534SOL     OW40063   2.737   3.176   3.261 -0.3338  0.1221 -0.5766
 9534SOL    HW140064   2.724   3.251   3.318  0.9913  0.5776 -0.8786
 9534SOL    HW240065   2.729   3.101   3.321  1.8153  0.1686 -0.2277
 9535SOL     OW40066   1.224   2.695   1.392  0.2002 -0.4033 -0.8236
 9535SOL    HW140067   1.291   2.723   1.330 -0.8513  2.5209 -0.6585
 9535SOL    HW240068   1.226   2.762   1.461 -4.1856 -0.0035 -1.0547
 9536SOL     OW40069   0.087   2.760   0.016 -0.5111 -0.3034  0.4336
 9536SOL    HW140070   0.095   2.784   0.108 -0.4316  1.9509 -0.1528
 9536SOL    HW240071   0.129   2.833  17.670 -1.8862 -0.4684 -1.0518
 9537SOL     OW40072   2.607   1.007   5.066  0.4948 -0.0714 -0.1283
 9537SOL    HW140073   2.522   0.988   5.104  0.7405 -1.9771 -0.5281
 9537SOL    HW240074   2.581   1.046   4.982 -0.4356 -0.8090 -0.1816
 9538SOL     OW40075   4.614   1.994   3.943 -0.4747  0.2754  0.1232
 9538SOL    HW140076   4.592   2.058   4.011 -0.1552  1.9035 -1.3361
 9538SOL    HW240077   4.692   2.032   3.904 -1.3823 -0.3283 -2.2449
 9539SOL     OW40078   1.849   3.867   6.228 -0.4152 -0.3257 -0.1746
 9539SOL    HW140079   1.853   3.948   6.279  0.9564  1.8951 -3.8192
 9539SOL    HW240080   1.916   3.882   6.162 -1.8923 -1.3459 -1.9207
 9540SOL     OW40081   2.299   1.692   8.658  0.0966 -0.4341 -0.4548
 9540SOL    HW140082   2.259   1.773   8.627 -0.1501  0.3760  2.0367
 9540SOL    HW240083   2.228   1.652   8.708 -0.3885  1.8430  0.6302
 9541SOL     OW40084   1.637   3.973  14.573  0.1136 -0.6609 -0.2113
 9541SOL    HW140085   1.683   4.008  14.497 -0.1723 -0.1248 -0.1389
 9541SOL    HW240086   1.622   4.053  14.624 -4.0709 -1.2422 -0.4855
 9542SOL     OW40087   4.241   3.200   9.234 -0.0991 -0.1611 -0.3864
 9542SOL    HW140088   4.298   3.272   9.260  0.2238 -0.4870 -0.1950
 9542SOL    HW240089   4.160   3.232   9.274 -0.6787 -2.1687  0.0610
 9543SOL     OW40090   1.544   1.585   4.836  0.2838 -0.0664 -0.6427
 9543SOL    HW140091   1.556   1.646   4.763  2.2329 -0.1014 -0.3434
 9543SOL    HW240092   1.449   1.589   4.845  0.3616  1.1878 -0.3338
 9544SOL     OW40093   2.576   3.937   4.523 -0.5016  0.4404 -0.0697
 9544SOL    HW140094   2.659   3.908   4.562  0.0361 -0.1680 -1.6649
 9544SOL    HW240095   2.613   3.952   4.436 -1.0871  1.2614 -0.1772
 9545SOL     OW40096   2.864   2.885   5.604  0.0123 -0.1774  0.2603
 9545SOL    HW140097   2.904   2.920   5.683  1.6496  1.3295 -1.2388
 9545SOL    HW240098   2.825   2.963   5.562 -0.5264 -1.0549 -0.8684
 9546SOL     OW40099   3.849   0.288  17.568  0.0724  0.6356 -0.4040
 9546SOL    HW140100   3.918   0.231  17.533 -1.8377 -2.4411  0.8381
 9546SOL    HW240101   3.882   0.372  17.536  0.0332  0.4065 -1.0437
 9547SOL     OW40102   2.205   3.342   9.315  0.0700 -0.0275 -0.5191
 9547SOL    HW140103   2.220   3.330   9.409  1.0165 -0.5472 -0.7384
 9547SOL    HW240104   2.204   3.437   9.308 -2.8941  0.1533  2.1906
 9548SOL     OW40105   3.424   1.665  14.677  0.7251 -0.2528  0.0137
 9548SOL    HW140106   3.405   1.711  14.759  0.4235  0.0861 -0.2473
 9548SOL    HW240107   3.389   1.723  14.610 -0.4654 -0.6481  0.2905
 9549SOL     OW40108   3.690   1.585  14.654  0.4886  0.5557  0.7207
 9549SOL    HW140109   3.598   1.613  14.656  0.7788  1.6574 -1.2139
 9549SOL    HW240110   3.692   1.536  14.736 -4.2608  1.7043  1.5568
 9550SOL     OW40111   0.731   2.656   2.165  0.6653 -0.3121 -0.6422
 9550SOL    HW140112   0.795   2.630   2.231 -1.1562  0.5457  1.4698
 9550SOL    HW240113   0.780   2.724   2.119 -0.2634  0.2318 -0.8191
 9551SOL     OW40114   0.648   1.857   1.857 -0.3346  0.7310  0.3254
 9551SOL    HW140115   0.646   1.889   1.767 -2.0323  1.8707  0.7580
 9551SOL    HW240116   0.569   1.803   1.856 -0.1211  0.4529 -0.9667
 9552SOL     OW40117   1.779   4.644   7.993 -0.2847  0.3624 -0.3448
 9552SOL    HW140118   1.710   4.648   8.059  0.4976 -3.3776  0.6744
 9552SOL    HW240119   1.832   4.721   8.014 -0.6471  0.2524  0.9692
 9553SOL     OW40120   0.364   2.193   9.401 -0.2462  0.5218  0.0322
 9553SOL    HW140121   0.445   2.157   9.439  0.4210  0.3686 -1.5284
 9553SOL    HW240122   0.410   2.238   9.330  2.4057 -1.7457  0.3080
 9554SOL     OW40123   2.797   3.119   2.302  0.7344  0.4233 -0.2921
 9554SOL    HW140124   2.703   3.109   2.289  0.6716 -1.6111  1.6887
 9554SOL    HW240125   2.813   3.078   2.387 -0.0867  0.2239 -0.2381
 9555SOL     OW40126   3.492   4.271   2.195 -1.1890  0.1459  0.9515
 9555SOL    HW140127   3.577   4.309   2.216 -1.7821  1.7409  0.5068
 9555SOL    HW240128   3.441   4.282   2.276  0.0347  1.9062  1.4889
 9556SOL     OW40129   2.433   4.305   6.706 -0.1069 -0.0887 -0.4664
 9556SOL    HW140130   2.424   4.375   6.642  2.5149  1.6972  1.1218
 9556SOL    HW240131   2.343   4.315   6.739  0.4357  1.3308  0.6020
 9557SOL     OW40132   1.416   1.364  15.343  0.0592 -0.0814 -0.3588
 9557SOL    HW140133   1.330   1.406  15.340  0.0089 -0.0723  1.0222
 9557SOL    HW240134   1.462   1.422  15.403 -1.4576 -2.2362  2.9013
 9558SOL     OW40135   0.647   0.819   5.688  0.6625  0.1269 -0.2420
 9558SOL    HW140136   0.706   0.752   5.722  0.3613 -0.0861 -0.1431
 9558SOL    HW240137   0.641   0.796   5.595  1.5852  1.9409 -0.7609
 9559SOL     OW40138   4.166   3.165  17.532 -0.0462  0.2491  0.0786
 9559SOL    HW140139   4.128   3.174  17.620  0.1247 -2.4189  0.4079
 9559SOL    HW240140   4.104   3.119  17.476  0.5018 -0.0312 -0.2982
 9560SOL     OW40141   0.997   2.961   7.183  0.1020 -0.2753 -0.3572
 9560SOL    HW140142   0.942   2.927   7.113 -0.2593 -1.0789  0.3191
 9560SOL    HW240143   0.934   3.013   7.233  0.4764 -0.1568 -0.0130
 9561SOL     OW40144   1.317   0.313   7.089 -0.1784 -0.4318  0.0188
 9561SOL    HW140145   1.318   0.219   7.109 -0.5905 -0.1480  1.3936
 9561SOL    HW240146   1.369   0.321   7.010  1.2381  1.7172  1.1860
 9562SOL     OW40147   3.893   0.852   2.070 -0.0510  0.2141  0.3035
 9562SOL    HW140148   3.921   0.941   2.089  1.3327 -0.0019 -0.6626
 9562SOL    HW240149   3.834   0.826   2.140 -0.1927 -0.0147  0.0990
 9563SOL     OW40150   4.663   2.000   7.792 -0.0132  0.3452 -0.7886
 9563SOL    HW140151   4.706   2.026   7.711  1.2018 -1.6970 -0.7924
 9563SOL    HW240152   4.677   2.080   7.844 -0.7781 -0.3535  0.4933
 9564SOL     OW40153   4.377   1.088   2.998 -0.3407 -0.1922 -0.2919
 9564SOL    HW140154   4.326   1.029   2.943  0.3524 -1.4529  0.4007
 9564SOL    HW240155   4.445   1.122   2.940  0.2394  0.5331  0.7963
 9565SOL     OW40156   3.496   0.807   7.801  0.1780  0.4055  0.0218
 9565SOL    HW140157   3.518   0.840   7.714  0.1106  0.4759  0.0316
 9565SOL    HW240158   3.406   0.777   7.788  0.0866 -0.1845  2.0457
 9566SOL     OW40159   0.412   3.155   2.315 -0.8850 -0.1152 -0.4105
 9566SOL    HW140160   0.469   3.096   2.363 -1.5547 -1.3445 -1.1436
 9566SOL    HW240161   0.445   3.236   2.354 -0.8110 -0.3729  0.0523
 9567SOL     OW40162   1.138   2.261   5.229 -0.1132  0.2990 -0.3047
 9567SOL    HW140163   1.078   2.300   5.165 -0.7248  0.7088  0.5126
 9567SOL    HW240164   1.167   2.182   5.183  0.5295  0.7766 -0.7131
 9568SOL     OW40165   3.338   2.302   8.507  0.1941  0.3448 -0.1661
 9568SOL    HW140166   3.370   2.235   8.567 -1.9188 -0.4577  0.0368
 9568SOL    HW240167   3.418   2.342   8.472  0.9601  0.4931  1.7532
   4.72474   4.72474  17.70041
