Membrane in water
40167
    1TCq1    O1    1   0.035   2.798  11.141 -0.1239  0.4396  0.2872
    1TCq1    C1    2   0.047   2.841  11.269  0.0970 -0.9232  0.3742
    1TCq1    O2    3   4.703   2.807  11.367  0.5114  0.4327  0.3658
    1TCq1    C2    4   0.186   2.881  11.279  0.2099 -0.0049 -0.0568
    1TCq1    C3    5   0.250   2.942  11.177  0.2946  0.1083  0.4844
    1TCq1    C4    6   0.387   2.945  11.177 -0.3716  0.2100  0.2288
    1TCq1    C5    7   0.451   2.893  11.280  0.0954 -0.3784 -0.1138
    1TCq1    C6    8   0.386   2.841  11.389 -0.8003  0.3943  0.7362
    1TCq1    C7    9   0.250   2.834  11.394  0.1015 -0.1801  0.0045
    1TCq1    C8   10   0.462   2.807  11.507  0.5447 -1.1515 -0.0420
    1TCq1    O4   11   0.410   2.833  11.615  0.4070 -0.2009  0.4780
    1TCq1    C9   12   0.453   2.998  11.061  0.5254 -0.8195 -0.0100
    1TCq1    O5   13   0.578   3.005  11.062  0.2823 -0.0700  0.7552
    1TCq1    O6   14   0.377   3.005  10.961  0.6299 -0.2370  0.2544
    1TCq1    H1   15   0.099   2.840  11.080 -2.1109 -0.2892 -2.2823
    1TCq1    H2   16   0.201   2.988  11.092 -0.3604 -0.0990  0.7520
    1TCq1    H3   17   0.557   2.896  11.258 -0.2187  1.5772 -1.3187
    1TCq1    H4   18   0.203   2.804  11.487 -0.3570 -0.2777 -0.2602
    2MPD2     C   19   0.847   2.622  11.783  0.0090 -0.0840  0.0060
    2MPD2    C1   20   0.750   2.714  11.814 -0.4244  0.0440  0.4511
    2MPD2    C2   21   0.666   2.766  11.716  0.5589 -0.2460 -0.6779
    2MPD2    C3   22   0.676   2.717  11.588 -0.0748 -0.2831 -0.0469
    2MPD2    C4   23   0.775   2.625  11.555  0.1255 -0.1180 -0.0682
    2MPD2    C5   24   0.855   2.575  11.655  0.3964 -0.7096  0.9093
    2MPD2     H   25   0.586   2.835  11.740 -0.3092 -0.8630 -1.8070
    2MPD2    H1   26   0.797   2.584  11.457  2.8545 -0.0812  0.5287
    2MPD2    H2   27   0.911   2.580  11.860  0.0758 -0.4596 -0.2554
    2MPD2    H3   28   0.927   2.502  11.622  2.6295  1.3355  1.2505
    2MPD2     N   29   0.586   2.761  11.485  0.5994  0.4518  0.1486
    2MPD2    H5   30   0.603   2.731  11.390  1.7353  2.1918 -0.1960
    2MPD2    N1   31   0.727   2.770  11.945 -0.6748 -0.8776  0.2561
    2MPD2    H7   32   0.653   2.838  11.958 -0.8085 -0.6343 -1.8138
    3TCq1    O1   33   4.272   0.270  10.659 -0.3588  0.0890 -0.3833
    3TCq1    C1   34   4.191   0.167  10.697  0.0519 -0.8270  0.5113
    3TCq1    O2   35   4.084   0.184  10.741  1.0474 -0.7347  0.7890
    3TCq1    C2   36   4.265   0.045  10.713  0.0588  0.2985  0.8448
    3TCq1    C3   37   4.347   0.009  10.606  0.2566  0.1107 -0.4882
    3TCq1    C4   38   4.396   4.604  10.607 -0.9437 -0.1068  0.3214
    3TCq1    C5   39   4.369   4.515  10.708 -0.5040  0.9676 -0.6690
    3TCq1    C6   40   4.280   4.550  10.805  0.8910  0.4250 -0.2145
    3TCq1    C7   41   4.224   4.675  10.805  0.2733 -0.3799  0.6486
    3TCq1    C8   42   4.227   4.460  10.903 -0.3575  0.4154  0.4116
    3TCq1    O4   43   4.145   4.506  10.978 -0.3967  0.0667  0.0783
    3TCq1    C9   44   4.486   4.551  10.501  0.7387  0.3189 -0.5650
    3TCq1    O5   45   4.510   4.630  10.405  0.1695  0.1439  0.9822
    3TCq1    O6   46   4.544   4.436  10.511  0.4727 -0.1712  0.0271
    3TCq1    H1   47   4.368   0.252  10.660 -0.1690  1.3933  3.6555
    3TCq1    H2   48   4.358   0.062  10.512 -0.9619  2.1368  0.5215
    3TCq1    H3   49   4.419   4.419  10.718  1.2789  2.0334  0.6596
    3TCq1    H4   50   4.155   4.703  10.884 -0.6668 -0.2517 -0.2260
    4MPD2     C   51   4.143   4.000  11.115 -0.3665  0.3125  0.0792
    4MPD2    C1   52   4.151   4.120  11.181  0.4481 -0.5545 -1.3474
    4MPD2    C2   53   4.191   4.228  11.104 -0.8211  0.0643  0.2748
    4MPD2    C3   54   4.227   4.211  10.966  0.7200  0.1700 -0.5104
    4MPD2    C4   55   4.228   4.090  10.912 -0.2022  0.7000  0.2387
    4MPD2    C5   56   4.185   3.985  10.989 -0.5564 -0.1093 -0.1147
    4MPD2     H   57   4.196   4.330  11.140 -2.4306  0.0850  0.4009
    4MPD2    H1   58   4.249   4.085  10.806 -2.1636  0.4568 -0.1337
    4MPD2    H2   59   4.104   3.909  11.160  1.1742 -1.1787 -1.6496
    4MPD2    H3   60   4.178   3.887  10.944 -2.1627  0.3901 -0.9770
    4MPD2     N   61   4.265   4.322  10.883 -0.1476 -0.2894  0.3080
    4MPD2    H5   62   4.312   4.298  10.796 -0.2722 -1.6356  0.6165
    4MPD2    N1   63   4.104   4.144  11.312  0.1118  0.6010  0.0068
    4MPD2    H7   64   4.102   4.245  11.328  3.0736  0.7337 -0.5470
    5TCq1    O1   65   1.286   1.020  12.323 -0.7693 -0.1205 -0.7581
    5TCq1    C1   66   1.181   0.974  12.233 -0.6170  0.1070  0.3185
    5TCq1    O2   67   1.196   0.945  12.115  0.3286 -0.0879  0.3805
    5TCq1    C2   68   1.078   0.904  12.314  0.0247 -0.3063  0.1157
    5TCq1    C3   69   1.047   0.936  12.444 -1.1050 -0.4459  0.2141
    5TCq1    C4   70   0.924   0.911  12.486  0.9313  0.7583  0.4574
    5TCq1    C5   71   0.835   0.839  12.412 -0.0512  0.2194 -0.7057
    5TCq1    C6   72   0.870   0.804  12.286 -0.8321 -0.3634  1.0356
    5TCq1    C7   73   0.987   0.840  12.237  0.0076 -0.3021 -0.3994
    5TCq1    C8   74   0.776   0.718  12.204 -0.5461  0.0596 -0.6503
    5TCq1    O4   75   0.814   0.691  12.095 -0.3263 -0.1451 -0.0766
    5TCq1    C9   76   0.891   0.955  12.618 -0.6670  0.1244 -0.3627
    5TCq1    O5   77   0.943   1.063  12.669 -0.0441 -0.2122 -0.2054
    5TCq1    O6   78   0.796   0.894  12.667  0.2944 -0.2335  0.4154
    5TCq1    H1   79   1.269   1.060  12.411  1.0371  2.4569 -1.5665
    5TCq1    H2   80   1.117   0.983  12.513 -0.8969  1.0886 -1.0443
    5TCq1    H3   81   0.733   0.828  12.447  0.1285 -0.7747 -0.4884
    5TCq1    H4   82   1.008   0.812  12.134 -0.3776 -3.2518  0.3241
    6MPD2     C   83   0.439   0.623  12.336 -0.6642 -0.6713  0.0287
    6MPD2    C1   84   0.540   0.636  12.237  0.0418  0.0228 -0.2161
    6MPD2    C2   85   0.520   0.592  12.107  0.3445  1.3015  0.0369
    6MPD2    C3   86   0.402   0.526  12.074 -0.2018 -0.4643  0.3564
    6MPD2    C4   87   0.296   0.519  12.171 -0.2326 -0.6405 -0.8515
    6MPD2    C5   88   0.319   0.566  12.302  0.0734 -0.1383  0.5062
    6MPD2     H   89   0.590   0.604  12.026  0.3480 -3.8419 -0.7100
    6MPD2    H1   90   0.201   0.476  12.142 -1.1564  1.4113 -0.8859
    6MPD2    H2   91   0.460   0.663  12.434 -0.8382 -0.2045 -0.1230
    6MPD2    H3   92   0.246   0.551  12.381 -1.1152 -1.8739 -0.9359
    6MPD2     N   93   0.396   0.464  11.946 -0.0843  0.2816  0.1631
    6MPD2    H5   94   0.479   0.468  11.888  1.4573 -0.1846  2.3118
    6MPD2    N1   95   0.659   0.700  12.274 -0.7271 -0.2332 -0.3304
    6MPD2    H7   96   0.663   0.728  12.372 -1.8720 -0.1781 -0.2976
    7TCq1    O1   97   2.830   0.290  12.401 -0.4229 -0.0077 -0.1285
    7TCq1    C1   98   2.770   0.201  12.484 -0.5073  0.0225 -1.1585
    7TCq1    O2   99   2.746   0.083  12.460  0.2668  0.5734  0.1002
    7TCq1    C2  100   2.711   0.265  12.595  1.0351  0.3335 -0.2116
    7TCq1    C3  101   2.667   0.397  12.597  0.1759  0.1379 -1.0006
    7TCq1    C4  102   2.585   0.437  12.702  0.7904 -0.5011 -0.4173
    7TCq1    C5  103   2.567   0.359  12.809  0.3962 -0.0863  0.6448
    7TCq1    C6  104   2.612   0.228  12.801  0.8215  0.1558 -0.0487
    7TCq1    C7  105   2.681   0.182  12.697 -0.1608  0.1817  0.4270
    7TCq1    C8  106   2.589   0.134  12.905  0.4294 -0.2784 -0.6181
    7TCq1    O4  107   2.562   0.020  12.879  0.1280 -0.3419  0.0649
    7TCq1    C9  108   2.522   0.566  12.686 -0.0191 -0.0666  0.0942
    7TCq1    O5  109   2.498   0.600  12.568 -0.1324  0.0820  0.0069
    7TCq1    O6  110   2.454   0.607  12.780 -0.0511  0.5013 -0.5174
    7TCq1    H1  111   2.842   0.379  12.441  2.4153 -1.3041  1.9414
    7TCq1    H2  112   2.684   0.458  12.510  0.6598  2.2303  0.5782
    7TCq1    H3  113   2.507   0.391  12.893 -0.1877 -0.2549  0.2898
    7TCq1    H4  114   2.683   0.074  12.688 -0.6041  0.1149  1.1099
    8MPD2     C  115   2.503   0.029  13.408 -0.3730 -0.3297 -0.2124
    8MPD2    C1  116   2.522   4.663  13.302  0.1211  0.5205 -0.3417
    8MPD2    C2  117   2.546   4.718  13.176 -0.1111 -0.4720  1.2258
    8MPD2    C3  118   2.541   0.136  13.154 -0.0147 -0.0157  0.0824
    8MPD2    C4  119   2.504   0.216  13.259 -0.9708  0.5866  0.4901
    8MPD2    C5  120   2.500   0.163  13.381  0.6390  1.4746 -0.3729
    8MPD2     H  121   2.575   4.655  13.093 -2.1083 -0.0972  0.2476
    8MPD2    H1  122   2.506   0.324  13.245  1.0403  0.3118 -1.2999
    8MPD2    H2  123   2.493   4.715  13.511 -2.4701 -0.5264 -0.4716
    8MPD2    H3  124   2.493   0.237  13.461  2.5250  1.9850 -0.6956
    8MPD2     N  125   2.576   0.198  13.027 -0.2939  0.1487  0.2672
    8MPD2    H5  126   2.607   0.294  13.033  1.0478 -0.0462 -3.5941
    8MPD2    N1  127   2.527   4.527  13.339  0.5280  0.3148 -0.0036
    8MPD2    H7  128   2.506   4.514  13.437  2.4080 -0.3060  0.3167
    9TCq1    O1  129   4.518   3.847  10.829  0.1073 -0.8881  0.1279
    9TCq1    C1  130   4.645   3.872  10.784  0.3277  0.1132 -0.1251
    9TCq1    O2  131   4.686   3.970  10.730 -0.4889  0.0347  0.2251
    9TCq1    C2  132   4.710   3.743  10.771  0.1323  0.6547  0.9060
    9TCq1    C3  133   0.061   3.726  10.660  0.1226 -0.5315  0.3612
    9TCq1    C4  134   0.152   3.629  10.656  1.3424 -0.3394 -0.5559
    9TCq1    C5  135   0.177   3.550  10.765 -0.2527 -0.6693  0.1742
    9TCq1    C6  136   0.105   3.575  10.881 -0.0078 -0.9728 -0.3632
    9TCq1    C7  137   0.004   3.668  10.882  0.4794  0.1258  0.0947
    9TCq1    C8  138   0.092   3.460  10.970 -0.5732  0.0186 -0.6158
    9TCq1    O4  139   0.107   3.344  10.929 -0.2401 -0.7547  0.2779
    9TCq1    C9  140   0.220   3.610  10.531  0.5624 -0.3583 -0.7086
    9TCq1    O5  141   0.293   3.505  10.516  0.1038  0.1356  0.3409
    9TCq1    O6  142   0.189   3.680  10.434  0.8963 -0.1487 -0.0510
    9TCq1    H1  143   4.510   3.751  10.849 -0.9170 -0.3099  2.3669
    9TCq1    H2  144   0.055   3.795  10.577 -2.5995 -0.7102  0.4262
    9TCq1    H3  145   0.255   3.475  10.769 -0.4060 -0.9431 -1.5940
    9TCq1    H4  146   4.666   3.685  10.971  1.5339  2.1599  0.4062
   10MPD2     C  147   0.004   3.288  11.197  0.1282  0.8449 -0.0840
   10MPD2    C1  148   0.040   3.419  11.208 -0.5572 -0.1095  0.1928
   10MPD2    C2  149   0.066   3.467  11.334  0.4104 -0.1359 -0.0637
   10MPD2    C3  150   0.040   3.392  11.454 -0.2737 -0.5134  0.3533
   10MPD2    C4  151   4.711   3.259  11.440  0.3299  0.2486 -0.4698
   10MPD2    C5  152   4.699   3.209  11.307  0.6627  0.1415 -0.9325
   10MPD2     H  153   0.105   3.568  11.334  0.8804 -0.3269 -1.2808
   10MPD2    H1  154   4.681   3.202  11.527 -3.2475  0.6797 -1.4222
   10MPD2    H2  155   4.690   3.263  11.097 -1.5650  0.5126  0.5933
   10MPD2    H3  156   4.651   3.112  11.300  0.4988 -0.0055  2.5271
   10MPD2     N  157   0.070   3.444  11.582  0.3027 -0.4306 -0.8528
   10MPD2    H5  158   0.060   3.380  11.660 -2.1859  1.0247  0.0095
   10MPD2    N1  159   0.068   3.500  11.098  0.1525 -0.1200 -0.1296
   10MPD2    H7  160   0.074   3.600  11.113  1.9912 -0.0425 -1.4298
   11TCq1    O1  161   1.387   3.117  13.698 -0.1619 -1.0274  0.5074
   11TCq1    C1  162   1.420   3.247  13.684 -0.2977  0.9162  0.3717
   11TCq1    O2  163   1.341   3.331  13.642 -0.0559  0.0076 -0.1054
   11TCq1    C2  164   1.485   3.257  13.813 -0.1396  0.2031  0.7024
   11TCq1    C3  165   1.621   3.235  13.819 -0.5446  0.1479 -0.3289
   11TCq1    C4  166   1.681   3.273  13.941 -1.1860  0.6743  0.0004
   11TCq1    C5  167   1.604   3.319  14.043  0.3976  0.0182  0.0669
   11TCq1    C6  168   1.472   3.329  14.034  0.2320 -0.3810  0.2356
   11TCq1    C7  169   1.411   3.297  13.917  0.0940  0.3877 -0.3547
   11TCq1    C8  170   1.393   3.378  14.143 -0.1450  0.0306  0.8275
   11TCq1    O4  171   1.445   3.466  14.212 -0.2778 -0.3142 -0.4631
   11TCq1    C9  172   1.818   3.261  13.962  0.2904  0.1479 -0.2561
   11TCq1    O5  173   1.867   3.296  14.073  0.7642  0.2539 -0.4265
   11TCq1    O6  174   1.894   3.223  13.867  0.1358 -0.2999  0.7187
   11TCq1    H1  175   1.448   3.066  13.756 -0.5581 -1.1981  0.7784
   11TCq1    H2  176   1.677   3.209  13.730 -0.7258  1.6957 -0.8951
   11TCq1    H3  177   1.664   3.348  14.129  0.6986 -0.5555  0.0469
   11TCq1    H4  178   1.305   3.315  13.903  0.3178  2.6075  0.8948
   12MPD2     C  179   1.187   3.469  14.345 -0.1279  0.4231 -0.4475
   12MPD2    C1  180   1.172   3.357  14.255  0.1430 -0.2067 -0.1712
   12MPD2    C2  181   1.048   3.293  14.264 -0.3500 -0.0223 -1.1196
   12MPD2    C3  182   0.950   3.335  14.353 -0.3464 -0.7624 -0.8403
   12MPD2    C4  183   0.970   3.439  14.438  0.3445  0.5308 -0.4007
   12MPD2    C5  184   1.092   3.505  14.433  0.3637  0.8570  0.1746
   12MPD2     H  185   1.031   3.204  14.205  2.4121 -1.1668 -0.2000
   12MPD2    H1  186   0.905   3.452  14.524  2.2477  1.2970  0.9326
   12MPD2    H2  187   1.274   3.534  14.351 -0.8853  1.3805  0.3441
   12MPD2    H3  188   1.121   3.578  14.507 -0.4745  0.5129  0.8413
   12MPD2     N  189   0.827   3.269  14.363  0.4140  0.3779 -0.1250
   12MPD2    H5  190   0.816   3.188  14.304  0.3978  0.0410  0.3408
   12MPD2    N1  191   1.269   3.318  14.157  0.1931 -0.1191  0.0648
   12MPD2    H7  192   1.236   3.247  14.092 -1.3466 -0.3780  1.1588
   13TCq1    O1  193   0.173   2.995  10.412 -0.1770  0.0272  0.0034
   13TCq1    C1  194   0.181   3.033  10.539 -0.1078  0.1259 -0.5668
   13TCq1    O2  195   0.228   2.958  10.626  0.1960  0.1836 -0.1719
   13TCq1    C2  196   0.079   3.139  10.561  0.0465  0.1319 -0.0405
   13TCq1    C3  197   0.057   3.235  10.469 -0.2089  0.4066  0.1646
   13TCq1    C4  198   4.693   3.332  10.486  0.6778  0.2592  0.3590
   13TCq1    C5  199   4.633   3.345  10.605 -0.5912  0.3452  1.2444
   13TCq1    C6  200   4.649   3.247  10.699 -0.3523  0.0896 -0.2930
   13TCq1    C7  201   0.012   3.141  10.676  0.0623  0.0375 -1.4038
   13TCq1    C8  202   4.574   3.251  10.823  0.1688  0.0747  0.3295
   13TCq1    O4  203   4.489   3.337  10.838 -0.2152 -0.4694  0.1047
   13TCq1    C9  204   4.687   3.436  10.388 -0.7153  0.3260  0.2108
   13TCq1    O5  205   0.068   3.443  10.311  0.1734  0.6269 -0.1278
   13TCq1    O6  206   4.597   3.516  10.395 -0.3934  0.0781 -0.4961
   13TCq1    H1  207   0.123   3.057  10.356 -1.5107 -1.8133 -0.8649
   13TCq1    H2  208   0.123   3.235  10.383  0.2529 -0.1519  0.5175
   13TCq1    H3  209   4.573   3.433  10.624 -0.0006  1.1330 -0.6486
   13TCq1    H4  210   0.052   3.080  10.756  0.4740 -1.1090 -2.4898
   14MPD2     C  211   4.496   2.959  11.035 -0.1269 -0.4085  0.2830
   14MPD2    C1  212   4.497   3.096  11.003 -0.5036  0.6879 -0.7886
   14MPD2    C2  213   4.446   3.181  11.100  0.3086 -1.3904  0.6908
   14MPD2    C3  214   4.372   3.130  11.202  1.0627 -0.5595 -0.2917
   14MPD2    C4  215   4.365   2.993  11.226 -0.4189 -0.4674 -0.5411
   14MPD2    C5  216   4.431   2.908  11.140 -0.2117  0.3399 -0.1751
   14MPD2     H  217   4.454   3.289  11.090 -0.1897 -1.3341  0.9005
   14MPD2    H1  218   4.310   2.951  11.310  0.7167 -0.9641 -0.0514
   14MPD2    H2  219   4.543   2.888  10.968 -0.0231  0.6986 -0.8209
   14MPD2    H3  220   4.438   2.802  11.164 -0.2104  0.2717 -0.4742
   14MPD2     N  221   4.313   3.229  11.286  0.2423 -0.2779 -0.0877
   14MPD2    H5  222   4.332   3.327  11.265 -1.0936 -0.2550 -1.1819
   14MPD2    N1  223   4.571   3.126  10.881 -0.5662  0.1107  0.2927
   14MPD2    H7  224   4.610   3.046  10.833  3.2443  1.5584  0.8951
   15TCq1    O1  225   1.883   3.025   2.025  0.2238 -0.1203 -0.7934
   15TCq1    C1  226   1.752   2.999   2.007  0.0687  0.1510 -0.2666
   15TCq1    O2  227   1.655   3.025   2.077  0.1525  0.2283  0.0726
   15TCq1    C2  228   1.735   2.975   1.866  0.5182  0.1490  0.7594
   15TCq1    C3  229   1.610   2.998   1.815 -0.6565 -0.5930  0.1111
   15TCq1    C4  230   1.577   2.939   1.696  0.7414 -0.0845  0.3867
   15TCq1    C5  231   1.668   2.856   1.632  0.1453 -0.1311 -0.0082
   15TCq1    C6  232   1.776   2.811   1.706  0.1166  0.7076 -0.3770
   15TCq1    C7  233   1.813   2.875   1.814  0.7025  0.0680  0.2607
   15TCq1    C8  234   1.844   2.691   1.661 -0.0817 -0.4216  0.6443
   15TCq1    O4  235   1.945   2.659   1.722  0.1611  0.3931 -0.1161
   15TCq1    C9  236   1.448   2.966   1.630 -1.1530  0.8890  0.1020
   15TCq1    O5  237   1.421   2.876   1.543 -0.0082  0.8406  0.0887
   15TCq1    O6  238   1.365   3.050   1.677  0.1253 -0.1443  0.4891
   15TCq1    H1  239   1.942   3.000   1.951  3.3005 -1.0633  1.9556
   15TCq1    H2  240   1.533   3.062   1.857  1.3280  2.1335 -0.3774
   15TCq1    H3  241   1.644   2.821   1.532 -1.4518 -0.9213  0.6461
   15TCq1    H4  242   1.901   2.830   1.858  0.0736 -1.7995 -0.4051
   16MPD2     C  243   1.694   2.426   1.461  0.0732 -0.4943  0.1935
   16MPD2    C1  244   1.802   2.503   1.513  0.6657 -1.0314 -0.7163
   16MPD2    C2  245   1.933   2.469   1.490 -0.1903  0.2608 -0.2621
   16MPD2    C3  246   1.964   2.352   1.421  0.0120  0.3966  0.3672
   16MPD2    C4  247   1.859   2.272   1.370 -0.6205  0.4383 -0.3584
   16MPD2    C5  248   1.730   2.316   1.386  0.0130  0.1019 -0.0192
   16MPD2     H  249   2.011   2.537   1.523  0.6004 -0.9942  0.4455
   16MPD2    H1  250   1.883   2.176   1.325 -0.6219 -0.6332  1.9150
   16MPD2    H2  251   1.587   2.439   1.472  0.3146  0.7208  1.1829
   16MPD2    H3  252   1.651   2.261   1.337  0.7488 -1.0668  0.1094
   16MPD2     N  253   2.104   2.320   1.404 -0.0227 -0.4799 -0.4311
   16MPD2    H5  254   2.179   2.385   1.424  1.4413 -2.2348 -0.2687
   16MPD2    N1  255   1.757   2.616   1.585  0.2631  0.0728 -0.2792
   16MPD2    H7  256   1.659   2.641   1.579 -0.3711 -2.4222 -0.3615
   17TCq1    O1  257   0.189   2.325  11.197 -0.3839 -0.0640  0.0776
   17TCq1    C1  258   0.230   2.430  11.264 -0.0028  0.9348  0.7423
   17TCq1    O2  259   0.270   2.414  11.377 -0.1277  0.1478 -0.0457
   17TCq1    C2  260   0.309   2.511  11.176  0.1254  0.2568 -0.1951
   17TCq1    C3  261   0.255   2.533  11.053  0.5899  0.7235  0.1054
   17TCq1    C4  262   0.332   2.590  10.956  0.4374  0.2485  0.8238
   17TCq1    C5  263   0.464   2.599  10.982  0.0087 -0.6751  0.1065
   17TCq1    C6  264   0.515   2.582  11.115 -0.6359  0.0866 -0.3102
   17TCq1    C7  265   0.441   2.530  11.216  0.1127 -0.1608  0.6308
   17TCq1    C8  266   0.651   2.606  11.143  0.8111  0.8997  0.1275
   17TCq1    O4  267   0.673   2.625  11.259  0.3855  0.4201  0.0955
   17TCq1    C9  268   0.278   2.608  10.826 -0.0020  0.7090  0.3522
   17TCq1    O5  269   0.149   2.603  10.806  0.4271 -0.3120  0.0698
   17TCq1    O6  270   0.363   2.636  10.735 -0.0127  0.2596 -0.1508
   17TCq1    H1  271   0.155   2.345  11.107 -0.5375 -0.6129  0.0155
   17TCq1    H2  272   0.149   2.535  11.029  0.7348 -2.1381 -0.6893
   17TCq1    H3  273   0.526   2.639  10.903 -1.8601  0.9732 -0.4981
   17TCq1    H4  274   0.480   2.503  11.314  1.8893 -0.8173 -0.2602
   18MPD2     C  275   0.937   2.670  11.145  0.2682 -0.3066 -0.0793
   18MPD2    C1  276   0.872   2.626  11.031 -0.1639 -1.0630  0.0637
   18MPD2    C2  277   0.929   2.627  10.905  0.2006 -0.4518  0.0938
   18MPD2    C3  278   1.064   2.658  10.893 -0.1887 -0.0773  0.2347
   18MPD2    C4  279   1.136   2.707  11.002  0.0980 -0.0578 -0.4520
   18MPD2    C5  280   1.067   2.703  11.122 -0.0672  0.7403  0.1824
   18MPD2     H  281   0.871   2.603  10.817  0.0866 -0.9703  0.3061
   18MPD2    H1  282   1.240   2.735  10.994  0.2814 -0.4409  0.5471
   18MPD2    H2  283   0.897   2.680  11.245  0.2569  0.5273 -0.1655
   18MPD2    H3  284   1.117   2.750  11.206 -0.2908 -0.1209  0.7854
   18MPD2     N  285   1.144   2.640  10.777 -0.3302 -0.1009 -0.5105
   18MPD2    H5  286   1.243   2.658  10.790 -0.2020 -0.5650 -0.8540
   18MPD2    N1  287   0.734   2.600  11.032 -0.1313  0.8157  0.1472
   18MPD2    H7  288   0.697   2.571  10.942  1.5109 -0.0377 -0.2635
   19TMC2    C1  289   2.019   2.868  13.843 -0.0288  0.6945  0.1294
   19TMC2    C2  290   1.937   2.887  13.734 -0.6915  0.2421 -0.5291
   19TMC2    C3  291   1.812   2.928  13.759 -0.0885 -0.5319 -0.2775
   19TMC2    C4  292   1.967   2.870  13.972 -0.9250 -0.8769 -0.4423
   19TMC2    C5  293   1.834   2.907  13.992 -0.6843 -0.1656  0.3881
   19TMC2    C6  294   1.757   2.939  13.883 -0.3784 -0.2395 -0.0084
   19TMC2     C  295   2.159   2.850  13.819 -0.6700  0.1150 -0.9116
   19TMC2     O  296   2.192   2.883  13.703 -0.4698 -0.1266 -0.3935
   19TMC2     H  297   1.981   2.877  13.636  0.7737 -0.0207  0.1511
   19TMC2    H1  298   2.014   2.826  14.059 -0.4547  0.2988 -0.1034
   19TMC2    H2  299   1.649   2.930  13.889 -0.4829  0.2562 -1.2790
   19TMC2    C7  300   1.763   2.877  14.112 -0.3196 -0.1671 -0.3710
   19TMC2    C8  301   1.721   2.942  13.649  0.6457  0.2580  0.1637
   19TMC2    O1  302   1.651   2.821  14.106  0.4926  0.4882 -0.2417
   19TMC2    O2  303   1.599   2.928  13.657  0.4669  0.2112  0.3656
   19TMC2    O5  304   1.788   2.930  13.532 -0.2865 -0.6162 -0.1464
   19TMC2    H5  305   1.871   2.982  13.536 -0.7841  0.3069 -1.7716
   20MPD2     C  306   2.458   2.850  13.831 -0.1648  0.3922  0.0098
   20MPD2    C1  307   2.374   2.826  13.936 -0.1759  0.0219  0.4039
   20MPD2    C2  308   2.437   2.802  14.058  0.0956  0.0809 -0.6337
   20MPD2    C3  309   2.569   2.832  14.076 -0.5249  0.5686 -0.0836
   20MPD2    C4  310   2.650   2.865  13.965 -0.9117  0.2715 -0.2750
   20MPD2    C5  311   2.592   2.868  13.844 -0.2076 -0.4537 -1.1458
   20MPD2     H  312   2.380   2.773  14.145 -1.1973 -2.3981 -2.3160
   20MPD2    H1  313   2.754   2.883  13.987 -0.4543 -4.1000  0.9554
   20MPD2    H2  314   2.422   2.848  13.729  0.5218  1.1972 -0.2463
   20MPD2    H3  315   2.656   2.873  13.757  0.8423 -1.4939 -0.4307
   20MPD2     N  316   2.632   2.828  14.201 -0.1331  0.1534  0.2197
   20MPD2    H5  317   2.733   2.842  14.197  0.0214 -0.5183  1.8920
   20MPD2    N1  318   2.233   2.818  13.932 -0.0938  0.0004 -0.1375
   20MPD2    H7  319   2.184   2.785  14.014  1.5058 -1.4712  0.2261
   21MPD2     C  320   0.211   3.685  14.548  0.4297 -0.6786 -0.0969
   21MPD2    C1  321   0.116   3.582  14.545 -0.2230 -0.0687  0.2204
   21MPD2    C2  322   4.704   3.610  14.547  0.0594 -0.5732  0.3466
   21MPD2    C3  323   4.656   3.738  14.575  0.6750 -0.2490  0.8325
   21MPD2    C4  324   0.030   3.836  14.572 -0.4132  0.1270  0.6699
   21MPD2    C5  325   0.166   3.811  14.552  0.5850 -0.0157 -0.5849
   21MPD2     H  326   4.634   3.527  14.537  0.6863 -1.2235  1.3697
   21MPD2    H1  327   4.717   3.939  14.578  0.6641  0.5729 -1.0971
   21MPD2    H2  328   0.315   3.665  14.526  0.5189  2.8442 -2.7632
   21MPD2    H3  329   0.245   3.883  14.539  0.1210  0.3153 -1.6106
   21MPD2     N  330   4.517   3.771  14.577 -0.4899 -0.4667  0.7302
   21MPD2    H5  331   4.490   3.868  14.566 -0.7338 -0.5032  1.0305
   21MPD2    N1  332   0.155   3.446  14.547  0.3007  0.1009 -0.2174
   21MPD2    H7  333   0.085   3.374  14.559 -1.8699  2.3659  0.7123
   22TCq2    C1  334   4.423   3.676  14.605  0.2152  0.1537 -0.3158
   22TCq2    O2  335   4.433   3.560  14.641 -0.3202 -0.1200  0.0079
   22TCq2    C2  336   4.290   3.736  14.617  0.3794 -0.0195 -0.0631
   22TCq2    C3  337   4.189   3.666  14.679 -0.4124 -0.0860 -0.2560
   22TCq2    C4  338   4.064   3.713  14.680  0.2800 -0.8429  0.3723
   22TCq2    C5  339   4.027   3.831  14.625 -0.3228 -0.2505  0.3207
   22TCq2    C6  340   4.133   3.896  14.567  0.0705 -0.4497 -0.2644
   22TCq2    C7  341   4.260   3.860  14.563 -0.3566 -0.6640 -0.2239
   22TCq2    C8  342   4.116   4.030  14.502  0.3141 -0.6406  0.3864
   22TCq2    O4  343   4.212   4.103  14.468  0.3052  0.1326  0.3057
   22TCq2    C9  344   3.959   3.638  14.744 -0.2522  0.3098  1.1039
   22TCq2    O5  345   3.993   3.533  14.804  0.0232  0.6465  0.1403
   22TCq2    O6  346   3.845   3.686  14.758 -0.2077  0.7651  0.2868
   22TCq2    H2  347   4.223   3.579  14.736 -0.5422  1.3994  2.1043
   22TCq2    H3  348   3.921   3.855  14.625 -0.1917  0.2773 -2.8399
   22TCq2    H4  349   4.337   3.926  14.525  1.5808 -0.5581  3.8060
   23MPD2     C  350   1.363   4.267  14.485 -0.2709  0.9272 -0.1267
   23MPD2    C1  351   1.280   4.348  14.566  0.2313  0.3291 -0.7857
   23MPD2    C2  352   1.219   4.463  14.518  0.8313 -0.5114 -0.2611
   23MPD2    C3  353   1.238   4.498  14.383 -0.1013  0.7435  0.1992
   23MPD2    C4  354   1.313   4.413  14.302 -0.6172  0.1659 -0.3621
   23MPD2    C5  355   1.381   4.302  14.359  0.3309  0.4256 -0.2629
   23MPD2     H  356   1.160   4.523  14.585  0.6903 -0.7078 -0.2101
   23MPD2    H1  357   1.332   4.445  14.201  0.8687 -0.4612 -0.2674
   23MPD2    H2  358   1.416   4.181  14.521 -1.0930  0.0398 -1.0204
   23MPD2    H3  359   1.437   4.242  14.289  1.2716  1.2162 -0.2057
   23MPD2     N  360   1.180   4.610  14.320  0.3935  0.4103  0.3445
   23MPD2    H5  361   1.192   4.622  14.220  0.7504 -0.3272  0.3048
   23MPD2    N1  362   1.243   4.305  14.693 -0.0110  0.5652 -0.1894
   23MPD2    H7  363   1.193   4.378  14.743 -1.4700 -1.9792  2.0764
   24TCq2    C1  364   1.102   4.698  14.384 -0.0868  1.3917  0.5238
   24TCq2    O2  365   1.070   4.711  14.500  0.0518  0.1196 -0.1283
   24TCq2    C2  366   1.038   0.072  14.295  0.2917  0.1210  0.4146
   24TCq2    C3  367   1.006   0.038  14.168 -1.0606 -0.4073 -0.1409
   24TCq2    C4  368   0.909   0.111  14.108 -0.2927  0.1071 -0.2328
   24TCq2    C5  369   0.835   0.207  14.170  0.3178  0.7217 -0.3149
   24TCq2    C6  370   0.875   0.247  14.294  0.2772 -0.0585  0.0514
   24TCq2    C7  371   0.972   0.176  14.365 -0.1638 -0.6237  0.2282
   24TCq2    C8  372   0.814   0.361  14.360 -0.9480  0.0011  0.3578
   24TCq2    O4  373   0.885   0.418  14.437 -0.2161 -0.5389 -0.6828
   24TCq2    C9  374   0.859   0.054  13.983  0.6882  0.4955  0.2824
   24TCq2    O5  375   0.740   0.079  13.968  0.6587 -0.2966  0.7317
   24TCq2    O6  376   0.927   0.001  13.889 -0.0562  0.2526  0.2977
   24TCq2    H2  377   1.050   4.675  14.116  1.8933  1.0726 -0.0036
   24TCq2    H3  378   0.761   0.257  14.108 -1.3667 -0.9603  0.3616
   24TCq2    H4  379   1.000   0.198  14.467  0.4515 -0.2055 -0.0292
   25TMC2    C1  380   0.058   2.179  11.488  0.4730  0.6653  0.4340
   25TMC2    C2  381   0.175   2.121  11.455 -0.2000 -0.1950  0.7632
   25TMC2    C3  382   0.271   2.104  11.554  0.6925  0.7026  0.6112
   25TMC2    C4  383   0.022   2.229  11.607  0.4038  0.2774 -0.7606
   25TMC2    C5  384   0.117   2.205  11.703  0.1424  0.4914 -0.4838
   25TMC2    C6  385   0.244   2.147  11.682 -0.4121 -0.3526 -0.1794
   25TMC2     C  386   4.688   2.194  11.379 -0.2540  0.2321 -0.1849
   25TMC2     O  387   4.632   2.303  11.370 -0.3650 -0.6713 -0.2845
   25TMC2     H  388   0.191   2.094  11.352 -0.8353  1.9416  0.1045
   25TMC2    H1  389   4.648   2.273  11.635  1.4216  1.7639  0.3654
   25TMC2    H2  390   0.305   2.133  11.770  0.5399 -3.1918 -1.2953
   25TMC2    C7  391   0.093   2.254  11.832  0.2737  0.4099  0.1084
   25TMC2    C8  392   0.415   2.115  11.527 -0.6819 -0.3558  0.3614
   25TMC2    O1  393   0.133   2.186  11.924  0.0385  0.1407 -0.0209
   25TMC2    O2  394   0.492   2.079  11.615  0.8879  0.0732 -0.5861
   25TMC2    O5  395   0.434   2.216  11.435 -0.1580  0.4337  0.5915
   25TMC2    H5  396   0.353   2.248  11.390 -0.5315 -0.1907  0.8181
   26MPD2     C  397   4.415   2.045  10.974 -0.3569 -0.7054 -0.5726
   26MPD2    C1  398   4.460   1.935  11.040 -0.8710 -0.7109 -0.3935
   26MPD2    C2  399   4.541   1.950  11.151 -0.9517 -0.0922  0.2160
   26MPD2    C3  400   4.574   2.076  11.204  0.4754 -0.1646 -0.4585
   26MPD2    C4  401   4.528   2.185  11.134  0.0444 -0.0118  0.1475
   26MPD2    C5  402   4.458   2.168  11.020 -0.0669  0.1460 -0.4063
   26MPD2     H  403   4.568   1.859  11.203  0.2326 -0.2347 -0.6603
   26MPD2    H1  404   4.572   2.281  11.158  2.2791 -1.0713  0.2711
   26MPD2    H2  405   4.371   2.034  10.876 -0.4642 -0.7550 -0.5182
   26MPD2    H3  406   4.441   2.256  10.959 -2.3909 -0.0736 -0.0649
   26MPD2     N  407   4.661   2.085  11.313 -0.1097 -0.9636 -0.0039
   26MPD2    H5  408   4.695   1.997  11.348  1.3420 -0.7070 -0.7972
   26MPD2    N1  409   4.431   1.807  10.975  0.3156 -0.6566 -0.1826
   26MPD2    H7  410   4.379   1.803  10.888  1.4994  0.1257 -0.9182
   27TMC2    C1  411   3.411   4.709  12.008 -0.3561  0.6773  0.0572
   27TMC2    C2  412   3.411   0.093  11.923  0.0951  0.9779 -0.1367
   27TMC2    C3  413   3.458   0.209  11.985 -0.0457 -0.2239 -0.0411
   27TMC2    C4  414   3.455   4.708  12.135  0.4621  0.1984  0.8141
   27TMC2    C5  415   3.517   0.103  12.187 -0.5998 -0.1952  0.2269
   27TMC2    C6  416   3.508   0.216  12.115  0.2510  0.8839  0.2579
   27TMC2     C  417   3.352   4.589  11.964  0.2969  0.5615 -0.0174
   27TMC2     O  418   3.342   4.579  11.840  0.0992  0.4058  0.0110
   27TMC2     H  419   3.357   0.100  11.829  1.0471  1.3755 -0.6456
   27TMC2    H1  420   3.443   4.626  12.205 -0.3476  0.7776  1.3540
   27TMC2    H2  421   3.554   0.305  12.157 -0.1017  1.0233  0.3449
   27TMC2    C7  422   3.510   0.111  12.328 -1.3398 -0.0134 -0.8638
   27TMC2    C8  423   3.474   0.329  11.896  0.0880 -0.0099  0.1990
   27TMC2    O1  424   3.537   0.011  12.391 -0.0186  0.0306  0.0900
   27TMC2    O2  425   3.500   0.316  11.776  0.6702 -0.0124 -0.1497
   27TMC2    O5  426   3.426   0.436  11.961 -0.6793 -0.1312 -0.3270
   27TMC2    H5  427   3.387   0.423  12.051  0.7396 -0.8461  0.1941
   28MPD2     C  428   3.078   4.162  12.029 -0.0650  0.2536 -0.5317
   28MPD2    C1  429   3.106   4.220  12.155 -0.1884 -0.1586  1.0127
   28MPD2    C2  430   3.183   4.338  12.168  0.3268 -0.6952 -0.3220
   28MPD2    C3  431   3.225   4.395  12.050  0.2792 -0.4111 -0.1513
   28MPD2    C4  432   3.209   4.336  11.931 -0.0878 -0.2109  0.2538
   28MPD2    C5  433   3.127   4.227  11.921  0.0101 -0.1409 -0.1030
   28MPD2     H  434   3.197   4.390  12.262 -1.4787  1.5868 -1.3088
   28MPD2    H1  435   3.237   4.386  11.839  1.3607 -1.0849  0.2150
   28MPD2    H2  436   3.013   4.075  12.030  2.4861 -1.6278  0.4597
   28MPD2    H3  437   3.102   4.183  11.826 -0.0075  0.0937 -0.2063
   28MPD2     N  438   3.288   4.522  12.063  0.0182 -0.4247  0.7251
   28MPD2    H5  439   3.289   4.563  12.155  1.4849 -1.6147  1.2392
   28MPD2    N1  440   3.044   4.154  12.266 -0.1207 -0.6253 -0.0726
   28MPD2    H7  441   3.001   4.063  12.257 -0.6873 -0.2667 -1.0959
   29MPD2     C  442   2.766   1.628  14.035  0.7670 -0.3136 -1.2821
   29MPD2    C1  443   2.830   1.592  14.150  0.0759 -0.5375 -0.4007
   29MPD2    C2  444   2.877   1.690  14.240  0.4885  0.6437 -0.2084
   29MPD2    C3  445   2.869   1.825  14.199 -0.3302 -0.2582  0.3040
   29MPD2    C4  446   2.813   1.856  14.079  0.1790  0.3001  0.4459
   29MPD2    C5  447   2.756   1.756  14.002  0.1197 -0.1145 -0.0806
   29MPD2     H  448   2.931   1.657  14.328 -1.2389  0.1554  0.6693
   29MPD2    H1  449   2.807   1.961  14.051 -0.1216 -0.1304 -1.1070
   29MPD2    H2  450   2.732   1.559  13.958  0.8383  0.4134 -1.9735
   29MPD2    H3  451   2.710   1.783  13.908 -0.5592 -2.1456 -0.3245
   29MPD2     N  452   2.927   1.937  14.266 -0.1972 -0.4227 -0.2723
   29MPD2    H5  453   2.914   2.031  14.229  0.2483 -0.2548 -0.0027
   29MPD2    N1  454   2.855   1.459  14.189  0.3213 -0.1844 -0.4353
   29MPD2    H7  455   2.906   1.446  14.275  1.2682 -2.2838 -1.3174
   30TCq2    C1  456   2.979   1.930  14.396 -0.0774  0.5698  0.0184
   30TCq2    O2  457   2.987   1.838  14.476  0.5202 -0.3829  0.0528
   30TCq2    C2  458   3.022   2.061  14.443 -0.7317  1.2963 -0.2452
   30TCq2    C3  459   3.041   2.082  14.579 -0.0743  0.6725 -0.4894
   30TCq2    C4  460   3.112   2.186  14.615 -0.1589 -0.1215  0.7678
   30TCq2    C5  461   3.179   2.265  14.530  0.5760 -0.2776  0.4511
   30TCq2    C6  462   3.156   2.245  14.393  0.3959  0.0509 -0.1684
   30TCq2    C7  463   3.083   2.140  14.346  0.1507 -0.4561  0.7273
   30TCq2    C8  464   3.182   2.349  14.295  0.1771  0.4278 -0.6947
   30TCq2    O4  465   3.110   2.348  14.196  0.1135  0.0481  0.3456
   30TCq2    C9  466   3.130   2.204  14.758  0.4097  0.8311 -0.5892
   30TCq2    O5  467   3.233   2.272  14.793 -0.0762 -0.0844 -0.4449
   30TCq2    O6  468   3.026   2.196  14.835 -0.1392  0.0276 -0.1511
   30TCq2    H2  469   2.982   2.021  14.647 -0.6857  0.2901 -1.3641
   30TCq2    H3  470   3.235   2.349  14.568 -0.1986  0.5127 -0.1319
   30TCq2    H4  471   3.094   2.102  14.245  1.3783  1.1559  0.2609
   31MPD2     C  472   1.311   1.090  14.740 -0.6998 -0.0307  0.5267
   31MPD2    C1  473   1.185   1.027  14.745 -0.1766 -0.0251  0.2193
   31MPD2    C2  474   1.172   0.910  14.807 -0.1594  0.1155  0.3888
   31MPD2    C3  475   1.277   0.847  14.872 -0.0127  0.1106  0.0790
   31MPD2    C4  476   1.405   0.911  14.864 -0.1416  0.7148 -0.1373
   31MPD2    C5  477   1.418   1.027  14.797 -0.3917  0.0076  0.2158
   31MPD2     H  478   1.076   0.860  14.798  0.9532 -1.3876 -3.3179
   31MPD2    H1  479   1.481   0.854  14.916  2.4352  3.8088 -0.4492
   31MPD2    H2  480   1.328   1.186  14.694  0.8314  0.0380  1.2585
   31MPD2    H3  481   1.516   1.070  14.784  0.0269 -0.2677  2.3483
   31MPD2     N  482   1.272   0.708  14.917 -0.0238 -0.2320  0.2346
   31MPD2    H5  483   1.362   0.665  14.938 -0.0118 -0.9485 -1.2570
   31MPD2    N1  484   1.081   1.095  14.681  0.4703 -0.6358 -0.4539
   31MPD2    H7  485   1.112   1.176  14.628 -0.6439 -1.0778 -1.7701
   32TCq2    C1  486   1.153   0.640  14.946 -0.2582  0.5383 -0.1803
   32TCq2    O2  487   1.044   0.688  14.975 -0.3399  0.2406 -0.2282
   32TCq2    C2  488   1.174   0.500  14.976 -0.1909 -0.0051 -0.6467
   32TCq2    C3  489   1.287   0.447  14.923 -0.4091 -0.7773 -0.7917
   32TCq2    C4  490   1.342   0.330  14.966  0.2508  0.5158  0.1658
   32TCq2    C5  491   1.280   0.259  15.065  0.1460  0.2996 -0.0827
   32TCq2    C6  492   1.185   0.327  15.140 -0.3022  0.0076 -0.1203
   32TCq2    C7  493   1.130   0.450  15.097  0.5157  0.6600 -0.4632
   32TCq2    C8  494   1.135   0.251  15.259  0.4595  0.0973 -0.0941
   32TCq2    O4  495   1.184   0.140  15.279  0.1978  0.2223  0.3250
   32TCq2    C9  496   1.456   0.276  14.894 -0.2824  0.2983  0.4192
   32TCq2    O5  497   1.517   0.349  14.816 -0.0019  1.3225 -0.1260
   32TCq2    O6  498   1.495   0.158  14.921 -0.2093  0.2919 -0.0812
   32TCq2    H2  499   1.318   0.485  14.826  1.4264 -2.9624 -1.0532
   32TCq2    H3  500   1.314   0.161  15.095 -3.6538 -1.3188 -1.0479
   32TCq2    H4  501   1.063   0.515  15.152 -0.5972 -1.9069  1.1866
   33MPD2     C  502   1.468   2.058  10.127  0.1371  0.7731 -1.6586
   33MPD2    C1  503   1.366   2.155  10.127 -0.0071  0.0767  0.7134
   33MPD2    C2  504   1.271   2.160  10.027  0.3193 -0.1088 -0.2017
   33MPD2    C3  505   1.282   2.074   9.919  0.7271 -0.1535  0.4579
   33MPD2    C4  506   1.376   1.975   9.919 -0.1019 -0.4755  0.0274
   33MPD2    C5  507   1.467   1.978  10.018 -0.3204  0.6457 -0.0936
   33MPD2     H  508   1.186   2.226  10.032 -0.2591 -0.7195 -1.7644
   33MPD2    H1  509   1.397   1.904   9.840 -3.4449 -0.6970 -0.6648
   33MPD2    H2  510   1.541   2.047  10.206 -1.7622 -0.6247 -0.0930
   33MPD2    H3  511   1.535   1.895  10.002  1.1800  1.4414  2.2177
   33MPD2     N  512   1.203   2.082   9.806  0.1657 -0.7157  0.6564
   33MPD2    H5  513   1.224   2.017   9.731 -0.3282  0.4573 -0.5013
   33MPD2    N1  514   1.355   2.238  10.240  0.4779 -0.8241  0.1964
   33MPD2    H7  515   1.428   2.238  10.311 -0.7720  1.7517  1.4746
   34TCq2    C1  516   1.116   2.184   9.773 -0.3424  0.3761 -0.9083
   34TCq2    O2  517   1.112   2.291   9.832 -0.3924  0.6152 -0.3588
   34TCq2    C2  518   1.086   2.179   9.632  0.9390 -0.3520  0.6029
   34TCq2    C3  519   1.089   2.067   9.565  0.2392 -0.1008 -0.3418
   34TCq2    C4  520   1.090   2.079   9.429 -0.0051  0.1099  0.6601
   34TCq2    C5  521   1.080   2.192   9.360 -0.0313  0.0444  0.3552
   34TCq2    C6  522   1.080   2.305   9.438 -0.1341 -0.0535  0.4383
   34TCq2    C7  523   1.086   2.300   9.568 -0.1509  0.1911  0.5318
   34TCq2    C8  524   1.069   2.434   9.375 -0.3950 -0.5880 -0.0192
   34TCq2    O4  525   1.051   2.534   9.444  0.2103  0.5496 -0.2687
   34TCq2    C9  526   1.089   1.954   9.360 -0.6796 -0.0066  0.0314
   34TCq2    O5  527   1.052   1.954   9.241  0.6249 -0.1630  0.3331
   34TCq2    O6  528   1.128   1.849   9.423 -0.4766  0.0345  0.4805
   34TCq2    H2  529   1.092   1.969   9.611 -1.5830  1.3755  2.8613
   34TCq2    H3  530   1.075   2.193   9.251 -3.5004  0.6534  0.5189
   34TCq2    H4  531   1.099   2.388   9.631 -0.8462  2.9937 -3.2655
   35MPD2     C  532   2.123   4.319  11.869  0.4558 -0.9086 -0.1332
   35MPD2    C1  533   2.121   4.214  11.782  0.4075  0.0909 -0.1716
   35MPD2    C2  534   2.033   4.202  11.673  0.1699  0.5596 -0.6620
   35MPD2    C3  535   1.929   4.283  11.659 -0.1442  0.0783  0.1156
   35MPD2    C4  536   1.922   4.391  11.750  0.0345 -0.6551  0.0933
   35MPD2    C5  537   2.026   4.410  11.836 -0.8575  0.3605 -0.1620
   35MPD2     H  538   2.047   4.139  11.586  0.5412  0.9429 -0.8782
   35MPD2    H1  539   1.848   4.470  11.742  0.4690 -0.3061 -0.5752
   35MPD2    H2  540   2.198   4.341  11.944  0.0785  0.6294 -0.1943
   35MPD2    H3  541   2.034   4.497  11.901  0.1367  1.7456 -2.1391
   35MPD2     N  542   1.832   4.253  11.566  0.3958  0.2276 -0.2067
   35MPD2    H5  543   1.838   4.162  11.521  0.0813  0.8514 -1.5079
   35MPD2    N1  544   2.227   4.125  11.804 -0.2908 -0.7167 -0.5357
   35MPD2    H7  545   2.289   4.135  11.884  0.0162 -1.5721 -0.6763
   36TCq2    C1  546   1.716   4.324  11.535  0.4167 -0.1102  0.2360
   36TCq2    O2  547   1.701   4.444  11.569 -0.0898  0.3390  0.1451
   36TCq2    C2  548   1.618   4.271  11.439 -0.6338 -0.3312  0.3548
   36TCq2    C3  549   1.497   4.339  11.428  0.8382  0.8410  0.7042
   36TCq2    C4  550   1.390   4.291  11.355 -0.2291  0.3690  0.1068
   36TCq2    C5  551   1.416   4.176  11.281 -0.2740  0.6993  0.6987
   36TCq2    C6  552   1.532   4.105  11.301 -0.6123 -0.2169  0.3338
   36TCq2    C7  553   1.628   4.144  11.387  0.0558  0.5818 -0.5540
   36TCq2    C8  554   1.533   3.964  11.273  0.5965 -0.4109 -0.1515
   36TCq2    O4  555   1.596   3.897  11.348  0.5563  0.1566 -0.3282
   36TCq2    C9  556   1.261   4.355  11.361  0.3012  0.8047 -0.4615
   36TCq2    O5  557   1.261   4.466  11.419 -0.2066  0.1855  0.0693
   36TCq2    O6  558   1.166   4.295  11.304 -0.2076  0.7582  0.2339
   36TCq2    H2  559   1.489   4.433  11.482 -0.2871  0.3577  1.3788
   36TCq2    H3  560   1.343   4.132  11.214  0.6704 -0.0729  0.1965
   36TCq2    H4  561   1.717   4.085  11.403 -1.5014 -1.0559  1.9704
   37TMC2    C1  562   4.484   4.497  11.707  0.1907 -0.2260 -0.0648
   37TMC2    C2  563   4.442   4.392  11.626 -0.2711 -0.0251  1.2324
   37TMC2    C3  564   4.546   4.332  11.556 -0.3439 -0.0355 -1.2888
   37TMC2    C4  565   4.609   4.543  11.709  0.0483 -0.0167  0.2814
   37TMC2    C5  566   4.708   4.482  11.633 -0.2228  0.1146  0.2130
   37TMC2    C6  567   4.678   4.375  11.555 -0.0687  0.6759  0.0519
   37TMC2     C  568   4.396   4.541  11.810 -0.3056  0.1867 -0.2818
   37TMC2     O  569   4.274   4.542  11.783 -0.3988  0.1940 -0.1175
   37TMC2     H  570   4.337   4.370  11.611 -0.0346 -0.1817 -0.1943
   37TMC2    H1  571   4.637   4.626  11.773 -0.2713  1.1425 -1.0786
   37TMC2    H2  572   0.022   4.330  11.481 -2.2203  0.6813 -1.8444
   37TMC2    C7  573   0.125   4.521  11.663  0.0103 -0.1729  0.5995
   37TMC2    C8  574   4.507   4.232  11.451 -0.0474  0.3821  0.5989
   37TMC2    O1  575   0.149   4.602  11.752 -0.2744 -0.2790 -0.3064
   37TMC2    O2  576   4.568   4.233  11.344 -0.2177 -0.1332 -0.9251
   37TMC2    O5  577   4.382   4.190  11.474  0.4542 -0.0947  0.4956
   37TMC2    H5  578   4.365   4.173  11.569 -0.1361 -0.4472  0.3218
   38MPD2     C  579   4.309   4.707  12.285 -0.1665  0.4823  0.2639
   38MPD2    C1  580   4.445   4.693  12.271  0.7396  0.1273  0.0729
   38MPD2    C2  581   4.485   4.643  12.144 -0.3632 -0.4802 -0.1104
   38MPD2    C3  582   4.404   4.634  12.034 -0.2655  0.4779  0.4705
   38MPD2    C4  583   4.269   4.670  12.045  0.0964 -0.2945 -0.1500
   38MPD2    C5  584   4.222   4.702  12.176 -0.4167  0.1928 -0.0927
   38MPD2     H  585   4.589   4.613  12.144 -1.0732 -2.8692 -0.7088
   38MPD2    H1  586   4.205   4.678  11.958 -0.8014 -1.4389  0.3973
   38MPD2    H2  587   4.262   0.008  12.380  0.5555  2.3541  0.1943
   38MPD2    H3  588   4.117   4.705  12.200 -0.1292  0.7226  1.0855
   38MPD2     N  589   4.464   4.569  11.929 -0.6140 -0.4229 -0.3583
   38MPD2    H5  590   4.556   4.529  11.941 -0.3917  0.7855  1.9263
   38MPD2    N1  591   4.539   4.705  12.374  0.8137  0.0822  0.4189
   38MPD2    H7  592   4.638   4.692  12.356  0.4095  0.1839 -1.8478
   39MPD2     C  593   2.834   1.674   1.640  0.4716 -0.0779 -0.2892
   39MPD2    C1  594   2.749   1.783   1.653  0.0921  0.0829 -0.0250
   39MPD2    C2  595   2.617   1.769   1.602  0.1172 -0.3531 -0.5407
   39MPD2    C3  596   2.565   1.653   1.545 -0.0540 -0.0445 -1.0135
   39MPD2    C4  597   2.654   1.545   1.547 -0.1780 -0.0636  0.2105
   39MPD2    C5  598   2.786   1.562   1.581  0.7116 -0.0244  0.4218
   39MPD2     H  599   2.550   1.855   1.607  0.9002  0.2732 -0.9130
   39MPD2    H1  600   2.638   1.458   1.485  0.7709 -0.3332  0.3427
   39MPD2    H2  601   2.937   1.682   1.670  0.7030  0.7668 -1.3147
   39MPD2    H3  602   2.841   1.471   1.561  0.6200  0.0587 -0.2078
   39MPD2     N  603   2.440   1.648   1.480 -0.1844  0.3538 -0.5752
   39MPD2    H5  604   2.430   1.564   1.425 -1.4350  0.8951 -1.1916
   39MPD2    N1  605   2.803   1.901   1.713  0.2912  0.2289  0.1028
   39MPD2    H7  606   2.898   1.889   1.745  0.1530 -1.6454 -0.1402
   40TCq2    C1  607   2.732   2.007   1.761  0.0772 -0.5038  0.1526
   40TCq2    O2  608   2.613   2.027   1.738  0.3076  0.1056 -0.3507
   40TCq2    C2  609   2.816   2.100   1.836 -0.5091  0.0174 -0.8992
   40TCq2    C3  610   2.745   2.175   1.931  0.1777  0.4885 -0.2921
   40TCq2    C4  611   2.817   2.237   2.033 -0.2673  0.3647  0.2498
   40TCq2    C5  612   2.952   2.236   2.025  0.8067 -0.0210  0.3732
   40TCq2    C6  613   3.012   2.160   1.932 -0.4652  0.2052  0.4700
   40TCq2    C7  614   2.949   2.087   1.834 -0.3027 -0.3698 -0.4920
   40TCq2    C8  615   3.155   2.167   1.921  0.6642  0.4138 -0.7872
   40TCq2    O4  616   3.210   2.062   1.893  0.0913 -0.1857 -0.4378
   40TCq2    C9  617   2.751   2.319   2.123 -0.2555 -0.2944  0.0337
   40TCq2    O5  618   2.634   2.287   2.150  0.3603  0.1233  0.8014
   40TCq2    O6  619   2.808   2.431   2.154  0.2744  0.1596  0.0764
   40TCq2    H2  620   2.638   2.187   1.923 -0.0504 -1.5816 -0.3108
   40TCq2    H3  621   3.016   2.288   2.095  1.0685  0.3304 -0.1309
   40TCq2    H4  622   3.015   2.049   1.756  1.2658  1.5138 -0.0931
   41TMC2    C1  623   1.769   4.060  13.554 -0.9228  0.3616  0.0212
   41TMC2    C2  624   1.700   3.995  13.461 -0.4344 -0.1032  0.0943
   41TMC2    C3  625   1.710   4.036  13.335 -0.4206 -0.1491  0.5582
   41TMC2    C4  626   1.853   4.166  13.515 -0.4461  0.0167  0.1522
   41TMC2    C5  627   1.858   4.205  13.393  0.3572 -0.2546  0.3261
   41TMC2    C6  628   1.785   4.144  13.297  0.7229 -0.0527 -0.1036
   41TMC2     C  629   1.764   4.021  13.696 -0.0354 -0.0898 -0.3417
   41TMC2     O  630   1.759   3.904  13.724 -0.1536 -0.1690 -0.3169
   41TMC2     H  631   1.621   3.926  13.489  0.9283 -1.2259  1.1458
   41TMC2    H1  632   1.916   4.216  13.588 -1.0323 -0.4157  0.9651
   41TMC2    H2  633   1.773   4.184  13.197 -1.4018  0.1158  0.2071
   41TMC2    C7  634   1.943   4.314  13.361 -1.0701  0.3411  0.6105
   41TMC2    C8  635   1.617   3.989  13.239  0.1436 -0.1044  0.7352
   41TMC2    O1  636   1.991   4.386  13.448  0.3629  0.1445 -0.4157
   41TMC2    O2  637   1.635   4.002  13.119  0.2702  0.0668  0.4818
   41TMC2    O5  638   1.504   4.027  13.299  0.0890 -0.2871 -0.0896
   41TMC2    H5  639   1.504   4.019  13.396  1.5999 -0.4025 -0.0911
   42MPD2     C  640   1.776   4.019  13.994  0.3756 -0.2487 -0.0288
   42MPD2    C1  641   1.745   4.131  13.919  0.1514 -0.8547  0.4081
   42MPD2    C2  642   1.734   4.256  13.988  0.2386  0.2287 -0.3463
   42MPD2    C3  643   1.739   4.262  14.124  0.0537 -0.0051  0.4428
   42MPD2    C4  644   1.775   4.149  14.196  0.4914 -0.0794 -0.4689
   42MPD2    C5  645   1.785   4.027  14.132 -0.4597 -0.3244 -0.2070
   42MPD2     H  646   1.711   4.342  13.926  1.4696  0.2014 -0.8535
   42MPD2    H1  647   1.794   4.147  14.303  2.3438  0.5067 -0.7830
   42MPD2    H2  648   1.784   3.923  13.944  0.9723 -1.1639  1.7851
   42MPD2    H3  649   1.804   3.938  14.190 -0.7087 -1.0630 -1.2594
   42MPD2     N  650   1.690   4.376  14.196 -0.8367  0.3444 -0.1011
   42MPD2    H5  651   1.689   4.365  14.297 -2.1493 -0.4963 -0.2194
   42MPD2    N1  652   1.742   4.134  13.776  0.3325 -0.2495  0.0421
   42MPD2    H7  653   1.707   4.222  13.742 -0.4542 -0.3680  0.5453
   43MPD2     C  654   2.809   2.649   0.655 -0.0780 -0.2810 -0.7083
   43MPD2    C1  655   2.864   2.777   0.680 -0.3610 -0.0785  0.0755
   43MPD2    C2  656   2.801   2.868   0.762 -0.4728  0.6986 -0.1652
   43MPD2    C3  657   2.676   2.831   0.810  0.2321  0.4071  0.3001
   43MPD2    C4  658   2.618   2.714   0.769  0.5166  0.0032  0.7536
   43MPD2    C5  659   2.688   2.617   0.706 -0.0856  0.0198 -0.1157
   43MPD2     H  660   2.838   2.966   0.789  0.2848  0.3786 -0.0302
   43MPD2    H1  661   2.520   2.696   0.809  0.6374 -1.7183  0.2961
   43MPD2    H2  662   2.850   2.567   0.597 -0.2905 -0.9391  0.0612
   43MPD2    H3  663   2.643   2.520   0.686 -1.9116  1.2137 -1.8165
   43MPD2     N  664   2.603   2.919   0.893 -0.3966 -0.2588  0.1180
   43MPD2    H5  665   2.502   2.910   0.896 -0.3054 -1.0213  0.9540
   43MPD2    N1  666   2.999   2.807   0.649 -0.2199  0.1054 -0.7758
   43MPD2    H7  667   3.026   2.900   0.679  0.0250  0.4078 -1.9431
   44TCq2    C1  668   2.657   3.414   1.188 -0.0821 -0.2756 -0.2257
   44TCq2    O2  669   2.626   3.522   1.135 -0.1864  0.2648  0.0332
   44TCq2    C2  670   2.570   3.297   1.159 -0.1855  0.3002 -0.6633
   44TCq2    C3  671   2.456   3.323   1.092 -0.4027  0.2948  0.1506
   44TCq2    C4  672   2.398   3.235   1.011 -0.2566  0.2412  0.0169
   44TCq2    C5  673   2.448   3.108   0.988 -0.3624 -0.0255 -0.0170
   44TCq2    C6  674   2.571   3.084   1.050 -0.3072  0.3972  1.0691
   44TCq2    C7  675   2.631   3.181   1.131  0.0045 -0.4552  0.2065
   44TCq2    C8  676   2.667   3.003   0.980 -0.0805  0.5180 -0.1557
   44TCq2    O4  677   2.786   3.017   1.009  0.2820 -0.6917  0.0425
   44TCq2    C9  678   2.274   3.272   0.946  0.1076  0.4899  0.4959
   44TCq2    O5  679   2.225   3.383   0.987  0.5093  0.2524  0.1385
   44TCq2    O6  680   2.237   3.210   0.842  0.3810 -0.3951  0.2847
   44TCq2    H2  681   2.423   3.426   1.092 -1.2760  0.0393  2.7078
   44TCq2    H3  682   2.394   3.046   0.916  0.7851 -1.4729  0.3508
   44TCq2    H4  683   2.736   3.161   1.150 -0.5878 -1.2643  2.6014
   45TMC2    C1  684   3.834   4.654   9.246 -0.2800  0.0150 -0.1458
   45TMC2    C2  685   3.956   4.677   9.193  0.1282  0.1060 -0.0753
   45TMC2    C3  686   4.003   0.085   9.177  0.1372  0.1185  0.6462
   45TMC2    C4  687   3.761   0.034   9.292  0.4301 -0.8258  0.1650
   45TMC2    C5  688   3.801   0.161   9.278  0.1148 -0.0717  0.1725
   45TMC2    C6  689   3.916   0.185   9.206 -0.3232  0.2587 -0.0964
   45TMC2     C  690   3.775   4.517   9.233  0.0834  0.3093  0.1179
   45TMC2     O  691   3.861   4.436   9.201 -0.7438  0.4821 -0.7954
   45TMC2     H  692   4.019   4.595   9.158 -1.0499 -0.7862 -0.1123
   45TMC2    H1  693   3.700   0.021   9.381 -0.5064 -2.2533 -0.6879
   45TMC2    H2  694   3.947   0.287   9.190 -1.7992  0.9409  1.3854
   45TMC2    C7  695   3.734   0.275   9.339  0.3964 -0.6042 -0.3122
   45TMC2    C8  696   4.080   0.091   9.051 -0.0223  0.1299 -0.2463
   45TMC2    O1  697   3.619   0.256   9.384 -0.0412 -0.1751 -0.0723
   45TMC2    O2  698   4.064   0.004   8.968 -0.0130  0.8333  0.2832
   45TMC2    O5  699   4.108   0.218   9.025 -0.2233 -0.0317  0.0043
   45TMC2    H5  700   4.122   0.270   9.107  0.6441 -1.1623  0.5750
   46MPD2     C  701   3.618   4.276   9.146 -0.0890  0.7734 -0.0294
   46MPD2    C1  702   3.567   4.398   9.180 -0.1072  0.3617 -0.3773
   46MPD2    C2  703   3.429   4.410   9.178  0.1982  0.4123  0.2171
   46MPD2    C3  704   3.345   4.303   9.141 -0.9976  0.1129  0.3993
   46MPD2    C4  705   3.404   4.183   9.111  0.3155 -0.6154 -0.3122
   46MPD2    C5  706   3.539   4.173   9.106  0.0428  0.2795 -0.2256
   46MPD2     H  707   3.391   4.509   9.204  0.3030  0.5467 -0.1415
   46MPD2    H1  708   3.348   4.099   9.072 -0.1236  0.3787 -1.8161
   46MPD2    H2  709   3.724   4.254   9.150 -0.2589 -0.4387 -2.1513
   46MPD2    H3  710   3.587   4.082   9.071 -0.1072  0.2674 -0.4053
   46MPD2     N  711   3.202   4.309   9.156  0.0211 -1.0743 -0.2554
   46MPD2    H5  712   3.167   4.383   9.216  1.1672  0.2613 -1.2237
   46MPD2    N1  713   3.642   4.511   9.219 -0.5153  0.5134 -0.2272
   46MPD2    H7  714   3.594   4.590   9.262 -0.5995  0.4646 -0.2303
   47TMC2    C1  715   1.281   0.347   9.559  0.5093 -0.3330  0.1131
   47TMC2    C2  716   1.312   0.473   9.533 -0.3924 -0.5003 -0.4136
   47TMC2    C3  717   1.216   0.564   9.504 -0.7132 -0.1206 -0.0493
   47TMC2    C4  718   1.153   0.302   9.538 -0.3846 -0.3851  0.2600
   47TMC2    C5  719   1.059   0.396   9.494 -0.4512  0.6810  0.3149
   47TMC2    C6  720   1.088   0.527   9.475  0.3290 -0.4717 -0.3772
   47TMC2     C  721   1.391   0.260   9.601 -0.2051 -0.2020  0.3615
   47TMC2     O  722   1.481   0.312   9.668  0.1718  0.6870 -0.3581
   47TMC2     H  723   1.416   0.503   9.530 -0.0765 -1.4388  1.2640
   47TMC2    H1  724   1.119   0.199   9.538  2.0547 -1.1989 -1.5962
   47TMC2    H2  725   1.008   0.599   9.460 -0.5608 -1.5565 -0.8524
   47TMC2    C7  726   0.921   0.366   9.512 -0.1218 -0.4750 -0.4496
   47TMC2    C8  727   1.268   0.680   9.441 -0.2152 -0.2028  1.0030
   47TMC2    O1  728   0.841   0.440   9.457  0.2572 -0.1857  0.0618
   47TMC2    O2  729   1.387   0.718   9.460 -0.1110 -0.2537  0.4312
   47TMC2    O5  730   1.198   0.681   9.332  0.0926 -0.2563  0.0457
   47TMC2    H5  731   1.125   0.618   9.314  2.1216 -3.5691  3.6500
   48MPD2     C  732   1.606   0.052   9.622 -0.3088  0.2978 -0.5750
   48MPD2    C1  733   1.473   0.027   9.588 -0.8003 -0.4735 -0.1051
   48MPD2    C2  734   1.433   4.627   9.558  0.2893 -0.0393 -0.0495
   48MPD2    C3  735   1.520   4.520   9.560 -0.2792  0.1373 -0.4120
   48MPD2    C4  736   1.650   4.540   9.602  0.3392 -0.1451 -0.1169
   48MPD2    C5  737   1.696   4.669   9.634 -0.3857 -0.0282 -0.3948
   48MPD2     H  738   1.329   4.611   9.533  0.1524 -2.0830  1.7736
   48MPD2    H1  739   1.721   4.459   9.615  1.7033  0.7618 -1.8456
   48MPD2    H2  740   1.650   0.148   9.642  1.0481 -0.6846  1.1498
   48MPD2    H3  741   1.804   4.677   9.645 -0.2305 -0.6487 -1.5339
   48MPD2     N  742   1.463   4.403   9.514 -0.1156 -0.6121 -0.2644
   48MPD2    H5  743   1.363   4.404   9.497 -0.0642  0.9084 -0.4885
   48MPD2    N1  744   1.374   0.128   9.576  0.1576  0.3871 -0.3355
   48MPD2    H7  745   1.289   0.099   9.528 -0.2894  0.1198  0.6204
   49MPD2     C  746   4.435   2.060  10.131  0.0649 -0.2850 -0.0759
   49MPD2    C1  747   4.418   2.158  10.028  0.1904 -0.1142 -0.4558
   49MPD2    C2  748   4.426   2.295  10.058  0.0890 -0.1546 -0.1426
   49MPD2    C3  749   4.464   2.341  10.180  0.2831 -0.1486  0.7527
   49MPD2    C4  750   4.486   2.251  10.282 -0.1769  0.4308 -0.4038
   49MPD2    C5  751   4.477   2.114  10.253  0.3491  0.2024 -0.2204
   49MPD2     H  752   4.397   2.368   9.984 -1.6112 -0.8878 -0.2126
   49MPD2    H1  753   4.507   2.286  10.382 -5.9955  2.5013  0.1147
   49MPD2    H2  754   4.429   1.953  10.116 -0.8258 -0.4131  1.2291
   49MPD2    H3  755   4.493   2.044  10.334 -0.7385  0.0988 -0.1017
   49MPD2     N  756   4.488   2.477  10.211 -0.4748  0.0312 -0.7525
   49MPD2    H5  757   4.507   2.496  10.309  1.6909  0.7963 -1.3086
   49MPD2    N1  758   4.398   2.136   9.899  0.3802 -0.2340  0.2003
   49MPD2    H7  759   4.375   2.221   9.849  1.9131  0.2313  0.3044
   50TCq2    C1  760   4.389   2.012   9.841 -1.2006  0.2793  0.2900
   50TCq2    O2  761   4.399   1.905   9.900  0.4133  0.0456  0.0830
   50TCq2    C2  762   4.363   2.011   9.698 -0.5738  0.2363  0.0311
   50TCq2    C3  763   4.353   1.890   9.633  0.8454  0.5715 -0.3959
   50TCq2    C4  764   4.333   1.886   9.497  0.7220  0.3359 -0.2347
   50TCq2    C5  765   4.305   1.996   9.420 -0.3347  0.4070 -0.3652
   50TCq2    C6  766   4.309   2.112   9.488  0.3875 -0.8929 -0.4536
   50TCq2    C7  767   4.355   2.126   9.616 -0.2382 -0.2667 -0.2549
   50TCq2    C8  768   4.258   2.229   9.423 -0.1660  0.1824 -0.2411
   50TCq2    O4  769   4.262   2.340   9.475 -0.4887 -0.3056  0.3276
   50TCq2    C9  770   4.319   1.758   9.429  0.6784 -0.2351  0.3981
   50TCq2    O5  771   4.294   1.761   9.306 -0.0834  0.3718  0.2520
   50TCq2    O6  772   4.360   1.659   9.490  0.0422 -0.2925 -0.0567
   50TCq2    H2  773   4.342   1.805   9.699  1.0248 -0.2578 -1.4347
   50TCq2    H3  774   4.274   1.979   9.317  0.3784  0.2918 -0.5631
   50TCq2    H4  775   4.389   2.220   9.660 -2.5762 -0.4043  1.8200
   51MPD2     C  776   4.562   1.561   1.331 -0.0615  0.6446  0.0035
   51MPD2    C1  777   4.506   1.445   1.398  0.1477 -0.2379 -0.3166
   51MPD2    C2  778   4.494   1.452   1.536  0.4435 -0.1135  0.4758
   51MPD2    C3  779   4.529   1.565   1.617 -1.0716 -0.2359  0.4891
   51MPD2    C4  780   4.587   1.672   1.553  0.4282  0.1014 -0.3659
   51MPD2    C5  781   4.594   1.666   1.413 -0.0036  0.2449  0.2781
   51MPD2     H  782   4.447   1.368   1.586 -1.8224  2.1697  2.1933
   51MPD2    H1  783   4.609   1.762   1.609  1.3229  0.8009 -1.8391
   51MPD2    H2  784   4.607   1.556   1.232  0.3650  2.2784  0.1192
   51MPD2    H3  785   4.638   1.756   1.372  2.1007 -1.3965 -1.0362
   51MPD2     N  786   4.519   1.567   1.757  0.2791  0.2180 -0.4734
   51MPD2    H5  787   4.539   1.658   1.797  1.0147 -0.8626  1.5966
   51MPD2    N1  788   4.473   1.328   1.323 -0.2516 -0.0908  0.2326
   51MPD2    H7  789   4.454   1.251   1.386  1.4263  0.5009  1.4714
   52TCq2    C1  790   4.446   1.482   1.836  0.2469 -1.2116 -1.5926
   52TCq2    O2  791   4.384   1.380   1.794  0.7576 -0.1990 -0.6464
   52TCq2    C2  792   4.447   1.497   1.982 -0.0532  0.5181  0.8836
   52TCq2    C3  793   4.377   1.405   2.053 -0.3570 -0.5489 -0.3967
   52TCq2    C4  794   4.375   1.415   2.191 -0.1888 -0.8011  0.4283
   52TCq2    C5  795   4.454   1.502   2.259  0.3343 -0.1580 -0.1471
   52TCq2    C6  796   4.523   1.595   2.182 -0.9180 -0.1399 -0.2729
   52TCq2    C7  797   4.520   1.594   2.045 -0.1029 -0.0782  0.9749
   52TCq2    C8  798   4.620   1.678   2.254  1.1520 -0.7242  0.4840
   52TCq2    O4  799   4.706   1.735   2.190  0.4231  0.3551  0.0659
   52TCq2    C9  800   4.287   1.326   2.265  0.0640  0.9713 -0.4917
   52TCq2    O5  801   4.321   1.309   2.386 -0.4447 -0.5204  0.1716
   52TCq2    O6  802   4.206   1.261   2.195  0.0642 -0.6592  0.0793
   52TCq2    H2  803   4.318   1.325   2.009 -0.8183 -0.6159  0.3358
   52TCq2    H3  804   4.443   1.515   2.366  2.1168 -1.2064  0.1590
   52TCq2    H4  805   4.584   1.658   1.985  0.6272 -1.5796  0.1357
   53TMC2    C1  806   0.790   4.669  11.925 -0.1380 -0.1537  0.4643
   53TMC2    C2  807   0.874   4.612  12.014 -0.1272 -0.5848  0.2693
   53TMC2    C3  808   0.861   4.631  12.147  0.1173  0.6804  0.1806
   53TMC2    C4  809   0.690   0.027  11.973  0.2970  0.1166 -0.1841
   53TMC2    C5  810   0.683   0.047  12.112  0.4947  0.0772  0.4297
   53TMC2    C6  811   0.776   4.720  12.202 -0.9838  0.1415 -0.1686
   53TMC2     C  812   0.757   4.578  11.815  0.2205 -0.0113 -0.3424
   53TMC2     O  813   0.844   4.503  11.776 -0.4485 -0.4554 -0.3587
   53TMC2     H  814   0.958   4.558  11.971  0.3803  0.3525  0.0924
   53TMC2    H1  815   0.627   0.088  11.910  1.5395  1.3663 -0.2218
   53TMC2    H2  816   0.765   0.015  12.308 -2.5501  1.7951 -0.5760
   53TMC2    C7  817   0.556   0.100  12.167 -0.0467  0.1796  0.6694
   53TMC2    C8  818   0.978   4.590  12.232  0.5390  0.0189 -0.1122
   53TMC2    O1  819   0.472   0.112  12.082  0.4853 -0.4406 -0.1115
   53TMC2    O2  820   1.013   4.643  12.338 -0.2133  0.4770 -0.3442
   53TMC2    O5  821   0.992   4.460  12.201 -0.2592 -0.3502  0.6091
   53TMC2    H5  822   0.924   4.429  12.137 -1.0408  2.0579  0.2741
   54MPD2     C  823   0.634   4.482  11.556 -0.0171 -0.1186  0.6267
   54MPD2    C1  824   0.562   4.536  11.664 -1.1355  0.1184 -0.0386
   54MPD2    C2  825   0.423   4.537  11.665 -0.3158 -0.2325 -0.0070
   54MPD2    C3  826   0.352   4.468  11.573 -0.4815  0.5506  0.4411
   54MPD2    C4  827   0.422   4.421  11.461 -0.1652  0.3364 -1.2734
   54MPD2    C5  828   0.562   4.432  11.453 -0.0335  0.2615 -0.2395
   54MPD2     H  829   0.379   4.580  11.754 -0.6795  1.0744 -0.8300
   54MPD2    H1  830   0.367   4.369  11.383  0.3528 -2.2821  0.1171
   54MPD2    H2  831   0.741   4.483  11.542  0.0915 -1.7412  1.3923
   54MPD2    H3  832   0.617   4.388  11.371  0.5250 -1.4398  1.0300
   54MPD2     N  833   0.212   4.455  11.580  0.4056 -0.0678 -0.3745
   54MPD2    H5  834   0.174   4.386  11.516  0.9821 -0.3559 -0.4103
   54MPD2    N1  835   0.629   4.597  11.775  0.1944 -0.3250 -0.3390
   54MPD2    H7  836   0.567   4.649  11.837  0.7147  1.4717 -1.3213
   55MPD2     C  837   0.996   2.751  17.529 -0.2647 -0.1803 -0.1891
   55MPD2    C1  838   0.947   2.649  17.607 -0.2195 -0.0293  0.2143
   55MPD2    C2  839   0.834   2.676  17.684  0.4612 -0.2677 -0.3862
   55MPD2    C3  840   0.762   2.791  17.664 -0.0019  0.4357 -0.1521
   55MPD2    C4  841   0.810   2.887  17.582 -0.0819 -0.1156  0.3646
   55MPD2    C5  842   0.925   2.868  17.509 -0.1876  0.1359 -0.2621
   55MPD2     H  843   0.796   2.596   0.062  1.2310 -0.7230 -0.5010
   55MPD2    H1  844   0.758   2.981  17.572 -0.1739  0.0664  2.5713
   55MPD2    H2  845   1.080   2.737  17.462 -0.1628 -0.2979 -0.0353
   55MPD2    H3  846   0.956   2.940  17.435  0.5734 -0.4040 -0.4721
   55MPD2     N  847   0.638   2.810   0.048 -0.1244 -0.2011 -0.2637
   55MPD2    H5  848   0.623   2.751   0.130 -0.9061 -0.4499 -0.5918
   55MPD2    N1  849   1.021   2.528  17.611 -0.0923  0.0430  0.0960
   55MPD2    H7  850   1.108   2.522  17.558  0.5501 -1.3612  1.3151
   56TCq2    C1  851   0.979   2.408  17.670 -0.0875  0.8690 -0.2874
   56TCq2    O2  852   0.881   2.390   0.057 -0.1583  1.1770 -0.4968
   56TCq2    C2  853   1.074   2.299  17.668 -0.1458  0.2884 -0.1517
   56TCq2    C3  854   1.175   2.305  17.574 -0.4165  1.0968  0.7910
   56TCq2    C4  855   1.262   2.204  17.563 -0.0716 -0.2120  0.3871
   56TCq2    C5  856   1.255   2.098  17.647  0.1593  0.5044  0.5122
   56TCq2    C6  857   1.160   2.099   0.056  0.0466  0.0816 -0.4744
   56TCq2    C7  858   1.064   2.199   0.068  0.1491  0.1940 -0.7215
   56TCq2    C8  859   1.181   2.018   0.177 -0.5557 -0.0791 -0.1543
   56TCq2    O4  860   1.287   1.957   0.175 -0.0810 -0.3189 -0.2928
   56TCq2    C9  861   1.378   2.211  17.470 -0.4810  0.2900 -0.5309
   56TCq2    O5  862   1.443   2.108  17.441 -0.5721  0.1888  0.0926
   56TCq2    O6  863   1.403   2.322  17.411 -0.5761 -0.3322  0.0818
   56TCq2    H2  864   1.193   2.389  17.508 -1.3436  1.2442  0.7254
   56TCq2    H3  865   1.335   2.024  17.652 -1.5363 -1.1183  3.4607
   56TCq2    H4  866   0.989   2.200   0.147 -0.0749  0.9824 -0.9399
   57TMC2    C1  867   0.335   3.558  13.925  1.0181  0.2800  0.5364
   57TMC2    C2  868   0.416   3.473  13.990  0.6266 -0.4058  0.0407
   57TMC2    C3  869   0.506   3.398  13.924 -0.3005 -0.3469  0.0313
   57TMC2    C4  870   0.343   3.562  13.787  0.0001 -0.0149 -0.5750
   57TMC2    C5  871   0.441   3.490  13.727  0.5360 -0.3210 -0.3286
   57TMC2    C6  872   0.534   3.402  13.791 -0.4779 -0.2379  0.2949
   57TMC2     C  873   0.212   3.599  13.992 -1.5207  0.7347 -0.1815
   57TMC2     O  874   0.146   3.690  13.941 -0.6614 -0.6069 -0.0896
   57TMC2     H  875   0.428   3.457  14.097  0.7873  1.3870  0.2888
   57TMC2    H1  876   0.271   3.617  13.728 -0.7157 -0.8383 -0.4735
   57TMC2    H2  877   0.616   3.347  13.747  1.3253  0.8071  2.3561
   57TMC2    C7  878   0.452   3.490  13.582  0.6623 -0.2014 -1.1191
   57TMC2    C8  879   0.603   3.328  14.007  0.8925 -0.5722 -0.3579
   57TMC2    O1  880   0.412   3.580  13.513  0.0847  0.3430  0.1777
   57TMC2    O2  881   0.630   3.365  14.121 -0.3956 -0.0302  0.4662
   57TMC2    O5  882   0.605   3.199  13.964 -0.1169 -0.1022 -0.1530
   57TMC2    H5  883   0.552   3.188  13.882 -2.5841 -3.4366  1.8612
   58MPD2     C  884   4.517   3.507  14.285 -0.2286  0.4264 -0.1253
   58MPD2    C1  885   4.545   3.618  14.206 -0.3779  0.1042 -0.0883
   58MPD2    C2  886   4.670   3.624  14.147 -0.1979  0.0091 -0.1636
   58MPD2    C3  887   0.045   3.523  14.161  0.4984  0.1784  0.1139
   58MPD2    C4  888   0.005   3.414  14.234  0.4767  0.0158 -0.1841
   58MPD2    C5  889   4.607   3.403  14.291  0.0405  0.7795  0.3324
   58MPD2     H  890   4.694   3.719  14.101 -2.2558  1.4532  1.7046
   58MPD2    H1  891   0.077   3.333  14.243 -0.0892 -0.5850 -1.1775
   58MPD2    H2  892   4.429   3.499  14.349  0.6765  1.1821  1.2254
   58MPD2    H3  893   4.592   3.306  14.337 -1.0738  1.0645  0.5715
   58MPD2     N  894   0.177   3.517  14.101 -0.0108  0.3931  0.0870
   58MPD2    H5  895   0.248   3.447  14.121  0.4510  1.5300  2.3764
   58MPD2    N1  896   4.458   3.727  14.192  0.4019 -0.0526  0.2796
   58MPD2    H7  897   4.493   3.810  14.145  3.4542 -2.0727 -1.0156
   59MPD2     C  898   2.704   3.463  13.174 -0.2698 -0.6693 -0.0341
   59MPD2    C1  899   2.791   3.487  13.075  0.1842 -0.0147 -0.4421
   59MPD2    C2  900   2.906   3.563  13.100 -0.2606 -0.3050 -0.5356
   59MPD2    C3  901   2.935   3.613  13.226  0.0803  0.4663 -0.4769
   59MPD2    C4  902   2.844   3.588  13.321  0.7823  0.0485 -0.1137
   59MPD2    C5  903   2.729   3.514  13.302  0.4103  0.3935  0.4552
   59MPD2     H  904   2.968   3.574  13.011 -0.7230 -0.4518 -0.8783
   59MPD2    H1  905   2.863   3.633  13.418 -0.3873  2.0149 -0.7968
   59MPD2    H2  906   2.614   3.405  13.158 -0.8487  0.5495 -1.2856
   59MPD2    H3  907   2.661   3.488  13.383  0.9447  0.0435  0.7870
   59MPD2     N  908   3.040   3.698  13.262 -0.4466  0.0871 -0.2672
   59MPD2    H5  909   3.050   3.735  13.356  0.4241  1.1443 -0.7710
   59MPD2    N1  910   2.772   3.442  12.940  0.0426  0.1394 -0.0093
   59MPD2    H7  911   2.833   3.471  12.865  1.1691  1.1043  1.2764
   60TCq2    C1  912   2.650   3.383  12.899  0.2789 -0.0323  0.6881
   60TCq2    O2  913   2.554   3.338  12.960 -0.7485 -0.4311  0.1910
   60TCq2    C2  914   2.645   3.371  12.749  0.7831 -0.5550 -0.1839
   60TCq2    C3  915   2.533   3.306  12.703  0.0903 -0.1034  0.3360
   60TCq2    C4  916   2.519   3.296  12.568  0.6496 -0.2843 -0.0174
   60TCq2    C5  917   2.620   3.350  12.484  0.4956  0.0222 -0.5254
   60TCq2    C6  918   2.731   3.405  12.537 -0.3115  0.6468  0.5325
   60TCq2    C7  919   2.740   3.426  12.669 -0.0782 -0.1386  0.5546
   60TCq2    C8  920   2.827   3.490  12.465 -0.1135  0.0922 -0.3919
   60TCq2    O4  921   2.939   3.500  12.512 -0.4222  0.0815  0.3400
   60TCq2    C9  922   2.390   3.250  12.507 -0.4277 -0.5282  0.5646
   60TCq2    O5  923   2.312   3.195  12.589  0.1074  0.1484 -0.0107
   60TCq2    O6  924   2.400   3.221  12.386 -0.2817 -0.1981 -0.4238
   60TCq2    H2  925   2.454   3.284  12.774  0.9526 -2.7846  0.4588
   60TCq2    H3  926   2.611   3.363  12.377  1.1322  0.5795 -0.5158
   60TCq2    H4  927   2.835   3.460  12.709  0.1572 -2.6266  2.0598
   61MPD2     C  928   2.133   0.344  15.078 -0.2119 -0.1383  0.1565
   61MPD2    C1  929   2.043   0.447  15.093 -0.2321 -0.0003 -0.5575
   61MPD2    C2  930   2.032   0.554  15.006 -1.0171  0.3920 -0.1602
   61MPD2    C3  931   2.110   0.560  14.899 -0.2048 -0.4842  0.0013
   61MPD2    C4  932   2.201   0.461  14.880  0.2428  0.2338  0.0022
   61MPD2    C5  933   2.215   0.353  14.966 -0.3037 -0.4474 -0.3092
   61MPD2     H  934   1.968   0.638  15.031 -1.9666 -0.5543  0.6106
   61MPD2    H1  935   2.252   0.458  14.785 -1.9713  1.4459 -1.2064
   61MPD2    H2  936   2.151   0.255  15.137 -2.2074 -1.8584 -1.8284
   61MPD2    H3  937   2.268   0.268  14.925  1.6838  0.5981  0.1199
   61MPD2     N  938   2.094   0.668  14.810 -0.2687 -0.5299 -0.1993
   61MPD2    H5  939   2.007   0.717  14.823  0.0459 -0.3476  1.1716
   61MPD2    N1  940   1.948   0.452  15.198  0.1830  0.1108 -0.2028
   61MPD2    H7  941   1.879   0.527  15.194 -0.0215 -0.0380  0.4693
   62TCq2    C1  942   1.936   0.380  15.309  0.3744  0.4717 -0.3339
   62TCq2    O2  943   2.002   0.281  15.334 -0.5410  0.2513 -0.4971
   62TCq2    C2  944   1.853   0.445  15.412  0.5540  0.0579  0.8734
   62TCq2    C3  945   1.878   0.399  15.537  0.2985 -1.2687 -0.2450
   62TCq2    C4  946   1.833   0.474  15.645 -0.3108 -0.5619  0.4524
   62TCq2    C5  947   1.764   0.591  15.626  0.7361  0.1212 -0.5987
   62TCq2    C6  948   1.740   0.634  15.499 -0.2512 -0.4446  0.1365
   62TCq2    C7  949   1.792   0.570  15.393 -0.1994  0.4951  0.0769
   62TCq2    C8  950   1.695   0.772  15.480 -1.0499  0.2971 -0.9692
   62TCq2    O4  951   1.745   0.832  15.383  0.0857  0.5490  0.1797
   62TCq2    C9  952   1.873   0.448  15.777 -0.7332  0.0262 -0.4428
   62TCq2    O5  953   1.967   0.362  15.785 -0.2037 -0.1894 -0.0664
   62TCq2    O6  954   1.830   0.515  15.878  0.6673 -0.1168 -0.8200
   62TCq2    H2  955   1.940   0.311  15.548 -0.0706 -1.7919 -2.4578
   62TCq2    H3  956   1.737   0.652  15.712 -0.0754 -2.0675  0.6939
   62TCq2    H4  957   1.770   0.607  15.294  0.2512  0.3779 -0.0672
   63TMC2    C1  958   1.835   0.305  10.627  0.2481  0.2236  0.4977
   63TMC2    C2  959   1.918   0.365  10.709  0.1818  0.8159  0.0721
   63TMC2    C3  960   2.037   0.418  10.655 -0.4928  0.0210 -0.3494
   63TMC2    C4  961   1.861   0.283  10.496 -0.5204  0.1124 -0.0994
   63TMC2    C5  962   1.981   0.325  10.451 -0.4105  0.1762  0.2557
   63TMC2    C6  963   2.063   0.397  10.522 -0.2996 -0.9872  0.0957
   63TMC2     C  964   1.714   0.248  10.694 -0.2914  0.7290  1.0922
   63TMC2     O  965   1.672   0.301  10.793  0.4213 -0.0384 -0.2683
   63TMC2     H  966   1.887   0.383  10.811 -2.1517 -0.0813 -0.4777
   63TMC2    H1  967   1.799   0.221  10.432 -0.3449  0.0124 -0.1739
   63TMC2    H2  968   2.151   0.446  10.481 -0.4724 -0.4394  0.3790
   63TMC2    C7  969   1.975   0.363  10.306 -0.2298 -0.5972 -0.1093
   63TMC2    C8  970   2.108   0.522  10.729  0.0252 -0.4868 -0.1728
   63TMC2    O1  971   1.863   0.383  10.260 -0.0710  0.8788 -0.5889
   63TMC2    O2  972   2.172   0.609  10.678  0.2282  0.7254  0.0198
   63TMC2    O5  973   2.124   0.478  10.855  0.7303  0.4992  0.4553
   63TMC2    H5  974   2.086   0.389  10.867 -1.2751  1.3960  0.7399
   64MPD2     C  975   1.380   4.616  10.834  0.8012 -0.2904  0.7507
   64MPD2    C1  976   1.405   4.594  10.700 -0.0094 -0.4547 -0.2625
   64MPD2    C2  977   1.501   4.676  10.639 -0.1826  0.5078  0.7739
   64MPD2    C3  978   1.563   0.058  10.700  0.0306  0.0499 -0.0279
   64MPD2    C4  979   1.535   0.071  10.835 -1.3423 -0.4482 -0.0530
   64MPD2    C5  980   1.438   4.720  10.895 -0.2521 -0.5664  0.1091
   64MPD2     H  981   1.518   4.656  10.534 -0.3203 -0.4280  0.9282
   64MPD2    H1  982   1.587   0.134  10.905  1.4451 -0.3772 -2.1740
   64MPD2    H2  983   1.302   4.562  10.887 -0.3077  1.8687  1.2772
   64MPD2    H3  984   1.423   0.011  11.002  1.1067 -0.1597  0.2477
   64MPD2     N  985   1.659   0.141  10.632 -0.0618  0.4237  0.2730
   64MPD2    H5  986   1.675   0.118  10.534 -2.3357 -0.7088  0.1782
   64MPD2    N1  987   1.356   4.479  10.629 -0.1177 -0.1175 -0.1496
   64MPD2    H7  988   1.410   4.461  10.545 -0.5121 -1.3962 -0.1257
   65MPD2     C  989   2.212   4.462  15.774  0.6704  0.2689 -0.9599
   65MPD2    C1  990   2.268   4.457  15.645  0.2156 -1.1175  0.5732
   65MPD2    C2  991   2.301   4.338  15.587  0.4714 -0.6562  0.3157
   65MPD2    C3  992   2.273   4.210  15.645  0.0001  0.0147  0.0324
   65MPD2    C4  993   2.224   4.219  15.772 -0.3224 -0.2021  0.7238
   65MPD2    C5  994   2.203   4.343  15.839 -0.1351  0.1270 -0.0758
   65MPD2     H  995   2.350   4.339  15.490 -0.6036  1.1259 -0.2131
   65MPD2    H1  996   2.227   4.131  15.835 -1.3680 -1.6932 -1.3095
   65MPD2    H2  997   2.187   4.551  15.832 -1.2462 -0.4782 -0.6129
   65MPD2    H3  998   2.166   4.354  15.940 -0.5408  2.5402 -0.4851
   65MPD2     N  999   2.318   4.084  15.596 -0.1317  0.3589 -0.2847
   65MPD2    H5 1000   2.317   4.004  15.659  0.7125  0.7964  0.2893
   65MPD2    N1 1001   2.307   4.575  15.579 -0.4097 -0.5509  0.0341
   65MPD2    H7 1002   2.348   4.563  15.487  1.5729 -1.3663  1.0397
   66TCq2    C1 1003   2.280   4.709  15.619  0.1132 -0.1030  0.4685
   66TCq2    O2 1004   2.206   0.030  15.707 -0.6168 -0.2119  0.2101
   66TCq2    C2 1005   2.342   0.083  15.527  1.0569  0.5666  0.1330
   66TCq2    C3 1006   2.455   0.042  15.470  0.3516 -0.1387 -0.2347
   66TCq2    C4 1007   2.510   0.117  15.374 -0.1741 -0.8072  0.4068
   66TCq2    C5 1008   2.457   0.236  15.349 -0.7278 -0.2090  0.1184
   66TCq2    C6 1009   2.347   0.279  15.422  0.9833  0.0410  0.9985
   66TCq2    C7 1010   2.289   0.208  15.518 -0.0361 -0.1147 -0.7059
   66TCq2    C8 1011   2.312   0.417  15.414  0.2624 -0.7156  0.1960
   66TCq2    O4 1012   2.346   0.481  15.315  0.0706  0.0342  0.1258
   66TCq2    C9 1013   2.633   0.080  15.301 -0.2640  0.3590 -0.0707
   66TCq2    O5 1014   2.671   0.152  15.200  0.3509  0.2135 -0.2299
   66TCq2    O6 1015   2.664   4.675  15.309 -0.4200  0.2443 -0.4539
   66TCq2    H2 1016   2.509   4.670  15.488 -0.1761 -0.4355 -0.1624
   66TCq2    H3 1017   2.508   0.311  15.289  0.3430 -1.5488 -0.6189
   66TCq2    H4 1018   2.199   0.236  15.571 -0.1150  1.9271 -1.8893
   67MPD2     C 1019   2.737   3.776  14.291  0.7719  0.6764  0.6893
   67MPD2    C1 1020   2.626   3.850  14.333 -0.4398 -0.2335 -0.1405
   67MPD2    C2 1021   2.504   3.824  14.278  0.1620  0.1774  0.0317
   67MPD2    C3 1022   2.487   3.725  14.184  0.2653 -0.0288  0.1871
   67MPD2    C4 1023   2.593   3.643  14.150  0.1965  0.1708  0.0935
   67MPD2    C5 1024   2.716   3.674  14.207  0.7638  0.2945 -0.3746
   67MPD2     H 1025   2.425   3.892  14.308 -0.6872  0.3708 -2.5774
   67MPD2    H1 1026   2.588   3.578  14.063 -0.2131 -0.0773  0.3077
   67MPD2    H2 1027   2.833   3.785  14.342  0.2526  2.9031  1.2939
   67MPD2    H3 1028   2.799   3.612  14.177 -0.8555 -2.0215 -0.0553
   67MPD2     N 1029   2.365   3.703  14.119 -0.0844  0.8136  0.0314
   67MPD2    H5 1030   2.359   3.630  14.049 -1.7870  2.5859 -1.6877
   67MPD2    N1 1031   2.632   3.950  14.432  0.4312 -0.0632  0.3276
   67MPD2    H7 1032   2.545   3.987  14.469  1.3743  2.6694 -0.2021
   68TCq2    C1 1033   2.749   3.979  14.499  1.0992  0.0067  0.5702
   68TCq2    O2 1034   2.865   3.937  14.499  0.2539 -0.2557  0.4826
   68TCq2    C2 1035   2.721   4.078  14.607  0.5603 -0.3096  0.2840
   68TCq2    C3 1036   2.619   4.168  14.601 -0.4826 -1.4157  0.3441
   68TCq2    C4 1037   2.600   4.247  14.708 -1.0658  0.0119  0.2623
   68TCq2    C5 1038   2.671   4.234  14.826  0.3756 -0.3898  0.2314
   68TCq2    C6 1039   2.775   4.150  14.825  0.5535  0.3804  0.3710
   68TCq2    C7 1040   2.807   4.073  14.713 -0.2751 -0.1427 -0.6416
   68TCq2    C8 1041   2.866   4.138  14.939 -0.1239  0.0470 -0.3257
   68TCq2    O4 1042   2.960   4.054  14.931 -0.0983  0.2041  0.1217
   68TCq2    C9 1043   2.497   4.346  14.713 -0.7021  0.3309 -0.0895
   68TCq2    O5 1044   2.456   4.389  14.601 -0.2347  0.2718 -1.0920
   68TCq2    O6 1045   2.466   4.384  14.828 -0.0468  0.6559  0.5448
   68TCq2    H2 1046   2.568   4.199  14.511 -2.5920 -0.3982  1.8596
   68TCq2    H3 1047   2.661   4.311  14.902 -0.9414  0.4731 -0.8121
   68TCq2    H4 1048   2.895   4.011  14.718 -2.0755 -2.4796  2.3994
   69TMC2    C1 1049   0.679   0.509  12.953 -0.7750 -1.0948  0.3251
   69TMC2    C2 1050   0.641   0.616  13.026  0.5620  0.3034  0.1900
   69TMC2    C3 1051   0.720   0.727  13.016  0.2060  0.2965 -0.0863
   69TMC2    C4 1052   0.793   0.510  12.880  0.4576 -0.9894 -0.2173
   69TMC2    C5 1053   0.870   0.621  12.878 -0.7619 -0.2141 -0.5433
   69TMC2    C6 1054   0.837   0.737  12.945 -1.3386 -0.3111 -0.1954
   69TMC2     C 1055   0.594   0.388  12.949 -0.0719  0.1946  0.0971
   69TMC2     O 1056   0.653   0.281  12.923 -0.4554  0.1942 -0.2821
   69TMC2     H 1057   0.557   0.619  13.094 -1.0133  0.7644 -1.7606
   69TMC2    H1 1058   0.823   0.425  12.820  0.2054 -0.5928 -0.8953
   69TMC2    H2 1059   0.901   0.824  12.944 -0.3375 -1.0635 -1.3127
   69TMC2    C7 1060   0.976   0.626  12.782 -0.3701  0.2800 -0.1045
   69TMC2    C8 1061   0.688   0.847  13.084 -0.0794 -0.2724 -0.3801
   69TMC2    O1 1062   0.952   0.575  12.673 -0.2151  0.4624  1.2785
   69TMC2    O2 1063   0.767   0.935  13.118  0.1664  0.4381  0.1199
   69TMC2    O5 1064   0.562   0.865  13.047  0.2436 -0.0111  0.7524
   69TMC2    H5 1065   0.529   0.796  12.986  1.8743  0.5943 -0.8269
   70MPD2     C 1066   0.229   0.370  12.955 -0.1252 -0.2221  0.9380
   70MPD2    C1 1067   0.357   0.325  12.961  0.8324  0.4145 -0.1126
   70MPD2    C2 1068   0.384   0.192  12.965 -0.0620  0.2255 -0.1854
   70MPD2    C3 1069   0.286   0.103  12.971 -0.4267 -0.3929  0.1601
   70MPD2    C4 1070   0.153   0.144  12.961  0.0825  0.0088  0.4473
   70MPD2    C5 1071   0.125   0.275  12.957  0.2618  0.3791  0.4381
   70MPD2     H 1072   0.484   0.152  12.979 -1.2605 -3.1800 -1.5282
   70MPD2    H1 1073   0.074   0.071  12.950  0.8917 -0.7815 -0.1335
   70MPD2    H2 1074   0.204   0.474  12.942 -1.2166 -0.7111 -0.8044
   70MPD2    H3 1075   0.025   0.309  12.935 -0.4107 -1.8586 -0.0060
   70MPD2     N 1076   0.312   4.689  13.010 -0.0309  0.1958  0.2432
   70MPD2    H5 1077   0.243   4.630  13.055  1.2830 -0.3205  1.6034
   70MPD2    N1 1078   0.463   0.420  12.958 -0.2455 -0.1664 -0.2662
   70MPD2    H7 1079   0.436   0.517  12.968 -1.0404 -0.4991  0.7028
   71TMC2    C1 1080   1.871   1.232   1.852  0.3322 -0.2316  0.1315
   71TMC2    C2 1081   1.949   1.250   1.962  0.5027  0.1189  1.0746
   71TMC2    C3 1082   1.886   1.253   2.082  0.0205 -0.0914 -0.6631
   71TMC2    C4 1083   1.730   1.222   1.865 -0.2328  0.7187  0.1557
   71TMC2    C5 1084   1.676   1.220   1.988 -0.6176 -0.1707  0.3457
   71TMC2    C6 1085   1.750   1.241   2.099 -0.1044 -0.2520  1.2637
   71TMC2     C 1086   1.934   1.219   1.720 -0.6538 -0.0766  0.1104
   71TMC2     O 1087   2.057   1.243   1.710  0.2563  0.0781  0.2145
   71TMC2     H 1088   2.056   1.258   1.954  0.4688 -1.6313 -0.9770
   71TMC2    H1 1089   1.664   1.203   1.781 -0.1891  1.9752 -0.1575
   71TMC2    H2 1090   1.705   1.243   2.198  0.8401 -3.2605  1.7496
   71TMC2    C7 1091   1.526   1.194   2.000 -0.3657 -1.3536  1.2969
   71TMC2    C8 1092   1.969   1.284   2.198  0.1901  0.1894 -0.6848
   71TMC2    O1 1093   1.480   1.218   2.110 -0.0760 -0.4270  0.3360
   71TMC2    O2 1094   1.923   1.359   2.286  0.0767  0.3435  0.0451
   71TMC2    O5 1095   2.050   1.177   2.218 -0.1806 -0.0177  0.2058
   71TMC2    H5 1096   2.062   1.112   2.145 -0.2453  0.2756 -0.0651
   72MPD2     C 1097   1.949   1.006   1.256 -0.0463 -0.0650  0.4150
   72MPD2    C1 1098   2.048   1.070   1.326  0.7000 -0.2959 -0.5708
   72MPD2    C2 1099   2.016   1.121   1.446 -0.3865  0.3317 -0.3752
   72MPD2    C3 1100   1.890   1.106   1.505 -0.1676  0.3322  0.6995
   72MPD2    C4 1101   1.792   1.047   1.435 -0.4054  0.4928 -0.8828
   72MPD2    C5 1102   1.825   0.995   1.312  0.6499 -0.5245  0.2837
   72MPD2     H 1103   2.084   1.187   1.499 -1.5944  0.5829  0.8498
   72MPD2    H1 1104   1.697   1.039   1.486  0.0139  0.7138 -0.0809
   72MPD2    H2 1105   1.958   0.965   1.156  0.1356 -2.0807  1.2661
   72MPD2    H3 1106   1.752   0.942   1.251  2.7221 -3.2764  0.1591
   72MPD2     N 1107   1.851   1.160   1.631  0.1733 -0.4776 -0.4395
   72MPD2    H5 1108   1.751   1.151   1.645  0.1348 -0.7054 -0.8609
   72MPD2    N1 1109   2.187   1.095   1.282 -0.0368 -0.3763  0.5681
   72MPD2    H7 1110   2.250   1.142   1.347  0.4313 -0.8631  0.4696
   73TMC2    C1 1111   1.964   2.564  14.301  0.4327  0.5993  1.1842
   73TMC2    C2 1112   1.888   2.459  14.344  0.4398 -0.3280  0.4123
   73TMC2    C3 1113   1.936   2.384  14.449 -0.1600 -0.2832  0.6683
   73TMC2    C4 1114   2.079   2.592  14.362 -0.1027 -0.1606 -0.0062
   73TMC2    C5 1115   2.138   2.502  14.448  0.2843 -0.6238  0.2640
   73TMC2    C6 1116   2.067   2.404  14.500 -0.1437 -0.1344  0.1083
   73TMC2     C 1117   1.969   2.579  14.156 -0.1286 -0.2071 -0.5783
   73TMC2     O 1118   2.083   2.601  14.122  0.2213  0.3314  0.5590
   73TMC2     H 1119   1.794   2.431  14.298 -0.5711  1.2077  1.5228
   73TMC2    H1 1120   2.128   2.682  14.327  0.5736  0.7618  3.3424
   73TMC2    H2 1121   2.099   2.343  14.584 -0.0598  0.8485  0.7894
   73TMC2    C7 1122   2.278   2.479  14.422 -0.6178  1.1001 -0.4711
   73TMC2    C8 1123   1.831   2.336  14.545  0.0624  0.1952 -1.0040
   73TMC2    O1 1124   2.345   2.412  14.503  0.0478 -0.1134 -0.4196
   73TMC2    O2 1125   1.713   2.368  14.548 -0.3332 -0.3933 -0.7537
   73TMC2    O5 1126   1.881   2.254  14.635 -0.2686 -0.4002  0.3171
   73TMC2    H5 1127   1.962   2.202  14.612 -1.4527 -0.9473 -2.6538
   74MPD2     C 1128   1.835   2.573  13.661  0.0031  0.2106 -0.0997
   74MPD2    C1 1129   1.957   2.540  13.721 -0.1320  0.6441  0.1697
   74MPD2    C2 1130   1.963   2.528  13.859 -0.2274  0.1753 -0.5507
   74MPD2    C3 1131   1.850   2.557  13.942 -0.1847  0.0476  0.2912
   74MPD2    C4 1132   1.738   2.575  13.879  0.0535  0.0131 -0.3887
   74MPD2    C5 1133   1.728   2.582  13.741  0.3536  0.1292  0.2366
   74MPD2     H 1134   2.059   2.507  13.905  0.7729 -2.0406 -3.6553
   74MPD2    H1 1135   1.647   2.592  13.935 -1.4049 -1.9275 -2.1603
   74MPD2    H2 1136   1.828   2.594  13.555 -1.4234  0.7654  0.1098
   74MPD2    H3 1137   1.630   2.598  13.697  0.5698 -1.4217 -0.8348
   74MPD2     N 1138   1.853   2.556  14.083  0.5381 -0.0938  0.7976
   74MPD2    H5 1139   1.765   2.561  14.134 -1.0262  2.1077 -2.1688
   74MPD2    N1 1140   2.079   2.537  13.647  0.1184  0.1375 -0.1843
   74MPD2    H7 1141   2.062   2.556  13.549 -1.8168  1.4503  0.4112
   75TCq2    C1 1142   2.239   3.756  14.162 -0.2452 -0.0031  0.2941
   75TCq2    O2 1143   2.208   3.817  14.261 -0.3632  0.0161  0.1958
   75TCq2    C2 1144   2.137   3.726  14.062 -0.0491  0.4693  0.0799
   75TCq2    C3 1145   2.009   3.702  14.108 -0.0414 -0.3936  0.2046
   75TCq2    C4 1146   1.911   3.695  14.019  0.1674 -0.0634 -0.1713
   75TCq2    C5 1147   1.935   3.708  13.885  0.0683 -0.4084 -0.1776
   75TCq2    C6 1148   2.054   3.753  13.850 -0.2523  0.5804  0.0113
   75TCq2    C7 1149   2.160   3.765  13.935 -0.0283 -0.1101  0.0087
   75TCq2    C8 1150   2.070   3.762  13.710 -0.6556 -0.5123 -0.0587
   75TCq2    O4 1151   2.000   3.690  13.638  0.5602  0.7862  0.1024
   75TCq2    C9 1152   1.777   3.656  14.071  0.0093 -0.4674  0.0864
   75TCq2    O5 1153   1.680   3.711  14.013  0.6564 -0.3402  0.1991
   75TCq2    O6 1154   1.766   3.597  14.185 -0.2607  0.0456 -0.1263
   75TCq2    H2 1155   1.988   3.695  14.214  2.9995 -2.1900  0.6795
   75TCq2    H3 1156   1.849   3.709  13.819  1.1596 -1.4518 -1.6109
   75TCq2    H4 1157   2.258   3.798  13.903 -0.6034  2.4928  0.9015
   76MPD2     C 1158   1.810   0.156  12.096  0.2060 -0.0943 -0.2069
   76MPD2    C1 1159   1.682   0.147  12.048  0.7582 -1.0446 -0.3668
   76MPD2    C2 1160   1.632   0.027  11.988 -0.6300 -0.1505  0.1087
   76MPD2    C3 1161   1.713   4.631  11.995  0.4313  0.1875 -0.3085
   76MPD2    C4 1162   1.830   4.645  12.063 -0.1774  0.1606  0.0609
   76MPD2    C5 1163   1.871   0.042  12.110 -0.0999 -0.0142  0.0770
   76MPD2     H 1164   1.530   0.019  11.952 -0.0937  0.9388 -1.6743
   76MPD2    H1 1165   1.892   4.557  12.079  2.1486  1.7913 -0.0170
   76MPD2    H2 1166   1.864   0.244  12.128  0.2081  0.4055 -1.6167
   76MPD2    H3 1167   1.961   0.050  12.169  1.4284  0.1855 -2.2754
   76MPD2     N 1168   1.679   4.503  11.953  0.4077 -0.2084 -0.6943
   76MPD2    H5 1169   1.737   4.430  11.993  0.2163  0.3964  0.6906
   76MPD2    N1 1170   1.597   0.254  12.052  0.3461 -0.2346 -0.1083
   76MPD2    H7 1171   1.506   0.235  12.013  0.6603 -2.1651  0.1224
   77TCq2    C1 1172   1.557   4.477  11.891 -0.2336  0.0319  0.2579
   77TCq2    O2 1173   1.477   4.559  11.846  0.2156  0.3958 -0.0293
   77TCq2    C2 1174   1.537   4.335  11.851 -0.9378  0.1548  0.3798
   77TCq2    C3 1175   1.419   4.303  11.784 -0.0839 -0.5506  0.0942
   77TCq2    C4 1176   1.402   4.176  11.746 -0.0967  0.1353  0.3084
   77TCq2    C5 1177   1.491   4.076  11.772  0.6719  0.3184 -0.5803
   77TCq2    C6 1178   1.605   4.108  11.846  0.5721  0.2156 -1.2281
   77TCq2    C7 1179   1.626   4.241  11.879 -0.0201  0.2112 -0.4152
   77TCq2    C8 1180   1.703   4.005  11.873  0.2724 -0.2383 -0.8736
   77TCq2    O4 1181   1.699   3.902  11.808  0.2349 -0.3216  0.3247
   77TCq2    C9 1182   1.281   4.141  11.676 -0.5399 -0.0474  0.0200
   77TCq2    O5 1183   1.255   4.022  11.643  0.1288 -0.1921  0.4012
   77TCq2    O6 1184   1.185   4.223  11.694  0.2671 -0.2396 -0.0746
   77TCq2    H2 1185   1.344   4.380  11.771  0.7629  0.0386 -1.2814
   77TCq2    H3 1186   1.471   3.976  11.736  2.8305 -1.5306  3.3964
   77TCq2    H4 1187   1.727   4.260  11.915 -0.4241 -2.1785  1.9062
   78MPD1     C 1188   1.744   0.580   1.744 -0.4302 -0.0949  0.3077
   78MPD1    C1 1189   1.842   0.604   1.651 -1.1136 -0.4045  0.0009
   78MPD1    C2 1190   1.963   0.545   1.679  0.5946  0.1827  0.6756
   78MPD1    C3 1191   1.995   0.491   1.803  0.5500  0.2571 -0.0233
   78MPD1    C4 1192   1.899   0.486   1.903 -0.2045  0.0876 -0.1172
   78MPD1    C5 1193   1.773   0.529   1.865  0.8293  0.2035  0.5606
   78MPD1     H 1194   2.038   0.549   1.601 -0.2053  1.2248 -0.0390
   78MPD1    H1 1195   1.926   0.447   2.000 -1.8706 -0.0177  0.3068
   78MPD1    H2 1196   1.642   0.613   1.728  0.8707  3.2734 -1.2841
   78MPD1    H3 1197   1.690   0.521   1.935  0.3012  0.4557 -0.0362
   78MPD1     N 1198   2.121   0.438   1.838  0.5037 -0.4284  0.7783
   78MPD1    H5 1199   2.135   0.388   1.925  0.3085  2.0598  2.2519
   78MPD1    N1 1200   1.805   0.649   1.524  0.4586  0.6832  0.7614
   78MPD1    H6 1201   1.717   0.700   1.522 -0.5790 -1.1592 -0.8641
   78MPD1    H7 1202   1.877   0.704   1.478 -0.1139 -0.8013 -1.9178
   79TCq2    C1 1203   2.235   0.440   1.757  0.2951 -0.1284  0.4283
   79TCq2    O2 1204   2.262   0.487   1.646  0.1537 -0.0251  0.3395
   79TCq2    C2 1205   2.348   0.376   1.825 -0.1152 -0.3814  1.2072
   79TCq2    C3 1206   2.330   0.329   1.952 -0.3499  0.6049 -0.8133
   79TCq2    C4 1207   2.429   0.257   2.014 -0.6016  0.3978  0.2247
   79TCq2    C5 1208   2.552   0.240   1.952 -0.0007  0.6151  0.0174
   79TCq2    C6 1209   2.568   0.293   1.827  0.2943  0.7596  0.1891
   79TCq2    C7 1210   2.469   0.365   1.765  0.3333 -0.3649  0.0147
   79TCq2    C8 1211   2.702   0.346   1.809  0.2872  0.1814  0.3538
   79TCq2    O4 1212   2.771   0.355   1.911  0.4365 -1.1028  0.1228
   79TCq2    C9 1213   2.416   0.212   2.152  0.3716 -0.0115 -0.1838
   79TCq2    O5 1214   2.493   0.118   2.184  0.2011  0.5925 -0.0996
   79TCq2    O6 1215   2.347   0.285   2.226  0.1038 -0.1231 -0.0080
   79TCq2    H2 1216   2.241   0.328   2.014  0.1402  0.7436 -0.1072
   79TCq2    H3 1217   2.627   0.181   2.003  0.3904 -0.4351 -1.7557
   79TCq2    H4 1218   2.490   0.414   1.671  2.5245 -0.4693  0.4399
   80MPD2     C 1219   0.686   4.398  12.371 -0.3093 -0.3228 -0.7789
   80MPD2    C1 1220   0.573   4.420  12.293  0.7488 -0.1277 -0.4113
   80MPD2    C2 1221   0.467   4.490  12.351  0.4963  0.2373 -0.4602
   80MPD2    C3 1222   0.471   4.533  12.485 -1.0502 -0.0239  0.1322
   80MPD2    C4 1223   0.581   4.505  12.559  0.2494  0.1198 -0.1169
   80MPD2    C5 1224   0.689   4.445  12.502 -0.4455 -0.6830  0.0631
   80MPD2     H 1225   0.387   4.524  12.287 -0.5206 -0.7276  0.3016
   80MPD2    H1 1226   0.581   4.528  12.665 -0.2973 -0.6813  0.0561
   80MPD2    H2 1227   0.773   4.346  12.333 -0.8699 -0.7198 -1.5208
   80MPD2    H3 1228   0.779   4.431  12.561 -1.1954  0.9196  1.5827
   80MPD2     N 1229   0.356   4.585  12.550  0.4672 -0.0374 -0.2529
   80MPD2    H5 1230   0.366   4.615  12.647 -0.6592 -1.1089  0.1841
   80MPD2    N1 1231   0.571   4.390  12.157  0.9082 -0.0884 -0.6388
   80MPD2    H7 1232   0.484   4.422  12.116  0.9786 -0.5302 -1.1280
   81TCq2    C1 1233   0.674   4.322  12.084  0.3598 -0.4189 -0.3081
   81TCq2    O2 1234   0.794   4.310  12.099  0.1281 -0.5176  0.2688
   81TCq2    C2 1235   0.624   4.253  11.970  0.1541  0.8909 -0.2881
   81TCq2    C3 1236   0.714   4.219  11.867  0.3881 -0.2152 -0.9277
   81TCq2    C4 1237   0.662   4.163  11.752  0.3224  0.1078  0.2056
   81TCq2    C5 1238   0.527   4.158  11.738 -0.0216  0.3737 -0.4078
   81TCq2    C6 1239   0.442   4.194  11.840 -0.5671  0.1476  0.3018
   81TCq2    C7 1240   0.492   4.243  11.958 -0.1264 -0.4893 -0.3579
   81TCq2    C8 1241   0.299   4.174  11.819 -0.4750 -0.4109 -0.4648
   81TCq2    O4 1242   0.262   4.173  11.704  0.3561  0.4029  0.2216
   81TCq2    C9 1243   0.739   4.133  11.636 -0.5232  0.3076  0.2800
   81TCq2    O5 1244   0.679   4.075  11.539  0.4562  0.6996 -0.0563
   81TCq2    O6 1245   0.863   4.159  11.634  0.0347 -0.8287 -0.4573
   81TCq2    H2 1246   0.822   4.223  11.868  0.3881  0.4220 -2.9370
   81TCq2    H3 1247   0.481   4.131  11.644 -1.4869  3.7670 -0.6587
   81TCq2    H4 1248   0.415   4.244  12.034  2.3163 -1.5297  2.1518
   82MPD2     C 1249   3.089   3.749  10.311 -0.1538 -1.1065 -0.7006
   82MPD2    C1 1250   3.005   3.642  10.300  0.0414  0.7427 -0.3125
   82MPD2    C2 1251   3.046   3.518  10.338  0.0678 -0.0152  0.5657
   82MPD2    C3 1252   3.169   3.498  10.389 -0.7892 -0.3263  0.0116
   82MPD2    C4 1253   3.255   3.606  10.401  0.0328  0.0487 -1.2231
   82MPD2    C5 1254   3.219   3.728  10.357  0.4465  0.2887 -0.8367
   82MPD2     H 1255   2.972   3.439  10.331  0.0164  0.2180 -1.5087
   82MPD2    H1 1256   3.357   3.586  10.433 -0.1071  1.2779  0.0147
   82MPD2    H2 1257   3.054   3.846  10.278  1.0111 -0.4059  0.1470
   82MPD2    H3 1258   3.287   3.812  10.350  0.3755  0.2164 -2.4091
   82MPD2     N 1259   3.227   3.367  10.420 -0.5521  0.2192  0.3700
   82MPD2    H5 1260   3.320   3.350  10.455 -0.3709  1.3747  0.4421
   82MPD2    N1 1261   2.890   3.674  10.228  0.1439  0.4860  0.2138
   82MPD2    H7 1262   2.870   3.773  10.218 -0.9032  0.2428 -0.1971
   83TCq2    C1 1263   3.162   3.239  10.424  0.6607 -0.4914  0.3332
   83TCq2    O2 1264   3.042   3.223  10.406 -0.6899 -0.6981  0.0986
   83TCq2    C2 1265   3.248   3.130  10.472 -0.7688 -0.8697 -0.3613
   83TCq2    C3 1266   3.369   3.164  10.528  0.2571 -0.3447  0.1305
   83TCq2    C4 1267   3.427   3.077  10.618 -0.4143 -0.3653  0.5037
   83TCq2    C5 1268   3.360   2.966  10.658 -0.4441  0.1144 -0.0984
   83TCq2    C6 1269   3.239   2.937  10.602  0.1009 -0.5702  0.0721
   83TCq2    C7 1270   3.184   3.014  10.505 -0.7177  0.2036  0.6765
   83TCq2    C8 1271   3.141   2.865  10.680  0.0935  0.4570  0.1231
   83TCq2    O4 1272   3.144   2.875  10.801 -0.3984  0.3575 -0.0694
   83TCq2    C9 1273   3.534   3.123  10.707 -0.5751 -0.5704 -0.6501
   83TCq2    O5 1274   3.608   3.223  10.673  0.4640  0.5298 -0.4728
   83TCq2    O6 1275   3.526   3.087  10.821 -0.2595 -0.0800  0.0664
   83TCq2    H2 1276   3.423   3.257  10.522  0.9274 -0.7422 -0.0641
   83TCq2    H3 1277   3.390   2.908  10.744  0.8929  1.8754  0.6105
   83TCq2    H4 1278   3.079   3.008  10.480 -0.1643  0.4703 -1.7539
   84TCq2    C1 1279   4.508   2.579  10.116  0.2554  0.0700  0.2988
   84TCq2    O2 1280   4.519   2.581   9.993  0.2197  0.4688 -0.3433
   84TCq2    C2 1281   4.544   2.701  10.190 -0.1874  0.2046 -0.5701
   84TCq2    C3 1282   4.624   2.793  10.128 -0.4570  0.3994 -0.1791
   84TCq2    C4 1283   4.645   2.909  10.187 -0.0441  0.6595 -0.2421
   84TCq2    C5 1284   4.597   2.939  10.310 -0.3540  0.9593 -0.0365
   84TCq2    C6 1285   4.516   2.848  10.370 -0.0026 -0.0917 -0.8078
   84TCq2    C7 1286   4.479   2.733  10.306  0.0895  1.0026  0.3915
   84TCq2    C8 1287   4.442   2.893  10.481 -0.9535  0.2113  0.2598
   84TCq2    O4 1288   4.424   3.016  10.488 -0.3498 -0.8725 -0.5996
   84TCq2    C9 1289   0.007   3.004  10.118 -0.6104 -0.2915  0.4740
   84TCq2    O5 1290   0.043   3.109  10.182  0.7484  0.2442  0.1993
   84TCq2    O6 1291   0.018   2.987   9.993 -0.0911 -0.2255  0.1743
   84TCq2    H2 1292   4.670   2.776  10.032  2.2249  1.5483  0.9003
   84TCq2    H3 1293   4.606   3.042  10.343  1.7871  0.3175  1.4295
   84TCq2    H4 1294   4.389   2.683  10.339  1.6829 -1.9218  0.3311
   85MPD2     C 1295   4.551   0.876  16.271  0.4252  1.0486  0.0558
   85MPD2    C1 1296   4.600   0.820  16.162 -0.2681 -0.0722 -0.3285
   85MPD2    C2 1297   4.670   0.886  16.063 -0.0795  0.2511  0.1878
   85MPD2    C3 1298   4.693   1.018  16.070  0.5348  0.0411  0.4534
   85MPD2    C4 1299   4.635   1.078  16.182 -0.3870 -0.9839  0.3483
   85MPD2    C5 1300   4.571   1.010  16.282  0.0776  0.1945 -0.1776
   85MPD2     H 1301   0.015   0.831  15.996  0.3840 -0.9149  1.6140
   85MPD2    H1 1302   4.640   1.186  16.196  0.9704 -1.0327  0.3254
   85MPD2    H2 1303   4.495   0.817  16.343  1.6938 -1.4142 -1.0055
   85MPD2    H3 1304   4.524   1.065  16.362 -0.2317 -0.1967 -0.0909
   85MPD2     N 1305   0.073   1.081  15.987 -0.5306  0.2349  0.1803
   85MPD2    H5 1306   0.109   1.025  15.911 -0.4811  0.2047  0.2261
   85MPD2    N1 1307   4.574   0.681  16.158  0.1883  0.4371 -0.4631
   85MPD2    H7 1308   4.521   0.640  16.235 -2.1995  0.6396 -2.0101
   86TCq2    C1 1309   0.107   1.210  15.993  0.6454  0.0439 -0.1292
   86TCq2    O2 1310   0.062   1.289  16.073 -0.2135 -0.3565 -0.1574
   86TCq2    C2 1311   0.192   1.262  15.890  0.6166  0.2371  0.3729
   86TCq2    C3 1312   0.163   1.389  15.856 -0.3124  0.2643 -0.0947
   86TCq2    C4 1313   0.231   1.441  15.749  0.0847 -0.3766  0.2107
   86TCq2    C5 1314   0.323   1.367  15.681  0.0379 -0.0338 -0.1822
   86TCq2    C6 1315   0.334   1.236  15.711 -0.0129  0.9922 -0.1464
   86TCq2    C7 1316   0.276   1.179  15.825  0.7683  0.0443 -0.4800
   86TCq2    C8 1317   0.428   1.152  15.633  0.5418  0.0522 -0.2824
   86TCq2    O4 1318   0.484   1.062  15.696  0.2720  0.0053 -0.0049
   86TCq2    C9 1319   0.210   1.584  15.717 -0.2030  0.2289 -0.2788
   86TCq2    O5 1320   0.321   1.643  15.679  0.0607 -0.2921 -0.2240
   86TCq2    O6 1321   0.107   1.645  15.757 -0.0330 -0.3395 -0.2546
   86TCq2    H2 1322   0.089   1.445  15.911  0.0025  0.2287  0.3633
   86TCq2    H3 1323   0.376   1.430  15.610 -1.7045  0.1780 -1.3138
   86TCq2    H4 1324   0.292   1.073  15.837  0.9972  0.2099  0.7026
   87MPD2     C 1325   2.269   4.622   1.850 -0.4539  0.8109  0.4801
   87MPD2    C1 1326   2.363   4.681   1.771  0.0621 -0.5628 -0.0835
   87MPD2    C2 1327   2.323   0.049   1.670  0.5257 -0.0772  0.9818
   87MPD2    C3 1328   2.183   0.068   1.642  0.1308  0.6461 -0.3562
   87MPD2    C4 1329   2.092   4.713   1.716  0.0517 -0.2252  1.0182
   87MPD2    C5 1330   2.139   4.628   1.813 -0.1050 -0.3606  0.2784
   87MPD2     H 1331   2.402   0.104   1.621 -0.4602 -0.3583 -0.9480
   87MPD2    H1 1332   1.985   4.718   1.697  0.2262  2.1655  0.6731
   87MPD2    H2 1333   2.294   4.565   1.939  0.5096  0.5859  0.0658
   87MPD2    H3 1334   2.065   4.573   1.871  0.2092 -1.2379 -0.1640
   87MPD2     N 1335   2.147   0.153   1.531 -0.4142  0.2941  0.2534
   87MPD2    H5 1336   2.049   0.176   1.518 -0.3288  1.1540  1.1177
   87MPD2    N1 1337   2.500   4.644   1.794  0.4945  0.3748  0.0691
   87MPD2    H7 1338   2.522   4.575   1.865  0.2232 -1.6582 -1.8110
   88TCq2    C1 1339   2.607   4.672   1.714 -0.0047  0.0340 -0.2153
   88TCq2    O2 1340   2.616   0.038   1.625 -0.2137 -0.5942  0.5659
   88TCq2    C2 1341   2.728   4.592   1.733  0.1886 -0.9163  0.5559
   88TCq2    C3 1342   2.735   4.498   1.836  0.4199  1.7344 -0.0810
   88TCq2    C4 1343   2.814   4.389   1.813  0.6276  0.4689 -0.2239
   88TCq2    C5 1344   2.889   4.374   1.697  0.0752 -0.0846  0.0554
   88TCq2    C6 1345   2.875   4.472   1.598 -0.2347  0.4410  0.2593
   88TCq2    C7 1346   2.794   4.583   1.611  0.4419 -0.1315  1.3364
   88TCq2    C8 1347   2.909   4.444   1.462  1.4827  0.3012 -0.7586
   88TCq2    O4 1348   2.923   4.538   1.382 -0.2708 -0.0011 -0.1093
   88TCq2    C9 1349   2.810   4.276   1.900 -0.3849 -0.2210  0.2543
   88TCq2    O5 1350   2.744   4.302   2.002 -0.0431 -0.3113  0.5116
   88TCq2    O6 1351   2.867   4.169   1.863  0.6472 -0.1502  0.5436
   88TCq2    H2 1352   2.675   4.499   1.926  0.9558  0.7491  0.2873
   88TCq2    H3 1353   2.949   4.285   1.683  0.4864  0.0023  1.2598
   88TCq2    H4 1354   2.790   4.656   1.532 -0.2173 -0.8392  0.7134
   89MPD2     C 1355   3.437   2.258   1.878 -0.3630 -0.0716  0.5538
   89MPD2    C1 1356   3.338   2.340   1.919 -0.1308  0.3042  0.4437
   89MPD2    C2 1357   3.370   2.474   1.935 -0.2102 -0.4079  0.0136
   89MPD2    C3 1358   3.497   2.516   1.910  0.7610 -0.2765  0.1795
   89MPD2    C4 1359   3.600   2.427   1.882 -0.3263 -0.4504 -0.2667
   89MPD2    C5 1360   3.560   2.303   1.856 -0.3848 -1.0166  0.0645
   89MPD2     H 1361   3.292   2.546   1.953  0.3848  0.0137  0.8823
   89MPD2    H1 1362   3.703   2.454   1.866 -0.3179 -2.7764 -3.9776
   89MPD2    H2 1363   3.411   2.158   1.845  1.2186 -0.5447  0.7522
   89MPD2    H3 1364   3.641   2.236   1.831 -1.1632 -1.7710 -0.4374
   89MPD2     N 1365   3.519   2.658   1.911 -0.3091 -0.3668  0.0125
   89MPD2    H5 1366   3.430   2.707   1.918 -1.0588 -1.4166 -1.8943
   89MPD2    N1 1367   3.204   2.295   1.944 -0.1813  0.1504  0.3980
   89MPD2    H7 1368   3.130   2.359   1.971 -2.7692 -2.3574 -0.7497
   90TCq2    C1 1369   3.630   2.725   1.939  0.1635 -0.3357 -0.1368
   90TCq2    O2 1370   3.735   2.693   1.984 -0.0162  0.4885  0.5727
   90TCq2    C2 1371   3.611   2.871   1.912 -0.5486 -0.1082  0.3345
   90TCq2    C3 1372   3.710   2.955   1.947 -0.1258 -0.4550 -0.2864
   90TCq2    C4 1373   3.727   3.081   1.880 -0.1579 -0.1209  0.1309
   90TCq2    C5 1374   3.645   3.108   1.772 -0.7968 -0.3767 -0.7445
   90TCq2    C6 1375   3.537   3.027   1.753  0.1055  0.1768  0.7418
   90TCq2    C7 1376   3.515   2.915   1.826 -0.1836  0.0236 -0.0243
   90TCq2    C8 1377   3.451   3.042   1.634 -0.3618  0.7776 -0.3879
   90TCq2    O4 1378   3.333   3.019   1.642 -0.0102  0.2287  0.0197
   90TCq2    C9 1379   3.839   3.167   1.924  0.7042  0.0269 -0.2713
   90TCq2    O5 1380   3.866   3.157   2.042  0.4851 -0.1831  0.2160
   90TCq2    O6 1381   3.883   3.247   1.840  0.4429 -0.5987 -0.4772
   90TCq2    H2 1382   3.790   2.936   2.018 -1.3703  1.7355  1.7185
   90TCq2    H3 1383   3.651   3.209   1.734  0.2626 -0.7427 -1.5695
   90TCq2    H4 1384   3.446   2.845   1.779  0.2957  1.2788 -2.6144
   91TMC2    C1 1385   0.167   2.106  16.528  0.3883  0.7888 -0.2269
   91TMC2    C2 1386   0.221   2.121  16.398  0.3027 -0.3444  0.4882
   91TMC2    C3 1387   0.133   2.142  16.294 -0.1183 -0.3884  0.3872
   91TMC2    C4 1388   0.028   2.112  16.546 -0.0604  0.4762 -0.0868
   91TMC2    C5 1389   4.667   2.110  16.438  0.8338  0.3265 -0.5895
   91TMC2    C6 1390   4.720   2.131  16.312  0.2089  0.6659 -0.1115
   91TMC2     C 1391   0.239   2.028  16.627 -1.3732 -0.3451  1.5032
   91TMC2     O 1392   0.181   2.005  16.734 -0.3729  0.6952 -0.0420
   91TMC2     H 1393   0.325   2.144  16.382 -0.5823  2.5710 -0.9416
   91TMC2    H1 1394   4.705   2.090  16.643 -0.9711 -1.3735 -0.9083
   91TMC2    H2 1395   4.661   2.148  16.223  0.0187  0.7962  0.0393
   91TMC2    C7 1396   4.524   2.113  16.448 -0.4743  0.2588  0.1852
   91TMC2    C8 1397   0.189   2.181  16.171  0.0300 -0.4186 -0.2076
   91TMC2    O1 1398   4.478   2.118  16.559  0.7466  0.2233 -0.4544
   91TMC2    O2 1399   0.120   2.212  16.072 -0.0796 -0.1054  0.1174
   91TMC2    O5 1400   0.282   2.084  16.143  0.1583 -0.4523 -0.0513
   91TMC2    H5 1401   0.347   2.062  16.213 -1.6054 -1.9100  1.1151
   92MPD2     C 1402   0.436   1.842  16.769 -0.6486 -0.7222  0.1431
   92MPD2    C1 1403   0.461   1.914  16.651 -0.7676 -0.0084 -0.7993
   92MPD2    C2 1404   0.585   1.889  16.583 -0.6550 -0.6191 -0.4760
   92MPD2    C3 1405   0.680   1.818  16.641 -0.1081  0.4345 -0.4664
   92MPD2    C4 1406   0.650   1.737  16.746 -0.4883  0.1831 -0.6376
   92MPD2    C5 1407   0.529   1.759  16.812  0.0172 -0.9244  0.1382
   92MPD2     H 1408   0.621   1.952  16.502 -0.7335  0.0645  0.0248
   92MPD2    H1 1409   0.718   1.667  16.794 -1.0746  0.2975  0.3632
   92MPD2    H2 1410   0.344   1.839  16.827  1.0862  1.6810  2.9956
   92MPD2    H3 1411   0.505   1.691  16.893 -2.1625  0.1579  0.4219
   92MPD2     N 1412   0.811   1.831  16.591  0.0513 -0.3144  0.0331
   92MPD2    H5 1413   0.822   1.908  16.526 -2.6321 -1.1239 -1.3648
   92MPD2    N1 1414   0.367   1.996  16.582  0.3797 -0.3664  0.0458
   92MPD2    H7 1415   0.404   2.012  16.489 -0.3228 -0.0869 -0.1874
   93MPD2     C 1416   1.404   2.439  13.482 -0.3887 -0.5013 -0.0458
   93MPD2    C1 1417   1.388   2.314  13.552 -0.1662 -0.2365 -0.4715
   93MPD2    C2 1418   1.261   2.257  13.552 -0.0981 -0.0342  0.0870
   93MPD2    C3 1419   1.154   2.338  13.503  0.4896 -0.1194 -0.1889
   93MPD2    C4 1420   1.171   2.467  13.453 -0.1468 -0.2392  0.9434
   93MPD2    C5 1421   1.299   2.515  13.438 -0.3884  0.1143  0.6599
   93MPD2     H 1422   1.243   2.162  13.601  2.9433 -0.3968  0.4969
   93MPD2    H1 1423   1.093   2.536  13.423 -0.3160  0.1224  2.2261
   93MPD2    H2 1424   1.500   2.491  13.477  0.9048 -2.9351 -0.2270
   93MPD2    H3 1425   1.315   2.611  13.389  0.3672 -0.3953 -0.0866
   93MPD2     N 1426   1.022   2.287  13.493 -0.6142 -0.2768  0.2214
   93MPD2    H5 1427   0.957   2.347  13.444  0.7900  0.6465 -0.5358
   93MPD2    N1 1428   1.498   2.241  13.615 -0.1310  0.1847 -0.7877
   93MPD2    H7 1429   1.473   2.167  13.680  0.7092  0.6159  0.0112
   94TCq2    C1 1430   1.630   2.279  13.607  0.1891 -0.6745 -0.3227
   94TCq2    O2 1431   1.679   2.365  13.534 -0.7145  0.2680 -0.0246
   94TCq2    C2 1432   1.728   2.177  13.655 -0.4109 -0.1185 -0.2349
   94TCq2    C3 1433   1.685   2.059  13.715 -0.5304  0.5264 -0.2925
   94TCq2    C4 1434   1.786   1.984  13.776  0.0704  0.5413 -0.2008
   94TCq2    C5 1435   1.914   2.025  13.777 -0.8237  0.2370 -0.2011
   94TCq2    C6 1436   1.954   2.137  13.711 -0.3114  0.5892  0.0555
   94TCq2    C7 1437   1.861   2.215  13.650 -0.6206  0.4425 -0.0372
   94TCq2    C8 1438   2.093   2.126  13.659  0.5750 -0.2461  0.8946
   94TCq2    O4 1439   2.176   2.083  13.738 -0.2041  0.1865  0.4286
   94TCq2    C9 1440   1.763   1.848  13.831  0.4259 -0.5754 -0.0556
   94TCq2    O5 1441   1.657   1.787  13.797 -0.0884 -0.0897 -0.4469
   94TCq2    O6 1442   1.858   1.796  13.890 -0.0452 -0.4415 -0.1953
   94TCq2    H2 1443   1.587   2.014  13.711 -0.7479  1.1727 -1.9386
   94TCq2    H3 1444   1.991   1.964  13.822 -0.0443  0.1405 -1.6371
   94TCq2    H4 1445   1.893   2.305  13.599 -0.1070  0.1057 -0.3153
   95TMC2    C1 1446   1.851   3.318  16.042 -0.3678 -0.4054 -0.0388
   95TMC2    C2 1447   1.860   3.355  16.175 -0.4043 -0.6596 -0.5845
   95TMC2    C3 1448   1.764   3.319  16.259 -0.9138  0.0631  0.7793
   95TMC2    C4 1449   1.745   3.251  16.000  0.0857 -0.1543 -0.4106
   95TMC2    C5 1450   1.653   3.204  16.086 -0.0217 -0.4420 -0.3212
   95TMC2    C6 1451   1.667   3.237  16.219 -0.5645 -0.3048 -0.7540
   95TMC2     C 1452   1.962   3.355  15.957  0.3094 -0.6992 -0.5611
   95TMC2     O 1453   2.024   3.454  15.987  0.1607  0.4452  0.6302
   95TMC2     H 1454   1.942   3.418  16.206 -1.3825  1.1157 -1.6254
   95TMC2    H1 1455   1.733   3.252  15.892  1.4820  1.6722 -0.5412
   95TMC2    H2 1456   1.599   3.204  16.296 -0.4968  1.5981  0.1192
   95TMC2    C7 1457   1.513   3.187  16.042 -0.2660  0.0079  0.4814
   95TMC2    C8 1458   1.770   3.359  16.397  0.1750  0.2041 -0.1512
   95TMC2    O1 1459   1.479   3.269  15.962 -0.4776  0.3777 -0.0801
   95TMC2    O2 1460   1.754   3.283  16.490  0.2934 -0.2117 -0.1413
   95TMC2    O5 1461   1.834   3.477  16.403 -0.0747 -0.0350 -0.3303
   95TMC2    H5 1462   1.807   3.538  16.331  0.2195 -1.7534 -1.9040
   96MPD2     C 1463   2.286   3.230  15.578  0.4077 -0.4535  0.2456
   96MPD2    C1 1464   2.252   3.356  15.630 -0.3519  0.9176 -0.3638
   96MPD2    C2 1465   2.156   3.362  15.727  0.1751 -0.0269 -0.9548
   96MPD2    C3 1466   2.094   3.254  15.780 -0.7386  0.6730  0.1805
   96MPD2    C4 1467   2.132   3.133  15.726 -0.5285  0.5833  0.0250
   96MPD2    C5 1468   2.232   3.123  15.633  0.2614 -0.0916  0.1239
   96MPD2     H 1469   2.127   3.453  15.779  1.8711 -0.2697  0.4058
   96MPD2    H1 1470   2.084   3.041  15.757 -0.4277 -0.0533 -1.6953
   96MPD2    H2 1471   2.358   3.226  15.498 -0.6952 -1.1959 -0.7100
   96MPD2    H3 1472   2.255   3.023  15.597  0.2825 -0.0012 -0.1108
   96MPD2     N 1473   1.990   3.255  15.870 -0.5083  0.2693  0.0133
   96MPD2    H5 1474   1.937   3.170  15.881  1.4407 -0.6788  2.2430
   96MPD2    N1 1475   2.292   3.475  15.565 -0.1288  0.5453  0.1606
   96MPD2    H7 1476   2.320   3.465  15.468 -0.8096 -3.0404  0.3527
   97MPD2     C 1477   4.115   1.099   1.448  0.4871 -0.2206 -0.6512
   97MPD2    C1 1478   4.130   1.216   1.382 -0.2656  0.2575 -0.7773
   97MPD2    C2 1479   4.129   1.216   1.241 -0.1876 -0.6158  0.5690
   97MPD2    C3 1480   4.119   1.095   1.175  0.2260 -0.3802 -0.2068
   97MPD2    C4 1481   4.096   0.972   1.245  0.9379  0.3632 -0.0254
   97MPD2    C5 1482   4.107   0.978   1.384  0.4734  0.8501 -0.3371
   97MPD2     H 1483   4.144   1.308   1.185 -1.4826 -0.8395 -0.1605
   97MPD2    H1 1484   4.075   0.878   1.197  2.2133 -0.1940  0.5015
   97MPD2    H2 1485   4.112   1.103   1.556  2.1242 -0.6788 -0.5861
   97MPD2    H3 1486   4.091   0.887   1.441  2.7458  0.3740 -0.4568
   97MPD2     N 1487   4.122   1.083   1.035  0.8584 -0.0993  0.6958
   97MPD2    H5 1488   4.122   0.993   0.988  2.9867 -0.3581  1.2318
   97MPD2    N1 1489   4.129   1.333   1.465  0.0855 -0.7620  0.3135
   97MPD2    H7 1490   4.123   1.322   1.566 -0.5481  0.6583  0.4346
   98TCq2    C1 1491   4.124   1.185   0.944  0.6114 -0.4176 -0.2071
   98TCq2    O2 1492   4.138   1.303   0.963  0.3672  0.9276 -0.0541
   98TCq2    C2 1493   4.124   1.142   0.802  0.1347  0.0948  0.4182
   98TCq2    C3 1494   4.043   1.043   0.762 -0.0679  0.4803 -0.4562
   98TCq2    C4 1495   4.033   1.023   0.626  0.6021  0.0504 -0.9913
   98TCq2    C5 1496   4.103   1.098   0.531  0.1136  0.3932 -0.4567
   98TCq2    C6 1497   4.199   1.185   0.579 -0.2735 -0.2870  1.1921
   98TCq2    C7 1498   4.210   1.211   0.716 -0.0121 -0.2492  0.8187
   98TCq2    C8 1499   4.264   1.286   0.491 -0.3028  0.2050 -0.5102
   98TCq2    O4 1500   4.336   1.373   0.542  0.7396  0.2245 -0.1272
   98TCq2    C9 1501   3.940   0.920   0.582 -0.2272  0.3560 -0.2396
   98TCq2    O5 1502   3.896   0.928   0.463 -0.2478 -0.1124 -0.1754
   98TCq2    O6 1503   3.895   0.854   0.675 -0.3332 -0.3526  0.0589
   98TCq2    H2 1504   3.978   0.999   0.836  1.0049  0.3587  0.4098
   98TCq2    H3 1505   4.091   1.070   0.427  0.1648  2.3226 -0.9962
   98TCq2    H4 1506   4.275   1.288   0.756 -0.8426 -0.0027  1.6899
   99MPD2     C 1507   3.116   3.554   1.338 -0.1370 -0.6691 -0.2047
   99MPD2    C1 1508   3.081   3.439   1.404  0.0844 -0.4505 -0.0259
   99MPD2    C2 1509   2.963   3.377   1.373 -0.3819 -0.0057  0.2020
   99MPD2    C3 1510   2.879   3.440   1.287  0.2872 -0.0674  0.0131
   99MPD2    C4 1511   2.911   3.560   1.226 -0.7249 -0.0819 -0.0667
   99MPD2    C5 1512   3.037   3.608   1.248  0.0855  0.0451 -0.9038
   99MPD2     H 1513   2.942   3.284   1.425  1.5708  0.6702  2.2175
   99MPD2    H1 1514   2.840   3.604   1.158 -1.4285 -0.4904  0.3974
   99MPD2    H2 1515   3.209   3.602   1.367 -0.4651 -0.3546  0.3149
   99MPD2    H3 1516   3.066   3.700   1.199  0.2222  1.3152  1.5310
   99MPD2     N 1517   2.757   3.377   1.267  0.0851 -0.7163 -0.0452
   99MPD2    H5 1518   2.748   3.289   1.318  1.5498 -0.8057  0.0482
   99MPD2    N1 1519   3.150   3.387   1.513 -0.4972  0.1075  0.2285
   99MPD2    H7 1520   3.122   3.300   1.556  2.0600 -1.8304 -2.0127
  100TCq2    C1 1521   3.257   3.451   1.573 -0.1996 -0.1050 -0.7999
  100TCq2    O2 1522   3.324   3.550   1.547 -0.1462 -0.3036  0.0737
  100TCq2    C2 1523   3.308   3.375   1.682  0.2598 -0.2401  0.5738
  100TCq2    C3 1524   3.426   3.414   1.741 -0.3205 -0.6782  0.0935
  100TCq2    C4 1525   3.470   3.366   1.864  0.2496 -0.1537 -0.2335
  100TCq2    C5 1526   3.397   3.271   1.926  0.2228  0.4557 -0.1744
  100TCq2    C6 1527   3.274   3.234   1.867 -0.0410 -0.4891 -0.8265
  100TCq2    C7 1528   3.226   3.290   1.752  0.1354 -0.1612  0.0336
  100TCq2    C8 1529   3.184   3.148   1.945  0.0457 -0.0376 -0.7288
  100TCq2    O4 1530   3.207   3.138   2.064 -0.1258 -0.0631  0.4934
  100TCq2    C9 1531   3.590   3.418   1.919  0.0296  0.8435 -0.5581
  100TCq2    O5 1532   3.600   3.387   2.042  0.0602  0.4521  0.4525
  100TCq2    O6 1533   3.651   3.509   1.859  0.6249  0.5392  0.3609
  100TCq2    H2 1534   3.493   3.483   1.690 -1.9352  0.2537 -0.7600
  100TCq2    H3 1535   3.438   3.221   2.013  0.7698 -1.1998 -1.3857
  100TCq2    H4 1536   3.120   3.302   1.735 -0.2924 -2.3710  1.1738
  101MPD2     C 1537   3.820   4.333  12.830  0.1362 -0.4253  0.0734
  101MPD2    C1 1538   3.749   4.410  12.915  0.4157 -0.8840 -0.9251
  101MPD2    C2 1539   3.654   4.346  12.992  0.1911 -0.3394  0.1847
  101MPD2    C3 1540   3.635   4.206  12.995  0.7121  0.1402  0.3656
  101MPD2    C4 1541   3.724   4.129  12.917 -0.2382 -0.1698  0.0078
  101MPD2    C5 1542   3.809   4.196  12.830  0.4057 -0.7030 -0.0479
  101MPD2     H 1543   3.600   4.399  13.069 -1.4616  0.8389 -1.7928
  101MPD2    H1 1544   3.732   4.020  12.916 -2.6183 -0.3354 -0.6445
  101MPD2    H2 1545   3.884   4.377  12.755 -0.0596 -2.5530 -1.3642
  101MPD2    H3 1546   3.864   4.134  12.760 -0.1456 -2.0967  0.7730
  101MPD2     N 1547   3.532   4.151  13.071  0.1989  0.0415 -0.2098
  101MPD2    H5 1548   3.481   4.223  13.122 -0.3282  0.4837 -1.3551
  101MPD2    N1 1549   3.771   4.553  12.909  0.9230 -0.1613  0.1984
  101MPD2    H7 1550   3.833   4.589  12.837  1.3918 -0.5036  0.4248
  102TCq2    C1 1551   3.777   0.245  12.648  0.3564 -0.1097  0.0495
  102TCq2    O2 1552   3.849   0.164  12.590  0.3366 -0.7134 -0.5165
  102TCq2    C2 1553   3.709   0.212  12.775 -0.3053  0.4836 -0.6290
  102TCq2    C3 1554   3.682   0.306  12.867  0.2625  0.4971  0.4894
  102TCq2    C4 1555   3.668   0.276  12.993  0.4773 -0.7750  0.6789
  102TCq2    C5 1556   3.689   0.150  13.046 -0.0410 -0.1904 -0.5738
  102TCq2    C6 1557   3.719   0.057  12.952  0.2241  0.2520 -0.4117
  102TCq2    C7 1558   3.725   0.081  12.813 -0.1090 -0.0860 -0.0416
  102TCq2    C8 1559   3.724   4.644  12.998  0.7483  0.4818  0.0714
  102TCq2    O4 1560   3.691   4.619  13.113  0.3420  0.2801 -0.4513
  102TCq2    C9 1561   3.615   0.379  13.084 -0.0860  0.3546  0.3561
  102TCq2    O5 1562   3.592   0.497  13.048  0.0415 -0.3075  0.2471
  102TCq2    O6 1563   3.602   0.333  13.198  0.0839 -0.2063 -0.2862
  102TCq2    H2 1564   3.683   0.412  12.842  0.8571  0.6388  1.1137
  102TCq2    H3 1565   3.705   0.140  13.153 -1.5243  3.7694 -0.0007
  102TCq2    H4 1566   3.743   0.002  12.742 -0.9260  0.4243 -0.8149
  103TMC2    C1 1567   2.260   4.111  12.449  0.3064  0.1700  0.3155
  103TMC2    C2 1568   2.368   4.168  12.402  0.3121 -0.8853 -0.7796
  103TMC2    C3 1569   2.434   4.251  12.494  0.0848 -0.2148 -0.4329
  103TMC2    C4 1570   2.214   4.133  12.576  0.8032  0.2367  0.0688
  103TMC2    C5 1571   2.291   4.206  12.665  0.6558  0.4977 -0.0235
  103TMC2    C6 1572   2.399   4.265  12.620 -0.3230  0.4957  0.0436
  103TMC2     C 1573   2.157   4.089  12.344 -0.0932 -0.1382  0.5529
  103TMC2     O 1574   2.045   4.137  12.361  0.1583 -0.0888  0.1577
  103TMC2     H 1575   2.411   4.139  12.307  0.0756 -0.8414 -0.8985
  103TMC2    H1 1576   2.116   4.095  12.602  0.8450 -0.2554 -0.4984
  103TMC2    H2 1577   2.455   4.327  12.689  0.7500  1.4862 -1.7236
  103TMC2    C7 1578   2.240   4.219  12.792 -0.0458  0.1383 -0.4694
  103TMC2    C8 1579   2.567   4.287  12.457 -0.0298 -0.1408 -0.8059
  103TMC2    O1 1580   2.144   4.152  12.825 -0.2926  0.4456  0.6457
  103TMC2    O2 1581   2.611   4.246  12.351  0.3949 -0.3663  1.0281
  103TMC2    O5 1582   2.584   4.418  12.503  0.8263 -0.1531  0.0005
  103TMC2    H5 1583   2.530   4.431  12.584  1.3986  0.5620  0.2657
  104MPD2     C 1584   2.164   3.876  12.064 -0.1633  0.1601  0.0463
  104MPD2    C1 1585   2.127   3.979  12.140 -0.8197  0.0291 -0.0971
  104MPD2    C2 1586   2.000   4.026  12.103  1.0167  0.3077 -0.1965
  104MPD2    C3 1587   1.921   3.975  12.000 -0.1171 -0.1670  0.1993
  104MPD2    C4 1588   1.963   3.863  11.933  0.5940  0.4463 -0.4642
  104MPD2    C5 1589   2.090   3.815  11.965  0.0754 -0.2201 -0.5809
  104MPD2     H 1590   1.949   4.100  12.163 -0.8684 -0.8131 -0.4149
  104MPD2    H1 1591   1.918   3.816  11.847 -1.9103  2.2603 -0.1482
  104MPD2    H2 1592   2.265   3.836  12.074 -0.1253  0.1665 -0.2923
  104MPD2    H3 1593   2.124   3.735  11.901 -0.3465 -0.9919  0.1619
  104MPD2     N 1594   1.798   4.041  11.965  0.6495  0.3608  0.5828
  104MPD2    H5 1595   1.777   4.130  12.007  0.2456 -0.0285  1.2079
  104MPD2    N1 1596   2.207   4.017  12.247  0.1050  0.1673 -0.2277
  104MPD2    H7 1597   2.304   3.987  12.255 -0.8023 -2.1872  1.9454
  105MPD2     C 1598   3.619   4.204   0.085 -0.3040  0.1135 -0.1035
  105MPD2    C1 1599   3.491   4.167   0.129  0.4275 -0.2289  0.0467
  105MPD2    C2 1600   3.456   4.191   0.255  0.3530 -0.5271 -0.2577
  105MPD2    C3 1601   3.526   4.291   0.332  0.0425  0.8974 -0.4597
  105MPD2    C4 1602   3.642   4.339   0.281 -0.4171  0.4342  0.0999
  105MPD2    C5 1603   3.694   4.287   0.166 -0.2313  0.2470 -0.0207
  105MPD2     H 1604   3.352   4.172   0.279 -0.4926  2.9449 -1.0787
  105MPD2    H1 1605   3.696   4.411   0.341  1.8850 -1.2821  0.0825
  105MPD2    H2 1606   3.656   4.178  17.672 -1.1980 -3.1386  0.4445
  105MPD2    H3 1607   3.792   4.319   0.131 -0.3884  0.5797 -0.1540
  105MPD2     N 1608   3.461   4.341   0.445 -0.7505  0.3246  0.2862
  105MPD2    H5 1609   3.374   4.296   0.473  0.0866 -0.5859  1.4290
  105MPD2    N1 1610   3.398   4.090   0.050  0.3338  0.1002  0.3607
  105MPD2    H7 1611   3.307   4.069   0.091  0.3217 -0.4888  0.0365
  106TCq2    C1 1612   3.469   4.467   0.492 -0.4366 -0.4977 -0.7012
  106TCq2    O2 1613   3.533   4.562   0.442  0.3433  0.0356  0.0132
  106TCq2    C2 1614   3.392   4.494   0.607 -0.0169  0.5636  0.6867
  106TCq2    C3 1615   3.380   4.631   0.638  0.0528 -0.2468  0.3710
  106TCq2    C4 1616   3.309   4.661   0.749 -0.6137  0.1113 -0.2307
  106TCq2    C5 1617   3.245   4.563   0.825 -0.0039  0.4042 -0.4820
  106TCq2    C6 1618   3.255   4.428   0.794 -0.5225 -0.0561 -0.3844
  106TCq2    C7 1619   3.331   4.398   0.681 -0.0790  0.2689  0.1624
  106TCq2    C8 1620   3.237   4.316   0.892  0.5753 -0.4885  0.0037
  106TCq2    O4 1621   3.289   4.209   0.869  0.0283 -0.2421 -0.1007
  106TCq2    C9 1622   3.291   0.073   0.786 -0.6602  0.4529 -0.4501
  106TCq2    O5 1623   3.380   0.157   0.736 -0.1143  0.6559 -0.1060
  106TCq2    O6 1624   3.191   0.094   0.856  0.3999 -0.3113  0.1419
  106TCq2    H2 1625   3.409   4.711   0.571 -0.8644 -1.6837 -1.7518
  106TCq2    H3 1626   3.206   4.598   0.920 -3.0625 -1.8120 -0.9193
  106TCq2    H4 1627   3.335   4.293   0.652  0.8775  0.5305 -0.6334
  107TMC2    C1 1628   3.931   3.323  11.217  1.3877  0.3928  0.1474
  107TMC2    C2 1629   3.984   3.430  11.158 -1.2707 -0.1316 -0.1803
  107TMC2    C3 1630   4.057   3.417  11.040 -0.3852  1.1266 -0.2784
  107TMC2    C4 1631   3.966   3.199  11.166 -0.5427  0.4745 -0.0095
  107TMC2    C5 1632   4.043   3.178  11.054 -0.2200  0.6819 -0.0961
  107TMC2    C6 1633   4.098   3.290  10.996  0.2017  0.1458  0.8239
  107TMC2     C 1634   3.825   3.328  11.315 -0.0018 -0.3128 -0.0707
  107TMC2     O 1635   3.791   3.218  11.357 -0.4078 -0.3820 -0.4732
  107TMC2     H 1636   3.977   3.531  11.197 -1.5457 -0.3903  0.4409
  107TMC2    H1 1637   3.932   3.108  11.214 -2.8299  0.8469 -0.9378
  107TMC2    H2 1638   4.170   3.277  10.916 -0.8183  3.2464 -0.5983
  107TMC2    C7 1639   4.092   3.040  11.030 -0.3042  0.4694 -0.2487
  107TMC2    C8 1640   4.112   3.550  10.987 -0.3835 -1.0507  0.2283
  107TMC2    O1 1641   4.041   2.946  11.097 -0.9325 -0.5577  0.0225
  107TMC2    O2 1642   4.112   3.654  11.051  0.4370 -0.3277 -0.1910
  107TMC2    O5 1643   4.163   3.539  10.861 -0.0797 -0.8283 -0.1804
  107TMC2    H5 1644   4.125   3.459  10.818  0.1260 -1.4970  0.8788
  108MPD2     C 1645   3.666   3.617  11.472  0.2199  0.2278  0.2915
  108MPD2    C1 1646   3.685   3.482  11.449  0.1642 -0.2836 -0.5383
  108MPD2    C2 1647   3.616   3.384  11.522  0.2025 -0.2409 -0.5063
  108MPD2    C3 1648   3.530   3.425  11.622 -0.6674  0.1428  0.3824
  108MPD2    C4 1649   3.512   3.560  11.648 -0.2880 -1.5737 -0.0596
  108MPD2    C5 1650   3.580   3.649  11.579 -0.3477 -0.2962 -0.0709
  108MPD2     H 1651   3.630   3.280  11.494 -1.9695 -0.7908  0.4274
  108MPD2    H1 1652   3.439   3.596  11.719 -0.5978 -0.4459 -0.9617
  108MPD2    H2 1653   3.721   3.694  11.419 -0.8994 -0.0226 -1.2027
  108MPD2    H3 1654   3.571   3.755  11.599  0.7176 -0.0316 -0.9586
  108MPD2     N 1655   3.460   3.334  11.705 -0.6864 -0.0807  0.2544
  108MPD2    H5 1656   3.406   3.372  11.783  0.1768 -0.5089  1.0664
  108MPD2    N1 1657   3.786   3.453  11.351 -0.0086 -0.0128  0.7476
  108MPD2    H7 1658   3.833   3.529  11.302  0.5297 -2.6116 -2.7448
  109MPD2     C 1659   3.218   1.142   2.150  0.4094 -0.0635  0.5075
  109MPD2    C1 1660   3.340   1.078   2.138 -0.2739  0.5034  0.1384
  109MPD2    C2 1661   3.453   1.136   2.203 -0.1431  0.0086 -0.7505
  109MPD2    C3 1662   3.438   1.231   2.306 -0.1264 -0.1512 -0.4591
  109MPD2    C4 1663   3.312   1.281   2.321  0.3343  0.3775 -0.1718
  109MPD2    C5 1664   3.206   1.246   2.243 -0.2943  0.3753  0.4466
  109MPD2     H 1665   3.542   1.074   2.207 -0.6343 -0.7822 -2.0678
  109MPD2    H1 1666   3.293   1.353   2.400 -1.6073 -0.1440 -0.1551
  109MPD2    H2 1667   3.128   1.114   2.096  0.9161 -1.0614  0.1907
  109MPD2    H3 1668   3.114   1.299   2.258  0.8012  1.7822  2.1953
  109MPD2     N 1669   3.549   1.268   2.385 -0.0801  0.3727  0.1429
  109MPD2    H5 1670   3.640   1.228   2.361 -0.0272 -0.7022  2.1298
  109MPD2    N1 1671   3.351   0.950   2.065  0.3924 -0.4656  0.3000
  109MPD2    H7 1672   3.264   0.903   2.042  1.1272 -1.6182 -0.0822
  110TCq2    C1 1673   3.540   1.354   2.496  0.1444  0.0251  0.0985
  110TCq2    O2 1674   3.443   1.382   2.569 -0.5348 -0.8544  0.7807
  110TCq2    C2 1675   3.670   1.405   2.530  1.2403  0.2051  0.6029
  110TCq2    C3 1676   3.683   1.459   2.655  0.5016 -0.4293  0.1389
  110TCq2    C4 1677   3.797   1.531   2.678  0.2589  0.1374  0.5771
  110TCq2    C5 1678   3.898   1.544   2.584 -0.4799  0.0224 -0.6876
  110TCq2    C6 1679   3.891   1.470   2.469 -0.5093  0.4073  0.3364
  110TCq2    C7 1680   3.779   1.398   2.440  0.4260 -0.0373  0.3569
  110TCq2    C8 1681   3.968   1.507   2.350  0.9089  0.1728 -0.4856
  110TCq2    O4 1682   3.958   1.450   2.244  0.3395  0.6576  0.3121
  110TCq2    C9 1683   3.820   1.590   2.811 -0.1536 -0.5391  0.3260
  110TCq2    O5 1684   3.745   1.543   2.905 -0.5723  0.2557 -0.3522
  110TCq2    O6 1685   3.923   1.657   2.820 -0.3164  0.1575  0.6868
  110TCq2    H2 1686   3.601   1.454   2.725  0.1099 -2.1892 -0.4384
  110TCq2    H3 1687   3.988   1.594   2.620 -3.0951  2.1359  2.9184
  110TCq2    H4 1688   3.781   1.344   2.346 -2.1813  1.1077 -0.3749
  111TMC2    C1 1689   4.443   0.221  11.195  0.2445 -0.1131 -0.0600
  111TMC2    C2 1690   4.560   0.220  11.124  0.4072 -1.0258  0.8155
  111TMC2    C3 1691   4.681   0.267  11.180  0.0489  0.5439  0.3732
  111TMC2    C4 1692   4.440   0.270  11.325  0.3933  0.2411 -0.2360
  111TMC2    C5 1693   4.561   0.328  11.370  0.1040  0.5666  0.4721
  111TMC2    C6 1694   4.682   0.310  11.313 -0.0675  0.9726 -0.0668
  111TMC2     C 1695   4.316   0.188  11.131 -0.7227 -0.3141  0.2079
  111TMC2     O 1696   4.303   0.212  11.013  0.0613 -0.2176 -0.2964
  111TMC2     H 1697   4.569   0.179  11.024 -1.2515 -0.8783  0.6149
  111TMC2    H1 1698   4.342   0.284  11.368  0.8874  2.0438  0.3167
  111TMC2    H2 1699   0.053   0.339  11.363  1.0157 -1.9800 -0.3056
  111TMC2    C7 1700   4.554   0.384  11.501 -0.4940  0.2318 -0.0973
  111TMC2    C8 1701   0.072   0.287  11.088 -0.3958  0.1161 -0.0506
  111TMC2    O1 1702   4.477   0.339  11.583 -0.6376  0.3698 -0.2944
  111TMC2    O2 1703   0.105   0.210  10.999 -0.1152 -0.1724 -0.6561
  111TMC2    O5 1704   0.149   0.390  11.130 -0.3917 -0.3739  0.0302
  111TMC2    H5 1705   0.093   0.447  11.187  0.2629  0.7000 -0.3947
  112MPD2     C 1706   3.813   0.100  11.144 -0.1802  0.6780  1.0222
  112MPD2    C1 1707   3.885   0.130  11.032 -0.0266  0.4228  0.6340
  112MPD2    C2 1708   4.023   0.155  11.052  0.4902 -0.3182 -0.4020
  112MPD2    C3 1709   4.083   0.137  11.176  0.6779  0.1265  0.5548
  112MPD2    C4 1710   4.007   0.108  11.283 -0.0158 -0.7900 -0.0367
  112MPD2    C5 1711   3.872   0.085  11.269 -0.2478 -0.2462 -0.0132
  112MPD2     H 1712   4.090   0.167  10.969  0.9482  2.7855  0.4006
  112MPD2    H1 1713   4.049   0.087  11.381  0.7081  0.1330 -0.1533
  112MPD2    H2 1714   3.707   0.081  11.132 -0.6783  4.2946 -0.3580
  112MPD2    H3 1715   3.812   0.051  11.353 -1.5294 -1.2674 -1.3424
  112MPD2     N 1716   4.218   0.141  11.209  0.4440 -1.2739  0.2025
  112MPD2    H5 1717   4.244   0.122  11.306 -1.3887 -0.6769  0.8159
  112MPD2    N1 1718   3.824   0.163  10.901  0.2715  0.5861  0.2188
  112MPD2    H7 1719   3.893   0.180  10.829 -0.0184  1.2259  0.0981
  113MPD2     C 1720   2.240   2.896   1.167 -0.1411  0.2502  0.6290
  113MPD2    C1 1721   2.175   3.015   1.207 -0.8139 -0.0400 -0.2123
  113MPD2    C2 1722   2.055   3.036   1.156  0.6338  0.1643  0.0308
  113MPD2    C3 1723   1.985   2.950   1.075  0.3891 -0.4736 -0.7781
  113MPD2    C4 1724   2.047   2.837   1.033  0.1195  0.3046 -0.2909
  113MPD2    C5 1725   2.177   2.808   1.080 -0.0155 -0.2573 -0.2889
  113MPD2     H 1726   2.017   3.136   1.175  0.1252  0.2148 -1.2574
  113MPD2    H1 1727   1.995   2.774   0.962 -2.0446 -0.4655  2.0022
  113MPD2    H2 1728   2.340   2.868   1.200 -1.1537  0.2170  3.6449
  113MPD2    H3 1729   2.232   2.717   1.058  2.1486  0.8436  0.5086
  113MPD2     N 1730   1.858   2.986   1.015 -0.4073  0.0043  0.1674
  113MPD2    H5 1731   1.828   3.079   1.043 -0.8448  0.0547 -0.4534
  113MPD2    N1 1732   2.229   3.114   1.287 -0.1106 -0.1100 -0.0962
  113MPD2    H7 1733   2.170   3.196   1.292  3.0556  2.3074 -1.8519
  114TCq2    C1 1734   1.787   2.902   0.929 -0.4808  0.4059  0.6258
  114TCq2    O2 1735   1.785   2.780   0.919  0.7325  0.0204  0.1406
  114TCq2    C2 1736   1.669   2.965   0.879 -0.2266  0.1356  0.1160
  114TCq2    C3 1737   1.670   3.103   0.853  0.9155  0.1833  0.3185
  114TCq2    C4 1738   1.557   3.158   0.809 -0.5306  0.1684  0.0406
  114TCq2    C5 1739   1.448   3.077   0.774 -0.1856 -0.1340  0.1286
  114TCq2    C6 1740   1.459   2.941   0.796 -0.1692  0.5559  0.1563
  114TCq2    C7 1741   1.562   2.881   0.852 -0.2219  0.4128  0.2792
  114TCq2    C8 1742   1.336   2.870   0.772 -0.1053  0.8382  0.2012
  114TCq2    O4 1743   1.267   2.908   0.682  0.5267  0.0237 -0.1752
  114TCq2    C9 1744   1.556   3.302   0.779  0.4014  0.3778  0.6646
  114TCq2    O5 1745   1.669   3.366   0.791 -0.0038  0.1885  0.1273
  114TCq2    O6 1746   1.447   3.344   0.731 -0.2095  0.1361 -0.0336
  114TCq2    H2 1747   1.759   3.165   0.854  2.5043 -2.0898 -1.0594
  114TCq2    H3 1748   1.351   3.123   0.757  0.5992  0.9848 -1.3038
  114TCq2    H4 1749   1.576   2.773   0.856 -1.5606  0.2389  0.0470
  115TMC2    C1 1750   2.806   1.097  17.612  0.3533  0.0351 -0.3128
  115TMC2    C2 1751   2.929   1.129  17.664 -0.7507  0.0488 -0.0876
  115TMC2    C3 1752   2.947   1.255   0.027 -0.0385 -0.1190 -0.8260
  115TMC2    C4 1753   2.717   1.198  17.595  0.7702 -0.5032  0.8052
  115TMC2    C5 1754   2.745   1.323  17.640  0.1581  0.3178  0.6314
  115TMC2    C6 1755   2.859   1.357   0.015 -1.2446 -0.4934 -0.1039
  115TMC2     C 1756   2.768   0.957  17.590  0.8377  0.7168 -0.0310
  115TMC2     O 1757   2.658   0.942  17.543 -0.2691  0.3244 -0.0671
  115TMC2     H 1758   3.003   1.055   0.004 -1.1728 -0.1656  0.5071
  115TMC2    H1 1759   2.625   1.166  17.547  0.8397  0.0863  0.2838
  115TMC2    H2 1760   2.885   1.448   0.067  2.3856 -0.2998 -2.2785
  115TMC2    C7 1761   2.649   1.416  17.611 -0.7459  0.0706  0.6594
  115TMC2    C8 1762   3.069   1.282   0.103 -0.5923  0.1524 -0.3137
  115TMC2    O1 1763   2.533   1.376  17.602  0.1029  0.1982  0.0236
  115TMC2    O2 1764   3.079   1.369   0.189 -0.0273 -0.2583 -0.1409
  115TMC2    O5 1765   3.180   1.234   0.047 -0.5696  0.5385  0.6191
  115TMC2    H5 1766   3.167   1.176  17.655 -0.2774  0.7706  0.3960
  116MPD2     C 1767   2.794   0.445  17.585  0.3401  0.0088  0.1036
  116MPD2    C1 1768   2.718   0.528  17.507 -0.7841  0.3525 -0.3668
  116MPD2    C2 1769   2.739   0.666  17.525 -0.2948 -0.2834  0.0412
  116MPD2    C3 1770   2.824   0.724  17.623  0.0443 -0.3855  0.2643
  116MPD2    C4 1771   2.900   0.630   0.013 -0.5917 -0.5400  0.3187
  116MPD2    C5 1772   2.878   0.495  17.680 -0.1429 -0.5943 -0.1949
  116MPD2     H 1773   2.695   0.729  17.448 -1.2941 -0.7225  0.2454
  116MPD2    H1 1774   2.967   0.658   0.094 -0.7846 -1.2266  0.7184
  116MPD2    H2 1775   2.804   0.338  17.570 -1.5567 -0.1184 -0.2587
  116MPD2    H3 1776   2.932   0.429   0.061 -0.4981 -0.2844  0.4063
  116MPD2     N 1777   2.853   0.858  17.634 -0.0669 -0.1536  0.4453
  116MPD2    H5 1778   2.936   0.879   0.003  0.4384 -1.1654  0.0695
  116MPD2    N1 1779   2.630   0.467  17.421 -0.2203 -0.0728 -0.1481
  116MPD2    H7 1780   2.614   0.368  17.431 -0.3037 -0.0271  0.1516
  117TMC2    C1 1781   1.178   2.460  14.629 -0.0734 -0.8526  0.1447
  117TMC2    C2 1782   1.180   2.476  14.764  0.3619 -0.5310 -0.1054
  117TMC2    C3 1783   1.288   2.550  14.809  0.8004  0.6764 -0.4296
  117TMC2    C4 1784   1.278   2.493  14.543  0.0401 -0.2383 -0.6127
  117TMC2    C5 1785   1.387   2.555  14.594 -0.0079  0.4259  0.7033
  117TMC2    C6 1786   1.390   2.594  14.732 -0.1392  0.5749 -0.6858
  117TMC2     C 1787   1.055   2.405  14.577  0.0879 -1.0142  0.4051
  117TMC2     O 1788   0.986   2.330  14.652 -0.0686  0.1334 -0.4643
  117TMC2     H 1789   1.100   2.440  14.827  0.5456 -1.7923 -0.5937
  117TMC2    H1 1790   1.273   2.463  14.440 -0.6350  1.8610 -1.2065
  117TMC2    H2 1791   1.463   2.662  14.774  0.1029 -1.5011  2.2271
  117TMC2    C7 1792   1.484   2.604  14.504  0.0746  0.1252  0.2708
  117TMC2    C8 1793   1.268   2.605  14.943  0.3486 -0.3865  0.2969
  117TMC2    O1 1794   1.456   2.598  14.386  0.1407 -0.2200  0.0950
  117TMC2    O2 1795   1.349   2.642  15.027 -0.1522 -0.3161  0.4546
  117TMC2    O5 1796   1.139   2.642  14.937 -0.0296  0.6375  0.4824
  117TMC2    H5 1797   1.103   2.630  14.847 -0.0441  0.7208  0.4765
  118MPD2     C 1798   1.792   2.773  14.616  0.8687  0.3343  0.1027
  118MPD2    C1 1799   1.700   2.735  14.524  0.3418 -0.3714 -0.2222
  118MPD2    C2 1800   1.711   2.776  14.391 -0.3576  0.4384  0.7666
  118MPD2    C3 1801   1.821   2.856  14.351  0.0986  0.2602  0.5559
  118MPD2    C4 1802   1.913   2.898  14.444  0.0155 -0.2529 -0.7654
  118MPD2    C5 1803   1.899   2.849  14.577 -0.2471  0.1029 -0.6883
  118MPD2     H 1804   1.639   2.726  14.328  0.3401  0.1466  0.1893
  118MPD2    H1 1805   1.993   2.968  14.424 -2.3543  2.8679  0.5817
  118MPD2    H2 1806   1.786   2.756  14.723  1.1629 -0.2984  0.0205
  118MPD2    H3 1807   1.977   2.880  14.647  0.3020  1.3942 -1.8605
  118MPD2     N 1808   1.847   2.906  14.218  0.4036  0.1624 -0.2624
  118MPD2    H5 1809   1.927   2.963  14.193  1.1523 -1.0644 -0.6561
  118MPD2    N1 1810   1.589   2.661  14.573  0.3448  0.2367  0.6682
  118MPD2    H7 1811   1.587   2.632  14.670 -0.9568  0.2922  0.6576
  119MPD2     C 1812   0.022   4.113  14.280  0.1909 -0.5298 -0.1646
  119MPD2    C1 1813   4.623   4.118  14.219 -0.3142 -0.5340 -0.4486
  119MPD2    C2 1814   4.602   4.061  14.096  0.0632  0.3538  0.4025
  119MPD2    C3 1815   4.700   3.986  14.029  0.5350  0.1686  0.0425
  119MPD2    C4 1816   0.098   3.978  14.100  0.1291  0.3564  0.2560
  119MPD2    C5 1817   0.123   4.041  14.217 -0.1012  0.4077  0.3365
  119MPD2     H 1818   4.505   4.080  14.052 -0.7582 -0.6194  1.8143
  119MPD2    H1 1819   0.177   3.918  14.056 -0.1284  1.8287 -2.2039
  119MPD2    H2 1820   0.022   4.143  14.384  0.7984  3.4059 -1.3000
  119MPD2    H3 1821   0.210   4.025  14.279 -0.7934  0.7729  1.4168
  119MPD2     N 1822   4.677   3.912  13.911 -0.1954  0.2174 -0.0371
  119MPD2    H5 1823   0.038   3.861  13.879 -0.1190 -0.3900  1.1008
  119MPD2    N1 1824   4.525   4.199  14.281 -0.1001 -0.0126 -0.3553
  119MPD2    H7 1825   4.564   4.279  14.330  1.6224 -1.3597  0.4962
  120TCq2    C1 1826   4.552   3.886  13.866 -0.2676  0.1102  0.0474
  120TCq2    O2 1827   4.446   3.899  13.922 -0.3199  0.0088  0.4937
  120TCq2    C2 1828   4.540   3.827  13.736 -0.5699 -0.1269 -0.1176
  120TCq2    C3 1829   4.651   3.787  13.665  0.6988 -0.2612  0.2216
  120TCq2    C4 1830   4.626   3.741  13.541 -0.5531  0.0788  0.0095
  120TCq2    C5 1831   4.500   3.733  13.488  0.4500  0.3846  0.0296
  120TCq2    C6 1832   4.395   3.762  13.567 -0.0833  0.3951 -0.4043
  120TCq2    C7 1833   4.415   3.822  13.687  0.7455  0.1027  0.2338
  120TCq2    C8 1834   4.260   3.766  13.522  0.2520 -0.1528 -0.2451
  120TCq2    O4 1835   4.238   3.767  13.402 -0.3565  0.4816  0.6997
  120TCq2    C9 1836   0.011   3.702  13.454  0.2886 -0.4308  0.1830
  120TCq2    O5 1837   4.709   3.685  13.331  0.1090 -0.0388  0.3984
  120TCq2    O6 1838   0.119   3.672  13.509 -0.4237 -0.0381  0.1118
  120TCq2    H2 1839   0.030   3.787  13.707  0.5961 -0.7132  0.4731
  120TCq2    H3 1840   4.486   3.700  13.386  0.9427  1.9279 -0.5303
  120TCq2    H4 1841   4.335   3.874  13.737  1.2501 -0.4524  1.6124
  121TMC2    C1 1842   1.174   0.882  14.306 -0.7695  0.4760  0.4787
  121TMC2    C2 1843   1.246   0.842  14.418  0.1898  0.1790 -0.5575
  121TMC2    C3 1844   1.276   0.714  14.432 -0.7540  0.3377  0.4369
  121TMC2    C4 1845   1.113   0.787  14.222  0.3785 -0.1868 -0.4921
  121TMC2    C5 1846   1.141   0.656  14.253  0.1647 -0.1517  0.4069
  121TMC2    C6 1847   1.216   0.615  14.355 -0.2041  0.0267 -0.6188
  121TMC2     C 1848   1.191   1.021  14.261 -0.2575  0.2512 -0.2704
  121TMC2     O 1849   1.224   1.107  14.349  0.2398 -0.3911 -0.0866
  121TMC2     H 1850   1.275   0.920  14.487 -1.8320 -0.0209  0.5137
  121TMC2    H1 1851   1.059   0.817  14.133 -2.6515  1.5045  1.9389
  121TMC2    H2 1852   1.240   0.510  14.369 -2.1869 -0.1269  1.7404
  121TMC2    C7 1853   1.095   0.567  14.143 -0.2056 -0.1259 -0.1688
  121TMC2    C8 1854   1.321   0.664  14.559  0.7122 -0.0805  0.3707
  121TMC2    O1 1855   1.173   0.482  14.104 -0.1888  0.9004  0.0631
  121TMC2    O2 1856   1.267   0.569  14.606  0.6180 -0.1118  0.1260
  121TMC2    O5 1857   1.444   0.714  14.590 -0.1884  0.2749 -0.1475
  121TMC2    H5 1858   1.461   0.779  14.518  0.0560  0.3679 -0.0028
  122MPD2     C 1859   1.275   1.262  14.110  0.1936 -0.3040  0.8216
  122MPD2    C1 1860   1.269   1.144  14.052  0.6621  0.4932 -0.6144
  122MPD2    C2 1861   1.312   1.121  13.926  0.3001 -0.8719  0.2767
  122MPD2    C3 1862   1.362   1.227  13.857 -0.2446  0.4023 -0.4500
  122MPD2    C4 1863   1.364   1.358  13.912  0.2169 -0.6641  0.4276
  122MPD2    C5 1864   1.320   1.369  14.041  0.2464 -0.0429  0.8199
  122MPD2     H 1865   1.304   1.027  13.874  0.2706 -0.1074 -1.1081
  122MPD2    H1 1866   1.388   1.438  13.843 -0.2971 -0.1794  0.8075
  122MPD2    H2 1867   1.235   1.281  14.208  0.4327 -0.5976  0.9765
  122MPD2    H3 1868   1.326   1.464  14.093  1.0555  0.0255  0.6020
  122MPD2     N 1869   1.413   1.208  13.716  0.0799  0.0731  0.6318
  122MPD2    H5 1870   1.456   1.286  13.668 -0.2436  0.1649  0.4913
  122MPD2    N1 1871   1.217   1.027  14.121  0.5871 -0.1943  0.1351
  122MPD2    H7 1872   1.210   0.942  14.067 -0.4365  1.4476 -2.2917
  123MPD2     C 1873   3.221   2.782   9.111  0.1024  0.2455 -0.3339
  123MPD2    C1 1874   3.337   2.854   9.079 -0.6610  0.3851 -0.2540
  123MPD2    C2 1875   3.338   2.920   8.953  0.1533  0.5187  0.1548
  123MPD2    C3 1876   3.220   2.924   8.879  0.0225  0.0935  0.0395
  123MPD2    C4 1877   3.110   2.854   8.911 -0.1523 -0.0596 -0.3898
  123MPD2    C5 1878   3.114   2.778   9.023 -0.8116  0.0238 -0.1612
  123MPD2     H 1879   3.419   2.981   8.916  0.6404 -1.4892 -2.0902
  123MPD2    H1 1880   3.024   2.861   8.845  1.3383  0.2505 -2.3001
  123MPD2    H2 1881   3.225   2.719   9.198 -1.6107  1.8441  0.9000
  123MPD2    H3 1882   3.030   2.710   9.032 -1.2182  0.7876  1.8312
  123MPD2     N 1883   3.228   3.006   8.764 -0.5201  0.3151 -0.1238
  123MPD2    H5 1884   3.322   3.032   8.733 -0.6712 -0.0930 -0.9429
  123MPD2    N1 1885   3.451   2.864   9.170  0.2337  0.1916  0.4242
  123MPD2    H7 1886   3.440   2.816   9.259 -0.3612 -2.3321 -1.0253
  124TCq2    C1 1887   3.127   3.037   8.670  0.2676 -0.1643 -0.9540
  124TCq2    O2 1888   3.014   2.986   8.662 -0.1019  0.6663  0.1705
  124TCq2    C2 1889   3.192   3.135   8.578 -0.1092 -0.4940  0.3082
  124TCq2    C3 1890   3.161   3.123   8.445 -0.3462 -0.2976 -0.1683
  124TCq2    C4 1891   3.217   3.214   8.360 -0.5247  0.1717  0.5836
  124TCq2    C5 1892   3.323   3.298   8.400  0.1345 -0.0628  0.5416
  124TCq2    C6 1893   3.357   3.302   8.534 -0.0291 -0.3107 -0.2790
  124TCq2    C7 1894   3.286   3.222   8.625  0.5516  0.6333 -0.0083
  124TCq2    C8 1895   3.467   3.379   8.585 -0.1342 -0.1975 -0.1242
  124TCq2    O4 1896   3.456   3.401   8.707 -0.3603 -0.1242 -0.1874
  124TCq2    C9 1897   3.181   3.196   8.222  0.0304  0.3749  0.2142
  124TCq2    O5 1898   3.204   3.297   8.147 -0.3733 -0.2395  0.0834
  124TCq2    O6 1899   3.103   3.103   8.190 -0.2146 -0.0131 -0.2216
  124TCq2    H2 1900   3.082   3.058   8.411  0.1745 -1.5887  1.1102
  124TCq2    H3 1901   3.367   3.354   8.318  0.2241  1.0104  1.3368
  124TCq2    H4 1902   3.297   3.239   8.732  0.9754 -0.4170  0.1149
  125TMC2    C1 1903   0.117   0.428   9.377  0.2909  0.4587 -0.0037
  125TMC2    C2 1904   4.720   0.471   9.434 -0.4188 -0.9022 -0.2258
  125TMC2    C3 1905   4.698   0.466   9.570 -0.7214  0.1480 -0.2316
  125TMC2    C4 1906   0.202   0.350   9.453 -0.2970 -0.7138  0.2307
  125TMC2    C5 1907   0.175   0.348   9.585 -0.4558 -0.1906  0.3658
  125TMC2    C6 1908   0.063   0.400   9.649  0.2755 -0.3839 -0.9011
  125TMC2     C 1909   0.115   0.414   9.232  0.2777  0.5959 -0.3769
  125TMC2     O 1910   4.719   0.414   9.193 -0.5744  0.2499  0.1737
  125TMC2     H 1911   4.646   0.533   9.384 -0.2973 -2.0444 -1.8253
  125TMC2    H1 1912   0.284   0.294   9.409  1.6453  1.2613  1.2980
  125TMC2    H2 1913   0.042   0.378   9.753 -0.5033  2.3200 -0.4992
  125TMC2    C7 1914   0.280   0.297   9.673  0.6876  0.0855  0.5781
  125TMC2    C8 1915   4.569   0.513   9.605  0.7992  0.0128 -0.2018
  125TMC2    O1 1916   0.235   0.253   9.779  0.4483 -0.2983 -0.2203
  125TMC2    O2 1917   4.540   0.630   9.571 -0.2816  0.0181 -0.3963
  125TMC2    O5 1918   4.523   0.447   9.716  0.8514  0.2242 -0.4779
  125TMC2    H5 1919   4.565   0.364   9.746  0.8845  1.2312  2.2305
  126MPD1     C 1920   0.285   0.268   8.769 -0.9585  0.1720  0.7622
  126MPD1    C1 1921   0.396   0.283   8.844 -0.5544 -0.2970 -0.1020
  126MPD1    C2 1922   0.381   0.325   8.979  0.0442  0.2900  0.4389
  126MPD1    C3 1923   0.260   0.351   9.031  0.4005 -0.3683 -0.1926
  126MPD1    C4 1924   0.156   0.346   8.951  0.1715 -0.7039  0.2819
  126MPD1    C5 1925   0.164   0.310   8.819  0.3170 -0.1620 -0.8360
  126MPD1     H 1926   0.470   0.340   9.039  0.4878  1.5034 -0.5045
  126MPD1    H1 1927   0.056   0.349   8.991 -0.4547 -0.9671 -1.2864
  126MPD1    H2 1928   0.278   0.207   8.680  1.0402 -0.5715  1.1211
  126MPD1    H3 1929   0.076   0.288   8.760  0.5262 -3.0946 -0.0425
  126MPD1     N 1930   0.240   0.387   9.174  0.5465 -0.3553 -0.1843
  126MPD1    H5 1931   0.321   0.376   9.234  0.8396  4.3425  0.2358
  126MPD1    N1 1932   0.524   0.231   8.808  0.1963 -0.0196 -0.0061
  126MPD1    H6 1933   0.604   0.277   8.851  1.6897 -1.2134 -1.5196
  126MPD1    H7 1934   0.538   0.229   8.707 -2.2711 -0.3419 -0.3593
  127MPD2     C 1935   0.689   3.742   9.464 -0.5172 -0.3950 -0.3177
  127MPD2    C1 1936   0.798   3.662   9.439  0.0919 -0.3129  0.4058
  127MPD2    C2 1937   0.917   3.727   9.438 -0.1863 -0.5095  0.1768
  127MPD2    C3 1938   0.938   3.866   9.456  0.1174  0.2487 -0.2472
  127MPD2    C4 1939   0.827   3.942   9.463 -0.6883  0.1418 -0.0971
  127MPD2    C5 1940   0.703   3.884   9.480 -0.1936  0.5390  0.7336
  127MPD2     H 1941   1.005   3.670   9.411  0.7591  1.0173  0.0145
  127MPD2    H1 1942   0.829   4.050   9.473  0.2738  0.1747 -0.6636
  127MPD2    H2 1943   0.584   3.714   9.467 -0.4933 -0.5365 -0.7987
  127MPD2    H3 1944   0.617   3.950   9.491  2.5387  3.7018  2.9261
  127MPD2     N 1945   1.070   3.920   9.447  0.3671 -0.2515 -0.4455
  127MPD2    H5 1946   1.151   3.860   9.439  1.2245  0.9494 -0.7154
  127MPD2    N1 1947   0.779   3.528   9.415 -0.4042 -0.2292  0.7605
  127MPD2    H7 1948   0.685   3.492   9.421 -0.6302 -0.0897 -1.8288
  128TCq2    C1 1949   0.868   3.440   9.358 -0.6557 -0.4019 -0.5014
  128TCq2    O2 1950   0.977   3.466   9.313  0.3450 -0.3393  0.3336
  128TCq2    C2 1951   0.819   3.309   9.336 -0.1066  0.1262  0.6033
  128TCq2    C3 1952   0.700   3.263   9.385 -1.0872 -0.3666 -0.4816
  128TCq2    C4 1953   0.655   3.138   9.364  0.8557 -0.6572  0.6288
  128TCq2    C5 1954   0.726   3.058   9.272 -0.5283 -0.6507 -0.1373
  128TCq2    C6 1955   0.837   3.112   9.216  0.7764  0.1859 -0.3010
  128TCq2    C7 1956   0.887   3.232   9.248 -0.9039  0.4108  0.5970
  128TCq2    C8 1957   0.914   3.018   9.133 -0.0046 -0.0345  0.3806
  128TCq2    O4 1958   0.978   3.057   9.037  0.0296  0.0397  0.3787
  128TCq2    C9 1959   0.530   3.091   9.412  0.0669  0.0589 -0.0945
  128TCq2    O5 1960   0.491   3.146   9.516  0.1344  0.3938 -0.1883
  128TCq2    O6 1961   0.465   3.013   9.332  0.0345  1.0583 -0.1450
  128TCq2    H2 1962   0.647   3.325   9.456 -0.6476 -1.7742  1.0949
  128TCq2    H3 1963   0.679   2.968   9.235  0.0020 -1.2901  0.7550
  128TCq2    H4 1964   0.981   3.267   9.208  0.4148 -3.0203  0.6643
  129MPD2     C 1965   4.407   0.580   1.710 -0.5957  0.3322 -0.0893
  129MPD2    C1 1966   4.332   0.695   1.700  0.5813 -0.2907  0.4082
  129MPD2    C2 1967   4.346   0.783   1.592 -0.1184 -0.7014  0.1955
  129MPD2    C3 1968   4.426   0.757   1.488  0.3640  0.3190  0.9722
  129MPD2    C4 1969   4.500   0.644   1.498 -0.0069 -0.4426  0.3871
  129MPD2    C5 1970   4.494   0.557   1.605  0.2249 -0.0551  0.3817
  129MPD2     H 1971   4.291   0.876   1.588 -0.8104 -1.1780 -1.3476
  129MPD2    H1 1972   4.577   0.622   1.426 -0.4692  1.0530 -0.5746
  129MPD2    H2 1973   4.409   0.514   1.795 -1.5352  0.3889 -0.0257
  129MPD2    H3 1974   4.560   0.471   1.612 -0.5299 -0.5966  0.8396
  129MPD2     N 1975   4.430   0.838   1.373 -0.2148 -0.1022  0.6683
  129MPD2    H5 1976   4.380   0.925   1.387 -0.6280 -0.2676  0.2119
  129MPD2    N1 1977   4.240   0.733   1.799 -0.0058 -0.0501 -0.5732
  129MPD2    H7 1978   4.172   0.804   1.776 -0.0407 -0.4022 -1.5404
  130TCq2    C1 1979   4.220   0.666   1.916  0.6071  0.1413 -0.2176
  130TCq2    O2 1980   4.257   0.556   1.961 -0.5154 -0.1255  0.4473
  130TCq2    C2 1981   4.115   0.733   1.995  0.6302 -0.5508  0.6637
  130TCq2    C3 1982   4.095   0.862   1.967  0.0224  0.2408  0.6538
  130TCq2    C4 1983   3.984   0.921   2.020  0.1369 -0.2764  0.1684
  130TCq2    C5 1984   3.904   0.856   2.110 -0.7646 -0.0017  0.4811
  130TCq2    C6 1985   3.944   0.729   2.155  0.8029 -0.0865  0.0070
  130TCq2    C7 1986   4.055   0.667   2.097 -0.2062 -1.1372 -0.5284
  130TCq2    C8 1987   3.845   0.644   2.210  0.4206  0.0893 -0.9169
  130TCq2    O4 1988   3.883   0.525   2.217  0.5574  0.2463 -0.1580
  130TCq2    C9 1989   3.973   1.064   2.006  0.1878  0.4566  0.2468
  130TCq2    O5 1990   3.896   1.122   2.095 -0.0459 -0.2749  0.3754
  130TCq2    O6 1991   4.064   1.132   1.944  0.1661  0.2850 -0.1901
  130TCq2    H2 1992   4.153   0.922   1.898  1.5986 -1.4278  0.5340
  130TCq2    H3 1993   3.845   0.924   2.171  0.2697  2.2487 -1.0276
  130TCq2    H4 1994   4.090   0.568   2.123 -0.2924 -0.7067  1.2613
  131MPD2     C 1995   3.958   3.624   9.721 -0.7868 -1.0777  0.0730
  131MPD2    C1 1996   4.037   3.519   9.758 -0.4448  0.6492 -0.9644
  131MPD2    C2 1997   4.014   3.397   9.700 -0.9044 -0.6249  0.4076
  131MPD2    C3 1998   3.916   3.383   9.601  0.4278 -0.3073 -1.4692
  131MPD2    C4 1999   3.848   3.493   9.559  0.4516  0.8255 -0.6066
  131MPD2    C5 2000   3.863   3.612   9.624 -0.3144 -1.1536  0.6873
  131MPD2     H 2001   4.062   3.305   9.731 -0.0448  0.5457  2.5479
  131MPD2    H1 2002   3.772   3.477   9.483  0.3439  0.0197 -0.3296
  131MPD2    H2 2003   3.973   3.719   9.771 -2.5651 -0.8113  0.0920
  131MPD2    H3 2004   3.808   3.698   9.590  0.5550 -0.8010  0.1733
  131MPD2     N 2005   3.886   3.251   9.554  0.0359  0.0909 -0.4295
  131MPD2    H5 2006   3.920   3.170   9.605  0.1419  0.8121  0.6230
  131MPD2    N1 2007   4.133   3.544   9.853 -0.1170 -0.3287  0.1513
  131MPD2    H7 2008   4.137   3.638   9.890  0.7890  0.0159 -0.8484
  132TCq2    C1 2009   4.261   3.831  10.166 -0.8816 -0.1148 -0.4306
  132TCq2    O2 2010   4.144   3.815  10.199 -0.1330 -0.1289 -0.0458
  132TCq2    C2 2011   4.332   3.715  10.118  0.0971 -0.4706  0.2009
  132TCq2    C3 2012   4.466   3.709  10.109 -0.0001 -0.4072 -0.0958
  132TCq2    C4 2013   4.530   3.609  10.033  0.2599  1.0768  0.3554
  132TCq2    C5 2014   4.454   3.518   9.964  0.4895 -0.3001 -0.2489
  132TCq2    C6 2015   4.321   3.526   9.982  0.1456 -0.5381 -0.4758
  132TCq2    C7 2016   4.252   3.621  10.060  0.5961  0.6715 -0.4438
  132TCq2    C8 2017   4.249   3.469   9.875  0.0314  0.3702 -0.5184
  132TCq2    O4 2018   4.303   3.383   9.808 -0.8898 -0.0299 -0.1400
  132TCq2    C9 2019   4.671   3.593  10.038  0.0121 -0.4473  0.5910
  132TCq2    O5 2020   0.002   3.482  10.009  0.2704  0.2828 -0.4020
  132TCq2    O6 2021   0.011   3.677  10.106 -0.1447  0.5704  0.4554
  132TCq2    H2 2022   4.509   3.781  10.178  0.8399 -1.4257  0.4574
  132TCq2    H3 2023   4.498   3.441   9.902 -0.9881 -0.2325 -1.4098
  132TCq2    H4 2024   4.146   3.604  10.075  0.7224 -0.4282 -0.7879
  133MPD2     C 2025   2.472   3.604   8.923  0.3248 -0.1412 -0.1245
  133MPD2    C1 2026   2.421   3.686   9.023  0.2090 -0.1075 -0.2445
  133MPD2    C2 2027   2.494   3.797   9.063 -0.5440  0.1409 -0.1369
  133MPD2    C3 2028   2.617   3.826   9.003  0.3634 -0.0860 -0.1958
  133MPD2    C4 2029   2.662   3.749   8.901  0.1921  0.4836  0.0633
  133MPD2    C5 2030   2.596   3.638   8.870  0.3385  0.5149 -0.3820
  133MPD2     H 2031   2.469   3.860   9.148 -0.5330  0.2125 -0.1877
  133MPD2    H1 2032   2.756   3.778   8.854  1.4789 -0.6059  1.9597
  133MPD2    H2 2033   2.414   3.522   8.883  0.3007 -1.1021  1.8718
  133MPD2    H3 2034   2.646   3.581   8.793  2.2756 -1.1376  2.1185
  133MPD2     N 2035   2.701   3.943   9.031  0.9996  0.2106  0.1680
  133MPD2    H5 2036   2.784   3.955   8.973 -0.1580 -0.7961 -1.7020
  133MPD2    N1 2037   2.293   3.660   9.077 -0.4458  0.2391  0.5364
  133MPD2    H7 2038   2.240   3.582   9.040  0.6103  0.2506 -0.9672
  134TCq2    C1 2039   2.241   3.709   9.194 -0.4549 -0.4599  0.5899
  134TCq2    O2 2040   2.269   3.800   9.266  0.1980 -0.3236  0.4221
  134TCq2    C2 2041   2.114   3.646   9.231  0.3629  0.2298  0.9011
  134TCq2    C3 2042   2.078   3.524   9.171 -0.1734 -0.0382 -0.8565
  134TCq2    C4 2043   1.955   3.477   9.203 -0.3312 -0.3980 -0.5802
  134TCq2    C5 2044   1.861   3.548   9.277  0.2429 -0.2846  0.1939
  134TCq2    C6 2045   1.902   3.677   9.323  0.5401 -0.0303  0.2429
  134TCq2    C7 2046   2.032   3.732   9.299  0.1872 -0.8564 -0.3913
  134TCq2    C8 2047   1.826   3.750   9.421  0.2198  0.0063 -0.5607
  134TCq2    O4 2048   1.872   3.860   9.459 -0.1941 -0.9043  0.3519
  134TCq2    C9 2049   1.906   3.349   9.153  0.7134 -1.0390 -0.2230
  134TCq2    O5 2050   1.815   3.296   9.218  0.0663 -0.1679 -0.0427
  134TCq2    O6 2051   1.985   3.289   9.072  0.1784  0.1789  0.3345
  134TCq2    H2 2052   2.141   3.464   9.106  2.0533  0.6234  0.6802
  134TCq2    H3 2053   1.767   3.501   9.303 -0.0725 -0.0271 -0.4673
  134TCq2    H4 2054   2.067   3.819   9.352 -1.4787 -1.2205  1.3188
  135MPD2     C 2055   1.854   0.852   9.481  0.3568 -0.8385 -0.3627
  135MPD2    C1 2056   1.729   0.802   9.460  0.2985  0.1337  0.3247
  135MPD2    C2 2057   1.711   0.666   9.444  0.1846  0.0558  0.4502
  135MPD2    C3 2058   1.819   0.582   9.461 -0.3403  0.0976  1.1604
  135MPD2    C4 2059   1.948   0.628   9.497  0.9546  0.0947  0.2519
  135MPD2    C5 2060   1.963   0.765   9.506 -0.1226 -0.3273  0.0244
  135MPD2     H 2061   1.611   0.625   9.435  0.7174 -1.1626  0.0811
  135MPD2    H1 2062   2.030   0.559   9.511 -0.0945 -1.5058 -1.5093
  135MPD2    H2 2063   1.873   0.959   9.489 -0.5119 -0.7832  0.8905
  135MPD2    H3 2064   2.061   0.808   9.522 -0.3018  0.6252 -1.4060
  135MPD2     N 2065   1.804   0.446   9.442  0.4681  0.1424 -0.3530
  135MPD2    H5 2066   1.878   0.393   9.487 -0.0658 -0.2404  0.0881
  135MPD2    N1 2067   1.614   0.883   9.478 -0.0661 -0.0926  0.2237
  135MPD2    H7 2068   1.524   0.839   9.460  0.3750 -0.7863 -0.3281
  136TCq2    C1 2069   1.610   1.012   9.521 -0.6246 -0.3549  0.1349
  136TCq2    O2 2070   1.703   1.083   9.555  0.2921  0.2186 -0.1903
  136TCq2    C2 2071   1.481   1.075   9.529 -0.1431  0.2795  0.0142
  136TCq2    C3 2072   1.471   1.173   9.621 -0.5773  0.1351  0.3649
  136TCq2    C4 2073   1.349   1.222   9.654  0.8234  0.2692  0.5745
  136TCq2    C5 2074   1.235   1.167   9.601  0.5120 -0.2787  0.2892
  136TCq2    C6 2075   1.247   1.063   9.519 -0.2802 -0.6792  0.3694
  136TCq2    C7 2076   1.369   1.016   9.476  0.4314 -0.0738 -0.2005
  136TCq2    C8 2077   1.134   1.010   9.448  0.4126  0.6891  0.8453
  136TCq2    O4 2078   1.141   0.988   9.329 -0.3953  0.1184 -0.0297
  136TCq2    C9 2079   1.345   1.324   9.758 -0.0760  0.2629  0.2440
  136TCq2    O5 2080   1.238   1.327   9.821 -0.3075 -0.2740  0.0885
  136TCq2    O6 2081   1.448   1.382   9.787  1.2607  0.2698  0.8216
  136TCq2    H2 2082   1.562   1.230   9.641 -0.8491  0.1295  1.6069
  136TCq2    H3 2083   1.140   1.214   9.627 -0.1499 -0.6542 -1.4677
  136TCq2    H4 2084   1.377   0.945   9.395  1.9281 -0.1021 -0.0298
  137MPD2     C 2085   0.574   4.480   9.892 -0.5221  0.3854  0.3697
  137MPD2    C1 2086   0.690   4.527   9.838 -0.5884 -0.0746  0.1268
  137MPD2    C2 2087   0.796   4.551   9.928 -0.4081 -0.1529 -0.0724
  137MPD2    C3 2088   0.795   4.507  10.060 -0.0780 -0.4479  0.6707
  137MPD2    C4 2089   0.682   4.444  10.100  0.0649 -0.0936 -0.3262
  137MPD2    C5 2090   0.572   4.433  10.020 -0.1330 -0.0713 -0.0904
  137MPD2     H 2091   0.880   4.611   9.896  0.7649 -0.1374  3.1299
  137MPD2    H1 2092   0.674   4.400  10.198 -1.0606 -1.0836 -0.8625
  137MPD2    H2 2093   0.481   4.476   9.836 -0.6374 -1.2358  0.6718
  137MPD2    H3 2094   0.480   4.387  10.055  0.3311  0.0433  1.3091
  137MPD2     N 2095   0.909   4.518  10.137  1.0162 -0.0314  0.2557
  137MPD2    H5 2096   0.977   4.573  10.085  1.1547 -0.9020 -0.4785
  137MPD2    N1 2097   0.690   4.545   9.702  0.2579  0.3053 -0.3431
  137MPD2    H7 2098   0.598   4.550   9.658 -0.0478 -1.5035  0.1041
  138TCq2    C1 2099   0.800   4.579   9.632 -0.6063  0.8338  0.1447
  138TCq2    O2 2100   0.918   4.582   9.665  0.4140 -0.2336 -0.2577
  138TCq2    C2 2101   0.775   4.623   9.494 -0.7233  0.2295  0.1180
  138TCq2    C3 2102   0.884   4.679   9.435 -0.5681 -0.9845 -0.5495
  138TCq2    C4 2103   0.868   0.015   9.315  0.0536 -0.6585  0.6541
  138TCq2    C5 2104   0.745   0.024   9.250 -0.3274  0.3448  0.1389
  138TCq2    C6 2105   0.639   4.700   9.318 -0.1202 -0.0396  0.0485
  138TCq2    C7 2106   0.654   4.629   9.440 -0.1349 -0.1468  0.4712
  138TCq2    C8 2107   0.505   0.019   9.265 -0.0787 -0.7683  0.1770
  138TCq2    O4 2108   0.511   0.048   9.145 -0.3135  0.0259 -0.2566
  138TCq2    C9 2109   0.983   0.067   9.253  0.0054  0.2787 -0.5640
  138TCq2    O5 2110   1.081   0.105   9.320 -0.1678  0.1234 -0.4514
  138TCq2    O6 2111   0.994   0.044   9.130  0.4235 -0.2585  0.9342
  138TCq2    H2 2112   0.983   4.682   9.478 -0.5154  1.0171 -0.7823
  138TCq2    H3 2113   0.739   0.074   9.154 -0.7055  0.5007  0.2429
  138TCq2    H4 2114   0.558   4.595   9.478  0.4528 -3.3681 -0.9562
  139TMC2    C1 2115   1.066   3.407  13.154 -0.3938 -0.0769 -1.4254
  139TMC2    C2 2116   1.034   3.449  13.023  0.0445 -0.3456 -0.3846
  139TMC2    C3 2117   0.926   3.528  13.005  0.0744 -0.5613  0.0029
  139TMC2    C4 2118   1.001   3.446  13.262  0.5408  0.2409  0.3327
  139TMC2    C5 2119   0.911   3.550  13.239 -0.4798 -0.6554 -0.0530
  139TMC2    C6 2120   0.861   3.579  13.114  0.2478 -0.1104  0.4250
  139TMC2     C 2121   1.148   3.291  13.155 -0.7870  0.2886  0.7536
  139TMC2     O 2122   1.140   3.213  13.053 -0.3201 -0.1112  0.1834
  139TMC2     H 2123   1.091   3.402  12.944  1.0283  0.0504  0.1024
  139TMC2    H1 2124   1.021   3.407  13.361  0.5464  0.0259  0.2465
  139TMC2    H2 2125   0.783   3.653  13.101  1.2315  1.1424  1.6457
  139TMC2    C7 2126   0.840   3.602  13.353  0.3907 -0.4476 -0.1969
  139TMC2    C8 2127   0.902   3.574  12.878 -0.3520  0.2005  0.6331
  139TMC2    O1 2128   0.736   3.659  13.330 -0.1991  0.6188  0.6581
  139TMC2    O2 2129   0.792   3.550  12.825  0.2904 -0.1414 -0.4055
  139TMC2    O5 2130   1.017   3.599  12.812 -0.1856  0.3985  0.0953
  139TMC2    H5 2131   1.085   3.616  12.880  0.3257 -1.0408 -0.0592
  140MPD2     C 2132   1.460   3.233  13.325  0.2324  0.0738  0.5113
  140MPD2    C1 2133   1.350   3.199  13.250 -0.3636  0.3321  0.1926
  140MPD2    C2 2134   1.368   3.091  13.162 -0.1743 -0.4757 -0.2194
  140MPD2    C3 2135   1.487   3.020  13.155  0.0218 -0.1556  0.7105
  140MPD2    C4 2136   1.595   3.054  13.234 -0.3293 -0.1104  0.2463
  140MPD2    C5 2137   1.579   3.156  13.321  0.1232  0.2183 -0.2300
  140MPD2     H 2138   1.281   3.046  13.116 -0.2320  0.2610 -0.8378
  140MPD2    H1 2139   1.686   2.995  13.236 -0.8815 -0.9579  0.2870
  140MPD2    H2 2140   1.469   3.326  13.380 -1.9752  0.0259  0.9536
  140MPD2    H3 2141   1.664   3.189  13.379  1.1322  0.0590 -1.6169
  140MPD2     N 2142   1.478   2.904  13.073  0.2603 -0.6715  0.1037
  140MPD2    H5 2143   1.400   2.895  13.008 -0.2546  0.8237  0.5189
  140MPD2    N1 2144   1.241   3.289  13.255  0.2104 -0.6920 -0.3307
  140MPD2    H7 2145   1.229   3.363  13.323 -0.4269  0.2189 -1.4365
  141TCq2    C1 2146   1.627   4.482  14.141  0.8354 -0.1968 -0.4822
  141TCq2    O2 2147   1.623   4.521  14.024  0.3649 -0.2222  0.0605
  141TCq2    C2 2148   1.574   4.570  14.246  0.4246 -0.3393 -0.5949
  141TCq2    C3 2149   1.600   4.547  14.377 -0.6946 -0.9209 -1.0682
  141TCq2    C4 2150   1.582   4.651  14.467  0.7816  0.1890  0.4144
  141TCq2    C5 2151   1.543   0.052  14.426 -0.0919 -0.5800 -0.7012
  141TCq2    C6 2152   1.525   0.076  14.299 -0.0163 -0.0282 -0.3459
  141TCq2    C7 2153   1.549   4.699  14.209 -0.3683  0.0984 -0.4431
  141TCq2    C8 2154   1.504   0.209  14.245 -0.3652 -0.3745 -0.4680
  141TCq2    O4 2155   1.475   0.234  14.128  0.1550 -0.0308  0.0074
  141TCq2    C9 2156   1.620   4.623  14.604 -1.0435 -0.5259  0.4298
  141TCq2    O5 2157   1.612   4.708  14.692 -0.2124  0.5209  0.2062
  141TCq2    O6 2158   1.630   4.500  14.639 -0.1253  0.1882 -0.2799
  141TCq2    H2 2159   1.626   4.447  14.409 -1.2070 -0.9276 -0.6545
  141TCq2    H3 2160   1.533   0.136  14.494  0.3072 -0.3242 -0.9572
  141TCq2    H4 2161   1.518   4.720  14.108  1.2009  0.8288 -0.7810
  142MPD2     C 2162   4.206   2.863   9.609 -0.0174  0.8321  0.4965
  142MPD2    C1 2163   4.128   2.850   9.499 -0.3465  0.1577 -0.3291
  142MPD2    C2 2164   4.125   2.954   9.405  0.3442  0.6490  0.2451
  142MPD2    C3 2165   4.195   3.073   9.425  0.2294  0.5363  0.0726
  142MPD2    C4 2166   4.280   3.077   9.534 -0.2803  0.9625 -0.4823
  142MPD2    C5 2167   4.284   2.975   9.620 -0.5518 -0.3205 -0.1501
  142MPD2     H 2168   4.058   2.948   9.320  0.5507 -2.3257  0.2740
  142MPD2    H1 2169   4.332   3.168   9.563 -0.0142  0.4907  0.5360
  142MPD2    H2 2170   4.202   2.794   9.693 -0.3860  0.5697  0.2648
  142MPD2    H3 2171   4.334   2.987   9.716  0.0675 -1.1420 -0.3704
  142MPD2     N 2172   4.181   3.186   9.344  0.4038 -0.0062 -0.7919
  142MPD2    H5 2173   4.231   3.267   9.379 -0.9650 -0.1236  1.4867
  142MPD2    N1 2174   4.062   2.727   9.485 -0.9945 -0.6145  0.8970
  142MPD2    H7 2175   4.078   2.662   9.562  0.0990 -0.5409  0.7317
  143TCq2    C1 2176   4.103   3.196   9.229 -0.5494  0.0694  0.0885
  143TCq2    O2 2177   4.023   3.113   9.189  0.0691 -0.6863  0.1953
  143TCq2    C2 2178   4.089   3.325   9.159 -0.9592 -0.4219 -0.0147
  143TCq2    C3 2179   4.178   3.436   9.179 -0.2130 -0.1581 -0.2566
  143TCq2    C4 2180   4.159   3.548   9.107 -0.3312  0.9853  0.5466
  143TCq2    C5 2181   4.054   3.563   9.021 -0.6550  0.0610 -1.2911
  143TCq2    C6 2182   3.969   3.457   9.005 -0.2538  0.0165 -0.3448
  143TCq2    C7 2183   3.981   3.342   9.078  0.1671  0.2850  0.1494
  143TCq2    C8 2184   3.890   3.454   8.889  0.0938 -0.2683  0.3774
  143TCq2    O4 2185   3.817   3.357   8.875  0.1823 -0.1929  0.2826
  143TCq2    C9 2186   4.242   3.667   9.143  0.3839  0.3444 -0.6653
  143TCq2    O5 2187   4.310   3.663   9.249  0.0925 -0.2265  0.8452
  143TCq2    O6 2188   4.211   3.777   9.085  0.1635  0.5020  0.0517
  143TCq2    H2 2189   4.256   3.428   9.253  0.4644  2.6583 -0.6744
  143TCq2    H3 2190   4.047   3.654   8.962 -0.9749  0.6860 -0.2955
  143TCq2    H4 2191   3.908   3.266   9.052  0.6098 -0.4284  0.9846
  144MPD2     C 2192   1.231   2.078   1.081  0.9867 -0.5053 -1.0398
  144MPD2    C1 2193   1.301   2.150   0.983  0.0019 -1.0592  0.5746
  144MPD2    C2 2194   1.438   2.158   0.990  0.3563 -0.7593  0.1946
  144MPD2    C3 2195   1.504   2.084   1.090 -0.0895  0.3264  0.3879
  144MPD2    C4 2196   1.431   2.005   1.178  0.1982  0.0001 -0.2510
  144MPD2    C5 2197   1.301   1.997   1.165  0.6246  0.4112  0.3458
  144MPD2     H 2198   1.499   2.203   0.912  0.4588 -2.7504 -0.8700
  144MPD2    H1 2199   1.473   1.938   1.251  0.5314  0.7236  0.2191
  144MPD2    H2 2200   1.123   2.083   1.085  0.9292 -2.3924 -0.2797
  144MPD2    H3 2201   1.239   1.935   1.229  0.0556  1.8925  1.2370
  144MPD2     N 2202   1.647   2.071   1.088 -0.0926  0.4630 -0.3847
  144MPD2    H5 2203   1.690   1.986   1.123 -0.0470  0.5158 -0.3097
  144MPD2    N1 2204   1.233   2.213   0.878  0.8536 -0.1043 -0.0248
  144MPD2    H7 2205   1.291   2.266   0.814  0.1027  0.0747 -0.5611
  145TCq2    C1 2206   1.730   2.160   1.021  0.9648  0.3523  0.3225
  145TCq2    O2 2207   1.705   2.272   0.982  0.7375 -0.2129  0.1864
  145TCq2    C2 2208   1.857   2.094   1.012 -0.0593 -1.2269  0.7799
  145TCq2    C3 2209   1.858   1.964   0.965 -0.0069  0.1282  0.2781
  145TCq2    C4 2210   1.965   1.918   0.901 -0.1331 -0.2194  0.2526
  145TCq2    C5 2211   2.075   2.000   0.879  0.3687  0.1920  0.5082
  145TCq2    C6 2212   2.077   2.129   0.934 -0.4624  0.0882 -0.3279
  145TCq2    C7 2213   1.963   2.177   0.997 -0.4415 -0.0941 -0.3911
  145TCq2    C8 2214   2.209   2.192   0.931  0.0986  0.0090 -1.1626
  145TCq2    O4 2215   2.287   2.151   0.850  0.6375 -0.0223 -0.5673
  145TCq2    C9 2216   1.968   1.777   0.860 -0.3729  0.1690 -0.6487
  145TCq2    O5 2217   2.077   1.743   0.806  0.3617  1.0679  0.4414
  145TCq2    O6 2218   1.858   1.720   0.833  0.3153 -0.5737  0.0040
  145TCq2    H2 2219   1.772   1.898   0.972 -2.4986  3.1634 -1.7789
  145TCq2    H3 2220   2.155   1.952   0.824 -0.1222  1.3523 -1.2210
  145TCq2    H4 2221   1.955   2.283   1.020  0.9800 -0.5540  2.1612
  146TMC2    C1 2222   3.308   1.370  12.824  0.3580 -0.0190 -0.9244
  146TMC2    C2 2223   3.213   1.451  12.768  0.6448 -0.3632  0.4393
  146TMC2    C3 2224   3.227   1.483  12.634  0.2077 -0.9328  0.7030
  146TMC2    C4 2225   3.419   1.329  12.752  0.2886  0.0653 -0.4377
  146TMC2    C5 2226   3.428   1.363  12.625 -0.2667  0.3628  0.0502
  146TMC2    C6 2227   3.338   1.452  12.567 -0.0417 -0.2613  0.3533
  146TMC2     C 2228   3.282   1.334  12.961 -0.2050 -0.2442 -0.6157
  146TMC2     O 2229   3.166   1.365  13.000  0.0756 -0.1060 -0.6099
  146TMC2     H 2230   3.127   1.494  12.819 -0.3296 -0.2614 -1.3094
  146TMC2    H1 2231   3.495   1.272  12.805  2.8089  1.5669 -2.4366
  146TMC2    H2 2232   3.342   1.486  12.464 -0.0776  1.3350  0.8728
  146TMC2    C7 2233   3.531   1.305  12.539  0.3169  0.3190 -0.0865
  146TMC2    C8 2234   3.136   1.580  12.570 -0.1991  0.1608  0.2413
  146TMC2    O1 2235   3.533   1.353  12.427 -0.4248  0.0379 -0.9563
  146TMC2    O2 2236   3.173   1.676  12.503 -0.1583 -0.1564  0.0990
  146TMC2    O5 2237   3.017   1.533  12.591 -0.1570  0.1350 -0.0496
  146TMC2    H5 2238   3.017   1.440  12.621 -0.2294  0.6267  1.5171
  147MPD2     C 2239   3.891   0.969  12.393 -0.0438 -0.0129  0.6317
  147MPD2    C1 2240   3.858   0.937  12.523 -0.1380  0.2868  0.4930
  147MPD2    C2 2241   3.766   1.015  12.594  0.2617  0.1236 -0.0600
  147MPD2    C3 2242   3.713   1.131  12.528  0.1316  0.0888 -0.3069
  147MPD2    C4 2243   3.761   1.169  12.403  0.5974  0.0047  0.4706
  147MPD2    C5 2244   3.843   1.087  12.333  0.2929  0.2783 -0.2905
  147MPD2     H 2245   3.761   1.003  12.701 -0.5141 -1.0042 -0.2093
  147MPD2    H1 2246   3.727   1.264  12.363  0.3243  0.0092  0.7066
  147MPD2    H2 2247   3.960   0.914  12.331  0.3854  0.4347  0.7135
  147MPD2    H3 2248   3.889   1.115  12.238  4.1057 -1.9850  0.8672
  147MPD2     N 2249   3.604   1.198  12.593  0.1666  0.0130  0.8506
  147MPD2    H5 2250   3.579   1.164  12.686  0.2866 -2.0006  0.1426
  147MPD2    N1 2251   3.923   0.822  12.572 -0.2247  0.0033 -0.1367
  147MPD2    H7 2252   4.004   0.789  12.520  2.4005  1.3503  3.0901
  148MPD2     C 2253   3.813   4.117  10.455  0.1045  0.2022  0.2678
  148MPD2    C1 2254   3.847   3.983  10.453 -0.5024  0.6140  0.8067
  148MPD2    C2 2255   3.763   3.896  10.385  0.6252  0.7390  0.2544
  148MPD2    C3 2256   3.655   3.941  10.311 -0.6078  0.2070  0.2286
  148MPD2    C4 2257   3.626   4.073  10.311  0.2536 -0.4245  0.0454
  148MPD2    C5 2258   3.712   4.160  10.374 -0.1556  0.0121  0.1583
  148MPD2     H 2259   3.812   3.801  10.371 -0.5949 -0.0461  1.2969
  148MPD2    H1 2260   3.550   4.122  10.250  0.8473  1.0092  0.4824
  148MPD2    H2 2261   3.885   4.190  10.491  0.5870 -0.7153  1.1727
  148MPD2    H3 2262   3.689   4.266  10.366  0.9806  0.3372  1.0821
  148MPD2     N 2263   3.565   3.858  10.236 -0.5722  0.2971  0.2744
  148MPD2    H5 2264   3.508   3.907  10.169 -0.7847 -0.8782 -0.4031
  148MPD2    N1 2265   3.968   3.921  10.499 -0.3035  0.0619  0.8156
  148MPD2    H7 2266   3.991   3.824  10.478 -0.0951 -0.2965  2.7570
  149TCq2    C1 2267   4.066   3.989  10.565  0.4542  0.4321  0.4712
  149TCq2    O2 2268   4.078   4.109  10.589  0.1521  0.0255 -0.0092
  149TCq2    C2 2269   4.180   3.905  10.586  0.4601 -0.3588  0.4109
  149TCq2    C3 2270   4.301   3.956  10.547  0.1973 -0.3767  0.5283
  149TCq2    C4 2271   4.402   3.872  10.516  0.2753  0.2120  0.0972
  149TCq2    C5 2272   4.377   3.739  10.505  0.6933 -0.0259  0.2449
  149TCq2    C6 2273   4.252   3.686  10.536  0.4673  0.2655  0.1516
  149TCq2    C7 2274   4.155   3.772  10.587  0.0997  0.4834 -0.0374
  149TCq2    C8 2275   4.214   3.561  10.479  0.2201  0.5428 -0.7603
  149TCq2    O4 2276   4.096   3.534  10.503  0.0176 -0.0657  0.5150
  149TCq2    C9 2277   4.502   3.926  10.430 -0.1263  0.7282  0.4134
  149TCq2    O5 2278   4.596   3.854  10.387 -0.4238  0.5731  0.2917
  149TCq2    O6 2279   4.500   4.053  10.409 -0.0023  0.1676  0.7635
  149TCq2    H2 2280   4.290   4.060  10.516 -0.0898 -0.5199  0.1415
  149TCq2    H3 2281   4.459   3.679  10.466 -1.0144 -3.6934  2.2568
  149TCq2    H4 2282   4.055   3.740  10.612 -0.1716  1.0464 -0.3849
  150MPD2     C 2283   0.368   3.949  12.297  1.2579 -0.4989  0.2436
  150MPD2    C1 2284   0.416   3.896  12.178 -0.0300  0.7420 -0.2432
  150MPD2    C2 2285   0.550   3.912  12.138 -0.5548  0.3756  0.3077
  150MPD2    C3 2286   0.629   3.991  12.221 -0.0335  0.3560  0.0721
  150MPD2    C4 2287   0.575   4.048  12.337 -0.1083 -0.2647 -0.1509
  150MPD2    C5 2288   0.450   4.023  12.372  0.8233  0.1675 -0.3765
  150MPD2     H 2289   0.575   3.855  12.050  0.2062 -2.1186  2.1195
  150MPD2    H1 2290   0.645   4.097  12.404 -1.0471  0.0354  0.5944
  150MPD2    H2 2291   0.268   3.940  12.336  0.7523  0.1477 -0.8874
  150MPD2    H3 2292   0.404   4.047  12.467 -0.0292 -0.4610 -0.6216
  150MPD2     N 2293   0.754   4.014  12.177  0.0195 -0.3124  0.8199
  150MPD2    H5 2294   0.780   3.973  12.088 -0.6534 -0.7753  0.8340
  150MPD2    N1 2295   0.312   3.829  12.099 -0.4970 -0.3146  0.1652
  150MPD2    H7 2296   0.219   3.811  12.136 -0.9456  0.7093 -0.4886
  151TCq2    C1 2297   0.860   4.068  12.253  1.1264 -0.4157  0.6815
  151TCq2    O2 2298   0.861   4.123  12.363 -0.0565  0.1004 -0.4599
  151TCq2    C2 2299   0.992   4.077  12.182  0.4161  0.1347 -0.4733
  151TCq2    C3 2300   0.996   4.018  12.060 -0.6855 -0.3039 -0.0286
  151TCq2    C4 2301   1.104   3.937  12.027 -0.1862 -0.2173 -0.2152
  151TCq2    C5 2302   1.209   3.922  12.113  0.8735  0.2089 -0.4773
  151TCq2    C6 2303   1.209   4.000  12.226  0.2587  0.6467  0.1185
  151TCq2    C7 2304   1.098   4.072  12.264  0.2466  0.3133  0.1129
  151TCq2    C8 2305   1.326   4.006  12.312  1.1861 -0.1125  0.1221
  151TCq2    O4 2306   1.340   4.113  12.373 -0.8521  0.3088  0.2541
  151TCq2    C9 2307   1.098   3.873  11.897  0.0965  0.1042  0.1259
  151TCq2    O5 2308   1.204   3.808  11.866  0.5414  0.2197 -0.0139
  151TCq2    O6 2309   1.005   3.901  11.815  0.1351 -0.1752 -0.0718
  151TCq2    H2 2310   0.912   4.030  11.993  0.0453  2.2533 -0.5017
  151TCq2    H3 2311   1.295   3.867  12.077  2.2682  2.3784 -0.4919
  151TCq2    H4 2312   1.103   4.105  12.367  1.8780  0.8585 -0.1314
  152MPD2     C 2313   0.462   3.524  12.757 -0.0539  0.4276  0.5335
  152MPD2    C1 2314   0.460   3.604  12.638 -0.2220 -0.4630 -0.5260
  152MPD2    C2 2315   0.338   3.625  12.579  0.1228 -0.4578  0.0378
  152MPD2    C3 2316   0.218   3.576  12.645 -0.3067 -0.2128 -0.1875
  152MPD2    C4 2317   0.227   3.498  12.756 -0.4635  0.0009 -0.2256
  152MPD2    C5 2318   0.344   3.468  12.814  0.9717  0.5632  0.1733
  152MPD2     H 2319   0.332   3.683  12.488  0.2009 -2.6334 -1.3475
  152MPD2    H1 2320   0.141   3.453  12.804  0.0056 -0.0281  0.5993
  152MPD2    H2 2321   0.560   3.502  12.797 -0.2364  0.9753  1.2969
  152MPD2    H3 2322   0.358   3.406  12.901  0.4754  2.5327  1.6663
  152MPD2     N 2323   0.095   3.606  12.587 -0.3375 -0.2974 -0.2117
  152MPD2    H5 2324   0.102   3.665  12.505  1.4416  0.3882  0.4397
  152MPD2    N1 2325   0.583   3.655  12.587 -0.3813  0.2752  0.6479
  152MPD2    H7 2326   0.669   3.633  12.636  0.5883  1.5302 -0.4756
  153TCq2    C1 2327   0.598   3.682  12.454  0.3736  0.1337 -0.3821
  153TCq2    O2 2328   0.519   3.661  12.360 -0.5483  0.6442 -0.0522
  153TCq2    C2 2329   0.742   3.706  12.427  0.1667  0.7136 -0.5775
  153TCq2    C3 2330   0.797   3.678  12.300  0.4569  0.1532  0.1484
  153TCq2    C4 2331   0.935   3.684  12.278  0.0547  0.0281  0.3962
  153TCq2    C5 2332   1.017   3.725  12.377 -0.0414  0.5563 -0.1272
  153TCq2    C6 2333   0.956   3.762  12.500  0.1950  0.2361  0.4345
  153TCq2    C7 2334   0.820   3.748  12.531  1.1414  0.5950 -0.1453
  153TCq2    C8 2335   1.035   3.850  12.590  0.6898 -0.2532 -0.3943
  153TCq2    O4 2336   0.963   3.927  12.656 -0.2308  0.6287 -0.4611
  153TCq2    C9 2337   0.979   3.654  12.144  0.4005  0.0479  0.0164
  153TCq2    O5 2338   0.891   3.648  12.057  0.2771  0.5323 -0.1040
  153TCq2    O6 2339   1.100   3.641  12.123 -0.2650  0.3611  0.3113
  153TCq2    H2 2340   0.724   3.656  12.224  1.8657 -1.1203 -0.8378
  153TCq2    H3 2341   1.120   3.750  12.354 -0.8678  2.9315 -1.2755
  153TCq2    H4 2342   0.785   3.774  12.630 -1.5005  1.5418 -1.3282
  154MPD2     C 2343   2.503   3.973   0.269 -0.4363 -0.1667 -0.5520
  154MPD2    C1 2344   2.483   4.098   0.322  0.6266  0.5270  0.1020
  154MPD2    C2 2345   2.373   4.123   0.403  0.5525 -0.1477  0.0396
  154MPD2    C3 2346   2.294   4.011   0.442 -0.5956  0.7160  0.3718
  154MPD2    C4 2347   2.318   3.885   0.387 -0.0165 -0.0903 -0.0097
  154MPD2    C5 2348   2.424   3.867   0.307 -0.2794  0.3496 -0.3363
  154MPD2     H 2349   2.366   4.217   0.458  0.2500  0.5031 -1.0991
  154MPD2    H1 2350   2.257   3.797   0.404 -0.7688  0.7676  1.7275
  154MPD2    H2 2351   2.585   3.949   0.202  0.3768  0.3123  0.2606
  154MPD2    H3 2352   2.443   3.766   0.275 -2.1853 -0.3653  0.7934
  154MPD2     N 2353   2.186   4.023   0.529  0.2103 -0.0766 -0.3304
  154MPD2    H5 2354   2.169   4.118   0.562  0.3708  0.3484 -1.4913
  154MPD2    N1 2355   2.577   4.205   0.293  0.2250 -0.0519  0.3353
  154MPD2    H7 2356   2.666   4.177   0.254  0.5219  2.2332 -0.6515
  155TCq2    C1 2357   2.548   4.343   0.295  0.7922  1.1758  0.0404
  155TCq2    O2 2358   2.434   4.388   0.309  0.4753 -0.2153  0.3712
  155TCq2    C2 2359   2.648   4.435   0.256 -0.8370  1.0021 -0.1028
  155TCq2    C3 2360   2.610   4.561   0.221  0.0328  0.4677 -0.5297
  155TCq2    C4 2361   2.705   4.658   0.203  0.1293 -0.1691  0.1067
  155TCq2    C5 2362   2.838   4.626   0.200  0.6310  0.1292 -0.8829
  155TCq2    C6 2363   2.866   4.501   0.235  0.4766 -0.7294  0.2327
  155TCq2    C7 2364   2.780   4.399   0.266 -0.6783  0.0683 -0.9508
  155TCq2    C8 2365   3.004   4.458   0.207  0.0383 -0.1226  0.2184
  155TCq2    O4 2366   3.048   4.354   0.257 -0.1120 -0.1797  0.1052
  155TCq2    C9 2367   2.668   0.073   0.182 -0.9023 -0.0713 -0.0353
  155TCq2    O5 2368   2.544   0.102   0.157  0.4419 -0.3313  0.2567
  155TCq2    O6 2369   2.765   0.152   0.171 -0.4475  0.2763 -0.3692
  155TCq2    H2 2370   2.506   4.591   0.218  0.4485  2.2387  2.7664
  155TCq2    H3 2371   2.918   4.698   0.190  0.9076 -0.4304 -2.8547
  155TCq2    H4 2372   2.810   4.300   0.300 -1.3612  0.4878  0.8480
  156MPD2     C 2373   0.250   0.963  11.936 -0.0824  0.3773  0.0836
  156MPD2    C1 2374   0.307   1.089  11.931 -0.0775 -0.9434  0.2445
  156MPD2    C2 2375   0.378   1.134  12.038  0.1074  0.1468  0.3266
  156MPD2    C3 2376   0.398   1.050  12.146 -0.5525 -0.1365 -0.0676
  156MPD2    C4 2377   0.333   0.929  12.161  0.0331  0.6555  0.0208
  156MPD2    C5 2378   0.262   0.890  12.052  0.1966 -0.3131  0.1312
  156MPD2     H 2379   0.415   1.236  12.036 -0.6364  0.4210  0.6402
  156MPD2    H1 2380   0.339   0.864  12.248  1.8609  0.3326 -0.3456
  156MPD2    H2 2381   0.206   0.929  11.843 -0.7604  0.2479  0.4475
  156MPD2    H3 2382   0.217   0.792  12.061  1.4048 -1.0652 -2.0029
  156MPD2     N 2383   0.475   1.106  12.249 -0.2713 -0.4946  0.5032
  156MPD2    H5 2384   0.509   1.200  12.229 -0.7823 -0.4695 -0.2759
  156MPD2    N1 2385   0.277   1.170  11.814 -0.1578 -0.1503  0.0205
  156MPD2    H7 2386   0.231   1.128  11.734 -0.1612  1.7432 -0.9484
  157TCq2    C1 2387   0.318   1.298  11.785 -0.1902 -0.7792 -0.3827
  157TCq2    O2 2388   0.411   1.366  11.839  0.0370  0.2507 -0.0251
  157TCq2    C2 2389   0.278   1.346  11.653  0.0979 -0.3067  0.0616
  157TCq2    C3 2390   0.181   1.277  11.582  0.3680 -0.1289  0.1296
  157TCq2    C4 2391   0.152   1.323  11.460 -0.4082  0.2947 -0.4519
  157TCq2    C5 2392   0.226   1.424  11.393 -0.8630  0.2827  0.5667
  157TCq2    C6 2393   0.324   1.480  11.467  0.6697  0.5918 -0.1809
  157TCq2    C7 2394   0.360   1.439  11.595 -0.0355  0.4144 -0.2346
  157TCq2    C8 2395   0.383   1.595  11.409 -0.2104 -0.2795 -0.7597
  157TCq2    O4 2396   0.479   1.651  11.459  0.7179 -0.1536  0.0001
  157TCq2    C9 2397   0.047   1.270  11.377 -0.0616 -0.8156 -0.5508
  157TCq2    O5 2398   0.013   1.339  11.277 -0.3064 -0.3584  0.2461
  157TCq2    O6 2399   4.719   1.157  11.405  0.1697  0.3671 -0.3960
  157TCq2    H2 2400   0.118   1.199  11.623 -1.2837  0.4993 -1.2033
  157TCq2    H3 2401   0.218   1.445  11.287  0.6023 -0.4663  0.3037
  157TCq2    H4 2402   0.432   1.484  11.663  0.7198  1.0590 -1.4641
  158TMC2    C1 2403   1.116   4.664  13.502  0.0230  0.0987 -0.1424
  158TMC2    C2 2404   1.165   0.063  13.470 -0.3905  0.1255  0.1009
  158TMC2    C3 2405   1.088   0.151  13.397  0.0111  0.5409 -0.0536
  158TMC2    C4 2406   0.983   4.631  13.478 -0.2725 -0.4503  0.0692
  158TMC2    C5 2407   0.906   0.001  13.405  0.4932  0.0988 -0.4157
  158TMC2    C6 2408   0.957   0.123  13.364 -0.0559 -0.1240  0.3529
  158TMC2     C 2409   1.195   4.578  13.586 -0.2665  0.5415  0.3440
  158TMC2     O 2410   1.316   4.586  13.568  0.2447 -0.0706 -0.7608
  158TMC2     H 2411   1.262   0.095  13.507  0.7293 -0.8125 -2.0502
  158TMC2    H1 2412   0.946   4.532  13.502  1.6754 -1.0581  0.5314
  158TMC2    H2 2413   0.894   0.202  13.324  3.0327  1.5325 -1.2116
  158TMC2    C7 2414   0.771   4.699  13.376  0.9024  0.4293 -0.2050
  158TMC2    C8 2415   1.097   0.295  13.424  0.8250  0.8586  0.7383
  158TMC2    O1 2416   0.717   0.055  13.298 -0.1483  0.4402  0.1720
  158TMC2    O2 2417   1.058   0.394  13.361 -0.0773  0.5813 -0.1972
  158TMC2    O5 2418   1.136   0.314  13.547 -0.1237  0.0517  0.2218
  158TMC2    H5 2419   1.137   0.229  13.596 -2.5327 -0.0914  0.0321
  159MPD2     C 2420   1.252   4.243  13.972 -0.1117  0.2016 -0.0650
  159MPD2    C1 2421   1.138   4.318  13.993  0.1646 -0.6054 -0.1688
  159MPD2    C2 2422   1.091   4.405  13.895 -0.4884  0.2529 -0.0796
  159MPD2    C3 2423   1.168   4.429  13.784 -0.1630 -0.7316  0.7670
  159MPD2    C4 2424   1.287   4.366  13.772 -0.2305  0.1525  0.4930
  159MPD2    C5 2425   1.329   4.269  13.861  0.3425 -0.1236  0.4482
  159MPD2     H 2426   1.006   4.469  13.913 -0.8969 -0.3263  0.0549
  159MPD2    H1 2427   1.348   4.388  13.685 -1.5487  0.6483 -0.3083
  159MPD2    H2 2428   1.285   4.174  14.048 -0.3339  0.5430  0.3384
  159MPD2    H3 2429   1.421   4.211  13.855 -0.6472 -1.6007 -0.3236
  159MPD2     N 2430   1.124   4.525  13.689 -0.1421 -0.2191 -0.6043
  159MPD2    H5 2431   1.028   4.556  13.698 -0.7244 -2.3099  0.2378
  159MPD2    N1 2432   1.076   4.284  14.112 -0.1628  1.0379  0.1406
  159MPD2    H7 2433   1.119   4.222  14.179 -1.5639 -0.1675 -0.0820
  160TMC2    C1 2434   0.991   2.661   1.483  0.2701  0.0154 -0.3483
  160TMC2    C2 2435   1.090   2.607   1.563 -0.3224 -0.0592 -0.7513
  160TMC2    C3 2436   1.219   2.626   1.523 -0.1839 -0.3062  0.0058
  160TMC2    C4 2437   1.019   2.730   1.365  0.6952 -0.4178  0.1070
  160TMC2    C5 2438   1.146   2.757   1.339  1.1941 -0.0360 -0.1014
  160TMC2    C6 2439   1.249   2.706   1.413  0.5782 -0.0163 -0.5500
  160TMC2     C 2440   0.859   2.667   1.538 -0.1859 -0.4682 -0.2364
  160TMC2     O 2441   0.842   2.606   1.649 -0.2762 -0.5636  0.0050
  160TMC2     H 2442   1.073   2.553   1.655  1.6496 -0.5983 -0.7013
  160TMC2    H1 2443   0.940   2.767   1.300  2.3365 -1.9441 -2.8003
  160TMC2    H2 2444   1.350   2.710   1.374  0.6466 -1.3476 -0.5153
  160TMC2    C7 2445   1.186   2.864   1.251 -0.0609  0.2300 -0.5567
  160TMC2    C8 2446   1.322   2.569   1.602 -0.3758  0.6864  0.2824
  160TMC2    O1 2447   1.107   2.906   1.168 -0.1558  0.5487 -0.4315
  160TMC2    O2 2448   1.301   2.489   1.695 -0.0158  0.1791  0.6632
  160TMC2    O5 2449   1.441   2.635   1.586  0.3938  0.0815  0.2610
  160TMC2    H5 2450   1.410   2.715   1.537  3.7259  1.7374  0.9092
  161MPD2     C 2451   0.543   2.659   1.581 -0.0487 -0.6513  0.2390
  161MPD2    C1 2452   0.618   2.728   1.481  0.2783 -0.3555 -0.9807
  161MPD2    C2 2453   0.543   2.798   1.381 -0.6774  0.4671 -0.0986
  161MPD2    C3 2454   0.404   2.800   1.387 -0.0551  0.3312 -0.8514
  161MPD2    C4 2455   0.338   2.754   1.498 -0.3454  0.1737 -0.3649
  161MPD2    C5 2456   0.403   2.686   1.601 -1.0594  0.1455 -0.3221
  161MPD2     H 2457   0.601   2.862   1.317 -0.1581 -0.3047 -0.4027
  161MPD2    H1 2458   0.230   2.764   1.496 -0.4732 -1.5674 -2.6743
  161MPD2    H2 2459   0.600   2.606   1.656  0.0555  1.8468  1.9059
  161MPD2    H3 2460   0.343   2.636   1.677  0.9938  0.6354  1.6333
  161MPD2     N 2461   0.324   2.881   1.300 -0.4465 -0.1933 -0.1360
  161MPD2    H5 2462   0.225   2.892   1.316 -0.1529  0.8498  0.9778
  161MPD2    N1 2463   0.761   2.724   1.458 -0.0773 -0.4387 -0.3590
  161MPD2    H7 2464   0.792   2.775   1.375 -1.8819  1.0389 -0.1073
  162TMC2    C1 2465   3.801   0.279   1.337  0.2046 -0.0758 -0.7270
  162TMC2    C2 2466   3.697   0.360   1.357 -0.0440  0.0738 -0.5076
  162TMC2    C3 2467   3.646   0.358   1.483  0.4988  0.4794 -0.3350
  162TMC2    C4 2468   3.850   0.191   1.429 -0.3377 -0.0367 -0.0139
  162TMC2    C5 2469   3.796   0.200   1.556  0.2052 -0.0798 -0.4613
  162TMC2    C6 2470   3.688   0.270   1.580  0.1928  0.0669 -0.1570
  162TMC2     C 2471   3.854   0.275   1.208  0.2937  0.2475 -0.0033
  162TMC2     O 2472   3.895   0.167   1.170  0.5142  0.0383  0.2012
  162TMC2     H 2473   3.652   0.408   1.271  1.8353 -2.6370 -2.9954
  162TMC2    H1 2474   3.948   0.150   1.407  0.2871  1.0449  0.7621
  162TMC2    H2 2475   3.630   0.258   1.671 -0.7239 -0.4712 -0.8157
  162TMC2    C7 2476   3.845   0.095   1.647 -0.4043  0.1872  0.4080
  162TMC2    C8 2477   3.527   0.430   1.508 -0.2723 -0.3366  0.0703
  162TMC2    O1 2478   3.919   0.009   1.598 -0.0276 -0.1353  0.4563
  162TMC2    O2 2479   3.453   0.387   1.598 -0.4837  0.0786  0.7494
  162TMC2    O5 2480   3.550   0.560   1.476 -0.5190  0.2885 -0.1577
  162TMC2    H5 2481   3.639   0.565   1.437  0.0040  0.9617  1.1216
  163MPD2     C 2482   4.012   0.536   0.799  0.3760  0.1491  0.6636
  163MPD2    C1 2483   4.021   0.402   0.821 -0.3106  0.6771 -0.1205
  163MPD2    C2 2484   3.972   0.357   0.941  0.0027 -0.6679 -0.1909
  163MPD2    C3 2485   3.920   0.448   1.030 -0.1959 -0.3623  0.0405
  163MPD2    C4 2486   3.917   0.580   1.006 -0.3092 -0.0839  0.1615
  163MPD2    C5 2487   3.970   0.623   0.891  0.2639  0.2821 -0.2310
  163MPD2     H 2488   3.967   0.252   0.968 -3.9349 -0.4115  0.1308
  163MPD2    H1 2489   3.874   0.642   1.084  2.0061  0.8997  0.6537
  163MPD2    H2 2490   4.066   0.571   0.712 -1.9602  0.8084 -0.5089
  163MPD2    H3 2491   3.961   0.728   0.865 -1.5167  0.1357 -0.1960
  163MPD2     N 2492   3.858   0.405   1.154 -0.8529  0.1443  0.0721
  163MPD2    H5 2493   3.818   0.483   1.204 -0.3207 -1.2135  2.5891
  163MPD2    N1 2494   4.065   0.309   0.719 -0.4974  0.1735  0.9316
  163MPD2    H7 2495   4.081   0.356   0.631 -3.6807  3.5782  2.1858
  164TCq2    C1 2496   4.062   4.050  11.404 -0.0369  0.3762  0.7768
  164TCq2    O2 2497   4.051   3.927  11.385 -0.4477 -0.1110  1.1610
  164TCq2    C2 2498   4.010   4.108  11.527  0.9043  0.1693  0.0711
  164TCq2    C3 2499   4.020   4.021  11.634  0.5881 -0.1551  0.4649
  164TCq2    C4 2500   3.969   4.072  11.748  0.2563 -0.3198  0.0217
  164TCq2    C5 2501   3.916   4.195  11.756 -0.0352 -0.1542  0.4947
  164TCq2    C6 2502   3.915   4.273  11.647  0.1035 -0.2219 -0.3256
  164TCq2    C7 2503   3.955   4.231  11.525  0.3277  0.3739  0.4736
  164TCq2    C8 2504   3.860   4.408  11.665 -0.6497  0.0275  0.9805
  164TCq2    O4 2505   3.850   4.450  11.775 -0.1714  0.0138 -0.0106
  164TCq2    C9 2506   3.953   3.986  11.862  0.3310 -1.3125  0.4932
  164TCq2    O5 2507   3.890   4.031  11.967 -0.0283  0.5189  0.2328
  164TCq2    O6 2508   4.000   3.870  11.854 -0.8692 -0.1056  0.3048
  164TCq2    H2 2509   4.053   3.917  11.624  0.9770  0.1588 -1.5992
  164TCq2    H3 2510   3.873   4.227  11.849  1.4863  1.7395  0.5359
  164TCq2    H4 2511   3.967   4.297  11.440 -2.0634  2.5789  1.8386
  165MPD2     C 2512   4.677   1.701   2.617  0.2518 -0.1029  0.6281
  165MPD2    C1 2513   4.708   1.720   2.481 -0.1945 -0.2301 -0.0716
  165MPD2    C2 2514   0.117   1.769   2.456  0.3520  0.5960 -0.3514
  165MPD2    C3 2515   0.194   1.824   2.562  0.7329  0.2788  0.0921
  165MPD2    C4 2516   0.158   1.795   2.689  0.6429  0.4068 -0.1213
  165MPD2    C5 2517   0.044   1.733   2.715 -0.3772 -0.2845 -0.1378
  165MPD2     H 2518   0.147   1.767   2.352 -0.2734  1.4102 -0.5478
  165MPD2    H1 2519   0.215   1.819   2.778  0.3112  0.1281  0.1679
  165MPD2    H2 2520   4.585   1.650   2.641  0.0357 -0.0115 -0.0023
  165MPD2    H3 2521   0.020   1.711   2.818  1.6114 -0.0203  0.3790
  165MPD2     N 2522   0.326   1.883   2.535  0.9509  0.0514  0.3047
  165MPD2    H5 2523   0.386   1.893   2.616 -0.2563 -0.8797  1.3284
  165MPD2    N1 2524   4.609   1.670   2.389  0.2767  0.2658  0.2748
  165MPD2    H7 2525   4.534   1.617   2.431  1.3917 -1.1647  0.4697
  166TCq2    C1 2526   0.355   1.935   2.411 -0.4107 -0.3505  0.0812
  166TCq2    O2 2527   0.281   1.962   2.315 -0.1587  0.7845 -0.1710
  166TCq2    C2 2528   0.500   1.955   2.406  0.5520  0.0485  0.2338
  166TCq2    C3 2529   0.583   1.932   2.515 -0.1302  0.0471  0.3211
  166TCq2    C4 2530   0.716   1.946   2.488 -0.0302 -0.3395  0.2665
  166TCq2    C5 2531   0.775   2.001   2.380  0.2277  0.5559 -0.0039
  166TCq2    C6 2532   0.692   2.034   2.280 -0.8234  0.4099  0.8428
  166TCq2    C7 2533   0.554   2.010   2.291  0.6072  0.3805 -0.1004
  166TCq2    C8 2534   0.749   2.108   2.167  0.0274 -0.2728 -0.8882
  166TCq2    O4 2535   0.862   2.074   2.134  0.5167  0.1392  0.2479
  166TCq2    C9 2536   0.814   1.919   2.591 -0.4405  0.5633  0.5478
  166TCq2    O5 2537   0.938   1.904   2.560 -0.1841  0.4177 -0.0541
  166TCq2    O6 2538   0.766   1.910   2.708 -0.5876 -0.1717  0.1093
  166TCq2    H2 2539   0.557   1.897   2.614 -1.0699  2.9730  1.1025
  166TCq2    H3 2540   0.882   2.015   2.373  0.2768  1.0170  1.5881
  166TCq2    H4 2541   0.484   2.036   2.212 -1.6796  0.1007  1.8286
  167TMC2    C1 2542   3.332   0.068  13.040  0.1001  0.0048  0.1794
  167TMC2    C2 2543   3.394   0.098  13.157  0.6683  0.1932  0.0689
  167TMC2    C3 2544   3.434   4.717  13.238  0.4297 -0.5953  0.7993
  167TMC2    C4 2545   3.307   4.655  13.008  0.2021 -0.1917  0.0942
  167TMC2    C5 2546   3.342   4.553  13.098  0.5661 -0.1450 -0.0263
  167TMC2    C6 2547   3.398   4.585  13.222 -0.5478 -0.1552 -0.1582
  167TMC2     C 2548   3.318   0.176  12.954  0.4222  0.0945 -0.5365
  167TMC2     O 2549   3.282   0.283  13.006  0.6073  0.4799 -0.2448
  167TMC2     H 2550   3.425   0.200  13.171  0.8099  0.4820 -2.2357
  167TMC2    H1 2551   3.243   4.647  12.921  0.2915 -0.5855  0.0680
  167TMC2    H2 2552   3.447   4.508  13.280  2.6704  2.7529  0.9401
  167TMC2    C7 2553   3.323   4.414  13.063 -0.1956  0.6943  0.4659
  167TMC2    C8 2554   3.534   0.013  13.344  0.2358  0.3648 -0.5721
  167TMC2    O1 2555   3.333   4.338  13.155 -0.4790  0.1623  0.2666
  167TMC2    O2 2556   3.555   4.640  13.420 -0.1900 -0.7804 -0.4814
  167TMC2    O5 2557   3.561   0.137  13.371  0.1659 -0.6563 -0.4825
  167TMC2    H5 2558   3.557   0.208  13.303  0.7032 -1.9277 -1.8300
  168MPD2     C 2559   3.361   0.378  12.740 -0.1985 -0.2297 -0.0975
  168MPD2    C1 2560   3.376   0.242  12.726  0.4021 -0.0219  0.5022
  168MPD2    C2 2561   3.408   0.189  12.606  0.5790 -0.2056 -0.0277
  168MPD2    C3 2562   3.420   0.270  12.494  0.1053  0.5086 -0.1263
  168MPD2    C4 2563   3.404   0.406  12.512 -0.1089  0.0955  0.6599
  168MPD2    C5 2564   3.369   0.456  12.631 -0.2915 -0.0192  0.3849
  168MPD2     H 2565   3.420   0.084  12.583  1.9040 -0.0217 -0.1724
  168MPD2    H1 2566   3.412   0.467  12.423  0.0319 -1.7121 -0.5641
  168MPD2    H2 2567   3.330   0.424  12.834  3.4118  2.0564 -0.0337
  168MPD2    H3 2568   3.335   0.558  12.639 -2.9610 -0.7035 -2.0457
  168MPD2     N 2569   3.444   0.225  12.362 -0.5845  0.0781  0.1093
  168MPD2    H5 2570   3.410   0.286  12.289  0.9021  0.7596 -0.0011
  168MPD2    N1 2571   3.357   0.147  12.828  0.7141  0.3126  0.6980
  168MPD2    H7 2572   3.375   0.049  12.809  0.3256  0.5695 -0.9661
  169MPD1     C 2573   1.302   2.908   8.454 -0.8948 -0.7215 -0.2340
  169MPD1    C1 2574   1.292   3.021   8.534 -0.0395  0.0201 -0.5741
  169MPD1    C2 2575   1.271   3.006   8.674  0.1691  0.3104  0.1684
  169MPD1    C3 2576   1.290   2.884   8.735 -0.8684 -0.6004 -0.1300
  169MPD1    C4 2577   1.315   2.772   8.659 -0.2511 -0.7860 -0.1701
  169MPD1    C5 2578   1.316   2.790   8.522 -0.3922 -0.3672  0.6017
  169MPD1     H 2579   1.256   3.084   8.748 -0.5658  0.1108  0.2278
  169MPD1    H1 2580   1.328   2.673   8.701 -0.8725 -1.2798 -1.1378
  169MPD1    H2 2581   1.313   2.918   8.347 -1.5116  0.5126 -0.1756
  169MPD1    H3 2582   1.342   2.704   8.462  0.3892 -0.0147  0.4388
  169MPD1     N 2583   1.265   2.874   8.875 -0.6886 -0.2262  0.1069
  169MPD1    H5 2584   1.230   2.954   8.927 -2.7846 -0.8057 -0.4457
  169MPD1    N1 2585   1.267   3.146   8.474  0.3140 -0.3805  0.2383
  169MPD1    H6 2586   1.320   3.160   8.387 -1.6990  0.3677 -0.8594
  169MPD1    H7 2587   1.298   3.217   8.539 -0.0145 -1.6575  1.7740
  170MPD1     C 2588   3.781   1.951  12.890 -0.8531 -0.3626  0.8493
  170MPD1    C1 2589   3.850   2.068  12.887  0.5237  0.0202 -0.2067
  170MPD1    C2 2590   3.902   2.119  13.007  0.5290 -0.2504 -0.0972
  170MPD1    C3 2591   3.904   2.043  13.122 -0.0732 -0.4883 -0.3175
  170MPD1    C4 2592   3.849   1.921  13.115 -1.4647 -0.7618 -0.5181
  170MPD1    C5 2593   3.778   1.876  13.003 -0.0890  0.2901  0.8249
  170MPD1     H 2594   3.949   2.217  13.001 -0.0242  0.1555  2.3287
  170MPD1    H1 2595   3.870   1.842  13.186 -1.1445 -2.0508 -2.0383
  170MPD1    H2 2596   3.735   1.897  12.808  2.1818 -0.7645 -0.5913
  170MPD1    H3 2597   3.742   1.774  13.003 -1.0179  0.6229 -0.3038
  170MPD1     N 2598   3.963   2.092  13.243  0.6256  0.2159  0.0094
  170MPD1    H5 2599   4.001   2.186  13.230  0.6825  0.2009  0.0675
  170MPD1    N1 2600   3.841   2.150  12.776  0.0294  0.1409  0.0706
  170MPD1    H6 2601   3.841   2.082  12.700 -0.3852  2.3259 -1.8954
  170MPD1    H7 2602   3.922   2.210  12.763 -0.8078  1.2230 -0.1335
  171MPD1     C 2603   2.710   2.931  15.892  0.6707  0.2296  0.6826
  171MPD1    C1 2604   2.777   2.845  15.802 -0.2653 -0.2981  0.9000
  171MPD1    C2 2605   2.858   2.745  15.853  0.1382 -0.1511  0.2645
  171MPD1    C3 2606   2.881   2.747  15.990 -0.0645  0.0489 -0.3162
  171MPD1    C4 2607   2.817   2.831  16.076  0.1678  0.3849  0.0306
  171MPD1    C5 2608   2.730   2.928  16.028 -0.6792 -0.2415 -0.4825
  171MPD1     H 2609   2.910   2.675  15.789 -1.3373 -0.1421 -0.9308
  171MPD1    H1 2610   2.842   2.837  16.181  0.0347 -0.1574  0.0900
  171MPD1    H2 2611   2.638   3.003  15.854  0.3311 -0.5269 -0.1069
  171MPD1    H3 2612   2.680   3.003  16.089  1.2254  0.7008 -0.0688
  171MPD1     N 2613   2.963   2.646  16.050  0.7158  1.0575  0.3824
  171MPD1    H5 2614   2.957   2.632  16.150 -2.2826 -0.6125 -0.0330
  171MPD1    N1 2615   2.749   2.840  15.668 -0.0454 -0.1213  0.7912
  171MPD1    H6 2616   2.738   2.934  15.631 -3.2756 -0.6876  0.3135
  171MPD1    H7 2617   2.823   2.801  15.611 -0.6497 -0.6742  0.3940
  172MPD1     C 2618   1.318   1.635   1.039 -0.8828 -0.3091  0.7259
  172MPD1    C1 2619   1.267   1.747   0.974  0.3315  0.9262 -0.4104
  172MPD1    C2 2620   1.345   1.805   0.884  0.9662 -0.2903 -0.6397
  172MPD1    C3 2621   1.480   1.780   0.871  1.3835  0.2729  0.2703
  172MPD1    C4 2622   1.530   1.682   0.948  0.4900 -0.0330  0.1594
  172MPD1    C5 2623   1.451   1.614   1.033  0.6360  0.4648 -0.3048
  172MPD1     H 2624   1.301   1.879   0.820 -0.4216  0.0784  0.7433
  172MPD1    H1 2625   1.636   1.662   0.937  0.2107  0.2268 -3.0491
  172MPD1    H2 2626   1.261   1.576   1.110 -1.0029 -1.1845 -0.1012
  172MPD1    H3 2627   1.497   1.544   1.101  0.0916 -0.7779 -1.2044
  172MPD1     N 2628   1.567   1.854   0.790 -0.4888 -0.1217  0.2578
  172MPD1    H5 2629   1.663   1.825   0.806 -0.8164 -0.1021  2.2009
  172MPD1    N1 2630   1.134   1.783   0.978 -0.4467  0.3632  0.2175
  172MPD1    H6 2631   1.092   1.748   1.064 -1.2364  0.1572 -0.2509
  172MPD1    H7 2632   1.119   1.883   0.968  1.3258  0.7186  1.1397
  173MPD1     C 2633   3.533   2.520  13.954 -0.5367  0.3473  0.2019
  173MPD1    C1 2634   3.432   2.440  13.907  1.0987  0.2183 -0.0653
  173MPD1    C2 2635   3.410   2.322  13.976 -0.6412  0.6839 -0.1812
  173MPD1    C3 2636   3.487   2.294  14.088  0.8422  0.1703  0.4116
  173MPD1    C4 2637   3.587   2.380  14.134 -0.1000  0.7808 -0.5379
  173MPD1    C5 2638   3.599   2.495  14.068  0.8650 -0.0005  0.5817
  173MPD1     H 2639   3.333   2.248  13.952 -0.0025 -0.1193  0.2549
  173MPD1    H1 2640   3.659   2.349  14.208 -0.8998 -0.4602 -0.2818
  173MPD1    H2 2641   3.557   2.607  13.893 -0.2785 -0.2689 -0.5714
  173MPD1    H3 2642   3.680   2.558  14.104  0.0738  1.8692 -0.8846
  173MPD1     N 2643   3.460   2.169  14.156  0.7701  0.0247 -0.7574
  173MPD1    H5 2644   3.382   2.115  14.120  0.1551 -0.4062  1.2054
  173MPD1    N1 2645   3.371   2.458  13.780  0.3062  0.1711  0.5752
  173MPD1    H6 2646   3.281   2.412  13.787  0.6473 -0.2310  2.4011
  173MPD1    H7 2647   3.357   2.558  13.769  5.1314  0.6575 -1.1006
  174MPD1     C 2648   3.219   1.271  13.977  0.4058 -0.6505  0.4055
  174MPD1    C1 2649   3.151   1.391  13.963 -0.4469 -0.2967 -0.4312
  174MPD1    C2 2650   3.175   1.491  14.055  0.3957 -0.4561 -0.5547
  174MPD1    C3 2651   3.270   1.479  14.153 -0.3613  0.5203 -0.1967
  174MPD1    C4 2652   3.337   1.363  14.165 -0.2287  0.2780  0.2031
  174MPD1    C5 2653   3.308   1.253  14.084  0.1267  0.0874 -0.0001
  174MPD1     H 2654   3.126   1.585  14.034  1.4352  0.5134  1.3790
  174MPD1    H1 2655   3.413   1.352  14.242  0.2375  0.6413 -0.2025
  174MPD1    H2 2656   3.212   1.185  13.912 -2.1051 -0.7805  0.8488
  174MPD1    H3 2657   3.377   1.170  14.090 -1.1526 -1.0077 -0.5569
  174MPD1     N 2658   3.305   1.586  14.238 -0.0163 -0.2892  0.4746
  174MPD1    H5 2659   3.363   1.562  14.318  2.1571 -0.7382 -1.2708
  174MPD1    N1 2660   3.057   1.405  13.864  0.4924 -0.2982 -0.3056
  174MPD1    H6 2661   2.982   1.460  13.902 -0.0335 -1.2848  0.0904
  174MPD1    H7 2662   3.012   1.315  13.846  1.5092 -1.6094  3.7139
  175MPD1     C 2663   2.073   2.964  16.062 -0.0227 -0.1641 -0.1540
  175MPD1    C1 2664   1.936   2.949  16.043 -0.6757 -0.8059  0.3928
  175MPD1    C2 2665   1.857   2.953  16.155 -0.4523 -0.0038  0.4340
  175MPD1    C3 2666   1.904   2.958  16.284  0.4425 -0.5289  0.0676
  175MPD1    C4 2667   2.039   2.967  16.305 -0.2372 -0.0136 -0.2712
  175MPD1    C5 2668   2.119   2.968  16.192  0.3130 -0.3394 -0.2370
  175MPD1     H 2669   1.752   2.943  16.129  0.0548 -0.4965 -1.4100
  175MPD1    H1 2670   2.076   2.987  16.405 -2.6483  1.8029  0.2818
  175MPD1    H2 2671   2.141   2.955  15.979  0.7778 -1.9712  0.6884
  175MPD1    H3 2672   2.227   2.977  16.205  0.1650  0.5392  0.3962
  175MPD1     N 2673   1.821   2.957  16.400  0.7943  0.4626 -0.2114
  175MPD1    H5 2674   1.872   2.978  16.485 -0.5252  0.8906  0.4865
  175MPD1    N1 2675   1.885   2.969  15.914 -0.0330 -0.5419 -0.0020
  175MPD1    H6 2676   1.931   2.911  15.844  2.4207  1.2788  0.0794
  175MPD1    H7 2677   1.786   2.949  15.899  0.0036 -0.6386 -0.1156
  176MPD1     C 2678   3.863   0.718  15.663  0.2076  0.2984  0.0567
  176MPD1    C1 2679   3.733   0.731  15.709 -0.0344  0.3606  0.0649
  176MPD1    C2 2680   3.716   0.734  15.843 -0.7716 -0.1914  0.2437
  176MPD1    C3 2681   3.820   0.704  15.928 -0.0438 -0.4001  0.3857
  176MPD1    C4 2682   3.945   0.672  15.879 -0.1617  0.2976  0.0847
  176MPD1    C5 2683   3.966   0.683  15.747  0.4429  0.5145 -0.5203
  176MPD1     H 2684   3.620   0.763  15.885 -1.0336  0.8414 -1.0593
  176MPD1    H1 2685   4.026   0.657  15.950 -1.2457 -0.9383  1.0578
  176MPD1    H2 2686   3.886   0.727  15.557  0.1592 -0.3331 -0.0089
  176MPD1    H3 2687   4.062   0.655  15.706  1.2960  0.2240  1.6485
  176MPD1     N 2688   3.792   0.706  16.064 -0.1578  0.1070 -0.0511
  176MPD1    H5 2689   3.699   0.731  16.096  0.2755  0.7455  0.7169
  176MPD1    N1 2690   3.633   0.797  15.632 -0.1313 -0.1073 -0.3648
  176MPD1    H6 2691   3.539   0.776  15.666 -0.3947  2.3542  0.4360
  176MPD1    H7 2692   3.634   0.789  15.531  2.1065 -1.2474 -0.2561
  177MPD1     C 2693   1.838   3.655   8.931  0.1087 -0.2857  0.1414
  177MPD1    C1 2694   1.890   3.780   8.969 -0.6520  0.1077  0.5536
  177MPD1    C2 2695   1.800   3.859   9.040  1.0420 -0.2029 -0.0073
  177MPD1    C3 2696   1.679   3.812   9.084 -0.0513  0.8368  0.0465
  177MPD1    C4 2697   1.632   3.690   9.043  0.1749  0.1343  0.6913
  177MPD1    C5 2698   1.719   3.612   8.969 -0.4472  0.3052  0.3082
  177MPD1     H 2699   1.843   3.958   9.052  0.6352  0.0047 -0.2610
  177MPD1    H1 2700   1.541   3.639   9.073 -0.1881 -0.1593 -0.9577
  177MPD1    H2 2701   1.890   3.593   8.859  0.2152 -1.0920  0.9001
  177MPD1    H3 2702   1.682   3.516   8.936  0.9174 -0.4563  1.0211
  177MPD1     N 2703   1.607   3.903   9.161  0.2539  0.0397 -0.2986
  177MPD1    H5 2704   1.657   3.989   9.181  0.4672  0.7266 -3.8632
  177MPD1    N1 2705   2.001   3.832   8.904  0.2215 -0.5064  0.0388
  177MPD1    H6 2706   2.051   3.894   8.966 -0.5011  0.6408 -0.5190
  177MPD1    H7 2707   2.063   3.753   8.890  0.7836  0.2244 -1.6090
  178MPD1     C 2708   3.991   1.583  17.599 -0.2347 -1.0602 -0.2161
  178MPD1    C1 2709   3.994   1.444  17.587 -0.6336  0.2682 -0.3659
  178MPD1    C2 2710   4.058   1.391  17.474 -0.6537  0.2384  0.2679
  178MPD1    C3 2711   4.114   1.480  17.384  0.2494  0.0228 -0.1578
  178MPD1    C4 2712   4.129   1.609  17.412  0.0607  0.0895 -0.2210
  178MPD1    C5 2713   4.071   1.663  17.514  0.5754  0.1673 -0.0931
  178MPD1     H 2714   4.055   1.283  17.471  1.8116  0.2450 -2.3862
  178MPD1    H1 2715   4.184   1.672  17.343  1.7438 -0.1862  0.8544
  178MPD1    H2 2716   3.928   1.619  17.679  1.3305  0.9344  0.1202
  178MPD1    H3 2717   4.077   1.768  17.541  2.4250 -0.5131  2.1973
  178MPD1     N 2718   4.181   1.443  17.265  0.9087 -0.3754 -0.1454
  178MPD1    H5 2719   4.241   1.508  17.215 -0.2876 -0.5303 -1.7683
  178MPD1    N1 2720   3.920   1.368  17.678 -0.0401 -0.3283 -0.3474
  178MPD1    H6 2721   3.953   1.272  17.681  2.1079  0.3749 -1.1990
  178MPD1    H7 2722   3.935   1.418   0.080  0.6051  1.8845 -1.7130
  179MPD1     C 2723   2.582   3.937  16.824 -0.8835  0.2653  0.1830
  179MPD1    C1 2724   2.689   3.855  16.786 -1.2710  0.3062 -1.1262
  179MPD1    C2 2725   2.754   3.890  16.668  0.5395  0.3928  0.1658
  179MPD1    C3 2726   2.703   3.980  16.578  0.5593  0.1260  0.1669
  179MPD1    C4 2727   2.594   4.057  16.627  0.2059  0.2357 -0.2516
  179MPD1    C5 2728   2.540   4.037  16.746  0.4741 -0.6354 -0.0670
  179MPD1     H 2729   2.830   3.820  16.635  0.9046  0.5360  0.7138
  179MPD1    H1 2730   2.538   4.131  16.571  1.0847  0.3290 -1.0142
  179MPD1    H2 2731   2.526   3.922  16.916 -0.7121  0.1601  0.2717
  179MPD1    H3 2732   2.464   4.108  16.777  0.1254 -0.4945 -1.2461
  179MPD1     N 2733   2.752   3.993  16.442 -0.1065 -0.5190  0.0252
  179MPD1    H5 2734   2.712   4.066  16.385 -0.4661  0.9241  2.1056
  179MPD1    N1 2735   2.747   3.766  16.879  0.0811  0.1240 -0.6472
  179MPD1    H6 2736   2.787   3.686  16.829  0.1050  0.1210 -0.6233
  179MPD1    H7 2737   2.682   3.737  16.951  1.8036  1.7532  1.5378
  180MPD1     C 2738   3.382   0.405  15.473  0.6014 -0.3280  0.8473
  180MPD1    C1 2739   3.420   0.284  15.415  0.1744  0.5324 -0.0491
  180MPD1    C2 2740   3.485   0.289  15.293 -0.4752 -0.7169 -0.1234
  180MPD1    C3 2741   3.498   0.411  15.224 -0.6331  0.2243 -0.4460
  180MPD1    C4 2742   3.458   0.531  15.281 -0.4228 -0.0399  0.0039
  180MPD1    C5 2743   3.409   0.525  15.413  0.8312  0.1822 -0.4575
  180MPD1     H 2744   3.509   0.200  15.236  1.5839  0.6800 -1.4626
  180MPD1    H1 2745   3.469   0.630  15.238  0.5301 -0.2847 -0.3340
  180MPD1    H2 2746   3.345   0.403  15.575 -0.3664 -0.2077  0.4992
  180MPD1    H3 2747   3.398   0.615  15.473 -0.6426  0.5202 -1.2439
  180MPD1     N 2748   3.548   0.404  15.091  0.9566  0.0200 -0.7795
  180MPD1    H5 2749   3.579   0.315  15.054 -0.3347 -0.5960 -0.3716
  180MPD1    N1 2750   3.379   0.165  15.481  0.5202 -0.1306  0.0314
  180MPD1    H6 2751   3.384   0.080  15.424 -1.0278  0.1396 -0.5039
  180MPD1    H7 2752   3.284   0.178  15.513  0.1723  1.9041 -1.8534
  181MPD1     C 2753   2.546   2.098   8.738 -0.3461  0.2553  0.3352
  181MPD1    C1 2754   2.510   2.124   8.871  0.2307 -0.7261 -0.1398
  181MPD1    C2 2755   2.445   2.027   8.942 -0.2901  0.1271 -0.4340
  181MPD1    C3 2756   2.417   1.903   8.885 -0.5475  0.0133 -0.0682
  181MPD1    C4 2757   2.462   1.868   8.754  0.4349  0.3527  0.5048
  181MPD1    C5 2758   2.532   1.972   8.689  0.1193 -0.2077  0.6265
  181MPD1     H 2759   2.412   2.040   9.044  2.5138  0.9664  0.3804
  181MPD1    H1 2760   2.430   1.778   8.704 -0.5284 -0.6258  2.8998
  181MPD1    H2 2761   2.581   2.180   8.677  1.0319 -0.2989  0.3806
  181MPD1    H3 2762   2.564   1.946   8.589 -3.0313  0.3031 -0.5267
  181MPD1     N 2763   2.326   1.813   8.941 -0.3265  0.3229  0.2704
  181MPD1    H5 2764   2.312   1.725   8.891  3.4856 -0.2727  0.2392
  181MPD1    N1 2765   2.497   2.257   8.919  0.1703  0.2791  0.1280
  181MPD1    H6 2766   2.558   2.321   8.869 -1.9948  1.7004 -0.6817
  181MPD1    H7 2767   2.500   2.255   9.021 -0.8027 -0.7829  0.1216
  182MPD1     C 2768   2.017   1.602   2.066  0.2032 -0.1836  0.1323
  182MPD1    C1 2769   2.092   1.590   1.950 -0.4877 -1.3011 -0.0065
  182MPD1    C2 2770   2.020   1.586   1.838 -0.1180  0.1804  0.3863
  182MPD1    C3 2771   1.882   1.588   1.836 -0.5252  0.8727  0.7146
  182MPD1    C4 2772   1.807   1.579   1.951  0.6166 -0.5960 -0.1197
  182MPD1    C5 2773   1.879   1.589   2.061 -0.5264  0.0534 -0.5961
  182MPD1     H 2774   2.083   1.585   1.750 -0.0781 -0.1449  0.4203
  182MPD1    H1 2775   1.701   1.564   1.963  0.3352 -1.4875 -3.9664
  182MPD1    H2 2776   2.068   1.618   2.160  0.1861  1.7855 -0.1965
  182MPD1    H3 2777   1.819   1.589   2.151 -0.0962 -0.1896 -0.3080
  182MPD1     N 2778   1.806   1.594   1.716  0.6152  0.5116  0.8617
  182MPD1    H5 2779   1.707   1.610   1.733 -0.1252 -1.6868 -1.4238
  182MPD1    N1 2780   2.234   1.628   1.951 -1.2930 -0.3087  0.0146
  182MPD1    H6 2781   2.284   1.606   2.037 -1.1395  0.0485  0.0152
  182MPD1    H7 2782   2.277   1.578   1.873 -1.9346 -2.8410  1.2780
  183MPD1     C 2783   3.024   2.224   9.772 -0.1951 -0.6452  0.3522
  183MPD1    C1 2784   2.927   2.138   9.815  0.0478 -0.4034  0.1980
  183MPD1    C2 2785   2.821   2.106   9.734  0.7088 -0.0237  0.0397
  183MPD1    C3 2786   2.820   2.149   9.605 -1.0248 -0.0084 -0.5731
  183MPD1    C4 2787   2.924   2.228   9.563  0.0822 -0.5100  0.3571
  183MPD1    C5 2788   3.014   2.273   9.649  0.5405 -0.9775 -0.9189
  183MPD1     H 2789   2.744   2.036   9.763  2.1079 -0.1719  3.3765
  183MPD1    H1 2790   2.936   2.259   9.460 -0.5180 -0.2757  0.3585
  183MPD1    H2 2791   3.113   2.251   9.826 -0.3400 -0.9484  0.7499
  183MPD1    H3 2792   3.097   2.337   9.619  1.7207 -0.8668  2.6120
  183MPD1     N 2793   2.717   2.106   9.514 -0.7114 -0.3997  0.2215
  183MPD1    H5 2794   2.650   2.043   9.557 -0.3654 -1.9346 -1.4737
  183MPD1    N1 2795   2.915   2.113   9.951  0.3133  0.5269 -0.5304
  183MPD1    H6 2796   2.847   2.047   9.988  0.0230  1.8623  1.3155
  183MPD1    H7 2797   3.002   2.086   9.995 -0.2925  0.6072  0.7177
  184MPD1     C 2798   0.862   3.405   9.925  0.2575  0.4141  0.5385
  184MPD1    C1 2799   0.923   3.464  10.033 -0.7587 -0.7264 -0.2741
  184MPD1    C2 2800   0.953   3.599  10.027  0.5625 -0.7113 -0.2941
  184MPD1    C3 2801   0.930   3.672   9.913  0.0656 -0.2186  0.1389
  184MPD1    C4 2802   0.878   3.611   9.799  0.1456 -0.2341  0.0766
  184MPD1    C5 2803   0.834   3.479   9.813 -0.6869 -0.2060 -0.0341
  184MPD1     H 2804   0.980   3.651  10.117 -0.6266 -0.3519 -0.1400
  184MPD1    H1 2805   0.841   3.674   9.719 -1.2024 -1.7355 -0.4770
  184MPD1    H2 2806   0.822   3.308   9.953  2.6160 -1.2598 -1.8899
  184MPD1    H3 2807   0.769   3.434   9.739 -1.4588  0.0844  0.4768
  184MPD1     N 2808   0.952   3.808   9.913  0.0349 -0.1749 -0.3981
  184MPD1    H5 2809   0.908   3.863   9.840  2.9645  1.9301 -0.5784
  184MPD1    N1 2810   0.914   3.392  10.151  0.6574  0.0728  0.0560
  184MPD1    H6 2811   0.984   3.422  10.218  1.3308 -0.4512 -0.4109
  184MPD1    H7 2812   0.939   3.294  10.139 -0.1188  0.0346 -1.2381
  185MPD1     C 2813   0.552   4.347   9.310 -0.2766 -0.4153 -0.3233
  185MPD1    C1 2814   0.499   4.337   9.439  0.2828 -0.2875 -0.0205
  185MPD1    C2 2815   0.579   4.294   9.543 -0.2974  0.2871 -0.3456
  185MPD1    C3 2816   0.714   4.271   9.521 -0.4452  0.3098  0.1807
  185MPD1    C4 2817   0.768   4.272   9.398  0.1026  0.7247 -0.2115
  185MPD1    C5 2818   0.684   4.301   9.291  0.0147  0.0875  0.6982
  185MPD1     H 2819   0.542   4.311   9.643 -1.0564  0.5074 -0.6673
  185MPD1    H1 2820   0.873   4.252   9.381 -0.0665 -0.6344  0.3978
  185MPD1    H2 2821   0.498   4.399   9.232  1.5371  2.7134  0.5367
  185MPD1    H3 2822   0.730   4.320   9.195 -1.8528  2.3226  0.2730
  185MPD1     N 2823   0.801   4.242   9.629  0.1883  0.1050 -0.1668
  185MPD1    H5 2824   0.899   4.244   9.603  0.1535  1.6608 -0.1347
  185MPD1    N1 2825   0.378   4.393   9.465  0.2842 -0.5584  0.0505
  185MPD1    H6 2826   0.306   4.378   9.395 -1.4616  1.7261  1.3524
  185MPD1    H7 2827   0.338   4.345   9.545 -0.1994 -0.1427  0.0535
  186MPD1     C 2828   4.611   3.646  16.023  0.3079 -0.3727 -0.0310
  186MPD1    C1 2829   0.004   3.706  16.064 -0.4671  0.6790 -0.1607
  186MPD1    C2 2830   4.714   3.839  16.086 -0.0564  0.1864  0.0255
  186MPD1    C3 2831   4.605   3.918  16.062  0.2641  0.4840  0.1406
  186MPD1    C4 2832   4.489   3.863  16.014 -0.3287  1.0400  0.8557
  186MPD1    C5 2833   4.501   3.728  15.990 -0.1556  0.2581 -0.4149
  186MPD1     H 2834   0.082   3.871  16.139  1.8030 -0.4967 -2.6773
  186MPD1    H1 2835   4.393   3.907  15.995 -0.0403  1.4980  0.4730
  186MPD1    H2 2836   4.600   3.538  16.019 -0.1440 -0.4200  2.4069
  186MPD1    H3 2837   4.412   3.682  15.949  0.0251 -3.1059  2.8925
  186MPD1     N 2838   4.612   4.057  16.085 -0.1456 -0.0456 -0.9467
  186MPD1    H5 2839   4.522   4.103  16.084  0.9321  2.0648  0.8923
  186MPD1    N1 2840   0.109   3.634  16.120  0.1515 -0.3878  0.3853
  186MPD1    H6 2841   0.117   3.551  16.063 -0.6243  0.2110 -0.5928
  186MPD1    H7 2842   0.194   3.690  16.121  0.0624 -0.2499  0.1880
  187MPD1     C 2843   2.878   1.865   0.188 -0.1377 -0.4564 -0.4240
  187MPD1    C1 2844   2.958   1.754   0.165  0.0102 -0.0378 -0.8769
  187MPD1    C2 2845   3.048   1.764   0.054  0.3793 -0.3239 -0.2336
  187MPD1    C3 2846   3.078   1.887  17.685  0.2129  0.0408  0.0355
  187MPD1    C4 2847   3.009   2.003   0.039 -0.2957  0.6336 -0.0207
  187MPD1    C5 2848   2.901   1.991   0.134  0.5352 -0.0045  0.6571
  187MPD1     H 2849   3.080   1.668   0.015  1.6105 -0.2359  0.5605
  187MPD1    H1 2850   3.029   2.099  17.678  1.8813 -0.8423 -2.1045
  187MPD1    H2 2851   2.794   1.863   0.257  3.7126 -0.5668  4.2365
  187MPD1    H3 2852   2.847   2.079   0.165 -2.1131 -1.2759 -0.3680
  187MPD1     N 2853   3.167   1.879  17.581 -0.3442 -0.3020  0.5377
  187MPD1    H5 2854   3.197   1.787  17.551 -1.1086 -0.6729  0.9370
  187MPD1    N1 2855   2.915   1.635   0.214 -0.5209 -0.0024 -0.4904
  187MPD1    H6 2856   2.896   1.651   0.313 -0.0964 -0.2421 -0.3693
  187MPD1    H7 2857   2.976   1.553   0.217 -0.1962  0.3400  2.0634
  188MPD1     C 2858   3.710   1.102  10.296  0.1169  0.5472  0.4721
  188MPD1    C1 2859   3.720   0.975  10.341 -0.1423  0.6677 -0.2611
  188MPD1    C2 2860   3.723   0.876  10.243  0.6582  0.7147  0.4528
  188MPD1    C3 2861   3.701   0.904  10.110  0.1421  0.6115 -1.1418
  188MPD1    C4 2862   3.676   1.034  10.067 -0.2048 -0.3392  0.0661
  188MPD1    C5 2863   3.692   1.128  10.165 -0.3086  0.0544 -0.1824
  188MPD1     H 2864   3.745   0.777  10.280  0.1546  0.8466  1.0955
  188MPD1    H1 2865   3.676   1.065   9.964 -2.5735  0.7465  0.4027
  188MPD1    H2 2866   3.732   1.192  10.352  0.0889  0.4053  0.7101
  188MPD1    H3 2867   3.687   1.233  10.140 -1.6221 -0.3847 -1.7475
  188MPD1     N 2868   3.701   0.805  10.013  0.1365  0.0603  0.6475
  188MPD1    H5 2869   3.697   0.835   9.916 -1.9912 -1.5278  0.2524
  188MPD1    N1 2870   3.747   0.951  10.477  0.7274 -0.0406  0.7528
  188MPD1    H6 2871   3.700   1.011  10.545 -1.3425 -0.6098 -0.1800
  188MPD1    H7 2872   3.716   0.858  10.503  0.3274  0.3258  1.5921
  189MPD1     C 2873   0.777   1.643   0.453  0.0407 -0.3669 -0.4309
  189MPD1    C1 2874   0.676   1.599   0.543  0.2500 -0.2914  0.2199
  189MPD1    C2 2875   0.551   1.630   0.507  0.0570 -0.3523  0.0288
  189MPD1    C3 2876   0.516   1.728   0.417  0.6097 -0.3872  0.4975
  189MPD1    C4 2877   0.623   1.798   0.358  1.0662 -0.1168 -0.6542
  189MPD1    C5 2878   0.744   1.736   0.366  0.6893  0.0028  0.2218
  189MPD1     H 2879   0.472   1.571   0.551 -0.5999 -0.4627 -1.2775
  189MPD1    H1 2880   0.603   1.873   0.282  0.2929  1.3438  0.9837
  189MPD1    H2 2881   0.880   1.609   0.455  0.8157  2.0838  0.7403
  189MPD1    H3 2882   0.826   1.760   0.299  2.8119  1.5353  3.3704
  189MPD1     N 2883   0.377   1.754   0.396  0.1787  0.6219 -0.1521
  189MPD1    H5 2884   0.304   1.689   0.426 -1.2808  2.1021 -0.5012
  189MPD1    N1 2885   0.707   1.494   0.628 -0.0261 -0.6128 -0.2149
  189MPD1    H6 2886   0.798   1.512   0.670  0.1157 -1.6927 -0.0402
  189MPD1    H7 2887   0.639   1.488   0.703  0.0985  2.5371  0.1329
  190MPD1     C 2888   3.697   0.935  15.036 -0.3418 -0.1099 -0.5013
  190MPD1    C1 2889   3.806   0.957  14.960 -0.6390  0.8019  0.1833
  190MPD1    C2 2890   3.907   1.025  15.023  0.1993  0.4562  0.3017
  190MPD1    C3 2891   3.909   1.057  15.160  0.1312 -0.4527 -0.4141
  190MPD1    C4 2892   3.799   1.029  15.237 -0.3252  0.0626  0.2050
  190MPD1    C5 2893   3.693   0.969  15.172  0.7528 -0.4069 -0.1778
  190MPD1     H 2894   3.997   1.054  14.970 -1.3125  0.4499 -2.2167
  190MPD1    H1 2895   3.795   1.036  15.345  0.7987 -0.6079  0.2942
  190MPD1    H2 2896   3.610   0.891  14.990 -1.0671  1.0373 -0.2105
  190MPD1    H3 2897   3.601   0.940  15.223  0.6443  2.7956  1.4127
  190MPD1     N 2898   4.031   1.086  15.224  0.5032  0.6093 -0.3708
  190MPD1    H5 2899   4.115   1.065  15.171 -0.5833 -2.7498 -0.7080
  190MPD1    N1 2900   3.809   0.905  14.832 -0.2844 -0.1269  0.2684
  190MPD1    H6 2901   3.713   0.895  14.802 -1.2724  1.9572  2.6826
  190MPD1    H7 2902   3.870   0.948  14.763  1.3667 -0.0681  1.7522
  191MPD1     C 2903   3.314   2.189  12.714 -0.1709 -0.7124  0.1311
  191MPD1    C1 2904   3.453   2.205  12.705 -0.2184  0.3684  0.0672
  191MPD1    C2 2905   3.498   2.298  12.607  0.0999  0.3232 -0.5414
  191MPD1    C3 2906   3.415   2.381  12.544  0.5758  0.1513  0.6143
  191MPD1    C4 2907   3.278   2.364  12.559  0.1609 -0.2955  0.1655
  191MPD1    C5 2908   3.231   2.270  12.642 -0.5243 -0.7066 -0.1848
  191MPD1     H 2909   3.604   2.296  12.584  0.6725  0.4533  2.0922
  191MPD1    H1 2910   3.209   2.425  12.502  0.8473 -1.0573 -1.5036
  191MPD1    H2 2911   3.265   2.124  12.786  1.3383 -0.9982  0.8900
  191MPD1    H3 2912   3.127   2.240  12.645 -0.2755 -1.4772  0.5765
  191MPD1     N 2913   3.469   2.469  12.447  0.0978 -0.0285 -0.3064
  191MPD1    H5 2914   3.569   2.458  12.434  0.1430  1.2057 -1.0631
  191MPD1    N1 2915   3.539   2.112  12.760 -0.1886  1.0933 -0.4154
  191MPD1    H6 2916   3.634   2.146  12.773  0.9456 -1.6461 -1.5064
  191MPD1    H7 2917   3.494   2.069  12.841  2.7163  2.3166  1.8258
  192MPD1     C 2918   2.938   2.737  11.613  0.1523 -0.2286 -0.4345
  192MPD1    C1 2919   3.077   2.741  11.583  0.2495  0.1516 -0.5386
  192MPD1    C2 2920   3.168   2.732  11.684  0.1461  0.8095  0.1049
  192MPD1    C3 2921   3.124   2.724  11.816 -0.2769  0.3648 -0.0330
  192MPD1    C4 2922   2.989   2.723  11.838 -0.0447  0.7865  0.3720
  192MPD1    C5 2923   2.902   2.740  11.736 -0.3932 -0.0654 -0.2599
  192MPD1     H 2924   3.273   2.716  11.659 -0.4468  1.3597 -2.7703
  192MPD1    H1 2925   2.953   2.729  11.940 -0.4805  0.0396  0.2612
  192MPD1    H2 2926   2.873   2.759  11.529 -1.3865  0.6093  0.9803
  192MPD1    H3 2927   2.802   2.765  11.773 -1.2117 -1.8294 -1.3036
  192MPD1     N 2928   3.216   2.691  11.921  0.2247  0.8309  0.0130
  192MPD1    H5 2929   3.171   2.648  12.001  0.1655 -1.1596 -1.1003
  192MPD1    N1 2930   3.116   2.728  11.448  0.5083 -0.5649  0.0080
  192MPD1    H6 2931   3.055   2.787  11.392 -0.1220 -0.3092  0.9651
  192MPD1    H7 2932   3.196   2.789  11.433 -0.3701  0.3653 -0.9045
  193MPD1     C 2933   3.628   2.574  17.172 -0.0224 -0.2433  0.6253
  193MPD1    C1 2934   3.588   2.591  17.303 -0.4123 -0.4919 -0.8610
  193MPD1    C2 2935   3.591   2.719  17.359 -0.2813  0.1233  0.1328
  193MPD1    C3 2936   3.630   2.826  17.283  0.3556 -0.7046  0.0426
  193MPD1    C4 2937   3.692   2.802  17.163 -0.4544 -0.4188 -0.9810
  193MPD1    C5 2938   3.680   2.680  17.103 -0.0221  0.1646  0.0794
  193MPD1     H 2939   3.541   2.729  17.455 -1.2369  0.0894 -0.3628
  193MPD1    H1 2940   3.734   2.883  17.105 -2.0892 -0.5046 -2.2717
  193MPD1    H2 2941   3.616   2.480  17.121  0.9281  0.3363 -0.6501
  193MPD1    H3 2942   3.717   2.662  17.003 -1.5244  0.1866 -0.4884
  193MPD1     N 2943   3.611   2.958  17.313  0.2913 -0.4705 -0.0686
  193MPD1    H5 2944   3.643   3.031  17.251  1.1335 -1.5114 -0.8541
  193MPD1    N1 2945   3.507   2.490  17.360  0.1133  0.1925 -1.0631
  193MPD1    H6 2946   3.491   2.501  17.460 -0.2525  0.0174 -1.1056
  193MPD1    H7 2947   3.536   2.395  17.340  0.4081  0.1880 -0.6079
  194MPD1     C 2948   0.676   0.811  17.505 -0.4066  0.4725  0.4301
  194MPD1    C1 2949   0.600   0.717  17.433 -0.1324 -0.6532  0.5051
  194MPD1    C2 2950   0.635   0.582  17.437 -0.6515  0.3082  0.4982
  194MPD1    C3 2951   0.746   0.537  17.511  0.1126 -0.0805 -0.0233
  194MPD1    C4 2952   0.817   0.636  17.569  0.5744 -0.8707  0.2039
  194MPD1    C5 2953   0.791   0.767  17.564 -0.2933 -0.5656  0.2692
  194MPD1     H 2954   0.580   0.503  17.387 -1.7272  1.1057  0.4139
  194MPD1    H1 2955   0.906   0.609  17.625 -0.1090  0.4840  1.9361
  194MPD1    H2 2956   0.655   0.917  17.510  1.0995  0.8647 -1.9850
  194MPD1    H3 2957   0.859   0.837  17.610  0.5825 -1.9080  1.0175
  194MPD1     N 2958   0.786   0.399  17.521 -0.1207 -0.1116 -0.0391
  194MPD1    H5 2959   0.879   0.381  17.558 -0.0022 -0.8476 -0.7016
  194MPD1    N1 2960   0.482   0.763  17.369  0.6310 -0.7114 -0.4652
  194MPD1    H6 2961   0.494   0.856  17.328 -1.3723  0.1765  0.9508
  194MPD1    H7 2962   0.447   0.706  17.293  0.5420 -2.6286  1.0104
  195MPD1     C 2963   2.713   0.721  17.019 -0.5179  0.3517  0.1706
  195MPD1    C1 2964   2.737   0.603  16.952 -0.1585  0.3222 -0.1105
  195MPD1    C2 2965   2.825   0.520  17.011 -0.0955  1.2088 -0.4333
  195MPD1    C3 2966   2.889   0.551  17.132 -0.1495  0.4146 -0.2439
  195MPD1    C4 2967   2.870   0.674  17.195 -0.1715  0.3939 -0.0834
  195MPD1    C5 2968   2.771   0.754  17.133  0.0436 -0.1478  0.2384
  195MPD1     H 2969   2.820   0.422  16.966 -0.5209 -0.0191  2.2841
  195MPD1    H1 2970   2.902   0.697  17.296 -0.4509  1.2064 -0.1810
  195MPD1    H2 2971   2.636   0.792  16.990  1.6085  2.4122 -0.4219
  195MPD1    H3 2972   2.740   0.850  17.172  2.4018 -0.3028  2.4514
  195MPD1     N 2973   2.982   0.464  17.193  0.2629  0.1648  0.0442
  195MPD1    H5 2974   3.016   0.486  17.286  0.3811  0.4824 -0.0735
  195MPD1    N1 2975   2.684   0.584  16.828  0.2532  0.0108  0.0582
  195MPD1    H6 2976   2.681   0.491  16.787  0.1602 -0.1445  0.4152
  195MPD1    H7 2977   2.598   0.629  16.796 -0.3553 -0.9330  0.3712
  196MPD1     C 2978   2.718   0.742   0.467  0.7454  1.0076 -0.0756
  196MPD1    C1 2979   2.803   0.788   0.564 -1.1386 -0.5371 -0.5367
  196MPD1    C2 2980   2.742   0.864   0.667 -0.1562 -0.4314  0.3627
  196MPD1    C3 2981   2.607   0.890   0.681 -0.3804 -0.5282  0.9997
  196MPD1    C4 2982   2.525   0.817   0.599  0.4128 -0.2918  0.7784
  196MPD1    C5 2983   2.581   0.754   0.482 -0.2830 -0.2122  0.3759
  196MPD1     H 2984   2.816   0.907   0.734 -0.6956 -0.3807  0.9239
  196MPD1    H1 2985   2.420   0.799   0.619 -0.4749  2.6784 -1.2636
  196MPD1    H2 2986   2.750   0.688   0.378 -2.5436 -2.3153  0.7656
  196MPD1    H3 2987   2.503   0.701   0.428 -1.5059  0.9304  1.0136
  196MPD1     N 2988   2.550   0.963   0.785 -0.0893  0.0437  0.4446
  196MPD1    H5 2989   2.451   0.946   0.798 -0.2422 -1.1638 -2.4897
  196MPD1    N1 2990   2.946   0.770   0.549 -0.6276 -0.2453 -0.1450
  196MPD1    H6 2991   2.972   0.697   0.483  0.1870  1.9435 -2.2526
  196MPD1    H7 2992   2.988   0.737   0.636 -0.5273  0.7131  0.1679
  197MPD1     C 2993   1.676   2.717   0.171  0.2377 -0.1193  0.2632
  197MPD1    C1 2994   1.576   2.807   0.150 -0.2244  0.1239 -0.7124
  197MPD1    C2 2995   1.599   2.918   0.076 -0.1721  0.0727 -0.2662
  197MPD1    C3 2996   1.723   2.937   0.022 -0.4126 -0.2182 -0.1471
  197MPD1    C4 2997   1.821   2.840   0.030 -0.2921 -0.2573  0.3491
  197MPD1    C5 2998   1.794   2.736   0.110  0.3663 -0.1011 -0.9396
  197MPD1     H 2999   1.513   2.984   0.068 -1.6106 -1.5322  1.9472
  197MPD1    H1 3000   1.924   2.843  17.682  0.4350 -1.2112  2.4798
  197MPD1    H2 3001   1.657   2.624   0.223  0.5596  0.0413  0.6637
  197MPD1    H3 3002   1.872   2.660   0.114  0.3374 -0.1238 -0.8090
  197MPD1     N 3003   1.763   3.060  17.653 -0.5576 -0.3013 -0.1763
  197MPD1    H5 3004   1.852   3.070  17.604 -0.9605  0.9904 -0.6630
  197MPD1    N1 3005   1.457   2.788   0.216  0.3056  0.1830  0.0386
  197MPD1    H6 3006   1.375   2.802   0.157 -0.2554  2.7421  1.4283
  197MPD1    H7 3007   1.454   2.692   0.250  1.0332  0.2382  0.2723
  198MPD1     C 3008   3.526   2.662  15.271  0.7491 -0.1911  0.4747
  198MPD1    C1 3009   3.643   2.628  15.220 -0.3959 -0.5663 -0.4013
  198MPD1    C2 3010   3.714   2.522  15.267 -0.0809 -0.2867 -0.0010
  198MPD1    C3 3011   3.679   2.463  15.388  0.0753 -0.6023 -0.2476
  198MPD1    C4 3012   3.566   2.504  15.450  0.5159  0.7800  0.0012
  198MPD1    C5 3013   3.496   2.612  15.397  0.3664 -0.0819  0.1685
  198MPD1     H 3014   3.796   2.486  15.206  2.7741  1.5352  2.7687
  198MPD1    H1 3015   3.520   2.464  15.539 -0.3372 -0.6684 -1.1001
  198MPD1    H2 3016   3.460   2.739  15.232 -2.2496 -2.5238  0.8970
  198MPD1    H3 3017   3.406   2.634  15.453  1.1953  0.2152  1.3749
  198MPD1     N 3018   3.760   2.361  15.443 -0.5936 -0.6905 -0.2783
  198MPD1    H5 3019   3.846   2.340  15.394 -0.3169 -0.7804  0.2478
  198MPD1    N1 3020   3.666   2.668  15.090 -0.1119 -0.3907 -0.3475
  198MPD1    H6 3021   3.760   2.652  15.054  0.4195  0.0709  0.8172
  198MPD1    H7 3022   3.653   2.769  15.083  1.8130 -0.3134 -3.0481
  199MPD1     C 3023   2.096   1.766   8.715 -0.9352 -0.2971  0.1379
  199MPD1    C1 3024   2.063   1.636   8.758 -0.2441 -0.1835  0.5654
  199MPD1    C2 3025   1.948   1.639   8.829  0.8886  0.0955 -0.1951
  199MPD1    C3 3026   1.866   1.751   8.843  0.5370  0.1879 -1.0742
  199MPD1    C4 3027   1.898   1.868   8.778  0.5979 -0.1917  0.7471
  199MPD1    C5 3028   2.016   1.873   8.720  0.4352  0.1613  0.1083
  199MPD1     H 3029   1.925   1.541   8.871  3.0797  0.7631  2.5504
  199MPD1    H1 3030   1.836   1.957   8.778  1.6393  0.5266 -1.9277
  199MPD1    H2 3031   2.196   1.777   8.674 -1.2335 -0.8471 -0.7221
  199MPD1    H3 3032   2.051   1.968   8.680  2.3003  0.1526  1.7432
  199MPD1     N 3033   1.748   1.750   8.921 -0.4956  0.5008  0.6242
  199MPD1    H5 3034   1.697   1.837   8.927 -0.0403  0.7359  1.0758
  199MPD1    N1 3035   2.154   1.529   8.759 -0.1939  0.4855  0.2446
  199MPD1    H6 3036   2.105   1.439   8.765 -0.7332  0.8741  1.6202
  199MPD1    H7 3037   2.217   1.515   8.680 -1.5526  2.3280 -1.1482
  200MPD1     C 3038   4.096   2.499  15.708  0.2697  0.4985 -0.1506
  200MPD1    C1 3039   4.211   2.423  15.695  0.0844 -0.6587 -0.0142
  200MPD1    C2 3040   4.262   2.418  15.571 -0.0680  0.4868 -1.0631
  200MPD1    C3 3041   4.198   2.469  15.461 -0.8800 -0.0736 -0.6588
  200MPD1    C4 3042   4.079   2.533  15.473  0.0366  0.6426 -0.3972
  200MPD1    C5 3043   4.033   2.551  15.600 -1.0150  0.3678  0.2085
  200MPD1     H 3044   4.368   2.397  15.564 -0.0406 -0.0106  0.8938
  200MPD1    H1 3045   4.023   2.573  15.390  1.0765 -0.2204 -1.5070
  200MPD1    H2 3046   4.045   2.510  15.804 -0.3501  0.1953 -0.4433
  200MPD1    H3 3047   3.936   2.598  15.611 -1.2075 -0.2148  1.0804
  200MPD1     N 3048   4.271   2.470  15.339 -0.5595  0.6328  0.2095
  200MPD1    H5 3049   4.365   2.432  15.337 -0.1489  1.6225  0.6815
  200MPD1    N1 3050   4.281   2.389  15.807 -0.7074  0.6966 -0.2135
  200MPD1    H6 3051   4.316   2.293  15.806  1.2438  1.4126  0.3942
  200MPD1    H7 3052   4.219   2.383  15.888 -0.6379 -2.3028 -0.3607
  201MPD1     C 3053   3.173   1.317  12.155 -0.5770 -0.2734 -0.5695
  201MPD1    C1 3054   3.240   1.194  12.172 -0.0667  0.1254  0.2040
  201MPD1    C2 3055   3.228   1.129  12.298 -0.1600  0.2717  0.0379
  201MPD1    C3 3056   3.131   1.176  12.394  0.3094  0.8087 -0.2964
  201MPD1    C4 3057   3.054   1.280  12.360  0.4787  0.4506 -0.4294
  201MPD1    C5 3058   3.080   1.351  12.244 -0.4681  0.3374 -1.4547
  201MPD1     H 3059   3.287   1.042  12.325 -0.2011  0.2328  0.0029
  201MPD1    H1 3060   2.959   1.296  12.409 -0.4498 -0.8741 -1.7953
  201MPD1    H2 3061   3.185   1.378  12.067 -2.0447  2.0732  0.8650
  201MPD1    H3 3062   3.026   1.445  12.236 -2.7486 -1.1644 -3.7075
  201MPD1     N 3063   3.112   1.104  12.513 -0.2123  0.1474 -0.1385
  201MPD1    H5 3064   3.170   1.023  12.529 -1.7687 -0.7614  0.8677
  201MPD1    N1 3065   3.335   1.148  12.080 -0.2612  1.0324 -0.3897
  201MPD1    H6 3066   3.351   1.048  12.086 -0.7800  1.1762  3.0727
  201MPD1    H7 3067   3.303   1.160  11.984 -0.5457  0.8715 -0.3156
  202MPD1     C 3068   3.402   1.674   9.383 -0.1091  0.6863  0.1940
  202MPD1    C1 3069   3.432   1.668   9.515  0.4926 -0.1609  0.4605
  202MPD1    C2 3070   3.366   1.560   9.576  0.4509  0.4064 -0.5182
  202MPD1    C3 3071   3.256   1.490   9.530 -0.1108 -0.3090  0.3311
  202MPD1    C4 3072   3.220   1.523   9.403  0.2909  1.2110  0.9876
  202MPD1    C5 3073   3.295   1.612   9.331  0.3596  0.1461 -0.7061
  202MPD1     H 3074   3.381   1.544   9.683  0.0508 -0.5058 -0.5986
  202MPD1    H1 3075   3.136   1.473   9.355  0.1104  1.8776  0.6021
  202MPD1    H2 3076   3.464   1.728   9.313 -0.7450 -0.4003 -1.2046
  202MPD1    H3 3077   3.270   1.630   9.227 -1.0251  1.5357 -0.1275
  202MPD1     N 3078   3.170   1.411   9.606 -0.3166  0.3888 -0.2449
  202MPD1    H5 3079   3.085   1.386   9.557 -1.5832 -1.2406  2.7794
  202MPD1    N1 3080   3.551   1.711   9.569  0.5118 -0.3376 -0.2234
  202MPD1    H6 3081   3.537   1.738   9.666 -1.1354 -3.1697  0.3040
  202MPD1    H7 3082   3.579   1.792   9.514  0.9564 -0.8639 -0.7829
  203MPD1     C 3083   1.801   2.391  12.331 -0.7816 -0.0706  0.8760
  203MPD1    C1 3084   1.813   2.293  12.231  0.4789 -0.0592 -0.2081
  203MPD1    C2 3085   1.767   2.167  12.263  0.1370  0.5043 -0.3930
  203MPD1    C3 3086   1.725   2.132  12.386 -0.5529  0.1699  0.2264
  203MPD1    C4 3087   1.730   2.227  12.484 -0.0486 -1.0217 -0.1029
  203MPD1    C5 3088   1.758   2.357  12.458 -0.4990  0.2803 -0.0159
  203MPD1     H 3089   1.760   2.100  12.177 -1.2740  0.9971 -0.6746
  203MPD1    H1 3090   1.700   2.199  12.584 -1.3423  0.9537  0.0668
  203MPD1    H2 3091   1.834   2.492  12.312 -1.7738  0.0978  0.0726
  203MPD1    H3 3092   1.753   2.428  12.539 -1.5124  0.3018 -0.0997
  203MPD1     N 3093   1.691   1.999  12.415  0.0767  0.2498 -0.6112
  203MPD1    H5 3094   1.696   1.934  12.337  1.1367 -1.4087  0.8282
  203MPD1    N1 3095   1.827   2.337  12.099 -0.4982  0.0375 -0.1640
  203MPD1    H6 3096   1.878   2.423  12.083 -1.1563  0.6790  1.2135
  203MPD1    H7 3097   1.867   2.263  12.042 -0.6455 -0.2904  0.1525
  204MPD1     C 3098   0.386   3.731  17.293 -0.1603 -0.2615 -0.1398
  204MPD1    C1 3099   0.311   3.687  17.186  0.6186 -0.4253 -0.3797
  204MPD1    C2 3100   0.285   3.555  17.166 -0.1234  0.2335  0.3601
  204MPD1    C3 3101   0.346   3.457  17.244  0.5339 -0.2102 -0.3326
  204MPD1    C4 3102   0.434   3.491  17.344 -0.3019  0.2569 -0.4628
  204MPD1    C5 3103   0.457   3.631  17.361 -0.7113 -0.2671  0.0092
  204MPD1     H 3104   0.208   3.531  17.093 -0.9243  0.7559  1.0232
  204MPD1    H1 3105   0.492   3.423  17.405 -1.2055 -1.5968 -1.6732
  204MPD1    H2 3106   0.403   3.836  17.313  0.9502 -0.7978  1.7709
  204MPD1    H3 3107   0.528   3.665  17.436 -1.2222 -0.2793  0.4984
  204MPD1     N 3108   0.311   3.320  17.217  0.6902 -0.0270  0.1236
  204MPD1    H5 3109   0.241   3.301  17.146 -0.2114 -0.1355  1.0387
  204MPD1    N1 3110   0.239   3.787  17.117  0.2046 -1.0785 -0.2522
  204MPD1    H6 3111   0.202   3.760  17.026  3.0664 -1.9131 -1.1575
  204MPD1    H7 3112   0.288   3.875  17.102 -2.0702  0.4414  1.2533
  205MPD1     C 3113   1.298   2.267  16.705 -0.1968 -0.1905  0.0847
  205MPD1    C1 3114   1.356   2.178  16.787  0.5415 -0.3605  0.1134
  205MPD1    C2 3115   1.295   2.138  16.904 -0.0529  0.3899 -0.4631
  205MPD1    C3 3116   1.171   2.192  16.940 -0.4955  0.1146 -0.4937
  205MPD1    C4 3117   1.114   2.286  16.856 -0.7602  0.5642 -0.1341
  205MPD1    C5 3118   1.176   2.315  16.736  0.2034  0.3642  0.0695
  205MPD1     H 3119   1.355   2.068  16.962 -0.4088 -1.0962 -1.8784
  205MPD1    H1 3120   1.013   2.319  16.875 -1.1770  0.4515 -2.1096
  205MPD1    H2 3121   1.331   2.313  16.613 -0.7690  1.7337  0.8387
  205MPD1    H3 3122   1.122   2.375  16.663 -3.4975 -0.1284  2.4218
  205MPD1     N 3123   1.100   2.168  17.056  0.3650  0.3193  0.6576
  205MPD1    H5 3124   1.016   2.218  17.082 -0.0600  0.2896 -0.6502
  205MPD1    N1 3125   1.488   2.130  16.768  0.5961  0.3203  0.0019
  205MPD1    H6 3126   1.528   2.127  16.675  0.5528 -0.6576  0.0209
  205MPD1    H7 3127   1.499   2.035  16.802 -2.6060 -1.1601 -3.1129
  206MPD1     C 3128   0.949   4.298  16.694 -0.3513 -0.9399  0.0649
  206MPD1    C1 3129   1.007   4.413  16.638  0.9259 -0.3964  0.2820
  206MPD1    C2 3130   1.013   4.427  16.508  0.4483 -0.2045  0.2740
  206MPD1    C3 3131   0.980   4.326  16.422  0.6406  0.4436 -0.4735
  206MPD1    C4 3132   0.930   4.210  16.472 -1.2929 -0.4517  0.9107
  206MPD1    C5 3133   0.903   4.201  16.608  0.0826  0.5438  0.2356
  206MPD1     H 3134   1.045   4.523  16.470  0.9216 -1.4079 -2.3519
  206MPD1    H1 3135   0.903   4.129  16.405  0.2148 -0.2881  0.0953
  206MPD1    H2 3136   0.934   4.281  16.800 -1.3444 -1.2547 -0.1284
  206MPD1    H3 3137   0.860   4.105  16.637  2.3026 -1.0664 -1.7862
  206MPD1     N 3138   0.983   4.339  16.280  0.2721 -0.1894 -0.1817
  206MPD1    H5 3139   0.939   4.263  16.229 -0.1008 -0.5449  0.6601
  206MPD1    N1 3140   1.031   4.518  16.727  1.0482 -0.5855  0.0507
  206MPD1    H6 3141   1.120   4.556  16.695 -0.5490  1.8534 -1.5037
  206MPD1    H7 3142   1.043   4.484  16.822  1.4010  1.8221  0.8742
  207MPD1     C 3143   3.202   2.205   9.048  0.2686  0.1443 -0.0248
  207MPD1    C1 3144   3.200   2.325   9.113  0.0373  0.7254  0.3506
  207MPD1    C2 3145   3.323   2.367   9.153  0.4970  0.1937 -0.0806
  207MPD1    C3 3146   3.439   2.294   9.147 -0.0101  0.6780 -0.1566
  207MPD1    C4 3147   3.425   2.162   9.099 -0.1727  0.4725 -0.3617
  207MPD1    C5 3148   3.309   2.123   9.038 -0.0156  0.1409 -0.4861
  207MPD1     H 3149   3.324   2.465   9.200  1.5602  0.0764  0.1547
  207MPD1    H1 3150   3.503   2.087   9.092 -0.3257  0.0164  2.7346
  207MPD1    H2 3151   3.109   2.171   9.004  1.2377 -2.8641  0.2675
  207MPD1    H3 3152   3.297   2.034   8.978 -1.0879  0.1040 -0.2135
  207MPD1     N 3153   3.559   2.327   9.205 -0.1070  0.6066 -0.3180
  207MPD1    H5 3154   3.629   2.254   9.208  1.2055  1.7207 -3.2763
  207MPD1    N1 3155   3.084   2.394   9.118  0.0286 -0.3041  0.8125
  207MPD1    H6 3156   3.073   2.456   9.198  1.7228 -0.2483  0.9891
  207MPD1    H7 3157   2.997   2.342   9.104  0.6986 -1.4882  1.1039
  208MPD1     C 3158   2.214   1.507   0.144 -0.5849  0.4256 -0.5806
  208MPD1    C1 3159   2.180   1.441   0.264 -0.2036  0.6370  0.4484
  208MPD1    C2 3160   2.067   1.476   0.336  0.3859  0.3128 -0.2866
  208MPD1    C3 3161   1.964   1.550   0.278  0.1675 -0.4749 -0.9513
  208MPD1    C4 3162   1.995   1.607   0.158 -0.8347 -0.0189  0.4716
  208MPD1    C5 3163   2.117   1.590   0.099  0.1650 -0.4726  0.4009
  208MPD1     H 3164   2.044   1.427   0.430  0.4262 -2.1646 -1.5757
  208MPD1    H1 3165   1.931   1.680   0.109 -0.6496 -2.0316 -2.8032
  208MPD1    H2 3166   2.301   1.484   0.084 -0.7251 -0.8496 -0.2960
  208MPD1    H3 3167   2.128   1.651   0.010  1.8314 -1.9612 -0.4148
  208MPD1     N 3168   1.840   1.565   0.351 -0.0528 -0.3530  0.0663
  208MPD1    H5 3169   1.842   1.509   0.436  1.1140  0.8940  0.8704
  208MPD1    N1 3170   2.271   1.344   0.315 -0.1060  0.4103  0.1625
  208MPD1    H6 3171   2.329   1.297   0.246 -0.4792  0.3772 -0.1259
  208MPD1    H7 3172   2.242   1.282   0.390 -0.5766 -0.9690 -1.1483
  209MPD1     C 3173   4.532   1.148  10.102 -0.6247 -0.2554 -0.0325
  209MPD1    C1 3174   4.444   1.186  10.006  0.3839  0.8055 -0.9071
  209MPD1    C2 3175   4.372   1.304  10.029  0.1910  0.1714 -0.3913
  209MPD1    C3 3176   4.406   1.392  10.132 -0.4131 -0.2540  0.6263
  209MPD1    C4 3177   4.513   1.352  10.213 -0.0255 -0.3694 -0.3916
  209MPD1    C5 3178   4.569   1.229  10.201  0.0529 -0.3732 -0.0135
  209MPD1     H 3179   4.277   1.328   9.982 -0.5548 -0.2111  0.9259
  209MPD1    H1 3180   4.538   1.412  10.300  1.3732  0.3408 -1.2931
  209MPD1    H2 3181   4.571   1.048  10.113 -1.4860 -0.8002 -1.9126
  209MPD1    H3 3182   4.641   1.204  10.278 -0.3682  0.9711  0.8275
  209MPD1     N 3183   4.329   1.508  10.144 -0.1836 -0.6788 -0.2357
  209MPD1    H5 3184   4.248   1.513  10.082  0.7531  0.4886 -1.3702
  209MPD1    N1 3185   4.390   1.083   9.919  0.0344 -0.1378 -0.2912
  209MPD1    H6 3186   4.355   1.128   9.835  0.9154 -1.1482 -1.1882
  209MPD1    H7 3187   4.452   1.007   9.895 -0.2460  0.0535 -1.6390
  210MPD1     C 3188   4.121   2.149  10.904 -0.0578 -0.5245  0.6424
  210MPD1    C1 3189   4.143   2.221  10.789  0.1400  0.9370  0.0708
  210MPD1    C2 3190   4.162   2.160  10.665 -0.1894  0.1093  0.0100
  210MPD1    C3 3191   4.159   2.023  10.659 -0.0495 -0.0898 -0.4392
  210MPD1    C4 3192   4.137   1.948  10.779  1.1637 -0.0000 -0.0415
  210MPD1    C5 3193   4.116   2.011  10.903 -0.5429  0.1879 -0.3303
  210MPD1     H 3194   4.180   2.220  10.576  1.1879 -3.1259 -1.8621
  210MPD1    H1 3195   4.133   1.839  10.783 -1.5330  0.1439  1.0934
  210MPD1    H2 3196   4.097   2.199  10.997  0.6195  2.4477 -0.7792
  210MPD1    H3 3197   4.096   1.954  10.993 -0.8357  0.7610 -0.0311
  210MPD1     N 3198   4.172   1.951  10.544 -0.6122 -0.5975  0.0144
  210MPD1    H5 3199   4.184   1.851  10.554 -0.1395 -0.7143 -1.6582
  210MPD1    N1 3200   4.156   2.363  10.800 -0.5637  0.0783  0.4347
  210MPD1    H6 3201   4.112   2.394  10.886 -1.4042  0.9326 -0.3053
  210MPD1    H7 3202   4.111   2.410  10.722  1.9382  0.7947 -0.5485
  211MPD1     C 3203   1.866   1.812  16.818  0.2133 -0.3182  0.3746
  211MPD1    C1 3204   1.859   1.913  16.725 -0.1583 -0.0014  0.7671
  211MPD1    C2 3205   1.736   1.917  16.651  0.2088 -0.2170  0.9662
  211MPD1    C3 3206   1.635   1.823  16.666 -0.2361 -1.0728  0.3151
  211MPD1    C4 3207   1.651   1.723  16.757 -0.0603  0.2132 -0.0413
  211MPD1    C5 3208   1.761   1.716  16.838  0.1382  0.1938 -0.2634
  211MPD1     H 3209   1.717   2.005  16.589 -1.4245 -1.7440 -0.7046
  211MPD1    H1 3210   1.572   1.650  16.771 -0.7045  0.7637 -0.7859
  211MPD1    H2 3211   1.955   1.800  16.878  0.9263 -0.7659 -0.7757
  211MPD1    H3 3212   1.778   1.639  16.912 -2.2621 -1.2999 -1.3186
  211MPD1     N 3213   1.513   1.837  16.595 -0.8863  0.0205 -0.6025
  211MPD1    H5 3214   1.506   1.926  16.547 -1.6879 -0.5619 -1.5708
  211MPD1    N1 3215   1.945   2.019  16.730  0.0808  0.1330 -0.3242
  211MPD1    H6 3216   1.936   2.062  16.638 -1.0191 -0.9597 -0.7279
  211MPD1    H7 3217   2.039   2.000  16.765  0.8830  2.5200 -1.2180
  212MPD1     C 3218   0.386   0.767  16.218  0.3800 -0.2025  0.2425
  212MPD1    C1 3219   0.261   0.781  16.280 -0.3727  0.0197 -0.0529
  212MPD1    C2 3220   0.236   0.683  16.375 -0.1660 -0.3364  0.2153
  212MPD1    C3 3221   0.324   0.576  16.407  0.8580 -0.5576 -0.1749
  212MPD1    C4 3222   0.444   0.567  16.336 -0.2460  0.0381 -1.1209
  212MPD1    C5 3223   0.472   0.664  16.240 -0.3673 -0.0077  0.2322
  212MPD1     H 3224   0.146   0.698  16.433  0.0282  0.2455  0.3720
  212MPD1    H1 3225   0.520   0.491  16.350  0.4669  0.6196 -1.8632
  212MPD1    H2 3226   0.425   0.836  16.144 -0.8109 -0.5429 -0.6960
  212MPD1    H3 3227   0.567   0.662  16.187 -1.2526 -1.6118 -1.2718
  212MPD1     N 3228   0.294   0.475  16.505  0.0688 -0.4517 -0.3412
  212MPD1    H5 3229   0.363   0.402  16.521 -2.7443 -2.4903  2.2018
  212MPD1    N1 3230   0.180   0.897  16.270 -0.0099  0.3164  0.6677
  212MPD1    H6 3231   0.080   0.881  16.279 -0.1304  0.9210  0.4628
  212MPD1    H7 3232   0.193   0.947  16.182  1.7741 -1.5692 -0.1200
  213MPD1     C 3233   2.731   0.684  15.584 -0.2578 -0.6187 -0.5134
  213MPD1    C1 3234   2.634   0.673  15.494  1.1634  0.0433  0.3971
  213MPD1    C2 3235   2.636   0.762  15.389  0.0798 -0.0561  0.3307
  213MPD1    C3 3236   2.700   0.883  15.398  0.4938  0.2369 -0.4961
  213MPD1    C4 3237   2.784   0.905  15.505 -0.1860  0.2140 -0.6658
  213MPD1    C5 3238   2.800   0.803  15.590  0.5610 -0.8893 -0.0655
  213MPD1     H 3239   2.583   0.732  15.299 -2.1891 -1.1172  2.0356
  213MPD1    H1 3240   2.847   0.992  15.522 -1.3870  0.4832  2.3561
  213MPD1    H2 3241   2.746   0.615  15.667 -2.3912 -0.1759  0.2403
  213MPD1    H3 3242   2.854   0.819  15.683  0.2785  0.9309 -0.2160
  213MPD1     N 3243   2.692   0.971  15.282 -0.0426  0.0334 -0.1078
  213MPD1    H5 3244   2.631   0.946  15.204  0.7695 -0.6409 -0.5341
  213MPD1    N1 3245   2.590   0.547  15.457  0.1246 -0.1690 -0.4868
  213MPD1    H6 3246   2.574   0.496  15.544 -1.2350 -0.6551 -1.0262
  213MPD1    H7 3247   2.507   0.549  15.399 -0.2170  2.4144  0.0559
  214MPD1     C 3248   1.972   1.080  14.869  0.7396  0.1703  0.4254
  214MPD1    C1 3249   2.040   1.162  14.781  0.0773  0.0319  0.3947
  214MPD1    C2 3250   2.170   1.173  14.807 -1.0259 -0.0250  0.0188
  214MPD1    C3 3251   2.244   1.098  14.901 -0.8547  0.8570 -0.2206
  214MPD1    C4 3252   2.169   1.006  14.975  0.6631 -0.0101  0.2931
  214MPD1    C5 3253   2.033   1.000  14.963  0.1441  0.2937 -0.5810
  214MPD1     H 3254   2.221   1.258  14.762 -0.5917 -0.5627 -0.5120
  214MPD1    H1 3255   2.203   0.957  15.065  2.0452 -3.2160 -1.9907
  214MPD1    H2 3256   1.864   1.077  14.859  0.8472 -0.5300 -0.6172
  214MPD1    H3 3257   1.983   0.932  15.029 -1.0560 -0.4988 -2.3127
  214MPD1     N 3258   2.373   1.128  14.948 -0.6063  0.2279 -0.1711
  214MPD1    H5 3259   2.412   1.066  15.019 -0.1789  2.7078  1.7738
  214MPD1    N1 3260   1.970   1.262  14.718 -0.1998 -1.1206  0.1112
  214MPD1    H6 3261   2.026   1.306  14.645 -1.0820 -1.2881 -0.6726
  214MPD1    H7 3262   1.885   1.226  14.674 -0.4016  0.6844 -0.9650
  215MPD1     C 3263   3.671   0.985  10.835  0.5518 -0.5130 -0.9226
  215MPD1    C1 3264   3.791   1.045  10.867  0.1822 -0.5024 -0.2359
  215MPD1    C2 3265   3.807   1.179  10.831 -0.5056  0.4099  0.7836
  215MPD1    C3 3266   3.725   1.248  10.748  0.4540  0.2240  0.1849
  215MPD1    C4 3267   3.618   1.181  10.711  0.6045  0.3151 -0.6245
  215MPD1    C5 3268   3.588   1.049  10.751  0.2493 -0.2529 -0.4936
  215MPD1     H 3269   3.897   1.230  10.862  1.1881 -1.1960 -1.5037
  215MPD1    H1 3270   3.535   1.229  10.660 -0.1189 -0.7855 -0.4933
  215MPD1    H2 3271   3.647   0.887  10.875  1.0044 -1.0913 -2.0694
  215MPD1    H3 3272   3.490   1.015  10.720  0.0394  0.0920 -0.2035
  215MPD1     N 3273   3.756   1.379  10.712  0.5055 -0.1613 -0.1093
  215MPD1    H5 3274   3.833   1.422  10.763 -0.0682  2.9640 -1.8885
  215MPD1    N1 3275   3.882   0.993  10.968 -0.5044  0.0531  0.4153
  215MPD1    H6 3276   3.971   1.042  10.963  0.0668 -0.9620  0.6481
  215MPD1    H7 3277   3.894   0.892  10.968 -3.4545 -0.3125  1.0212
  216MPD1     C 3278   0.266   4.245  17.289 -0.2537 -0.1101 -0.2725
  216MPD1    C1 3279   0.167   4.176  17.359 -0.6214 -0.1343 -0.5972
  216MPD1    C2 3280   0.212   4.076  17.445 -0.5952  0.1278 -0.7290
  216MPD1    C3 3281   0.343   4.060  17.475 -0.5164 -0.0573  0.3545
  216MPD1    C4 3282   0.441   4.121  17.396 -0.1401 -0.2756 -0.4265
  216MPD1    C5 3283   0.400   4.214  17.299 -0.0388 -0.3903 -0.1091
  216MPD1     H 3284   0.143   4.030  17.515  0.4636  1.0463  0.9139
  216MPD1    H1 3285   0.547   4.110  17.416  0.1078 -0.5008 -1.8682
  216MPD1    H2 3286   0.237   4.330  17.228 -0.3022  0.0295 -0.0523
  216MPD1    H3 3287   0.468   4.260  17.228 -0.0704  1.9592  1.3936
  216MPD1     N 3288   0.382   3.968  17.578  0.3744 -0.0295  0.2302
  216MPD1    H5 3289   0.317   3.895  17.606  2.2292 -1.5996  0.4560
  216MPD1    N1 3290   0.041   4.238  17.381 -0.5232  0.2894 -0.3416
  216MPD1    H6 3291   4.696   4.160  17.389  1.2922 -1.3428 -1.2087
  216MPD1    H7 3292   0.013   4.292  17.299 -1.0063  1.6169  0.6956
  217MPD1     C 3293   1.468   4.217   8.971 -0.2519  0.4835  0.2082
  217MPD1    C1 3294   1.386   4.324   9.010 -0.0971 -0.0525  0.3066
  217MPD1    C2 3295   1.447   4.426   9.083  0.0244  0.2235  0.3479
  217MPD1    C3 3296   1.581   4.423   9.120 -0.3288  0.3368 -0.1951
  217MPD1    C4 3297   1.656   4.313   9.092 -0.4364  0.0775  0.7344
  217MPD1    C5 3298   1.596   4.213   9.012 -0.4123 -0.7071 -0.4786
  217MPD1     H 3299   1.382   4.508   9.113 -1.8105 -1.3180  0.5346
  217MPD1    H1 3300   1.763   4.304   9.105 -0.0931  1.8545 -0.9525
  217MPD1    H2 3301   1.427   4.146   8.899  0.9290  1.8846 -1.8324
  217MPD1    H3 3302   1.664   4.138   8.971 -0.6637 -1.3621  0.2932
  217MPD1     N 3303   1.652   4.532   9.187  0.0086  0.1133 -0.2818
  217MPD1    H5 3304   1.744   4.506   9.220 -0.3411 -2.6661 -1.5287
  217MPD1    N1 3305   1.267   4.344   8.939 -0.5077  0.0216  0.5991
  217MPD1    H6 3306   1.209   4.389   9.010 -0.6469  0.8311 -0.0250
  217MPD1    H7 3307   1.234   4.251   8.915 -2.8697  1.0613 -0.1588
  218MPD1     C 3308   2.820   2.137  12.358 -0.6583  0.0044 -0.2170
  218MPD1    C1 3309   2.826   2.019  12.423  0.2956  0.1261  0.1541
  218MPD1    C2 3310   2.950   1.963  12.443 -0.5687 -0.6269 -0.3736
  218MPD1    C3 3311   3.066   2.035  12.410 -0.2319  0.3821 -0.9438
  218MPD1    C4 3312   3.059   2.165  12.370  0.1301  0.2494 -0.6231
  218MPD1    C5 3313   2.933   2.220  12.347 -0.0661  0.5769  1.2480
  218MPD1     H 3314   2.958   1.864  12.486 -1.6259 -0.2806  0.6480
  218MPD1    H1 3315   3.139   2.235  12.349 -0.6238  1.1402 -0.5503
  218MPD1    H2 3316   2.734   2.197  12.333 -1.1929  0.0272  1.7216
  218MPD1    H3 3317   2.916   2.318  12.304 -1.7432 -1.3978 -2.5601
  218MPD1     N 3318   3.192   1.974  12.435  0.4041 -0.3219  0.1288
  218MPD1    H5 3319   3.195   1.881  12.476  0.4921 -0.6883 -0.7167
  218MPD1    N1 3320   2.711   1.939  12.445  0.1152 -0.3563 -0.4408
  218MPD1    H6 3321   2.727   1.874  12.522  2.5498  1.7323  0.8441
  218MPD1    H7 3322   2.626   1.993  12.463 -0.9687 -2.2606  0.1302
  219MPD1     C 3323   4.071   1.951  11.997  0.4357 -0.0543  0.2178
  219MPD1    C1 3324   4.034   1.823  12.015  0.7494  0.2613  0.1783
  219MPD1    C2 3325   3.939   1.790  12.110  0.1249  0.3356 -0.8494
  219MPD1    C3 3326   3.867   1.892  12.172  1.1665 -0.1418 -0.3865
  219MPD1    C4 3327   3.896   2.020  12.143 -0.1906 -0.0355  0.3394
  219MPD1    C5 3328   4.002   2.050  12.058 -0.1793 -0.1007  0.0513
  219MPD1     H 3329   3.932   1.688  12.146  0.3055 -0.2352 -2.4055
  219MPD1    H1 3330   3.840   2.102  12.186 -0.3357 -1.3477  2.6312
  219MPD1    H2 3331   4.147   1.984  11.927  0.1783 -0.7137 -0.3649
  219MPD1    H3 3332   4.036   2.151  12.034  0.1652 -0.5684 -1.4410
  219MPD1     N 3333   3.758   1.877  12.258 -0.7170 -0.3903 -0.5486
  219MPD1    H5 3334   3.735   1.957  12.315 -1.0743 -1.6095  0.9989
  219MPD1    N1 3335   4.130   1.728  11.978 -1.1399  0.1641 -0.2875
  219MPD1    H6 3336   4.085   1.637  11.973 -1.9008  0.5418 -0.3231
  219MPD1    H7 3337   4.173   1.746  11.887  3.1155  1.0954  1.8925
  220MPD1     C 3338   2.751   1.831   9.004 -0.5923 -0.1135 -0.9841
  220MPD1    C1 3339   2.722   1.727   9.087  0.2461 -0.7945 -0.5386
  220MPD1    C2 3340   2.801   1.724   9.208 -1.0186  0.8477 -0.5183
  220MPD1    C3 3341   2.876   1.833   9.256  1.0087 -0.1392 -0.1990
  220MPD1    C4 3342   2.886   1.941   9.170 -0.3370 -0.1759  0.1696
  220MPD1    C5 3343   2.830   1.933   9.044 -0.3641  0.1792 -1.0943
  220MPD1     H 3344   2.798   1.630   9.261 -0.3068 -0.0733 -2.1244
  220MPD1    H1 3345   2.947   2.028   9.192 -2.2587  1.1848  0.2274
  220MPD1    H2 3346   2.722   1.824   8.900 -0.2225 -2.0249 -0.9518
  220MPD1    H3 3347   2.833   2.025   8.986  1.5032 -0.0218 -1.3287
  220MPD1     N 3348   2.944   1.813   9.377  0.2776  0.5463  0.0651
  220MPD1    H5 3349   2.934   1.724   9.426 -3.7098  0.7535 -0.3954
  220MPD1    N1 3350   2.663   1.608   9.040 -0.0312  0.1004  0.5876
  220MPD1    H6 3351   2.585   1.626   8.977  0.6984 -0.4913 -0.4643
  220MPD1    H7 3352   2.620   1.553   9.114 -1.0600 -1.3412 -1.0865
  221MPD1     C 3353   0.317   1.427  16.965  0.9190 -0.3743  0.4087
  221MPD1    C1 3354   0.295   1.446  16.828 -0.4430 -0.3964 -0.2943
  221MPD1    C2 3355   0.400   1.454  16.740 -0.1163 -0.1732  0.4900
  221MPD1    C3 3356   0.527   1.411  16.776 -0.1982 -0.0175 -0.4420
  221MPD1    C4 3357   0.552   1.395  16.913 -0.7710 -0.5207 -1.0068
  221MPD1    C5 3358   0.443   1.396  16.997 -0.2884  0.5991  0.5434
  221MPD1     H 3359   0.389   1.478  16.635 -2.0988 -0.8605  0.5580
  221MPD1    H1 3360   0.645   1.358  16.955 -2.2001 -0.7997  1.9518
  221MPD1    H2 3361   0.243   1.429  17.044  0.3705 -1.5528 -0.0944
  221MPD1    H3 3362   0.461   1.386  17.103  2.2120  0.8563  0.1620
  221MPD1     N 3363   0.633   1.402  16.680  0.2959 -0.0866 -0.6277
  221MPD1    H5 3364   0.716   1.363  16.723  0.3919 -1.3334 -1.9463
  221MPD1    N1 3365   0.167   1.486  16.789  0.4242 -0.3272 -0.0107
  221MPD1    H6 3366   0.146   1.452  16.695 -2.5034 -1.1670  0.9519
  221MPD1    H7 3367   0.092   1.454  16.850 -0.3328 -0.1655 -0.8496
  222MPD1     C 3368   0.796   0.119  16.306  0.4025  0.2595  0.0946
  222MPD1    C1 3369   0.744   0.241  16.333  0.1247 -0.5022  0.2991
  222MPD1    C2 3370   0.701   0.259  16.463 -0.1828  0.7535  0.0481
  222MPD1    C3 3371   0.722   0.169  16.571  0.5522  0.9426  0.1047
  222MPD1    C4 3372   0.784   0.049  16.539  0.4841  0.5111 -0.1338
  222MPD1    C5 3373   0.819   0.028  16.407 -0.0587  0.1351 -0.1676
  222MPD1     H 3374   0.655   0.356  16.481 -2.8954 -0.7644  1.3478
  222MPD1    H1 3375   0.803   4.688  16.608  4.1821  2.1987  0.8241
  222MPD1    H2 3376   0.829   0.105  16.204 -0.2450 -1.2951  0.1085
  222MPD1    H3 3377   0.858   4.654  16.372  2.2581  1.1583 -0.3992
  222MPD1     N 3378   0.679   0.198  16.705 -0.3978 -0.7498  0.8869
  222MPD1    H5 3379   0.701   0.128  16.776 -0.9254 -0.5359  1.2623
  222MPD1    N1 3380   0.712   0.332  16.231  0.1204  0.2275  0.3161
  222MPD1    H6 3381   0.770   0.318  16.148 -1.4650 -0.5191 -0.6750
  222MPD1    H7 3382   0.716   0.426  16.269  1.9870  0.1266  0.4014
  223MPD1     C 3383   0.231   4.537  17.495 -0.6077 -0.1793 -0.2769
  223MPD1    C1 3384   0.147   4.643  17.460 -0.7518 -0.0925 -0.2752
  223MPD1    C2 3385   0.202   0.005  17.368  0.6648  0.4878  0.4517
  223MPD1    C3 3386   0.324   4.709  17.306 -0.4141  0.0348  0.0519
  223MPD1    C4 3387   0.406   4.603  17.339 -0.3154  0.1544  0.2808
  223MPD1    C5 3388   0.355   4.523  17.440 -0.8026 -0.2467  0.5215
  223MPD1     H 3389   0.139   0.088  17.338  0.9454  1.6420  3.0821
  223MPD1    H1 3390   0.506   4.585  17.302 -0.1551  0.5022  0.5416
  223MPD1    H2 3391   0.211   4.463  17.572  0.1620  0.8877  0.9324
  223MPD1    H3 3392   0.409   4.434  17.471 -1.5932 -0.5873  0.9283
  223MPD1     N 3393   0.369   0.088  17.218  0.0389 -0.4659 -0.2074
  223MPD1    H5 3394   0.308   0.168  17.205 -1.8547 -2.0704 -1.2783
  223MPD1    N1 3395   0.028   4.661  17.525  0.3771  0.1508 -0.5022
  223MPD1    H6 3396   4.711   4.569  17.548  1.2572 -0.6056 -2.0612
  223MPD1    H7 3397   4.678   4.708  17.468 -2.5606 -2.0385  1.3136
  224MPD1     C 3398   3.495   1.083   9.662  0.0790 -0.1476 -0.8746
  224MPD1    C1 3399   3.426   1.134   9.557 -0.4444 -0.0166  0.5520
  224MPD1    C2 3400   3.300   1.085   9.532  0.3363  0.4499 -0.7538
  224MPD1    C3 3401   3.242   1.011   9.634  0.1134  0.4935 -0.0657
  224MPD1    C4 3402   3.320   0.955   9.734 -0.6782 -0.9683 -0.5080
  224MPD1    C5 3403   3.447   0.992   9.750 -0.3947  0.4662  0.5679
  224MPD1     H 3404   3.243   1.116   9.445  0.5124  1.0619 -0.6538
  224MPD1    H1 3405   3.280   0.880   9.802  1.1662 -0.4892  1.1111
  224MPD1    H2 3406   3.598   1.107   9.682 -0.1324 -0.6907  0.9156
  224MPD1    H3 3407   3.505   0.948   9.830  0.2256  0.1816 -0.0450
  224MPD1     N 3408   3.107   0.972   9.646  0.1068  0.1711  0.8235
  224MPD1    H5 3409   3.074   0.906   9.715 -2.5189  1.6703  0.9922
  224MPD1    N1 3410   3.493   1.213   9.464  0.2386  0.7665 -0.0474
  224MPD1    H6 3411   3.428   1.269   9.410 -0.4157 -0.5985 -0.6857
  224MPD1    H7 3412   3.554   1.282   9.507  1.4161  0.0640 -0.5942
  225MPD1     C 3413   3.038   3.021  12.509  0.6447  0.2280 -0.0834
  225MPD1    C1 3414   3.059   2.898  12.460  0.7844 -0.3033  0.6628
  225MPD1    C2 3415   2.975   2.839  12.365  0.8994  0.2302 -0.0843
  225MPD1    C3 3416   2.868   2.920  12.320  0.7414 -0.3954 -0.6004
  225MPD1    C4 3417   2.849   3.047  12.371  0.4397  0.8209  0.2016
  225MPD1    C5 3418   2.944   3.097  12.456 -0.5442  0.5337 -0.4806
  225MPD1     H 3419   2.985   2.734  12.339  0.4113  0.5398 -1.5413
  225MPD1    H1 3420   2.781   3.119  12.328  1.3739  1.2647 -0.5314
  225MPD1    H2 3421   3.102   3.068  12.583 -2.1465 -0.4826  2.7721
  225MPD1    H3 3422   2.938   3.199  12.490 -2.7988 -0.1496  1.1607
  225MPD1     N 3423   2.764   2.877  12.236 -0.2863 -0.0560  0.1597
  225MPD1    H5 3424   2.694   2.950  12.231 -1.6062 -1.2929  0.3567
  225MPD1    N1 3425   3.151   2.813  12.528 -0.3519  0.1071  1.0181
  225MPD1    H6 3426   3.223   2.864  12.578 -0.8694  1.4744  0.3536
  225MPD1    H7 3427   3.191   2.732  12.481 -1.1991  0.6765 -0.6928
  226MPD1     C 3428   1.448   3.450   8.736 -0.2488 -0.0561  0.2750
  226MPD1    C1 3429   1.526   3.383   8.642 -0.1459 -0.7569 -0.2659
  226MPD1    C2 3430   1.590   3.268   8.673  0.1427 -0.3312 -0.2377
  226MPD1    C3 3431   1.564   3.207   8.790 -0.3067  0.8750  0.1160
  226MPD1    C4 3432   1.478   3.270   8.884  0.3752  0.7121  0.4389
  226MPD1    C5 3433   1.417   3.387   8.849 -0.1346  0.1227 -0.8442
  226MPD1     H 3434   1.656   3.208   8.611 -0.7535 -0.9293 -0.5977
  226MPD1    H1 3435   1.445   3.238   8.983 -0.7187 -3.8853 -1.4024
  226MPD1    H2 3436   1.392   3.539   8.711  0.2902  0.3345  0.4614
  226MPD1    H3 3437   1.356   3.438   8.922  1.3241 -1.4535  1.4995
  226MPD1     N 3438   1.612   3.071   8.790  0.0015  0.0878  0.5149
  226MPD1    H5 3439   1.671   3.041   8.713 -1.2251 -3.4174  0.9190
  226MPD1    N1 3440   1.553   3.452   8.526 -0.1087 -0.0930  0.2085
  226MPD1    H6 3441   1.487   3.521   8.489 -0.4777  0.5831  2.1283
  226MPD1    H7 3442   1.603   3.397   8.457 -1.7594  0.8620 -1.7688
  227MPD1     C 3443   1.579   2.522   8.125 -0.6516  0.4186 -0.2115
  227MPD1    C1 3444   1.588   2.657   8.153  0.3417  0.1196 -0.6100
  227MPD1    C2 3445   1.585   2.690   8.286 -0.3624  0.5410  0.1510
  227MPD1    C3 3446   1.616   2.601   8.390 -0.3263  0.1469  0.1653
  227MPD1    C4 3447   1.629   2.472   8.356 -0.4163  0.3332  0.4732
  227MPD1    C5 3448   1.597   2.436   8.226  0.5632 -1.1945  0.0807
  227MPD1     H 3449   1.573   2.796   8.306 -0.0282  1.0150 -2.1619
  227MPD1    H1 3450   1.658   2.392   8.422 -0.7815  0.7097  1.0912
  227MPD1    H2 3451   1.572   2.485   8.024  0.1761 -0.0677 -0.0958
  227MPD1    H3 3452   1.594   2.330   8.204  4.4684 -0.9446 -1.4912
  227MPD1     N 3453   1.640   2.658   8.521  0.4096 -0.1478  0.5001
  227MPD1    H5 3454   1.633   2.758   8.536 -0.9259 -0.1262 -0.2527
  227MPD1    N1 3455   1.560   2.752   8.053 -1.0226  0.1225  0.0869
  227MPD1    H6 3456   1.594   2.844   8.080 -0.1763 -0.7556  2.0437
  227MPD1    H7 3457   1.609   2.727   7.968  1.9978  0.8402  1.6294
  228MPD1     C 3458   0.029   0.711  12.408  0.4621 -0.2327  0.3858
  228MPD1    C1 3459   4.642   0.739  12.330 -0.1725  0.8265 -0.0493
  228MPD1    C2 3460   4.524   0.686  12.373 -0.1205  0.0050  0.0285
  228MPD1    C3 3461   4.506   0.640  12.502 -0.1067 -0.3821  0.2304
  228MPD1    C4 3462   4.618   0.626  12.583 -0.6326 -0.0961 -0.5854
  228MPD1    C5 3463   0.014   0.673  12.538 -0.3525  0.3031  0.2516
  228MPD1     H 3464   4.441   0.700  12.304  0.9460  1.6730 -0.8959
  228MPD1    H1 3465   4.619   0.604  12.689 -0.5933  0.6439 -0.4309
  228MPD1    H2 3466   0.129   0.737  12.375 -0.3026  0.2913 -1.5736
  228MPD1    H3 3467   0.112   0.667  12.584  0.4311 -3.1360 -1.8801
  228MPD1     N 3468   4.374   0.611  12.549 -0.7048 -0.7068 -0.2253
  228MPD1    H5 3469   4.301   0.643  12.486 -0.7773  0.0025  0.2289
  228MPD1    N1 3470   4.674   0.782  12.197 -0.2971 -0.5247  0.5130
  228MPD1    H6 3471   4.589   0.823  12.161  1.5131  2.1824 -0.7130
  228MPD1    H7 3472   0.031   0.847  12.202 -0.3092 -0.4486 -0.3167
  229MPD1     C 3473   3.850   4.488  14.554 -0.1350 -0.2221  0.2222
  229MPD1    C1 3474   3.765   4.404  14.621 -0.9182  0.2914 -0.1265
  229MPD1    C2 3475   3.817   4.320  14.712 -0.6421  0.0452  0.0622
  229MPD1    C3 3476   3.955   4.310  14.730 -0.0239 -0.7911 -0.0205
  229MPD1    C4 3477   4.037   4.404  14.674  0.1570 -0.0193 -0.7689
  229MPD1    C5 3478   3.978   4.491  14.586 -0.5247  0.3442 -0.6558
  229MPD1     H 3479   3.750   4.267  14.779  0.2678 -0.5928  0.4802
  229MPD1    H1 3480   4.145   4.405  14.689  0.0606 -0.3493 -0.0130
  229MPD1    H2 3481   3.804   4.565  14.493  0.5411  0.1732  0.2201
  229MPD1    H3 3482   4.046   4.558  14.534  0.1741 -0.1344 -0.3549
  229MPD1     N 3483   4.005   4.219  14.827 -0.0333 -0.0730  0.3360
  229MPD1    H5 3484   4.095   4.245  14.867 -0.0619 -1.0545  1.0495
  229MPD1    N1 3485   3.625   4.423  14.614 -0.9965  0.2776 -0.1629
  229MPD1    H6 3486   3.601   4.458  14.522 -2.7042 -0.7466 -0.1065
  229MPD1    H7 3487   3.569   4.340  14.631  0.6263 -0.3426  2.1450
  230MPD1     C 3488   3.651   3.509  15.462 -0.1692  0.0086  0.1410
  230MPD1    C1 3489   3.581   3.587  15.375  0.6780 -0.3525  0.5682
  230MPD1    C2 3490   3.657   3.653  15.280  0.7398  0.0852 -0.2673
  230MPD1    C3 3491   3.797   3.656  15.282 -0.6603  0.2260 -0.3089
  230MPD1    C4 3492   3.858   3.601  15.389 -0.3796  0.0993  0.2618
  230MPD1    C5 3493   3.783   3.524  15.469 -0.1371 -0.2148 -0.6459
  230MPD1     H 3494   3.607   3.694  15.193  1.5863 -0.3486 -0.9471
  230MPD1    H1 3495   3.966   3.596  15.397 -0.1271  2.3593 -1.9806
  230MPD1    H2 3496   3.605   3.441  15.532  1.5644 -0.1284  1.1240
  230MPD1    H3 3497   3.829   3.474  15.553 -0.0939  3.2120  1.3724
  230MPD1     N 3498   3.861   3.736  15.190  0.0002 -0.2917  0.5244
  230MPD1    H5 3499   3.802   3.793  15.130  0.7149  1.0643  1.0988
  230MPD1    N1 3500   3.442   3.566  15.368 -0.5606 -0.5550 -0.2863
  230MPD1    H6 3501   3.399   3.650  15.331  2.0540  0.8090 -0.2714
  230MPD1    H7 3502   3.409   3.555  15.464  0.2438  1.3348  0.2229
  231MPD1     C 3503   2.013   1.130  15.358 -0.0434 -0.9048 -0.1414
  231MPD1    C1 3504   1.965   1.202  15.245  0.5103 -0.0564  0.3527
  231MPD1    C2 3505   2.051   1.293  15.196  0.1467 -0.2459  0.4030
  231MPD1    C3 3506   2.188   1.297  15.234  0.2726 -0.0699 -0.4133
  231MPD1    C4 3507   2.243   1.198  15.315 -0.9435  0.1961 -0.6019
  231MPD1    C5 3508   2.149   1.123  15.383  0.6158  0.4939 -0.7879
  231MPD1     H 3509   2.025   1.341  15.102 -1.0981 -0.6041  0.5621
  231MPD1    H1 3510   2.348   1.183  15.339 -0.8113  0.4240 -1.0253
  231MPD1    H2 3511   1.940   1.085  15.426 -0.3497 -0.1104  0.0591
  231MPD1    H3 3512   2.179   1.061  15.467 -0.5322 -1.1671 -1.5815
  231MPD1     N 3513   2.270   1.387  15.163  0.6414  0.2917 -0.3417
  231MPD1    H5 3514   2.218   1.442  15.095 -1.7649 -2.8740 -1.0428
  231MPD1    N1 3515   1.830   1.211  15.215 -0.1912 -1.0704 -0.1038
  231MPD1    H6 3516   1.818   1.249  15.122 -0.3434  2.9483  1.5727
  231MPD1    H7 3517   1.778   1.124  15.220 -0.1264 -1.1669 -1.0801
  232MPD1     C 3518   0.298   3.819   0.325  0.2352 -0.0314  0.2681
  232MPD1    C1 3519   0.215   3.710   0.347  0.1122 -0.1144 -0.6272
  232MPD1    C2 3520   0.093   3.706   0.280  0.4852  0.2964  0.0084
  232MPD1    C3 3521   0.055   3.804   0.190  0.0499  0.4983 -0.3843
  232MPD1    C4 3522   0.140   3.912   0.170 -0.0188  0.2601  0.3797
  232MPD1    C5 3523   0.259   3.916   0.238 -0.3533  0.6114 -0.0905
  232MPD1     H 3524   0.023   3.625   0.296  1.7957 -0.7415  0.5429
  232MPD1    H1 3525   0.106   3.998   0.114 -1.2497 -1.1899 -1.0911
  232MPD1    H2 3526   0.391   3.835   0.378 -0.0047  1.6701  0.2020
  232MPD1    H3 3527   0.323   4.003   0.223 -2.5235  1.9577 -1.5518
  232MPD1     N 3528   4.640   3.798   0.147  0.0165  0.7417  0.5373
  232MPD1    H5 3529   4.585   3.718   0.175  1.6711 -0.6480 -0.2424
  232MPD1    N1 3530   0.249   3.604   0.436 -0.4987 -0.2011  0.0388
  232MPD1    H6 3531   0.346   3.593   0.465  0.3928  0.1485 -2.8809
  232MPD1    H7 3532   0.211   3.514   0.407  0.4032 -0.2844 -0.8742
  233MPD1     C 3533   0.056   2.145   0.946  0.3504  0.3363  0.1615
  233MPD1    C1 3534   0.147   2.202   1.034 -0.0341  0.5018  0.0102
  233MPD1    C2 3535   0.250   2.117   1.090  0.2305 -0.4544 -0.1849
  233MPD1    C3 3536   0.245   1.976   1.072  0.9149  0.2833  0.5265
  233MPD1    C4 3537   0.150   1.924   0.989  0.3619  0.8019  0.7754
  233MPD1    C5 3538   0.063   2.007   0.923  0.3531  0.0816  0.4376
  233MPD1     H 3539   0.337   2.156   1.142  0.2600  1.1196 -1.4362
  233MPD1    H1 3540   0.153   1.818   0.964  1.5564  0.8402  0.7306
  233MPD1    H2 3541   4.708   2.202   0.885 -3.0912 -2.7403  1.1990
  233MPD1    H3 3542   4.709   1.977   0.850  0.4910  0.5612  0.0929
  233MPD1     N 3543   0.347   1.891   1.112  0.5068 -0.4910  0.6879
  233MPD1    H5 3544   0.328   1.793   1.093  0.3129 -0.0524 -1.4523
  233MPD1    N1 3545   0.153   2.337   1.052 -0.2590 -0.0407 -0.3549
  233MPD1    H6 3546   0.063   2.384   1.061  0.2377  0.8330  0.0875
  233MPD1    H7 3547   0.220   2.373   1.120 -0.3885  1.4078 -1.0121
  234MPD1     C 3548   2.957   3.916   9.950 -0.5341  0.4976 -0.2456
  234MPD1    C1 3549   2.849   3.947   9.861  0.4230  0.6315  0.3926
  234MPD1    C2 3550   2.790   4.072   9.869  0.1110  0.5203 -0.1579
  234MPD1    C3 3551   2.839   4.167   9.956 -0.0495  0.4591  0.5033
  234MPD1    C4 3552   2.946   4.134  10.036  0.3237 -0.4808  0.0401
  234MPD1    C5 3553   2.990   4.005  10.041 -0.1436 -0.2797  0.8690
  234MPD1     H 3554   2.711   4.110   9.805  0.3177 -0.0544 -0.7599
  234MPD1    H1 3555   2.985   4.214  10.098 -1.7435  0.2050  0.4702
  234MPD1    H2 3556   3.000   3.817   9.954 -0.8646  0.3652  0.1189
  234MPD1    H3 3557   3.068   3.989  10.115  0.5559 -2.0706 -0.2648
  234MPD1     N 3558   2.785   4.301   9.939  0.1929  0.2332  0.5648
  234MPD1    H5 3559   2.718   4.304   9.862  0.9988 -0.5642 -0.1718
  234MPD1    N1 3560   2.799   3.841   9.792 -0.0307 -0.6564  0.2299
  234MPD1    H6 3561   2.745   3.865   9.709 -0.9892 -1.4659  0.6163
  234MPD1    H7 3562   2.866   3.769   9.765  1.7886  0.9361  0.5757
  235MPD1     C 3563   3.606   2.335   9.786 -0.0782 -0.1628  0.7721
  235MPD1    C1 3564   3.507   2.367   9.697  0.1145 -0.3711  0.6093
  235MPD1    C2 3565   3.505   2.488   9.632 -0.5195 -0.0554  1.1235
  235MPD1    C3 3566   3.608   2.577   9.651  0.4470 -0.3493  0.5450
  235MPD1    C4 3567   3.708   2.539   9.738  0.4610 -0.3893  0.1474
  235MPD1    C5 3568   3.708   2.420   9.809 -0.1010 -0.0488 -0.0010
  235MPD1     H 3569   3.414   2.522   9.584  0.2835  1.0226  0.3678
  235MPD1    H1 3570   3.797   2.601   9.746  0.9666 -1.2982  1.5781
  235MPD1    H2 3571   3.610   2.237   9.832  1.0531 -1.3463 -1.8060
  235MPD1    H3 3572   3.799   2.392   9.860 -0.2065 -0.2679  0.0707
  235MPD1     N 3573   3.606   2.702   9.584 -0.2508 -0.1683  0.6467
  235MPD1    H5 3574   3.530   2.712   9.518  1.6777  2.1647 -1.2007
  235MPD1    N1 3575   3.400   2.280   9.688  0.1275 -0.6993 -0.0169
  235MPD1    H6 3576   3.415   2.180   9.705 -1.0618 -0.5209  1.9406
  235MPD1    H7 3577   3.350   2.287   9.600  0.0323  1.9111  0.2605
  236MPD1     C 3578   2.880   3.632   9.547  0.2281  0.5128 -0.0944
  236MPD1    C1 3579   3.003   3.701   9.549  0.2259  0.2982 -0.4472
  236MPD1    C2 3580   3.081   3.685   9.661 -0.1004 -0.2420  0.1247
  236MPD1    C3 3581   3.055   3.599   9.762  0.0284 -0.6550 -0.2087
  236MPD1    C4 3582   2.932   3.538   9.754 -0.3940 -0.1357 -0.2650
  236MPD1    C5 3583   2.845   3.551   9.650  0.8718  0.1068  0.2251
  236MPD1     H 3584   3.177   3.736   9.663 -0.4625  0.5188 -2.7484
  236MPD1    H1 3585   2.910   3.463   9.829  2.5906 -1.1328 -0.3838
  236MPD1    H2 3586   2.819   3.644   9.458 -0.3746  2.2591  0.5475
  236MPD1    H3 3587   2.751   3.497   9.643  0.8934  0.3216 -1.7232
  236MPD1     N 3588   3.145   3.574   9.868 -0.1246 -0.5999 -0.2382
  236MPD1    H5 3589   3.125   3.494   9.927 -0.3894 -0.4782 -0.1619
  236MPD1    N1 3590   3.044   3.784   9.444 -0.2645  0.3930 -0.2702
  236MPD1    H6 3591   3.146   3.787   9.451 -0.3248  0.4506  0.6847
  236MPD1    H7 3592   3.021   3.743   9.354  1.4213 -0.9445 -0.0971
  237MPD1     C 3593   2.921   2.190  15.616  0.0760 -0.6534  0.2081
  237MPD1    C1 3594   2.901   2.209  15.481 -0.4537 -0.3033  0.3399
  237MPD1    C2 3595   2.775   2.253  15.433 -0.1350 -0.8550  0.6079
  237MPD1    C3 3596   2.675   2.271  15.525 -0.3980  0.0555 -0.6937
  237MPD1    C4 3597   2.702   2.272  15.662  1.0542 -0.0680  0.7978
  237MPD1    C5 3598   2.820   2.217  15.706  0.3703  0.1492  0.5923
  237MPD1     H 3599   2.752   2.269  15.328 -0.9644  2.5761  1.3351
  237MPD1    H1 3600   2.622   2.308  15.726  1.5657 -0.4079  1.6203
  237MPD1    H2 3601   3.013   2.146  15.652  0.5536  0.9687  0.9284
  237MPD1    H3 3602   2.844   2.215  15.812  0.9271  1.8094  0.4835
  237MPD1     N 3603   2.549   2.319  15.470  0.0508 -0.7076  0.6514
  237MPD1    H5 3604   2.548   2.339  15.371  1.0608 -1.6670  0.4482
  237MPD1    N1 3605   3.001   2.157  15.399 -0.4571 -0.5299  0.2035
  237MPD1    H6 3606   3.091   2.179  15.441 -0.6027  1.0849 -0.3313
  237MPD1    H7 3607   3.005   2.196  15.305  0.2660 -1.3490 -0.1084
  238MPD1     C 3608   3.852   1.817  15.709 -0.1969 -0.1511  0.1667
  238MPD1    C1 3609   3.719   1.836  15.674  0.4999  1.0147 -0.1989
  238MPD1    C2 3610   3.676   1.753  15.575  0.0050  0.1623  0.5378
  238MPD1    C3 3611   3.749   1.645  15.530 -0.5699  0.0829  0.2962
  238MPD1    C4 3612   3.880   1.636  15.564  0.2732  0.5549 -0.9705
  238MPD1    C5 3613   3.929   1.722  15.655 -0.3007 -0.0880  0.0711
  238MPD1     H 3614   3.571   1.750  15.548  0.4176 -5.1645 -0.3903
  238MPD1    H1 3615   3.951   1.562  15.530  0.0138  1.4967 -3.5943
  238MPD1    H2 3616   3.896   1.887  15.779  0.5909  0.4950 -0.9787
  238MPD1    H3 3617   4.037   1.716  15.667 -0.2739  1.6621  0.7684
  238MPD1     N 3618   3.713   1.564  15.422 -0.2737 -0.4049 -0.6223
  238MPD1    H5 3619   3.774   1.491  15.386  0.4430 -0.3178  0.4214
  238MPD1    N1 3620   3.650   1.947  15.722 -0.2354 -0.6173 -0.3903
  238MPD1    H6 3621   3.680   1.977  15.814 -0.0308  0.1040 -0.6949
  238MPD1    H7 3622   3.549   1.939  15.718 -0.1533 -0.6391 -2.7034
  239MPD1     C 3623   4.635   1.211  15.137  0.6539  0.3224  0.3789
  239MPD1    C1 3624   4.542   1.309  15.154  0.0204 -0.1805  0.8147
  239MPD1    C2 3625   4.532   1.417  15.059  0.3960  0.3986  0.1526
  239MPD1    C3 3626   4.604   1.424  14.943  1.4010 -0.0954 -0.5181
  239MPD1    C4 3627   4.697   1.322  14.933 -0.3893  0.0613  0.4321
  239MPD1    C5 3628   4.717   1.223  15.027  0.3650  0.0630  0.3265
  239MPD1     H 3629   4.461   1.496  15.081 -0.6125 -0.6421  0.6137
  239MPD1    H1 3630   0.040   1.318  14.846 -0.8022 -0.3527  0.1527
  239MPD1    H2 3631   4.656   1.133  15.209 -0.4752 -1.5347 -1.2922
  239MPD1    H3 3632   0.076   1.152  15.008 -1.0786 -1.1564 -1.0893
  239MPD1     N 3633   4.598   1.531  14.850  0.4799 -0.1987 -0.5091
  239MPD1    H5 3634   4.668   1.527  14.777 -0.4254 -1.3089 -1.3023
  239MPD1    N1 3635   4.463   1.322  15.273  0.3276  0.8923 -0.2715
  239MPD1    H6 3636   4.464   1.227  15.310 -1.0367  0.9954  0.0130
  239MPD1    H7 3637   4.367   1.345  15.248 -0.2067 -2.4197 -1.2316
  240MPD1     C 3638   3.679   1.971  13.852 -0.6538 -0.1190 -0.5277
  240MPD1    C1 3639   3.650   1.841  13.884 -0.2491 -0.1664 -0.0903
  240MPD1    C2 3640   3.676   1.802  14.014  0.1259  0.3483  0.4341
  240MPD1    C3 3641   3.741   1.881  14.107 -0.3061 -0.6147  0.8005
  240MPD1    C4 3642   3.784   2.006  14.066  0.0850  0.5309 -0.6260
  240MPD1    C5 3643   3.758   2.043  13.936  0.2670  0.8478  0.0660
  240MPD1     H 3644   3.638   1.711  14.058 -1.0136  0.3660 -0.5200
  240MPD1    H1 3645   3.833   2.078  14.131 -0.4011 -0.8581  1.2966
  240MPD1    H2 3646   3.667   2.010  13.751 -0.7328 -0.4777 -0.6580
  240MPD1    H3 3647   3.784   2.145  13.908 -0.4875  0.6574 -1.3612
  240MPD1     N 3648   3.758   1.817  14.234  0.3655  0.5041 -0.4036
  240MPD1    H5 3649   3.733   1.719  14.240 -0.6077  0.9177  2.7556
  240MPD1    N1 3650   3.591   1.755  13.791 -0.6023 -0.0208 -0.1197
  240MPD1    H6 3651   3.612   1.785  13.696  1.1950  1.2373  0.6887
  240MPD1    H7 3652   3.626   1.660  13.799  1.0944  0.7219  1.0770
  241MPD1     C 3653   4.092   1.760  15.262  0.2881  0.5842 -0.5306
  241MPD1    C1 3654   4.163   1.726  15.153 -0.6045  0.5036 -0.4256
  241MPD1    C2 3655   4.092   1.703  15.033  0.8081 -0.7442 -0.2297
  241MPD1    C3 3656   3.953   1.721  15.025  0.8660 -0.4387  0.4433
  241MPD1    C4 3657   3.887   1.765  15.135 -0.3106  0.3603  0.0837
  241MPD1    C5 3658   3.960   1.788  15.248 -0.4246 -0.5966  0.0295
  241MPD1     H 3659   4.149   1.669  14.948 -1.3469 -0.6432 -1.7059
  241MPD1    H1 3660   3.780   1.783  15.140 -0.6008 -1.7791  1.5927
  241MPD1    H2 3661   4.133   1.775  15.361  1.5351 -0.6834 -0.8497
  241MPD1    H3 3662   3.898   1.830  15.327  0.0521  0.3738 -0.1107
  241MPD1     N 3663   3.887   1.710  14.906 -0.4769 -0.5688  0.1458
  241MPD1    H5 3664   3.786   1.716  14.910 -0.5008 -0.1156 -0.9947
  241MPD1    N1 3665   4.293   1.674  15.175  0.5134  0.8312 -0.3861
  241MPD1    H6 3666   4.352   1.669  15.093  1.5056  1.7468  0.2614
  241MPD1    H7 3667   4.342   1.732  15.243  1.5298  0.8237 -1.1204
  242MPD1     C 3668   2.924   4.543  15.996 -0.5576  0.0811 -0.0498
  242MPD1    C1 3669   2.941   4.626  15.893 -0.1911  0.2788 -0.1526
  242MPD1    C2 3670   2.984   4.576  15.771  0.5637  0.3210  0.4772
  242MPD1    C3 3671   3.000   4.439  15.751  0.1061  0.7396  0.5617
  242MPD1    C4 3672   2.981   4.351  15.855 -0.4181  0.4195  0.4946
  242MPD1    C5 3673   2.944   4.409  15.976 -0.5839 -0.1148  0.1829
  242MPD1     H 3674   3.015   4.653  15.702  0.9459 -1.0031 -0.8226
  242MPD1    H1 3675   2.997   4.245  15.842  0.5023  0.8128 -1.5437
  242MPD1    H2 3676   2.905   4.582  16.095  0.2797 -0.2864  0.2555
  242MPD1    H3 3677   2.940   4.351  16.067  0.7311  0.1891  0.4371
  242MPD1     N 3678   3.071   4.392  15.634 -0.2652  0.1716  0.1356
  242MPD1    H5 3679   3.107   4.297  15.636  1.1528  0.7988  4.8811
  242MPD1    N1 3680   2.938   0.034  15.920  0.1698  0.3373  0.5050
  242MPD1    H6 3681   2.909   0.082  15.835  2.8531 -0.4726 -0.8384
  242MPD1    H7 3682   2.873   0.046  15.998 -1.7582 -1.5107 -0.8026
  243MPD1     C 3683   1.665   4.114   0.457 -0.3358  0.1205  0.3898
  243MPD1    C1 3684   1.577   4.152   0.357  0.6697  0.1042  0.4523
  243MPD1    C2 3685   1.470   4.076   0.323 -0.4886 -0.4611  0.5953
  243MPD1    C3 3686   1.443   3.957   0.387  0.6367  0.1243  0.0886
  243MPD1    C4 3687   1.538   3.912   0.478 -0.1257 -0.4497 -0.3349
  243MPD1    C5 3688   1.647   3.993   0.516 -0.6155 -0.0687  0.0948
  243MPD1     H 3689   1.404   4.103   0.241  1.4219 -0.0796 -0.8236
  243MPD1    H1 3690   1.526   3.819   0.533  0.5922  0.7691  1.8954
  243MPD1    H2 3691   1.753   4.170   0.487 -0.5585  0.5634  0.2100
  243MPD1    H3 3692   1.720   3.947   0.581  1.3685 -0.2239 -2.2433
  243MPD1     N 3693   1.328   3.887   0.358  0.2831  0.0246  0.2850
  243MPD1    H5 3694   1.267   3.922   0.285 -1.0862 -2.8742  0.0231
  243MPD1    N1 3695   1.621   4.256   0.270 -0.4872 -0.1111  0.5308
  243MPD1    H6 3696   1.541   4.303   0.228  0.1836 -0.8585 -1.6134
  243MPD1    H7 3697   1.671   4.330   0.320  0.1763  0.7249 -1.3561
  244MPD1     C 3698   0.825   3.112   0.729 -0.2446  0.2336  0.4157
  244MPD1    C1 3699   0.967   3.122   0.722 -0.0665 -0.3421 -0.9429
  244MPD1    C2 3700   1.027   3.209   0.624 -0.1628  0.1751 -0.4532
  244MPD1    C3 3701   0.941   3.272   0.538  0.5326 -0.7819 -0.3242
  244MPD1    C4 3702   0.803   3.264   0.550 -0.1039  0.2289  0.6492
  244MPD1    C5 3703   0.746   3.187   0.647 -0.5422 -0.2184  0.2903
  244MPD1     H 3704   1.135   3.220   0.615 -0.4904  1.8647 -2.5098
  244MPD1    H1 3705   0.736   3.334   0.500  0.3930 -0.5475 -1.1199
  244MPD1    H2 3706   0.773   3.037   0.786 -0.0029  0.2903  0.7113
  244MPD1    H3 3707   0.638   3.179   0.655 -0.5437 -2.0089 -1.4490
  244MPD1     N 3708   1.001   3.373   0.456  0.5767  0.1693  0.7616
  244MPD1    H5 3709   1.101   3.381   0.471  0.6232 -1.6164  1.3516
  244MPD1    N1 3710   1.048   3.053   0.821  0.1408 -0.1250 -0.2449
  244MPD1    H6 3711   0.999   2.978   0.870 -1.8831  1.1617 -0.2742
  244MPD1    H7 3712   1.132   3.021   0.774 -0.0404  0.6218 -1.0775
  245MPD1     C 3713   2.318   3.555  12.996 -0.0856 -0.3567  0.1531
  245MPD1    C1 3714   2.287   3.559  13.132 -0.3325 -0.4410  0.2744
  245MPD1    C2 3715   2.360   3.641  13.220 -0.1022  0.1736 -0.0837
  245MPD1    C3 3716   2.454   3.726  13.167 -0.2767  0.7412 -0.3270
  245MPD1    C4 3717   2.482   3.720  13.031  0.5321 -0.1477  0.7766
  245MPD1    C5 3718   2.413   3.646  12.944 -0.1656 -0.4060 -0.5068
  245MPD1     H 3719   2.331   3.657  13.323 -0.2573 -0.6773 -0.0025
  245MPD1    H1 3720   2.554   3.782  12.979  0.5314  0.3671  1.3899
  245MPD1    H2 3721   2.258   3.498  12.926  0.4702  0.1483 -0.7325
  245MPD1    H3 3722   2.431   3.660  12.838  0.5682  0.5124 -0.2598
  245MPD1     N 3723   2.516   3.827  13.247  0.5715  0.2905 -0.1632
  245MPD1    H5 3724   2.498   3.819  13.347 -0.8674  1.8779 -0.3021
  245MPD1    N1 3725   2.204   3.462  13.189 -0.3818  0.0280  0.1610
  245MPD1    H6 3726   2.162   3.492  13.277  0.7313  2.3766 -0.1168
  245MPD1    H7 3727   2.131   3.425  13.129 -0.2861  0.4191 -0.2012
  246MPD1     C 3728   1.381   3.824   9.684  0.8388 -0.5407  0.5020
  246MPD1    C1 3729   1.362   3.721   9.593  0.3761  0.7382 -0.1784
  246MPD1    C2 3730   1.469   3.693   9.504  0.0608 -0.0455 -0.0452
  246MPD1    C3 3731   1.595   3.744   9.516  0.2616 -0.0078  0.4277
  246MPD1    C4 3732   1.612   3.849   9.598  0.3853 -0.2973  0.0230
  246MPD1    C5 3733   1.505   3.889   9.680 -0.1171  1.0856  0.2641
  246MPD1     H 3734   1.444   3.614   9.435 -2.9559  0.7615  0.1086
  246MPD1    H1 3735   1.708   3.900   9.610 -0.0106  0.3335  0.5401
  246MPD1    H2 3736   1.311   3.857   9.759 -1.3246 -2.5870 -0.6205
  246MPD1    H3 3737   1.535   3.954   9.762  0.7527  1.0872 -0.0506
  246MPD1     N 3738   1.699   3.702   9.431 -0.6660 -0.4086 -0.7684
  246MPD1    H5 3739   1.677   3.625   9.369 -1.5512 -0.9104  0.1760
  246MPD1    N1 3740   1.233   3.674   9.572 -0.2455 -0.0097  0.0944
  246MPD1    H6 3741   1.232   3.580   9.535  0.4315 -0.3843  1.0376
  246MPD1    H7 3742   1.169   3.694   9.649  1.5474  0.0924  1.5692
  247MPD1     C 3743   1.049   2.960  16.000 -0.1908  0.3277  0.3990
  247MPD1    C1 3744   1.111   3.061  15.930  0.2366  0.2788 -0.0575
  247MPD1    C2 3745   1.236   3.099  15.968  0.6947  0.2392 -1.0647
  247MPD1    C3 3746   1.314   3.034  16.063 -0.5797  0.2525 -0.2138
  247MPD1    C4 3747   1.256   2.922  16.116 -0.2681  0.9284 -0.1887
  247MPD1    C5 3748   1.126   2.888  16.081 -0.1084 -0.1337  0.6929
  247MPD1     H 3749   1.273   3.185  15.914  1.6771 -1.6843 -3.4942
  247MPD1    H1 3750   1.296   2.852  16.189 -1.4971 -0.0129 -0.4102
  247MPD1    H2 3751   0.944   2.937  15.989 -0.5167  0.8450  2.4134
  247MPD1    H3 3752   1.089   2.801  16.134  0.5550 -0.4983  0.5656
  247MPD1     N 3753   1.447   3.072  16.096  0.3129 -0.3411 -0.6341
  247MPD1    H5 3754   1.494   3.022  16.171  0.7599  0.0677 -0.6451
  247MPD1    N1 3755   1.034   3.144  15.844  0.4596 -0.2508 -0.2665
  247MPD1    H6 3756   0.962   3.090  15.797  0.3027  0.0522 -0.3756
  247MPD1    H7 3757   1.088   3.208  15.786  1.3953 -1.3378 -0.5837
  248MPD1     C 3758   3.413   4.538  17.599  0.9917  0.8674 -0.0451
  248MPD1    C1 3759   3.299   4.575  17.529 -0.1336 -0.4107  0.1904
  248MPD1    C2 3760   3.181   4.579  17.594  0.1228 -0.5268  0.7176
  248MPD1    C3 3761   3.169   4.519   0.034  0.5708  0.0911  0.4207
  248MPD1    C4 3762   3.280   4.473   0.100  0.1120 -0.7397  0.3543
  248MPD1    C5 3763   3.403   4.486   0.041 -0.3578 -0.2742 -0.0281
  248MPD1     H 3764   3.093   4.613  17.540  0.8688  0.0110 -0.1390
  248MPD1    H1 3765   3.267   4.438   0.202  0.4999 -1.3093  0.2064
  248MPD1    H2 3766   3.516   4.541  17.567  2.4087 -0.4651  4.3451
  248MPD1    H3 3767   3.496   4.452   0.086 -0.6056 -0.0844  0.6243
  248MPD1     N 3768   3.043   4.514   0.094  0.0484  0.0374 -0.3622
  248MPD1    H5 3769   2.972   4.559   0.036 -1.0841 -0.9019  0.2991
  248MPD1    N1 3770   3.310   4.631  17.403  0.0999  0.1152 -0.3128
  248MPD1    H6 3771   3.228   4.628  17.343 -1.1924  0.6081  1.4566
  248MPD1    H7 3772   3.397   4.599  17.359 -0.6774 -2.6768  0.1877
  249MPD1     C 3773   3.972   2.403   9.019  0.0820  0.1181 -0.3484
  249MPD1    C1 3774   3.952   2.265   9.032  0.6301 -0.0895  0.1117
  249MPD1    C2 3775   4.038   2.206   9.125  0.1069  0.3009 -0.6082
  249MPD1    C3 3776   4.120   2.268   9.211 -0.0322  0.0405 -0.9846
  249MPD1    C4 3777   4.128   2.407   9.209  0.1779 -0.6988 -0.7333
  249MPD1    C5 3778   4.053   2.469   9.108  0.0750 -0.5602  0.0217
  249MPD1     H 3779   4.057   2.100   9.132  0.3257  0.2307 -2.3131
  249MPD1    H1 3780   4.194   2.471   9.265  1.3841  1.4393 -4.5705
  249MPD1    H2 3781   3.931   2.458   8.935  1.2605  0.9647 -0.3728
  249MPD1    H3 3782   4.055   2.578   9.103 -1.0539 -0.4957  0.9872
  249MPD1     N 3783   4.192   2.195   9.309 -0.2713  0.2879 -0.4590
  249MPD1    H5 3784   4.178   2.094   9.313 -1.0549  0.5169  2.3647
  249MPD1    N1 3785   3.900   2.195   8.928 -0.5593  0.2960  0.2833
  249MPD1    H6 3786   3.822   2.252   8.895  1.2619  1.1584 -2.5408
  249MPD1    H7 3787   3.851   2.111   8.958 -0.6588  0.7456  1.3812
  250MPD2     C 3788   0.661   2.402  13.549  0.7104  0.3161 -0.0576
  250MPD2    C1 3789   0.693   2.430  13.416  0.0384  0.1364 -0.2362
  250MPD2    C2 3790   0.632   2.361  13.318  0.6030  0.1557  0.1471
  250MPD2    C3 3791   0.532   2.265  13.346 -0.0842  0.6053 -0.1280
  250MPD2    C4 3792   0.499   2.247  13.470 -0.3092  0.4458 -0.4877
  250MPD2    C5 3793   0.561   2.307  13.572  0.6327 -0.2874  0.1163
  250MPD2     H 3794   0.650   2.386  13.214  0.3318  1.5391  0.4342
  250MPD2    H1 3795   0.412   2.191  13.502 -0.3347  0.4290 -0.5873
  250MPD2    H2 3796   0.695   2.463  13.633  0.9374  1.3821 -0.9317
  250MPD2    H3 3797   0.521   2.301  13.673 -1.3386 -1.7771 -0.7510
  250MPD2     N 3798   0.473   2.190  13.245  0.1059  0.0551  0.0887
  250MPD2    H5 3799   0.388   2.140  13.268  1.8935 -3.2956 -0.4254
  250MPD2    N1 3800   0.784   2.535  13.383  0.3973  0.1565 -0.5815
  250MPD2    H7 3801   0.808   2.603  13.454  0.9221 -1.0218  0.3730
  251TMC3    C1 3802   0.919   2.678  13.244 -0.1741 -0.2748 -0.1467
  251TMC3    C2 3803   0.876   2.789  13.303 -0.1830  0.3408  1.0165
  251TMC3    C3 3804   0.906   2.909  13.254 -0.4582 -0.4339  0.4004
  251TMC3    C4 3805   0.993   2.686  13.124 -0.0620  0.5070  0.0985
  251TMC3    C5 3806   1.014   2.812  13.075 -0.0396  0.4365 -0.2542
  251TMC3    C6 3807   0.972   2.930  13.136  0.1768  0.6671 -0.4122
  251TMC3     C 3808   0.858   2.544  13.268 -0.6913 -0.0767 -0.5690
  251TMC3     O 3809   0.879   2.453  13.188  0.3913  0.2539  0.2764
  251TMC3     H 3810   0.808   2.786  13.387 -0.8925 -0.5366  0.4164
  251TMC3    H1 3811   1.016   2.593  13.074 -1.2292  0.2218  0.0705
  251TMC3    H2 3812   0.993   3.033  13.109 -1.2316  0.9713 -0.3539
  251TMC3    C7 3813   1.090   2.812  12.951 -0.5483  0.3593 -0.2795
  251TMC3    C8 3814   0.838   3.016  13.322  0.7526  0.2999 -0.3169
  251TMC3    O1 3815   1.142   2.708  12.906 -0.0053 -0.8027 -0.8547
  251TMC3    O2 3816   0.816   3.004  13.443  0.3504 -0.0648  0.2952
  252TMC3    C1 3817   1.310   2.798   9.091  1.0856  0.1765 -0.6396
  252TMC3    C2 3818   1.290   2.929   9.134  0.2292 -0.1842 -0.3247
  252TMC3    C3 3819   1.308   2.954   9.271 -0.3198 -0.0546 -0.0814
  252TMC3    C4 3820   1.338   2.702   9.180 -0.3410 -0.3159 -0.3661
  252TMC3    C5 3821   1.358   2.730   9.315 -0.1249 -0.4159  0.4315
  252TMC3    C6 3822   1.345   2.861   9.359  0.4890  0.7160  0.1232
  252TMC3     C 3823   1.294   2.759   8.953  0.0825  0.1438 -0.5472
  252TMC3     O 3824   1.319   2.645   8.921  0.4577 -0.1348 -0.2424
  252TMC3     H 3825   1.287   3.014   9.068 -1.6056  0.2198  0.3021
  252TMC3    H1 3826   1.356   2.601   9.146  0.8670 -0.0409 -0.5327
  252TMC3    H2 3827   1.379   2.891   9.458  2.6945  0.6963 -0.6151
  252TMC3    C7 3828   1.386   2.632   9.424  0.4033  0.3318  0.5350
  252TMC3    C8 3829   1.273   3.089   9.314  0.2452  0.1130 -0.4177
  252TMC3    O1 3830   1.387   2.676   9.540  0.0706 -0.4175  0.9893
  252TMC3    O2 3831   1.202   3.158   9.242  0.0286 -0.0898  0.3921
  253MPD2     C 3832   2.288   2.735  15.305  0.2585  0.3097 -0.4716
  253MPD2    C1 3833   2.160   2.733  15.357  0.5080 -0.1063  0.2083
  253MPD2    C2 3834   2.145   2.723  15.495  0.3740 -0.2335 -0.6367
  253MPD2    C3 3835   2.251   2.732  15.582 -0.5718  0.3892  0.4770
  253MPD2    C4 3836   2.378   2.745  15.533 -0.0034  0.4873  0.7204
  253MPD2    C5 3837   2.396   2.747  15.392 -0.8244  0.1743 -0.1265
  253MPD2     H 3838   2.043   2.721  15.532  0.5757  0.0141 -0.0567
  253MPD2    H1 3839   2.466   2.738  15.595  1.0051  1.1702 -0.6277
  253MPD2    H2 3840   2.307   2.725  15.199  2.4970 -0.3122 -0.0224
  253MPD2    H3 3841   2.500   2.740  15.362 -1.7039 -1.6984 -2.7197
  253MPD2     N 3842   2.235   2.717  15.722  0.4812 -0.3632 -0.1331
  253MPD2    H5 3843   2.321   2.692  15.770  0.2085 -0.2373  0.4124
  253MPD2    N1 3844   2.043   2.713  15.282 -0.1517  0.2967 -0.0759
  253MPD2    H7 3845   1.958   2.690  15.332 -0.0055  0.5082  0.2726
  254TMC3    C1 3846   2.091   2.667  15.909 -0.0152  0.3231 -0.2717
  254TMC3    C2 3847   1.963   2.637  15.931 -0.4117  0.2767 -0.4708
  254TMC3    C3 3848   1.937   2.543  16.025  0.3107  0.0689  1.2425
  254TMC3    C4 3849   2.197   2.627  15.985  0.1933  0.6953  0.2345
  254TMC3    C5 3850   2.169   2.534  16.081 -0.5799  0.3664 -0.0957
  254TMC3    C6 3851   2.039   2.496  16.098 -0.6719  0.3804 -0.3684
  254TMC3     C 3852   2.108   2.729  15.779 -0.3797 -0.3311 -0.6678
  254TMC3     O 3853   2.015   2.798  15.742 -0.3863 -0.1714 -0.3317
  254TMC3     H 3854   1.892   2.665  15.854 -0.4444  0.6502 -0.3065
  254TMC3    H1 3855   2.300   2.659  15.972  0.2653  0.6436  0.7032
  254TMC3    H2 3856   2.013   2.425  16.175  1.2887 -1.0969 -1.0770
  254TMC3    C7 3857   2.236   2.556  16.207  0.3334  0.2989 -0.0354
  254TMC3    C8 3858   1.800   2.540  16.067 -0.1835 -0.0751 -0.6427
  254TMC3    O1 3859   2.184   2.503  16.303  0.4334 -0.2045  0.7930
  254TMC3    O2 3860   1.783   2.510  16.182 -0.3827  0.1005 -0.0858
  255MPD2     C 3861   0.639   0.381  10.497  0.6656 -0.1138 -0.1754
  255MPD2    C1 3862   0.676   0.366  10.364 -0.1438  0.8744 -0.4717
  255MPD2    C2 3863   0.796   0.298  10.343  0.3875  0.1785  0.6582
  255MPD2    C3 3864   0.870   0.250  10.449  0.1755 -0.0706  0.6165
  255MPD2    C4 3865   0.831   0.264  10.583 -0.5511 -0.0654  0.9324
  255MPD2    C5 3866   0.712   0.326  10.602 -0.3788 -0.0207 -0.2630
  255MPD2     H 3867   0.825   0.268  10.243  1.1590  0.4931  0.7889
  255MPD2    H1 3868   0.883   0.215  10.665  1.0371  2.7827  1.6097
  255MPD2    H2 3869   0.543   0.420  10.530  0.9148 -0.9053  1.5072
  255MPD2    H3 3870   0.670   0.344  10.700  1.7769 -1.0381  0.8685
  255MPD2     N 3871   0.984   0.166  10.417 -0.3241  0.5469  0.0499
  255MPD2    H5 3872   1.017   0.174  10.321 -2.5889 -1.0693 -0.8652
  255MPD2    N1 3873   0.594   0.417  10.254  0.4817  0.7013 -0.0265
  255MPD2    H7 3874   0.502   0.454  10.275  0.2349  0.5403 -0.8099
  256TMC3    C1 3875   0.540   0.465  10.029 -0.2898 -0.2193  0.0123
  256TMC3    C2 3876   0.577   0.526   9.916  0.7351 -0.6674 -0.7988
  256TMC3    C3 3877   0.487   0.593   9.834  0.2563 -0.8390  0.0735
  256TMC3    C4 3878   0.406   0.465  10.065 -0.5591 -0.1440 -0.2827
  256TMC3    C5 3879   0.316   0.527   9.984  0.4942 -0.1002  0.0390
  256TMC3    C6 3880   0.352   0.598   9.867 -0.1653 -0.3292 -0.2142
  256TMC3     C 3881   0.641   0.425  10.124 -0.0272  0.2594  0.3603
  256TMC3     O 3882   0.756   0.420  10.092  0.6401  0.1195 -0.5115
  256TMC3     H 3883   0.683   0.521   9.891  1.0594 -0.2856  0.4992
  256TMC3    H1 3884   0.380   0.400  10.148 -1.5332  0.3228 -0.2211
  256TMC3    H2 3885   0.283   0.652   9.803  0.4368 -0.5667 -1.0648
  256TMC3    C7 3886   0.170   0.509  10.008  0.7015 -0.2046 -0.1735
  256TMC3    C8 3887   0.530   0.659   9.708  0.0824 -0.4524  0.3711
  256TMC3    O1 3888   0.089   0.531   9.916 -0.0928 -0.0358 -0.6560
  256TMC3    O2 3889   0.450   0.659   9.614 -0.0875  0.1267  0.0133
  257MPD2     C 3890   4.635   2.611  13.213 -0.5153 -0.5430  0.1811
  257MPD2    C1 3891   4.539   2.549  13.131  0.1200  0.8946 -0.2529
  257MPD2    C2 3892   4.466   2.442  13.187 -0.1667 -0.2886 -0.0192
  257MPD2    C3 3893   4.469   2.421  13.327 -0.3045 -0.4856 -0.4416
  257MPD2    C4 3894   4.552   2.496  13.414  0.7944  0.0943 -0.8634
  257MPD2    C5 3895   4.639   2.588  13.353 -1.0394 -0.4540  0.1544
  257MPD2     H 3896   4.401   2.379  13.127 -1.8233  0.7021  0.7205
  257MPD2    H1 3897   4.559   2.466  13.518  0.5741  0.8995 -0.6202
  257MPD2    H2 3898   4.696   2.688  13.168 -0.6953  0.5565  1.8075
  257MPD2    H3 3899   4.708   2.637  13.421  0.1512 -0.1618 -1.2588
  257MPD2     N 3900   4.378   2.323  13.374  0.6737  0.4550 -0.4087
  257MPD2    H5 3901   4.300   2.297  13.314  0.7578 -0.2880 -0.2002
  257MPD2    N1 3902   4.544   2.584  12.996  0.4868 -0.4891 -1.1060
  257MPD2    H7 3903   4.613   2.657  12.982 -0.6499  0.5800 -1.0696
  258TMC3    C1 3904   4.250   2.197  13.528  0.2036  1.1714  0.0749
  258TMC3    C2 3905   4.160   2.175  13.436 -0.6336  0.0663 -0.1540
  258TMC3    C3 3906   4.059   2.086  13.455  0.4935 -0.0642 -0.0794
  258TMC3    C4 3907   4.235   2.154  13.655  0.1919  0.0529  0.9180
  258TMC3    C5 3908   4.119   2.073  13.679 -0.7820  0.0827  0.1139
  258TMC3    C6 3909   4.029   2.042  13.584  0.4092  0.2481  0.2857
  258TMC3     C 3910   4.373   2.275  13.505 -0.0977  0.5998  1.0175
  258TMC3     O 3911   4.460   2.280  13.591 -0.4519 -0.1424  0.1098
  258TMC3     H 3912   4.175   2.211  13.335  0.6194 -2.8020 -0.9876
  258TMC3    H1 3913   4.305   2.181  13.733 -0.0169  1.2139  0.7093
  258TMC3    H2 3914   3.953   1.967  13.607  2.4662 -1.4873  1.3700
  258TMC3    C7 3915   4.125   1.987  13.796  0.2238 -0.0165 -0.2331
  258TMC3    C8 3916   3.995   2.007  13.351 -0.1971  0.1781  0.2471
  258TMC3    O1 3917   4.019   1.926  13.819  0.2543  0.1394 -0.1366
  258TMC3    O2 3918   3.963   1.893  13.380 -0.2979  0.0940 -0.0137
  259MPD2     C 3919   3.317   4.514   1.398  0.2195  0.1778  0.5677
  259MPD2    C1 3920   3.361   4.379   1.388 -0.4174  0.3589 -0.3593
  259MPD2    C2 3921   3.437   4.339   1.279  0.4722  0.6882 -0.2436
  259MPD2    C3 3922   3.471   4.431   1.184  0.2758  0.2728  0.1736
  259MPD2    C4 3923   3.424   4.564   1.197  0.4672 -0.1674 -0.0503
  259MPD2    C5 3924   3.352   4.604   1.310 -0.0843 -0.0499 -0.4874
  259MPD2     H 3925   3.469   4.237   1.261 -1.0838  0.4494 -1.7459
  259MPD2    H1 3926   3.464   4.639   1.131  2.3397  0.0107  1.3011
  259MPD2    H2 3927   3.250   4.550   1.476  0.8730 -1.0144  1.6754
  259MPD2    H3 3928   3.330   4.709   1.326 -2.3246 -0.6132  0.1678
  259MPD2     N 3929   3.549   4.389   1.072  0.5571  0.1372 -0.4809
  259MPD2    H5 3930   3.552   4.288   1.063 -1.1189  0.1804 -1.6133
  259MPD2    N1 3931   3.311   4.290   1.487 -0.2812 -0.4772 -0.1691
  259MPD2    H7 3932   3.254   4.324   1.564  0.8149  1.1082 -0.0667
  260TMC3    C1 3933   3.643   4.384   0.850 -0.0919  0.0870  0.0540
  260TMC3    C2 3934   3.734   4.442   0.770 -0.1835  0.1848 -0.3203
  260TMC3    C3 3935   3.766   4.376   0.659 -0.6682 -0.1120  0.7723
  260TMC3    C4 3936   3.594   4.259   0.825  0.2619 -0.0301 -0.4429
  260TMC3    C5 3937   3.644   4.189   0.727  0.3154 -0.2713 -0.3442
  260TMC3    C6 3938   3.719   4.247   0.629  0.3540  0.4440  0.1739
  260TMC3     C 3939   3.590   4.461   0.962  0.0586 -0.1004  0.1471
  260TMC3     O 3940   3.620   4.580   0.975  0.1773  0.4807  0.3776
  260TMC3     H 3941   3.760   4.545   0.791 -2.5084  0.4156  1.4196
  260TMC3    H1 3942   3.532   4.207   0.897 -0.2816 -2.2016 -2.5210
  260TMC3    H2 3943   3.733   4.192   0.537  0.7994  0.3156  0.3162
  260TMC3    C7 3944   3.573   4.071   0.691  0.4557 -0.8017 -0.7257
  260TMC3    C8 3945   3.879   4.430   0.577  0.4120 -0.3592 -0.1903
  260TMC3    O1 3946   3.582   4.028   0.579  0.1961  0.2666  0.6972
  260TMC3    O2 3947   3.888   4.551   0.588  0.1067 -0.0636 -0.4263
  261MPD2     C 3948   0.249   2.214  12.434 -0.2299 -0.6168 -0.3891
  261MPD2    C1 3949   0.337   2.251  12.540  0.4100  0.5159  0.4357
  261MPD2    C2 3950   0.421   2.358  12.513  0.1026 -0.8888 -0.0044
  261MPD2    C3 3951   0.421   2.421  12.388 -0.7233  0.1623  1.0235
  261MPD2    C4 3952   0.338   2.376  12.290  0.2746  0.1894 -0.0926
  261MPD2    C5 3953   0.250   2.276  12.312  0.2335  0.1076 -0.3310
  261MPD2     H 3954   0.488   2.393  12.590 -0.0128  0.8296 -0.6712
  261MPD2    H1 3955   0.334   2.427  12.195  1.1654  1.7647  0.7250
  261MPD2    H2 3956   0.173   2.138  12.450 -0.4201 -0.4982 -0.7307
  261MPD2    H3 3957   0.198   2.242  12.223  0.0892  0.0239 -0.2157
  261MPD2     N 3958   0.499   2.530  12.351 -1.1186 -0.1575 -0.4717
  261MPD2    H5 3959   0.526   2.556  12.256 -0.1007  1.7424  0.3315
  261MPD2    N1 3960   0.350   2.184  12.657  0.3532 -0.2713 -0.2410
  261MPD2    H7 3961   0.433   2.214  12.708 -0.3903 -0.2338  0.9275
  262TMC3    C1 3962   0.610   2.738  12.376 -0.3619  0.3005 -0.4468
  262TMC3    C2 3963   0.528   2.855  12.362 -0.6840 -0.1671 -0.2016
  262TMC3    C3 3964   0.551   2.930  12.252  0.2035  0.4339  0.2833
  262TMC3    C4 3965   0.699   2.703  12.282  0.2481 -0.1967 -0.4572
  262TMC3    C5 3966   0.727   2.793  12.181  0.4280 -0.9479 -0.0476
  262TMC3    C6 3967   0.658   2.907  12.170  0.4619  0.5919 -0.3850
  262TMC3     C 3968   0.536   2.625  12.440 -0.2551  0.1627  0.4512
  262TMC3     O 3969   0.487   2.650  12.552  0.4470  0.0651 -0.7060
  262TMC3     H 3970   0.441   2.858  12.426  0.3844 -0.2800  1.2487
  262TMC3    H1 3971   0.750   2.608  12.281  0.2988 -0.2116  1.8783
  262TMC3    H2 3972   0.681   2.964  12.081  1.5869  1.8193  0.6954
  262TMC3    C7 3973   0.784   2.736  12.063 -0.6492 -0.9683 -0.2279
  262TMC3    C8 3974   0.442   2.999  12.178 -0.7924 -0.0413  0.1212
  262TMC3    O1 3975   0.868   2.649  12.092  0.6638  0.3741 -0.0531
  262TMC3    O2 3976   0.478   3.062  12.079 -0.0960  0.1449  0.7353
  263MPD2     C 3977   1.366   1.337  11.524  0.4247 -0.5836 -0.2908
  263MPD2    C1 3978   1.478   1.357  11.454 -0.2491 -0.7503  0.2156
  263MPD2    C2 3979   1.472   1.377  11.316 -0.3964 -0.1274  0.5841
  263MPD2    C3 3980   1.353   1.392  11.252  0.1360 -0.2696 -0.0269
  263MPD2    C4 3981   1.245   1.374  11.328  0.3968  0.1201  0.7438
  263MPD2    C5 3982   1.250   1.348  11.461 -0.3669  0.1517 -0.1605
  263MPD2     H 3983   1.562   1.379  11.255 -1.5396  2.4508 -0.9868
  263MPD2    H1 3984   1.147   1.380  11.281 -0.0716  3.8520  2.1905
  263MPD2    H2 3985   1.370   1.319  11.631 -0.3080 -2.5510 -0.5992
  263MPD2    H3 3986   1.156   1.339  11.513  0.7442 -0.9197  1.6260
  263MPD2     N 3987   1.355   1.429  11.114 -1.1685 -0.1022 -0.0539
  263MPD2    H5 3988   1.445   1.463  11.083 -0.4421 -1.6977  0.3660
  263MPD2    N1 3989   1.597   1.339  11.524  0.5098 -0.4559  0.0733
  263MPD2    H7 3990   1.591   1.319  11.623  2.2218  2.5184  0.7424
  264TMC3    C1 3991   1.270   1.544  10.925 -0.4472  0.7188  0.4068
  264TMC3    C2 3992   1.169   1.632  10.918 -0.2342  0.0590 -0.5010
  264TMC3    C3 3993   1.213   1.755  10.882 -0.4313  0.2146 -0.6802
  264TMC3    C4 3994   1.400   1.572  10.885 -0.3432  0.0036  0.3887
  264TMC3    C5 3995   1.421   1.688  10.822  0.6152  0.7016  0.1927
  264TMC3    C6 3996   1.328   1.781  10.821  0.0340  0.9377 -0.1619
  264TMC3     C 3997   1.245   1.445  11.030  0.2609  0.4477  0.6124
  264TMC3     O 3998   1.128   1.434  11.058  0.3698  0.5994 -0.7646
  264TMC3     H 3999   1.069   1.612  10.954  0.1527 -0.8986  0.0265
  264TMC3    H1 4000   1.473   1.492  10.884  0.0205  0.3482 -0.3229
  264TMC3    H2 4001   1.347   1.882  10.786  1.4257  0.7411  0.0200
  264TMC3    C7 4002   1.535   1.698  10.731  0.5930 -0.1379  0.2456
  264TMC3    C8 4003   1.110   1.852  10.852  0.2738 -0.4758  0.0707
  264TMC3    O1 4004   1.600   1.593  10.718  0.7106 -0.6040  0.5153
  264TMC3    O2 4005   1.071   1.844  10.733 -0.1060 -0.6233  0.0024
  265MPD2     C 4006   3.236   1.895  15.862  0.5600 -0.9281 -0.8772
  265MPD2    C1 4007   3.281   2.021  15.823  0.2966  0.1879  1.3970
  265MPD2    C2 4008   3.335   2.034  15.699  0.0553 -0.0916 -0.8427
  265MPD2    C3 4009   3.344   1.928  15.618 -0.7897 -0.2356  0.6090
  265MPD2    C4 4010   3.293   1.805  15.655  0.0575 -0.2208 -0.0942
  265MPD2    C5 4011   3.242   1.792  15.779 -0.1604 -0.2592  0.0666
  265MPD2     H 4012   3.355   2.136  15.669  1.9218  0.4005  2.1057
  265MPD2    H1 4013   3.299   1.726  15.581 -0.3960 -1.5412  1.2704
  265MPD2    H2 4014   3.181   1.879  15.954  1.4146  0.9140 -0.0557
  265MPD2    H3 4015   3.202   1.695  15.808 -0.2375  0.3373  1.9414
  265MPD2     N 4016   3.388   1.921  15.482 -0.0716  0.5997 -0.7598
  265MPD2    H5 4017   3.363   1.838  15.429 -0.7720  0.5618 -0.3588
  265MPD2    N1 4018   3.271   2.136  15.913 -0.3652 -0.1612 -0.3194
  265MPD2    H7 4019   3.304   2.229  15.888  1.7125 -0.8288 -0.0335
  266TMC3    C1 4020   3.215   2.265  16.098  0.0613  0.0435 -0.2616
  266TMC3    C2 4021   3.197   2.278  16.237 -0.0956  0.0186  0.5918
  266TMC3    C3 4022   3.144   2.392  16.279 -0.3960 -0.3038 -0.1145
  266TMC3    C4 4023   3.182   2.367  16.015  0.6871 -0.0654  0.4953
  266TMC3    C5 4024   3.125   2.476  16.072 -0.6553  0.0384 -0.3837
  266TMC3    C6 4025   3.117   2.499  16.205 -0.2448  0.2501 -0.0606
  266TMC3     C 4026   3.213   2.138  16.041  0.6247 -0.1721 -0.1576
  266TMC3     O 4027   3.168   2.046  16.110  0.8161 -0.3350 -0.0979
  266TMC3     H 4028   3.214   2.192  16.299 -0.3961 -0.8983 -0.5886
  266TMC3    H1 4029   3.175   2.349  15.908  0.0846  3.1724 -0.0269
  266TMC3    H2 4030   3.071   2.585  16.251  0.9709  1.3991 -1.0036
  266TMC3    C7 4031   3.049   2.560  15.983 -0.3918 -0.7461  0.6265
  266TMC3    C8 4032   3.140   2.407  16.419 -0.8300 -0.1633 -0.0118
  266TMC3    O1 4033   3.076   2.539  15.865 -0.1970  0.0407 -0.2080
  266TMC3    O2 4034   3.087   2.319  16.489  0.2159 -0.6590  0.4997
  267MPD2     C 4035   1.004   3.763   0.755 -1.1569  0.7488  0.6912
  267MPD2    C1 4036   1.018   3.857   0.653 -0.1352  0.3076  0.4909
  267MPD2    C2 4037   0.942   3.839   0.536 -0.2995  0.6145 -0.1983
  267MPD2    C3 4038   0.848   3.737   0.530 -0.4718 -0.7995 -0.1019
  267MPD2    C4 4039   0.828   3.649   0.631 -0.3108  0.0430 -0.1548
  267MPD2    C5 4040   0.909   3.663   0.747 -0.0253 -0.1331 -0.3862
  267MPD2     H 4041   0.945   3.914   0.458 -2.5790  0.4805 -0.4366
  267MPD2    H1 4042   0.754   3.570   0.624 -0.5222  0.4792 -2.9650
  267MPD2    H2 4043   1.065   3.757   0.845  0.8981  2.3478 -0.6029
  267MPD2    H3 4044   0.896   3.589   0.824  0.2938  2.1731  1.8817
  267MPD2     N 4045   0.767   3.716   0.418  0.4894 -0.4588  0.1398
  267MPD2    H5 4046   0.693   3.647   0.423  0.7476 -0.7698 -0.3605
  267MPD2    N1 4047   1.127   3.951   0.663  0.1858  0.2870  0.4311
  267MPD2    H7 4048   1.187   3.953   0.745  1.2204  0.1845 -0.3183
  268TMC3    C1 4049   1.259   4.140   0.632  0.6518 -0.5901  0.1315
  268TMC3    C2 4050   1.261   4.264   0.586 -0.2253 -0.6291  0.7910
  268TMC3    C3 4051   1.378   4.328   0.626 -0.0236 -0.1319 -0.4178
  268TMC3    C4 4052   1.351   4.083   0.715  0.2783 -0.0761  0.9909
  268TMC3    C5 4053   1.454   4.158   0.751  0.1424  0.8947  0.4069
  268TMC3    C6 4054   1.472   4.285   0.713  0.3556  0.4630  0.8693
  268TMC3     C 4055   1.141   4.065   0.587  0.7330  0.2295  0.1398
  268TMC3     O 4056   1.078   4.109   0.493  0.3336  0.0388  0.5076
  268TMC3     H 4057   1.170   4.317   0.562  2.0999  1.4668 -3.3659
  268TMC3    H1 4058   1.342   3.977   0.735 -0.0323  0.2538  2.5704
  268TMC3    H2 4059   1.557   4.345   0.743 -0.9076  2.9104 -0.4097
  268TMC3    C7 4060   1.522   4.114   0.870  0.0087 -0.2977 -0.0864
  268TMC3    C8 4061   1.394   4.462   0.581 -0.5318 -0.4023 -0.3028
  268TMC3    O1 4062   1.522   3.993   0.894  0.0933 -0.0361 -0.4290
  268TMC3    O2 4063   1.472   4.537   0.637  0.1323 -0.1294  0.3803
  269MPD2     C 4064   0.936   2.624  15.777 -0.2612  0.1930 -0.3575
  269MPD2    C1 4065   0.806   2.656  15.804  0.2236  0.5351  0.2253
  269MPD2    C2 4066   0.755   2.785  15.768  0.8374  0.0874  0.1177
  269MPD2    C3 4067   0.834   2.879  15.704 -0.5754  0.2351  0.8362
  269MPD2    C4 4068   0.966   2.843  15.692  0.0681 -0.3832 -0.1393
  269MPD2    C5 4069   1.020   2.720  15.730 -0.1932 -0.7447 -0.5593
  269MPD2     H 4070   0.653   2.812  15.792  0.4816 -0.2805 -0.9612
  269MPD2    H1 4071   1.030   2.904  15.629 -0.5007  0.1259 -0.2135
  269MPD2    H2 4072   0.977   2.528  15.804  1.9697  1.4094  0.5972
  269MPD2    H3 4073   1.122   2.700  15.702 -0.6827 -1.5471 -1.7795
  269MPD2     N 4074   0.777   3.000  15.666  0.4528  0.9555 -0.2168
  269MPD2    H5 4075   0.683   3.017  15.702  0.4255  0.2371  0.0491
  269MPD2    N1 4076   0.724   2.554  15.862 -0.1355 -0.0584  0.0394
  269MPD2    H7 4077   0.764   2.461  15.856  0.2079  0.1585 -1.0966
  270TMC3    C1 4078   0.525   2.436  15.921  0.9636  0.1154 -0.6361
  270TMC3    C2 4079   0.412   2.411  15.850 -0.1920  0.6747  0.6334
  270TMC3    C3 4080   0.372   2.277  15.833 -0.3616  0.1730 -0.3883
  270TMC3    C4 4081   0.591   2.333  15.977  0.4627 -0.5931  0.0154
  270TMC3    C5 4082   0.539   2.204  15.972  0.0309 -0.3377 -0.0368
  270TMC3    C6 4083   0.434   2.171  15.890 -0.4025  0.1340 -0.2449
  270TMC3     C 4084   0.592   2.565  15.898  0.0770  0.9159  0.4028
  270TMC3     O 4085   0.520   2.665  15.884 -0.1662 -0.0199 -0.3923
  270TMC3     H 4086   0.355   2.488  15.800  0.4348  2.2897  2.4006
  270TMC3    H1 4087   0.688   2.343  16.025 -0.8664  1.3934  2.2854
  270TMC3    H2 4088   0.395   2.072  15.868  1.1183 -0.3953 -0.5394
  270TMC3    C7 4089   0.645   2.102  15.993  0.1263  0.3731 -0.2913
  270TMC3    C8 4090   0.291   2.240  15.715  0.5391  0.0138 -0.5193
  270TMC3    O1 4091   0.762   2.129  16.018  0.0085 -0.1903  0.3410
  270TMC3    O2 4092   0.200   2.313  15.679  0.0545  0.0056  0.5582
  271MPD2     C 4093   0.018   2.635  14.204 -0.1283  1.1653  0.6451
  271MPD2    C1 4094   4.684   2.509  14.204  0.9058  0.2189 -0.1291
  271MPD2    C2 4095   4.554   2.500  14.147 -0.2103  0.3523  0.1306
  271MPD2    C3 4096   4.492   2.599  14.080 -1.0541  0.1320 -0.1652
  271MPD2    C4 4097   4.553   2.725  14.086 -0.2773 -0.8018 -0.1432
  271MPD2    C5 4098   4.672   2.743  14.150  0.4254 -0.2805 -0.0279
  271MPD2     H 4099   4.507   2.402  14.150  0.3878  0.0600  0.2091
  271MPD2    H1 4100   4.497   2.812  14.056  2.2074  1.5381  2.0031
  271MPD2    H2 4101   0.113   2.650  14.255  0.6423  0.4241 -0.5579
  271MPD2    H3 4102   4.701   2.845  14.173 -0.3634  0.7193 -3.4853
  271MPD2     N 4103   4.360   2.587  14.030 -0.6449 -0.6515 -0.1932
  271MPD2    H5 4104   4.304   2.670  14.016 -0.3962 -0.3182  0.8728
  271MPD2    N1 4105   0.025   2.397  14.269 -0.4118 -0.2004  0.1138
  271MPD2    H7 4106   4.686   2.317  14.287 -0.3324  0.2689  2.5387
  272TMC3    C1 4107   0.171   2.267  14.383 -0.3691  0.1214 -0.2093
  272TMC3    C2 4108   0.290   2.208  14.364 -0.1785 -0.1686  0.2816
  272TMC3    C3 4109   0.354   2.145  14.466  0.3775 -1.4992  0.0200
  272TMC3    C4 4110   0.114   2.272  14.510 -0.0797  0.7805 -0.1851
  272TMC3    C5 4111   0.177   2.206  14.612  0.2569  0.5199  0.4908
  272TMC3    C6 4112   0.291   2.137  14.589 -0.0793  0.6075 -0.0286
  272TMC3     C 4113   0.154   2.389  14.313  0.3870 -0.4481 -0.1773
  272TMC3     O 4114   0.246   2.473  14.329  0.2188  0.4449  0.0444
  272TMC3     H 4115   0.324   2.182  14.265  0.4973 -1.8404  0.9403
  272TMC3    H1 4116   0.030   2.335  14.534 -0.3050  0.1652  0.6383
  272TMC3    H2 4117   0.325   2.085  14.678  0.5542  1.1863  0.0661
  272TMC3    C7 4118   0.125   2.207  14.747 -0.1133  0.6007 -0.1301
  272TMC3    C8 4119   0.457   2.053  14.435  0.1518  0.2747 -0.1754
  272TMC3    O1 4120   0.005   2.203  14.754  0.5819 -0.1660  0.3230
  272TMC3    O2 4121   0.499   2.041  14.315  0.1900  0.4637  0.5927
  273MPD2     C 4122   1.296   0.659  11.755  0.2305  0.4679  0.3438
  273MPD2    C1 4123   1.423   0.611  11.764  0.1712  0.2919 -0.0959
  273MPD2    C2 4124   1.454   0.508  11.677 -0.4943  0.5990  0.2716
  273MPD2    C3 4125   1.370   0.469  11.578  0.6959 -0.6969 -0.8209
  273MPD2    C4 4126   1.237   0.513  11.582 -0.4625  0.4977  0.3826
  273MPD2    C5 4127   1.199   0.609  11.667  0.7565 -0.7160 -0.1272
  273MPD2     H 4128   1.553   0.463  11.674 -0.1828  1.4548 -2.2937
  273MPD2    H1 4129   1.159   0.457  11.532  1.5408 -0.4142 -1.7184
  273MPD2    H2 4130   1.276   0.736  11.828 -0.4588  1.1109 -0.5318
  273MPD2    H3 4131   1.095   0.639  11.669  0.7967 -0.4585 -1.9118
  273MPD2     N 4132   1.402   0.379  11.476 -0.1500 -0.2335  0.7093
  273MPD2    H5 4133   1.337   0.373  11.398 -1.8124 -0.9643  2.1557
  273MPD2    N1 4134   1.509   0.668  11.854 -0.5753 -0.5046  0.1945
  273MPD2    H7 4135   1.485   0.743  11.918  0.4850 -0.1902  0.2256
  274TMC3    C1 4136   1.548   0.282  11.321  0.2871 -0.1018 -1.0171
  274TMC3    C2 4137   1.440   0.287  11.229  0.0182 -0.4780 -0.1577
  274TMC3    C3 4138   1.468   0.329  11.098 -0.0381  0.2212 -0.6570
  274TMC3    C4 4139   1.669   0.333  11.289  1.1707 -0.4004 -0.3877
  274TMC3    C5 4140   1.686   0.390  11.161  0.9934  0.7321 -0.0596
  274TMC3    C6 4141   1.592   0.372  11.060  1.0581  0.4351  0.1422
  274TMC3     C 4142   1.519   0.307  11.460  0.1474 -0.8145  0.5134
  274TMC3     O 4143   1.607   0.284  11.538  0.3782 -0.0150 -0.4335
  274TMC3     H 4144   1.338   0.261  11.252 -0.1264  0.9370  0.7870
  274TMC3    H1 4145   1.743   0.343  11.368  0.7390 -1.0910  0.1055
  274TMC3    H2 4146   1.603   0.440  10.976 -0.2548  3.3540  2.3544
  274TMC3    C7 4147   1.813   0.448  11.141 -0.5430  0.0694  0.3834
  274TMC3    C8 4148   1.358   0.351  11.006  0.3929  0.1631 -0.0339
  274TMC3    O1 4149   1.853   0.451  11.024 -0.1151  0.3293  0.4704
  274TMC3    O2 4150   1.246   0.367  11.061 -0.4995 -0.4846 -0.7044
  275MPD2     C 4151   1.587   3.168  14.373 -0.4159  0.1615 -0.2499
  275MPD2    C1 4152   1.537   3.244  14.473  0.4506 -0.3471  0.2511
  275MPD2    C2 4153   1.419   3.220  14.524 -0.0009  0.4409  0.2345
  275MPD2    C3 4154   1.330   3.127  14.479  1.2923 -1.0673  0.0940
  275MPD2    C4 4155   1.380   3.040  14.379 -0.3416 -0.7681  0.0579
  275MPD2    C5 4156   1.508   3.062  14.330 -0.2593 -0.3815  0.4467
  275MPD2     H 4157   1.397   3.287  14.606  0.7163 -0.9289  1.5423
  275MPD2    H1 4158   1.327   2.955  14.337  2.1020 -1.2987 -2.0014
  275MPD2    H2 4159   1.691   3.172  14.344 -0.8067 -2.1046 -1.9593
  275MPD2    H3 4160   1.552   3.007  14.247 -0.6970 -1.9807  1.2626
  275MPD2     N 4161   1.205   3.102  14.541  0.2852 -0.4636  0.5210
  275MPD2    H5 4162   1.148   3.029  14.500 -0.9088 -0.0975  1.5613
  275MPD2    N1 4163   1.594   3.366  14.526  0.0197  0.9911 -0.0546
  275MPD2    H7 4164   1.548   3.404  14.608 -0.5619  1.9335 -0.8080
  276TMC3    C1 4165   1.725   3.537  14.590  0.3344 -0.0044 -0.2874
  276TMC3    C2 4166   1.615   3.585  14.660 -0.5084 -0.7505 -0.3854
  276TMC3    C3 4167   1.639   3.634  14.788  0.0375  0.2444 -0.0028
  276TMC3    C4 4168   1.856   3.565  14.617 -0.1798 -0.0246  0.4924
  276TMC3    C5 4169   1.868   3.640  14.733  0.4505 -1.2457 -0.0126
  276TMC3    C6 4170   1.764   3.683  14.817  0.2037 -0.0961 -0.0376
  276TMC3     C 4171   1.707   3.427  14.493  0.4208  0.2287 -0.1574
  276TMC3     O 4172   1.798   3.381  14.428 -0.2724 -0.2837  0.3343
  276TMC3     H 4173   1.512   3.564  14.635 -0.7456  1.1958 -1.0634
  276TMC3    H1 4174   1.932   3.511  14.562  1.6338  1.7781  1.2100
  276TMC3    H2 4175   1.784   3.728  14.913 -1.6822  0.5458  0.0551
  276TMC3    C7 4176   2.001   3.662  14.788  0.5224  0.2332  0.1914
  276TMC3    C8 4177   1.594   3.524  14.876 -0.4210  0.1130  0.4220
  276TMC3    O1 4178   2.005   3.715  14.897 -0.1214 -0.0101 -0.8633
  276TMC3    O2 4179   1.546   3.423  14.821 -0.3503  0.5906  0.5538
  277MPD2     C 4180   3.521   2.264  13.086 -0.8725  0.5823 -0.4417
  277MPD2    C1 4181   3.407   2.336  13.079 -0.2618  0.7490  0.2708
  277MPD2    C2 4182   3.307   2.289  13.159  0.3925  0.2646  0.3071
  277MPD2    C3 4183   3.305   2.176  13.235 -0.0919  0.0953  0.7553
  277MPD2    C4 4184   3.418   2.100  13.227 -0.4511  0.3612  0.9714
  277MPD2    C5 4185   3.530   2.145  13.153 -0.4046  0.0458 -0.0379
  277MPD2     H 4186   3.222   2.356  13.169  0.7612  0.6512  0.8789
  277MPD2    H1 4187   3.425   2.007  13.282 -0.9103  0.5249  1.3112
  277MPD2    H2 4188   3.607   2.293  13.027  0.7363 -0.7278  1.2304
  277MPD2    H3 4189   3.619   2.083  13.153 -0.2714  0.2376  2.3554
  277MPD2     N 4190   3.191   2.135  13.306  0.1569  0.6657  0.1139
  277MPD2    H5 4191   3.102   2.172  13.276 -0.7455  0.0157  1.9733
  277MPD2    N1 4192   3.406   2.449  12.990  0.6500 -0.2307 -0.4657
  277MPD2    H7 4193   3.495   2.491  12.964 -0.2022  1.4663 -0.6887
  278TMC3    C1 4194   3.030   1.992  13.399 -0.1544 -0.8745 -0.3669
  278TMC3    C2 4195   3.001   1.855  13.415 -0.5754  0.2535  0.1481
  278TMC3    C3 4196   2.870   1.818  13.424 -0.8398 -0.5125 -0.2361
  278TMC3    C4 4197   2.932   2.083  13.419 -0.0203  0.9378 -0.4618
  278TMC3    C5 4198   2.802   2.045  13.446 -0.1916 -0.2497 -0.0859
  278TMC3    C6 4199   2.772   1.914  13.451  0.2003  1.1500 -0.5382
  278TMC3     C 4200   3.173   2.022  13.382  0.2603  0.4261 -0.2025
  278TMC3     O 4201   3.254   1.940  13.428  0.4683  0.4055  0.1495
  278TMC3     H 4202   3.081   1.783  13.400 -0.0239  0.7810  0.5337
  278TMC3    H1 4203   2.946   2.190  13.424 -0.3022  0.8977  1.0913
  278TMC3    H2 4204   2.672   1.872  13.460 -0.4460  2.7356 -0.3942
  278TMC3    C7 4205   2.701   2.139  13.412 -0.0838  0.1109 -0.0169
  278TMC3    C8 4206   2.821   1.686  13.440 -0.4906 -0.0441 -0.1128
  278TMC3    O1 4207   2.746   2.227  13.337  0.8926 -0.2010  0.2084
  278TMC3    O2 4208   2.715   1.659  13.495  0.1400  0.2756  0.2666
  279MPD2     C 4209   2.225   1.905   0.319 -0.4975  0.8651 -0.5141
  279MPD2    C1 4210   2.192   2.029   0.380 -0.3989  0.2480 -0.2106
  279MPD2    C2 4211   2.281   2.131   0.367 -0.4963 -0.1009 -0.2090
  279MPD2    C3 4212   2.392   2.120   0.291 -0.5006 -0.6999  0.1655
  279MPD2    C4 4213   2.428   2.003   0.230  0.0523 -0.3883 -0.1924
  279MPD2    C5 4214   2.335   1.903   0.244 -0.2647  0.0870 -0.2625
  279MPD2     H 4215   2.259   2.227   0.412  0.1827 -0.6994  1.4304
  279MPD2    H1 4216   2.515   1.982   0.169 -0.2412 -1.0588 -0.3746
  279MPD2    H2 4217   2.162   1.818   0.324  2.2090 -0.9240  2.1676
  279MPD2    H3 4218   2.353   1.812   0.188  0.0464 -0.0078 -0.0041
  279MPD2     N 4219   2.471   2.236   0.269 -0.1799  0.2232  0.3146
  279MPD2    H5 4220   2.553   2.218   0.212 -0.8181  4.1399 -1.8299
  279MPD2    N1 4221   2.085   2.061   0.467 -0.5209 -0.2187 -0.4297
  279MPD2    H7 4222   2.084   2.159   0.492  0.9549 -0.0146 -1.1846
  280TMC3    C1 4223   1.869   2.041   0.563 -0.4896  0.0835 -0.5083
  280TMC3    C2 4224   1.778   1.957   0.630 -0.1200 -0.3376 -0.2271
  280TMC3    C3 4225   1.661   2.026   0.662 -0.2540 -0.8763 -0.3131
  280TMC3    C4 4226   1.847   2.172   0.522 -0.5183 -0.2225 -0.4834
  280TMC3    C5 4227   1.732   2.234   0.556  0.3765 -0.2792 -0.4679
  280TMC3    C6 4228   1.643   2.163   0.633 -0.6425 -0.0816  0.0229
  280TMC3     C 4229   1.982   1.975   0.506 -0.4643  0.1328 -0.3480
  280TMC3     O 4230   1.971   1.859   0.472  0.0531  0.0547 -0.0929
  280TMC3     H 4231   1.802   1.853   0.644  1.4462 -0.0621 -0.8572
  280TMC3    H1 4232   1.925   2.241   0.491  0.8960 -1.9592 -0.8110
  280TMC3    H2 4233   1.549   2.203   0.670 -0.0894 -0.0675  1.4328
  280TMC3    C7 4234   1.712   2.373   0.537 -0.1228 -0.1432 -0.6587
  280TMC3    C8 4235   1.537   1.960   0.711 -0.7193  0.1498  0.0643
  280TMC3    O1 4236   1.593   2.394   0.540  0.2676  0.1501  0.2860
  280TMC3    O2 4237   1.428   2.013   0.687  0.7678  0.2801 -0.1015
  281TMC3    C1 4238   1.539   2.710  12.962  0.0756  0.5193  0.6857
  281TMC3    C2 4239   1.544   2.762  12.834 -0.6799  0.0594 -0.3654
  281TMC3    C3 4240   1.491   2.690  12.732  0.0498 -0.9305 -0.3468
  281TMC3    C4 4241   1.483   2.589  12.990  0.6290 -0.1186 -0.7366
  281TMC3    C5 4242   1.433   2.520  12.880 -0.1285 -0.1722  0.8200
  281TMC3    C6 4243   1.443   2.561  12.746  0.2575  0.0145  0.1201
  281TMC3     C 4244   1.559   2.799  13.073  0.0296  0.3342 -0.3119
  281TMC3     O 4245   1.632   2.748  13.159  0.6073 -0.1875  0.2766
  281TMC3     H 4246   1.582   2.862  12.817 -0.6485 -0.0744 -1.0799
  281TMC3    H1 4247   1.460   2.566  13.093  1.5354 -2.5484 -1.0877
  281TMC3    H2 4248   1.392   2.520  12.660  1.2643  0.4465 -0.6700
  281TMC3    C7 4249   1.339   2.414  12.920 -0.0575 -0.3415  0.2036
  281TMC3    C8 4250   1.493   2.744  12.600  0.4332  0.0960 -0.0690
  281TMC3    O1 4251   1.331   2.383  13.038  0.1292  0.0447 -0.9300
  281TMC3    O2 4252   1.522   2.669  12.509 -0.2593  0.4203  0.0031
  282MPD2     C 4253   2.893   4.106  15.459  0.6098 -0.2688 -0.9523
  282MPD2    C1 4254   2.785   4.192  15.426  0.2592 -0.3092 -0.5356
  282MPD2    C2 4255   2.769   4.236  15.292  0.6306 -0.7678  0.3361
  282MPD2    C3 4256   2.845   4.179  15.183 -0.5552  0.2781 -0.0831
  282MPD2    C4 4257   2.948   4.099  15.222  0.4317 -0.4461  0.0206
  282MPD2    C5 4258   2.972   4.066  15.353 -0.1201 -0.3598 -0.0751
  282MPD2     H 4259   2.685   4.295  15.257  0.1152 -2.7160 -1.7290
  282MPD2    H1 4260   3.014   4.062  15.144  0.5210 -1.1716  0.4437
  282MPD2    H2 4261   2.929   4.099  15.560 -0.7339 -3.7156 -0.7217
  282MPD2    H3 4262   3.066   4.012  15.365 -0.4005 -0.4532  1.6551
  282MPD2     N 4263   2.806   4.201  15.046 -0.1220  0.4002  0.0807
  282MPD2    H5 4264   2.723   4.258  15.033  1.7865  3.1853 -0.0118
  282MPD2    N1 4265   2.708   4.251  15.527  0.2209  0.1684  0.3299
  282MPD2    H7 4266   2.646   4.326  15.498 -1.5999 -1.8460 -0.9902
  283TMC3    C1 4267   2.634   4.308  15.746  0.0548  0.1276 -0.1640
  283TMC3    C2 4268   2.632   4.435  15.710 -0.3403 -0.2073  0.1228
  283TMC3    C3 4269   2.579   4.517  15.807  0.4618 -0.5030 -0.3396
  283TMC3    C4 4270   2.588   4.253  15.867  0.9740 -0.4450  0.4247
  283TMC3    C5 4271   2.522   4.333  15.955 -0.1229  0.5655  0.5358
  283TMC3    C6 4272   2.517   4.464  15.922  0.0923  0.1483  0.5919
  283TMC3     C 4273   2.705   4.213  15.663  0.8117  0.7953 -0.5785
  283TMC3     O 4274   2.754   4.116  15.726 -0.4810  0.0497 -0.5161
  283TMC3     H 4275   2.670   4.472  15.615  1.2918 -4.9456 -1.0864
  283TMC3    H1 4276   2.601   4.147  15.884 -1.8461 -1.1586 -1.8182
  283TMC3    H2 4277   2.468   4.533  15.990 -1.6816  0.8514 -1.3894
  283TMC3    C7 4278   2.458   4.286  16.076 -0.4613  0.2354 -0.4608
  283TMC3    C8 4279   2.602   4.658  15.800 -0.2651  0.2264  0.3506
  283TMC3    O1 4280   2.399   4.371  16.140  0.2964 -0.7760 -0.1155
  283TMC3    O2 4281   2.523   0.003  15.867  0.0000 -0.3963 -0.3568
  284MPD2     C 4282   1.206   3.302  11.877  0.3848  0.3660  0.1527
  284MPD2    C1 4283   1.320   3.224  11.862 -0.2419  0.0690  0.2161
  284MPD2    C2 4284   1.394   3.181  11.976 -0.4386  0.7878 -0.0148
  284MPD2    C3 4285   1.355   3.222  12.107 -0.4363 -0.6361  0.1208
  284MPD2    C4 4286   1.239   3.303  12.119  0.1498 -0.6289  0.3308
  284MPD2    C5 4287   1.165   3.337  12.005  0.0726 -0.7268 -0.6727
  284MPD2     H 4288   1.482   3.119  11.968 -0.8050 -0.0208  2.1964
  284MPD2    H1 4289   1.211   3.320  12.223 -1.1090  0.2768 -0.1700
  284MPD2    H2 4290   1.139   3.318  11.793  0.9946  1.4680 -0.1259
  284MPD2    H3 4291   1.073   3.393  12.018  1.6370  2.0241 -1.3351
  284MPD2     N 4292   1.426   3.186  12.230  0.0822 -0.6522  0.5490
  284MPD2    H5 4293   1.382   3.218  12.316  0.1059 -1.4301  0.8534
  284MPD2    N1 4294   1.362   3.201  11.731 -0.4750  0.3125  0.1211
  284MPD2    H7 4295   1.311   3.242  11.653 -1.2780 -0.3596  0.2853
  285TMC3    C1 4296   1.510   3.160  11.555 -0.8593  0.2105 -0.3795
  285TMC3    C2 4297   1.556   3.049  11.485  0.2595 -0.6265 -0.0742
  285TMC3    C3 4298   1.598   3.078  11.359  0.0891 -0.2224 -0.2519
  285TMC3    C4 4299   1.511   3.287  11.513  0.0421 -0.2380 -0.3086
  285TMC3    C5 4300   1.544   3.307  11.386  0.2381  0.3728  0.1627
  285TMC3    C6 4301   1.596   3.203  11.304 -0.5668  0.6387  0.0703
  285TMC3     C 4302   1.479   3.141  11.693 -0.4059 -0.1808 -0.9916
  285TMC3     O 4303   1.568   3.084  11.758  0.1274  0.6780 -0.0427
  285TMC3     H 4304   1.557   2.946  11.518 -2.6633 -0.4674  0.4857
  285TMC3    H1 4305   1.482   3.375  11.570 -1.2364 -2.7574  2.9127
  285TMC3    H2 4306   1.625   3.227  11.202 -2.8455 -1.5684 -1.1230
  285TMC3    C7 4307   1.533   3.441  11.336  0.3029 -0.5231 -0.5673
  285TMC3    C8 4308   1.665   2.961  11.284 -0.4967  0.0225  0.2971
  285TMC3    O1 4309   1.535   3.533  11.413  0.2885 -0.2519 -0.1926
  285TMC3    O2 4310   1.672   2.857  11.345 -0.0219 -0.5690  0.1307
  286MPD2     C 4311   1.595   2.042   1.703  0.3134  0.2592  0.2451
  286MPD2    C1 4312   1.578   2.051   1.572  0.2986  0.3123 -0.2831
  286MPD2    C2 4313   1.679   2.011   1.490  0.7173 -0.7146  0.0415
  286MPD2    C3 4314   1.804   1.966   1.549 -0.0679  0.4939  0.0539
  286MPD2    C4 4315   1.814   1.954   1.686  0.8154 -0.9134 -0.4348
  286MPD2    C5 4316   1.715   1.996   1.765 -0.2019  0.5050  0.0769
  286MPD2     H 4317   1.664   2.034   1.386 -0.2258 -1.8583 -0.0842
  286MPD2    H1 4318   1.904   1.927   1.739  1.5020 -3.9498 -3.1419
  286MPD2    H2 4319   1.523   2.079   1.774  0.9434  0.6115  0.7051
  286MPD2    H3 4320   1.726   1.998   1.873 -0.6722  0.8344  0.1159
  286MPD2     N 4321   1.911   1.925   1.471 -0.1139 -0.7019 -1.1131
  286MPD2    H5 4322   1.986   1.888   1.529  0.2072  0.8579 -0.5466
  286MPD2    N1 4323   1.455   2.107   1.520  0.1456 -0.0610 -0.1429
  286MPD2    H7 4324   1.448   2.122   1.420  3.1429 -2.0172 -0.6708
  287TMC3    C1 4325   2.025   1.805   1.309 -0.5369  0.4650 -0.1560
  287TMC3    C2 4326   2.017   1.702   1.222 -0.0670  0.5143  0.3454
  287TMC3    C3 4327   2.124   1.615   1.206  0.1596  0.7153 -0.2876
  287TMC3    C4 4328   2.132   1.824   1.389  0.1519  0.2361  0.5375
  287TMC3    C5 4329   2.225   1.719   1.391  0.6005  1.0593  0.0961
  287TMC3    C6 4330   2.229   1.623   1.292  0.9170 -0.2736 -0.1236
  287TMC3     C 4331   1.907   1.886   1.341 -0.4109  0.1006 -1.2245
  287TMC3     O 4332   1.818   1.887   1.254 -0.1527  0.2854  0.1076
  287TMC3     H 4333   1.926   1.681   1.168  0.2981 -0.2430  0.0237
  287TMC3    H1 4334   2.154   1.910   1.452  1.1333 -0.2388  0.8446
  287TMC3    H2 4335   2.289   1.534   1.309  2.4871  1.0373  1.1443
  287TMC3    C7 4336   2.344   1.748   1.477  0.2851  0.1301  0.5038
  287TMC3    C8 4337   2.128   1.534   1.088  1.0545  0.2913  0.2393
  287TMC3    O1 4338   2.331   1.841   1.556  0.1637  0.0803 -0.2843
  287TMC3    O2 4339   2.021   1.523   1.022  0.0686 -0.1598  0.1353
  288TMC3    C1 4340   3.346   1.810  14.286  0.5645 -0.0139 -0.3004
  288TMC3    C2 4341   3.329   1.792  14.418  0.0531  0.2391  0.4543
  288TMC3    C3 4342   3.381   1.887  14.495  0.2193  0.2583 -0.1009
  288TMC3    C4 4343   3.402   1.917  14.225  0.5504  0.0185  0.2591
  288TMC3    C5 4344   3.472   1.999  14.310 -0.7438  0.5831 -0.1146
  288TMC3    C6 4345   3.460   1.983  14.445  0.0867 -0.5848 -0.0276
  288TMC3     C 4346   3.284   1.716  14.204  0.9158  0.1728 -0.2113
  288TMC3     O 4347   3.244   1.764  14.097 -0.7638  0.6026 -0.0186
  288TMC3     H 4348   3.262   1.713  14.451 -1.4840  0.3439 -2.3789
  288TMC3    H1 4349   3.414   1.925  14.118  0.2142  2.5495  0.4017
  288TMC3    H2 4350   3.514   2.045  14.516 -2.2624 -0.0407  1.2904
  288TMC3    C7 4351   3.528   2.124  14.265  0.3883 -0.7037 -0.8651
  288TMC3    C8 4352   3.349   1.890  14.634  0.0773  0.5249 -0.4233
  288TMC3    O1 4353   3.594   2.180  14.350  0.1454  0.0961 -0.0676
  288TMC3    O2 4354   3.431   1.944  14.708 -0.0881  0.1972  0.0313
  289MPD2     C 4355   3.608   1.139  14.621 -0.3263 -0.0415 -0.3054
  289MPD2    C1 4356   3.546   1.252  14.572  0.2393 -0.2354  0.3231
  289MPD2    C2 4357   3.427   1.237  14.508 -0.2136  0.6144  0.8544
  289MPD2    C3 4358   3.373   1.115  14.487 -0.0037 -0.1494  0.1003
  289MPD2    C4 4359   3.441   1.002  14.528 -0.4296 -1.1427  0.1525
  289MPD2    C5 4360   3.558   1.012  14.595 -0.6390  0.1099  0.6108
  289MPD2     H 4361   3.375   1.326  14.473 -0.0113 -0.5435 -2.3401
  289MPD2    H1 4362   3.389   0.906  14.524  1.7673 -2.3153 -0.2628
  289MPD2    H2 4363   3.705   1.151  14.668 -0.2117  0.0140 -0.5553
  289MPD2    H3 4364   3.614   0.926  14.631  0.4487  0.8509  0.6717
  289MPD2     N 4365   3.253   1.094  14.416 -0.1236 -0.1225  1.1348
  289MPD2    H5 4366   3.239   0.997  14.387  1.8058 -0.3142  0.8370
  289MPD2    N1 4367   3.616   1.379  14.591 -0.8860 -0.5837  0.2026
  289MPD2    H7 4368   3.704   1.378  14.642 -0.7115  3.2523 -0.0276
  290TMC3    C1 4369   3.037   1.135  14.299  0.1806  0.2680  0.2171
  290TMC3    C2 4370   2.940   1.228  14.285 -0.2828  0.6897  0.6502
  290TMC3    C3 4371   2.861   1.222  14.174  0.2205  0.5371  0.4530
  290TMC3    C4 4372   3.063   1.037  14.204  0.0197 -0.0822 -0.4626
  290TMC3    C5 4373   2.980   1.024  14.097 -0.4195 -0.6739 -0.1820
  290TMC3    C6 4374   2.887   1.131  14.075  0.0147  0.3942 -0.0812
  290TMC3     C 4375   3.151   1.181  14.389  0.4269 -0.4381  0.1721
  290TMC3     O 4376   3.137   1.291  14.441  0.0165  0.4344  0.4119
  290TMC3     H 4377   2.923   1.299  14.365  2.6886 -1.2630  2.9792
  290TMC3    H1 4378   3.155   0.980  14.206  0.7729  1.1837  2.2750
  290TMC3    H2 4379   2.832   1.119  13.982  1.1392 -0.0828 -0.6877
  290TMC3    C7 4380   3.007   0.941  13.984 -0.2378 -0.1969 -0.2214
  290TMC3    C8 4381   2.806   1.344  14.122  0.1935  0.2685 -0.0335
  290TMC3    O1 4382   2.992   0.979  13.869  0.0677 -0.2998 -0.1409
  290TMC3    O2 4383   2.756   1.327  14.012  0.4599 -0.3044 -0.3959
  291MPD2     C 4384   3.232   0.137   0.372  0.2878 -0.8430 -0.5318
  291MPD2    C1 4385   3.118   0.171   0.298  0.5373 -0.2432 -0.1827
  291MPD2    C2 4386   3.120   0.179   0.158  0.1542 -0.2919  0.3212
  291MPD2    C3 4387   3.244   0.164   0.094  0.2265  0.4593 -0.1684
  291MPD2    C4 4388   3.351   0.113   0.170 -0.0348 -0.2024 -0.2285
  291MPD2    C5 4389   3.345   0.094   0.306 -0.0851 -0.5499 -0.7420
  291MPD2     H 4390   3.032   0.206   0.102  0.9118 -2.7487 -2.0409
  291MPD2    H1 4391   3.441   0.080   0.120 -0.6630  2.9721 -3.4393
  291MPD2    H2 4392   3.228   0.119   0.479  0.7149 -1.3372 -0.5951
  291MPD2    H3 4393   3.428   0.057   0.364 -0.8894 -0.0634  0.7318
  291MPD2     N 4394   3.265   0.189  17.640 -0.4844 -0.0180 -0.0106
  291MPD2    H5 4395   3.362   0.194  17.613 -0.2065 -1.2110  0.7685
  291MPD2    N1 4396   2.996   0.191   0.363 -0.2852  0.2227  0.5748
  291MPD2    H7 4397   2.910   0.184   0.309 -0.5285  4.3277  0.4517
  292TMC3    C1 4398   2.851   0.260   0.533  0.1117  0.1018 -0.1893
  292TMC3    C2 4399   2.827   0.373   0.608 -0.1583 -0.1610 -0.0580
  292TMC3    C3 4400   2.702   0.389   0.663 -0.8820 -0.2243  0.9024
  292TMC3    C4 4401   2.760   0.160   0.530  0.7015 -0.0282 -0.1798
  292TMC3    C5 4402   2.641   0.175   0.601 -0.4042  0.5731  0.7585
  292TMC3    C6 4403   2.605   0.295   0.655 -0.3560 -0.3042 -0.0212
  292TMC3     C 4404   2.984   0.237   0.491  0.0012  0.4220  0.0714
  292TMC3     O 4405   3.071   0.275   0.563  0.0975 -0.9103  0.3013
  292TMC3     H 4406   2.897   0.456   0.615  1.5568 -1.8613  3.0945
  292TMC3    H1 4407   2.783   0.071   0.473  3.3590  0.7295 -0.3112
  292TMC3    H2 4408   2.507   0.315   0.696 -0.2605  1.4963 -0.6778
  292TMC3    C7 4409   2.535   0.076   0.565 -0.2093  0.0736  0.4595
  292TMC3    C8 4410   2.700   0.503   0.755  0.1661 -0.3033 -0.0061
  292TMC3    O1 4411   2.566   0.004   0.474 -0.1318 -0.1266 -0.6038
  292TMC3    O2 4412   2.811   0.523   0.804  0.0942 -0.1100 -0.1987
  293MPD2     C 4413   0.272   2.512  12.970 -0.1792  0.4556 -0.2777
  293MPD2    C1 4414   0.183   2.414  12.995  0.5351  0.6597  0.6134
  293MPD2    C2 4415   0.146   2.374  13.126  0.1499 -0.7405  0.4146
  293MPD2    C3 4416   0.212   2.419  13.232 -0.2909  0.2962  0.0485
  293MPD2    C4 4417   0.315   2.510  13.208  0.9277  0.2297 -0.2066
  293MPD2    C5 4418   0.347   2.549  13.077 -0.6644 -0.0027  0.2893
  293MPD2     H 4419   0.065   2.308  13.153 -0.2401  0.7396  2.8473
  293MPD2    H1 4420   0.384   2.545  13.283  1.7982  1.2262 -1.4691
  293MPD2    H2 4421   0.308   2.534  12.871  0.5461 -3.0972 -0.7926
  293MPD2    H3 4422   0.432   2.617  13.076 -2.3035  2.0878  1.4992
  293MPD2     N 4423   0.172   2.374  13.359 -0.8024  0.6759 -0.0582
  293MPD2    H5 4424   0.094   2.308  13.360  0.0361 -0.2944  1.0224
  293MPD2    N1 4425   0.107   2.380  12.879  0.4037 -0.5621  0.2201
  293MPD2    H7 4426   0.134   2.426  12.792  1.1625  2.6556  2.1786
  294TMC3    C1 4427   4.647   2.298  12.746  0.0154 -0.4674 -0.6925
  294TMC3    C2 4428   4.548   2.205  12.729 -0.1245 -0.1250 -0.2239
  294TMC3    C3 4429   4.505   2.191  12.598 -0.3035 -0.0455  0.4106
  294TMC3    C4 4430   4.704   2.368  12.642  0.2150 -0.3410 -0.4342
  294TMC3    C5 4431   4.664   2.340  12.519 -0.1280  0.7392 -0.9118
  294TMC3    C6 4432   4.566   2.243  12.491 -0.3993  1.2505  0.4712
  294TMC3     C 4433   4.717   2.296  12.877  0.1569  0.3465 -0.2240
  294TMC3     O 4434   4.685   2.222  12.966 -0.2185 -0.0488  0.0376
  294TMC3     H 4435   4.523   2.127  12.800  0.2616 -0.0085  0.0378
  294TMC3    H1 4436   0.052   2.450  12.659  2.8082 -2.5028 -0.4941
  294TMC3    H2 4437   4.514   2.227  12.397 -0.1131 -2.0790  0.8528
  294TMC3    C7 4438   4.687   2.436  12.424 -0.4341  0.9752  0.0261
  294TMC3    C8 4439   4.427   2.075  12.570 -0.5161  0.5050  0.6543
  294TMC3    O1 4440   0.007   2.545  12.458  0.2265 -0.1456 -1.0046
  294TMC3    O2 4441   4.447   2.027  12.458 -0.3824 -0.5338  0.2049
  295MPD2     C 4442   0.098   0.702   0.484 -0.1847 -0.5324  0.2253
  295MPD2    C1 4443   0.021   0.812   0.462  0.3775  0.4055  0.7549
  295MPD2    C2 4444   4.679   0.875   0.568  0.4295 -0.1372 -0.2130
  295MPD2    C3 4445   4.689   0.826   0.704 -0.3137 -0.4868 -0.2306
  295MPD2    C4 4446   0.051   0.719   0.723  0.2123 -0.7821 -0.0500
  295MPD2    C5 4447   0.114   0.666   0.614 -0.1095  0.6356  0.4012
  295MPD2     H 4448   4.624   0.967   0.548 -0.0904 -0.3408  0.2747
  295MPD2    H1 4449   0.074   0.692   0.826 -0.6827 -1.9513 -0.1528
  295MPD2    H2 4450   0.165   0.658   0.411 -0.7997 -0.5084 -0.3455
  295MPD2    H3 4451   0.185   0.588   0.635  1.5179  1.7817 -0.8215
  295MPD2     N 4452   4.638   0.896   0.815 -0.0872 -0.2987 -0.0013
  295MPD2    H5 4453   4.665   0.850   0.902 -1.7499  1.4287  1.4265
  295MPD2    N1 4454   4.714   0.867   0.330 -0.0325  0.9674  0.3652
  295MPD2    H7 4455   4.670   0.958   0.330 -1.7455  0.1208  1.2039
  296TMC3    C1 4456   4.511   1.029   0.960 -0.0541  0.0758 -0.1958
  296TMC3    C2 4457   4.500   1.156   0.999  0.1578 -0.3407  0.8579
  296TMC3    C3 4458   4.467   1.172   1.131 -0.3118  0.3267 -0.4935
  296TMC3    C4 4459   4.505   0.916   1.038 -0.1634  0.7574 -0.6003
  296TMC3    C5 4460   4.490   0.938   1.173 -0.7258  0.2718  0.0074
  296TMC3    C6 4461   4.460   1.063   1.217  0.2880  0.0398  0.0577
  296TMC3     C 4462   4.568   1.013   0.830  0.2168 -0.0715  0.3420
  296TMC3     O 4463   4.535   1.092   0.744  0.0006  0.1400  0.4165
  296TMC3     H 4464   4.531   1.234   0.931  0.6492 -0.0241  1.4376
  296TMC3    H1 4465   4.517   0.814   1.005 -0.3461  1.6876 -3.5001
  296TMC3    H2 4466   4.423   1.080   1.317  0.9064 -1.1375  0.4974
  296TMC3    C7 4467   4.505   0.823   1.261 -0.4744  0.4848 -0.3594
  296TMC3    C8 4468   4.470   1.307   1.186  0.1134  0.0082 -0.3877
  296TMC3    O1 4469   4.550   0.716   1.217 -0.5050 -0.1154  0.0329
  296TMC3    O2 4470   4.493   1.387   1.101 -0.1633 -0.8053  0.0533
  297MPD2     C 4471   2.027   2.837  17.040 -0.2123  0.4716  0.8227
  297MPD2    C1 4472   2.031   2.874  16.909 -0.5100 -0.8921  0.0114
  297MPD2    C2 4473   2.150   2.915  16.856 -0.0942 -0.4767  0.1978
  297MPD2    C3 4474   2.268   2.921  16.923  0.4484  0.7720 -0.5781
  297MPD2    C4 4475   2.263   2.887  17.057  0.0592 -0.2595 -0.3425
  297MPD2    C5 4476   2.144   2.840  17.107  0.6234 -0.4000 -1.1464
  297MPD2     H 4477   2.144   2.943  16.752  0.3379  1.6718  0.7517
  297MPD2    H1 4478   2.347   2.880  17.124  1.3217  0.5990 -1.8223
  297MPD2    H2 4479   1.931   2.812  17.085 -0.3029 -1.3872 -0.3831
  297MPD2    H3 4480   2.130   2.812  17.211  1.8019  2.2221 -0.2829
  297MPD2     N 4481   2.386   2.962  16.860 -0.2300 -0.1410  0.2030
  297MPD2    H5 4482   2.378   3.000  16.766  1.6334 -1.5926 -0.5547
  297MPD2    N1 4483   1.919   2.884  16.824 -0.1160  0.7882  0.0030
  297MPD2    H7 4484   1.930   2.914  16.728  2.9237  0.2488  0.2112
  298TMC3    C1 4485   1.697   2.902  16.759 -0.3175 -0.5227  0.0888
  298TMC3    C2 4486   1.722   2.888  16.626  0.9115 -0.0642 -0.4940
  298TMC3    C3 4487   1.630   2.936  16.533 -0.4265 -0.3189  0.3639
  298TMC3    C4 4488   1.581   2.965  16.805  0.2502 -0.0352 -0.3841
  298TMC3    C5 4489   1.505   3.024  16.708  0.5519  0.6567 -0.5429
  298TMC3    C6 4490   1.525   3.009  16.575  0.7776 -0.0721  0.3862
  298TMC3     C 4491   1.789   2.872  16.865  0.1022  0.5061  1.3612
  298TMC3     O 4492   1.742   2.850  16.978  0.9128  0.3761  0.1857
  298TMC3     H 4493   1.816   2.843  16.596  1.4557 -0.2891  1.5107
  298TMC3    H1 4494   1.547   2.963  16.908  0.4821  1.6227 -0.2778
  298TMC3    H2 4495   1.455   3.056  16.506  1.4715 -1.3199 -1.1788
  298TMC3    C7 4496   1.430   3.139  16.752 -0.5085  0.3541  0.4010
  298TMC3    C8 4497   1.684   2.955  16.404  0.3768  0.4543  0.3858
  298TMC3    O1 4498   1.381   3.143  16.866  0.0286 -0.1780 -0.1970
  298TMC3    O2 4499   1.599   2.962  16.315  0.0857 -0.3380  0.0604
  299MPD2     C 4500   3.278   1.748  10.334  0.2879 -0.3666 -0.1288
  299MPD2    C1 4501   3.230   1.854  10.265  0.2844  0.8265 -0.5167
  299MPD2    C2 4502   3.095   1.849  10.240  0.1491  0.1098 -0.9433
  299MPD2    C3 4503   3.015   1.752  10.291 -0.1628 -0.8274  0.4731
  299MPD2    C4 4504   3.067   1.644  10.355  0.3478  0.2766  0.0021
  299MPD2    C5 4505   3.200   1.641  10.369  0.6258 -0.2864  0.0421
  299MPD2     H 4506   3.050   1.938  10.195 -0.4264 -0.1174 -0.8112
  299MPD2    H1 4507   3.015   1.555  10.388  1.2456 -0.2271  0.0525
  299MPD2    H2 4508   3.375   1.750  10.380  0.3547 -2.4358 -0.1819
  299MPD2    H3 4509   3.240   1.553  10.419  0.3699  1.0557  2.6109
  299MPD2     N 4510   2.878   1.759  10.283 -0.4702  0.6781  0.0914
  299MPD2    H5 4511   2.818   1.698  10.337 -1.1133  0.9537 -0.3193
  299MPD2    N1 4512   3.310   1.968  10.237 -0.2858  0.0197  0.3658
  299MPD2    H7 4513   3.404   1.976  10.272 -0.3199  2.1005  0.0086
  300TMC3    C1 4514   2.659   1.824  10.233 -0.3550  0.7293 -0.2132
  300TMC3    C2 4515   2.593   1.905  10.146  0.1465  0.2471  0.6836
  300TMC3    C3 4516   2.466   1.943  10.192  0.1167 -0.3919 -0.4474
  300TMC3    C4 4517   2.614   1.786  10.359 -0.5760 -0.0493  0.2084
  300TMC3    C5 4518   2.485   1.817  10.385  0.0766 -0.0260  0.3845
  300TMC3    C6 4519   2.404   1.895  10.306  0.5330  0.0818  0.4805
  300TMC3     C 4520   2.800   1.839  10.209 -0.2395  0.4490  0.3877
  300TMC3     O 4521   2.831   1.950  10.160  0.1102 -0.3540 -0.3627
  300TMC3     H 4522   2.639   1.948  10.057 -2.7316  0.8702 -0.5095
  300TMC3    H1 4523   2.674   1.725  10.425 -0.1473  3.6706  3.2655
  300TMC3    H2 4524   2.300   1.912  10.332  0.0836  1.2936 -2.0824
  300TMC3    C7 4525   2.439   1.778  10.521  0.1712 -0.3862  0.4825
  300TMC3    C8 4526   2.413   2.066  10.145 -0.6286  0.5323  0.1334
  300TMC3    O1 4527   2.498   1.680  10.562 -0.4674  0.0664  0.3437
  300TMC3    O2 4528   2.371   2.155  10.223  0.3126  0.0405 -0.2239
  301MPD2     C 4529   0.262   3.767   1.467  0.5935 -0.1845  0.1902
  301MPD2    C1 4530   0.158   3.741   1.379 -0.2836  0.7866 -0.1068
  301MPD2    C2 4531   0.148   3.617   1.319 -0.6393 -0.8848 -0.3045
  301MPD2    C3 4532   0.235   3.516   1.355 -0.1243  0.2915 -0.6362
  301MPD2    C4 4533   0.326   3.538   1.453 -0.3137 -0.2634 -0.1590
  301MPD2    C5 4534   0.336   3.660   1.512  0.0846  0.0319  0.0864
  301MPD2     H 4535   0.072   3.598   1.244 -1.0046 -0.9961  0.0897
  301MPD2    H1 4536   0.396   3.462   1.486  0.4399  0.0943 -0.9115
  301MPD2    H2 4537   0.268   3.864   1.515 -1.4159 -0.3723  0.8059
  301MPD2    H3 4538   0.413   3.670   1.588  1.3579  0.2203 -1.2241
  301MPD2     N 4539   0.232   3.392   1.303 -0.1619  0.5359  0.1679
  301MPD2    H5 4540   0.315   3.333   1.308 -0.5532 -0.0185  0.1162
  301MPD2    N1 4541   0.066   3.840   1.336  0.3336  0.3632  0.3333
  301MPD2    H7 4542   0.003   3.809   1.263  1.1757 -0.4125 -0.0783
  302TMC3    C1 4543   0.188   3.228   1.141 -0.2865 -0.2763 -0.7030
  302TMC3    C2 4544   0.246   3.121   1.209  0.4106  0.2857 -0.1866
  302TMC3    C3 4545   0.291   3.021   1.125 -0.4487  0.5429  0.1810
  302TMC3    C4 4546   0.157   3.232   1.011  0.1376  0.0607  0.4851
  302TMC3    C5 4547   0.206   3.128   0.931 -0.2118 -1.0215 -0.1219
  302TMC3    C6 4548   0.283   3.033   0.987  0.1043  0.1684 -0.4816
  302TMC3     C 4549   0.137   3.340   1.212  0.0277 -0.3769 -0.1212
  302TMC3     O 4550   0.026   3.384   1.181  0.8453  0.7415 -0.4280
  302TMC3     H 4551   0.229   3.113   1.316 -2.6395  1.6150 -0.5623
  302TMC3    H1 4552   0.099   3.317   0.978 -1.2771 -0.9144  0.4765
  302TMC3    H2 4553   0.316   2.948   0.927  1.3195 -1.5742  2.6965
  302TMC3    C7 4554   0.188   3.128   0.785  0.3286  1.2260 -0.6052
  302TMC3    C8 4555   0.375   2.924   1.180  0.3749  0.0754 -0.0872
  302TMC3    O1 4556   0.279   3.084   0.715 -0.3597  0.5977 -0.1395
  302TMC3    O2 4557   0.486   2.902   1.125 -0.2673  0.4222  1.0701
  303MPD2     C 4558   1.021   1.930  10.316 -0.2318 -0.3989 -0.0106
  303MPD2    C1 4559   0.935   1.841  10.373  0.2608 -0.1445  0.0078
  303MPD2    C2 4560   0.938   1.716  10.318  0.1516 -0.4424 -0.2626
  303MPD2    C3 4561   1.005   1.681  10.203  0.3898  0.0427  0.1669
  303MPD2    C4 4562   1.092   1.771  10.151 -0.6191  0.2732 -0.0095
  303MPD2    C5 4563   1.112   1.890  10.214 -0.1896 -0.2157  0.2607
  303MPD2     H 4564   0.868   1.641  10.355 -0.2378  0.4251  0.7640
  303MPD2    H1 4565   1.148   1.742  10.063 -1.0579 -2.2025  0.5267
  303MPD2    H2 4566   1.042   2.026  10.361  1.1384 -1.1314  0.9155
  303MPD2    H3 4567   1.190   1.957  10.180 -0.7488  0.3872  0.1670
  303MPD2     N 4568   0.988   1.567  10.127  0.0216  0.0581  0.4773
  303MPD2    H5 4569   1.024   1.569  10.033  1.7315 -0.8534  1.1186
  303MPD2    N1 4570   0.847   1.899  10.468 -0.3744 -0.1260  0.7093
  303MPD2    H7 4571   0.865   1.993  10.503  0.1311 -0.0030  0.1181
  304TMC3    C1 4572   0.645   1.908  10.592  0.4677  0.2249 -0.0743
  304TMC3    C2 4573   0.513   1.879  10.575  1.5243 -0.2485 -0.0320
  304TMC3    C3 4574   0.422   1.897  10.676 -0.0100 -0.5821 -1.0945
  304TMC3    C4 4575   0.692   1.951  10.719 -0.1069 -0.4600  0.1717
  304TMC3    C5 4576   0.598   1.944  10.823 -0.0919 -0.2568 -0.0117
  304TMC3    C6 4577   0.464   1.931  10.803  0.2152 -0.1909 -0.3926
  304TMC3     C 4578   0.726   1.840  10.494 -1.1047  0.5358  0.8026
  304TMC3     O 4579   0.681   1.737  10.451 -0.0169  0.0497  0.0275
  304TMC3     H 4580   0.471   1.845  10.481 -1.9021  0.1724  1.3252
  304TMC3    H1 4581   0.799   1.962  10.727 -0.0147 -0.5464 -0.8810
  304TMC3    H2 4582   0.394   1.937  10.886  1.3026 -2.7790  0.7003
  304TMC3    C7 4583   0.650   1.869  10.934  0.4717  0.4949  0.5723
  304TMC3    C8 4584   0.323   1.785  10.688  0.0973 -0.3893  0.1480
  304TMC3    O1 4585   0.765   1.896  10.967  0.2315 -0.0256  0.2879
  304TMC3    O2 4586   0.334   1.732  10.796  0.1182  0.3782 -0.3855
  305MPD2     C 4587   3.329   4.514  13.801 -0.6186 -0.2263 -0.0890
  305MPD2    C1 4588   3.272   4.390  13.827  0.4479 -0.1849  0.3943
  305MPD2    C2 4589   3.235   4.308  13.716  0.1052 -0.4276 -0.1002
  305MPD2    C3 4590   3.272   4.341  13.584  0.7996 -0.2547  0.2178
  305MPD2    C4 4591   3.331   4.465  13.567 -0.2266 -0.2181 -0.5416
  305MPD2    C5 4592   3.354   4.551  13.669 -0.5140  0.3055 -0.3225
  305MPD2     H 4593   3.178   4.221  13.747  1.0868 -1.1175 -0.2491
  305MPD2    H1 4594   3.354   4.503  13.468 -0.2874 -2.7501 -1.5109
  305MPD2    H2 4595   3.365   4.583  13.876 -1.5633 -1.3920  1.4468
  305MPD2    H3 4596   3.395   4.646  13.639 -2.6783  1.7250  1.2540
  305MPD2     N 4597   3.278   4.249  13.476  0.1844  1.6232  0.2612
  305MPD2    H5 4598   3.329   4.269  13.391  0.2288  1.4332  0.2436
  305MPD2    N1 4599   3.261   4.358  13.963  0.3770  0.5826 -0.0249
  305MPD2    H7 4600   3.308   4.410  14.036  3.0690 -2.1112  0.1550
  306TMC3    C1 4601   3.217   4.229  14.150 -0.1809 -0.4288  0.3897
  306TMC3    C2 4602   3.344   4.222  14.183 -0.5850 -0.0113  0.0015
  306TMC3    C3 4603   3.368   4.206  14.314 -0.7865 -0.7041  0.5259
  306TMC3    C4 4604   3.114   4.235  14.240 -0.0858  0.0670  0.2699
  306TMC3    C5 4605   3.137   4.219  14.374 -0.7558  0.4779  0.5398
  306TMC3    C6 4606   3.270   4.211  14.411 -0.5118 -0.1894  0.6087
  306TMC3     C 4607   3.186   4.255  14.010 -0.4353 -0.3033  0.6625
  306TMC3     O 4608   3.104   4.188  13.953  0.5580 -0.4521  0.1643
  306TMC3     H 4609   3.424   4.214  14.110 -1.2826  2.1379 -1.0064
  306TMC3    H1 4610   3.025   4.276  14.194 -0.2064  0.7973  1.1501
  306TMC3    H2 4611   3.298   4.194  14.514  2.5965 -0.6872 -0.3201
  306TMC3    C7 4612   3.048   4.307  14.447  0.1172  0.1242  0.5807
  306TMC3    C8 4613   3.506   4.198  14.354 -0.0401  0.3143  0.1068
  306TMC3    O1 4614   2.957   4.371  14.394  0.1132  0.4095 -0.7602
  306TMC3    O2 4615   3.524   4.155  14.471 -0.0213 -0.6659  0.0261
  307MPD2     C 4616   1.166   1.899   0.453  0.2215 -0.5605 -0.0181
  307MPD2    C1 4617   1.064   1.965   0.391 -0.2799  0.0309  1.0260
  307MPD2    C2 4618   0.948   1.990   0.472  0.5315  0.4019  0.1220
  307MPD2    C3 4619   0.934   1.947   0.595  0.3502  0.3905  0.4113
  307MPD2    C4 4620   1.043   1.899   0.663 -0.4943 -0.7778  0.2452
  307MPD2    C5 4621   1.157   1.872   0.589  0.1751 -0.4613 -0.0277
  307MPD2     H 4622   0.861   2.035   0.425  0.8840  0.4622 -0.4706
  307MPD2    H1 4623   1.050   1.876   0.768  1.7603  1.4064  0.5833
  307MPD2    H2 4624   1.255   1.868   0.398 -0.2320 -0.9407 -0.5396
  307MPD2    H3 4625   1.242   1.822   0.636  1.3756  0.8794 -0.7658
  307MPD2     N 4626   0.809   1.953   0.662  0.3636  0.3419 -0.0958
  307MPD2    H5 4627   0.732   1.999   0.614  1.8003 -1.2223 -3.9460
  307MPD2    N1 4628   1.069   2.011   0.258  0.2944  0.2655  0.1931
  307MPD2    H7 4629   0.989   2.069   0.236  1.4453  0.4774 -3.3865
  308TMC3    C1 4630   0.426   1.964   0.766 -0.6655 -0.5016 -0.2933
  308TMC3    C2 4631   0.428   2.101   0.785  0.0852  1.3624  0.2440
  308TMC3    C3 4632   0.540   2.152   0.842  0.0476  0.2397 -0.0184
  308TMC3    C4 4633   0.535   1.884   0.775  0.1912 -0.6385  0.0373
  308TMC3    C5 4634   0.644   1.942   0.828 -0.1037 -0.4241 -0.7873
  308TMC3    C6 4635   0.652   2.073   0.855  0.0234 -0.1623  0.1318
  308TMC3     C 4636   0.309   1.908   0.706  0.2493 -0.5042  0.4173
  308TMC3     O 4637   0.296   1.788   0.695  0.8683 -0.4614 -0.2722
  308TMC3     H 4638   0.339   2.163   0.776 -0.4611  0.5414  0.0031
  308TMC3    H1 4639   0.539   1.778   0.749  2.4169 -0.5751  0.0725
  308TMC3    H2 4640   0.749   2.119   0.871 -0.4678  1.9822 -3.0985
  308TMC3    C7 4641   0.777   1.892   0.784 -0.2975 -0.6437 -0.4657
  308TMC3    C8 4642   0.556   2.294   0.882 -0.3101  0.5434  0.1072
  308TMC3    O1 4643   0.833   1.811   0.856 -0.4939  0.4664 -0.1143
  308TMC3    O2 4644   0.634   2.330   0.967 -0.2011  0.4021 -0.0886
  309MPD2     C 4645   0.275   2.655  17.070 -0.3297 -0.2340 -0.1503
  309MPD2    C1 4646   0.227   2.743  16.967 -0.4324 -0.0712 -0.1663
  309MPD2    C2 4647   0.108   2.812  16.987  0.4739  0.1946 -0.1938
  309MPD2    C3 4648   0.029   2.798  17.103 -0.1190 -0.2374  0.7747
  309MPD2    C4 4649   0.079   2.712  17.193  0.6114  0.6452  0.1168
  309MPD2    C5 4650   0.192   2.636  17.180 -0.3290  0.5472 -0.3124
  309MPD2     H 4651   0.067   2.872  16.906 -0.0610 -1.3729 -1.0702
  309MPD2    H1 4652   0.030   2.700  17.289 -0.8342 -0.7410 -0.7970
  309MPD2    H2 4653   0.365   2.596  17.058 -0.3812 -0.2847 -0.2881
  309MPD2    H3 4654   0.232   2.573  17.258  0.1808  2.1693  0.7551
  309MPD2     N 4655   4.624   2.862  17.129 -0.0977 -0.3312 -0.4076
  309MPD2    H5 4656   4.589   2.863  17.224 -1.7801 -2.5625 -1.0126
  309MPD2    N1 4657   0.289   2.761  16.841  0.1731  0.2232 -0.5377
  309MPD2    H7 4658   0.247   2.833  16.782 -0.1345  1.0876  0.7267
  310TMC3    C1 4659   0.431   2.749  16.654  0.5248 -0.2126 -0.0465
  310TMC3    C2 4660   0.325   2.762  16.565 -0.0307  0.5464  0.0313
  310TMC3    C3 4661   0.351   2.732  16.432 -0.3017 -1.1002 -0.1265
  310TMC3    C4 4662   0.551   2.698  16.610  0.2069  0.1008  0.5517
  310TMC3    C5 4663   0.573   2.668  16.476 -0.0111 -0.3427 -0.3127
  310TMC3    C6 4664   0.468   2.677  16.388  0.4104  0.3350  0.4564
  310TMC3     C 4665   0.414   2.712  16.797 -0.0745  0.1060 -0.5273
  310TMC3     O 4666   0.498   2.647  16.854 -0.2180  1.0295  1.0341
  310TMC3     H 4667   0.227   2.801  16.589  0.5433  2.2002 -0.2511
  310TMC3    H1 4668   0.633   2.698  16.680  0.3011  0.0437  0.4404
  310TMC3    H2 4669   0.489   2.668  16.282  0.7200 -0.4135  0.5812
  310TMC3    C7 4670   0.663   2.563  16.458  0.8391  0.4007 -0.0613
  310TMC3    C8 4671   0.238   2.757  16.339 -0.2346  0.4086 -0.7787
  310TMC3    O1 4672   0.673   2.476  16.547  0.4437 -0.5221  0.0762
  310TMC3    O2 4673   0.174   2.859  16.362 -0.3664  0.1630  0.1004
  311MPD2     C 4674   2.451   3.737  12.437 -0.0344 -0.2372 -0.3528
  311MPD2    C1 4675   2.468   3.816  12.552 -0.2143 -0.0807 -0.2574
  311MPD2    C2 4676   2.368   3.805  12.644  0.9984 -0.1809  0.0775
  311MPD2    C3 4677   2.253   3.725  12.616 -0.7049  0.3216 -0.2469
  311MPD2    C4 4678   2.233   3.678  12.494  0.0674 -0.2179  0.0198
  311MPD2    C5 4679   2.334   3.674  12.404  0.4293 -0.5825 -0.4128
  311MPD2     H 4680   2.377   3.858  12.739  1.6415  0.9827 -0.6383
  311MPD2    H1 4681   2.146   3.621  12.463 -0.2917  0.0217  0.5911
  311MPD2    H2 4682   2.538   3.723  12.374  1.3563  0.9075  1.3300
  311MPD2    H3 4683   2.319   3.621  12.311  0.5419  2.1572 -1.9958
  311MPD2     N 4684   2.159   3.712  12.717  0.2057 -0.0039  0.3447
  311MPD2    H5 4685   2.180   3.762  12.803  2.6245  1.1237 -0.9284
  311MPD2    N1 4686   2.590   3.878  12.586 -0.1698  0.1501  0.1702
  311MPD2    H7 4687   2.603   3.911  12.681 -1.0095  0.4097  0.1930
  312TMC3    C1 4688   1.958   3.657  12.831 -0.4121  0.2833 -0.3717
  312TMC3    C2 4689   1.822   3.629  12.818 -0.3877  0.6265 -0.3645
  312TMC3    C3 4690   1.737   3.688  12.907 -0.4881 -0.3980  0.5668
  312TMC3    C4 4691   2.011   3.725  12.938  0.0718 -0.0418  0.9844
  312TMC3    C5 4692   1.918   3.770  13.030  0.4418  1.2142 -0.7363
  312TMC3    C6 4693   1.782   3.758  13.015 -0.0517 -0.1876 -0.2051
  312TMC3     C 4694   2.040   3.642  12.716  0.2348 -0.0928 -0.5224
  312TMC3     O 4695   1.991   3.589  12.617  0.3793 -0.2985 -0.1511
  312TMC3     H 4696   1.782   3.584  12.728  0.9733  0.7721 -1.0415
  312TMC3    H1 4697   2.115   3.724  12.967 -0.0621  0.5362  1.4695
  312TMC3    H2 4698   1.719   3.785  13.100 -0.4502  3.3643 -1.6167
  312TMC3    C7 4699   1.959   3.786  13.165  0.3364  0.0691  0.4642
  312TMC3    C8 4700   1.605   3.717  12.858 -0.3306 -0.1569  0.0267
  312TMC3    O1 4701   1.891   3.751  13.259 -0.0713 -0.2042  0.0895
  312TMC3    O2 4702   1.574   3.653  12.758 -0.3077 -0.0422  0.0642
  313MPD2     C 4703   2.395   3.040  10.026  0.9415 -0.8641  0.1342
  313MPD2    C1 4704   2.344   2.973  10.134  0.7947  0.5452  0.7871
  313MPD2    C2 4705   2.273   2.854  10.117 -0.1834  0.3452  0.3654
  313MPD2    C3 4706   2.245   2.801   9.996  0.1434 -0.7059  0.2546
  313MPD2    C4 4707   2.314   2.858   9.890  0.3302 -0.1923  0.1667
  313MPD2    C5 4708   2.390   2.970   9.907 -0.3517 -0.3929  0.1934
  313MPD2     H 4709   2.245   2.805  10.209  2.4211 -1.5097  0.1634
  313MPD2    H1 4710   2.308   2.816   9.791  1.6465 -1.7619  0.7595
  313MPD2    H2 4711   2.457   3.129  10.038 -0.8606  0.6401 -1.6816
  313MPD2    H3 4712   2.433   3.016   9.818  0.5617 -0.1905  0.7418
  313MPD2     N 4713   2.177   2.683   9.988 -0.4876 -0.3868  0.0834
  313MPD2    H5 4714   2.129   2.644  10.069 -1.7022  1.9162  0.4698
  313MPD2    N1 4715   2.376   3.018  10.267 -0.3688 -0.1503  0.6359
  313MPD2    H7 4716   2.340   2.971  10.349  0.1128  0.7027  1.3444
  314TMC3    C1 4717   2.446   3.155  10.446 -0.2357 -0.1597 -0.5435
  314TMC3    C2 4718   2.523   3.259  10.486 -0.2158 -0.1858 -0.0223
  314TMC3    C3 4719   2.485   3.322  10.605 -0.4713 -0.2138 -0.1717
  314TMC3    C4 4720   2.341   3.120  10.522  0.0990  0.2298 -0.0736
  314TMC3    C5 4721   2.317   3.169  10.646 -0.3724  0.3246  0.1618
  314TMC3    C6 4722   2.390   3.275  10.689 -0.3611  0.4931 -0.5111
  314TMC3     C 4723   2.460   3.121  10.303 -0.5280  0.5253 -0.5431
  314TMC3     O 4724   2.526   3.198  10.235 -0.7026  0.5198  0.2069
  314TMC3     H 4725   2.595   3.298  10.414 -0.4245 -0.5011 -0.4024
  314TMC3    H1 4726   2.259   3.062  10.480 -1.1882 -0.6293  3.5697
  314TMC3    H2 4727   2.371   3.313  10.789 -1.3078 -1.9210  0.2354
  314TMC3    C7 4728   2.177   3.163  10.693  0.5650 -0.0880  0.6187
  314TMC3    C8 4729   2.493   3.466  10.594  0.4080 -0.3693 -0.3178
  314TMC3    O1 4730   2.150   3.159  10.813  0.0080  0.0462 -0.0447
  314TMC3    O2 4731   2.397   3.535  10.630 -0.0188  0.0838  0.4098
  315MPD2     C 4732   0.802   2.754   0.474 -0.1385 -0.2903  0.5550
  315MPD2    C1 4733   0.920   2.688   0.480 -0.1135 -0.1047  0.6940
  315MPD2    C2 4734   1.038   2.755   0.442  0.1756  0.2015  0.5337
  315MPD2    C3 4735   1.038   2.889   0.400 -0.2435  0.7270  0.1356
  315MPD2    C4 4736   0.917   2.962   0.408 -0.5773 -0.8337 -1.1154
  315MPD2    C5 4737   0.808   2.888   0.447  0.0104  0.3674 -0.0665
  315MPD2     H 4738   1.130   2.698   0.441 -0.0667 -0.2201  1.7787
  315MPD2    H1 4739   0.903   3.065   0.378 -3.5475 -0.1928  2.4401
  315MPD2    H2 4740   0.712   2.706   0.511 -1.3526  0.8041 -0.9613
  315MPD2    H3 4741   0.719   2.949   0.458 -1.6029 -1.6552 -2.0975
  315MPD2     N 4742   1.163   2.946   0.359  0.3985 -0.0551 -0.5902
  315MPD2    H5 4743   1.247   2.889   0.365 -0.3293 -1.0557  0.0020
  315MPD2    N1 4744   0.939   2.553   0.512 -0.2906 -0.5769 -0.0400
  315MPD2    H7 4745   1.035   2.521   0.524  0.1584  0.1883 -1.6063
  316TMC3    C1 4746   1.325   3.120   0.319 -0.2795 -0.5540  0.0273
  316TMC3    C2 4747   1.412   3.052   0.402  0.0790  0.4647 -0.2510
  316TMC3    C3 4748   1.535   3.114   0.427  0.1990 -0.4337  0.1781
  316TMC3    C4 4749   1.345   3.240   0.267 -0.2160  0.3505 -0.2602
  316TMC3    C5 4750   1.468   3.297   0.294 -0.8284  0.1657 -0.6061
  316TMC3    C6 4751   1.561   3.239   0.366  0.1285 -0.0973 -0.1836
  316TMC3     C 4752   1.186   3.074   0.319  0.6733 -0.7938 -0.1427
  316TMC3     O 4753   1.104   3.150   0.263 -0.9270 -0.4520 -0.2717
  316TMC3     H 4754   1.388   2.963   0.460 -1.2533 -0.7583 -2.7081
  316TMC3    H1 4755   1.266   3.304   0.231  0.5017  2.2787  1.6126
  316TMC3    H2 4756   1.653   3.293   0.385 -0.5320  1.4094 -1.2184
  316TMC3    C7 4757   1.495   3.440   0.267  0.4182 -0.2002 -0.0149
  316TMC3    C8 4758   1.654   3.050   0.481 -0.1068  0.4921 -0.9524
  316TMC3    O1 4759   1.569   3.501   0.345  0.0806  0.1494 -0.0392
  316TMC3    O2 4760   1.743   3.123   0.522  0.1357  0.0645  0.0490
  317MPD2     C 4761   3.317   1.291  13.245 -0.1942  0.1189 -0.0123
  317MPD2    C1 4762   3.378   1.215  13.154 -0.1582 -0.8800  0.0901
  317MPD2    C2 4763   3.461   1.111  13.198 -0.5421  0.5629 -0.4705
  317MPD2    C3 4764   3.490   1.095  13.331 -0.4995  0.5302  0.4240
  317MPD2    C4 4765   3.442   1.187  13.420  0.0669  0.0426 -0.0284
  317MPD2    C5 4766   3.347   1.277  13.378  0.7624 -0.0561  0.0102
  317MPD2     H 4767   3.509   1.042  13.130  0.0248  0.8773 -0.3869
  317MPD2    H1 4768   3.462   1.193  13.527 -0.6332 -1.5114  0.1781
  317MPD2    H2 4769   3.238   1.359  13.215 -1.5459  0.1008  3.4969
  317MPD2    H3 4770   3.294   1.334  13.454 -2.5839  0.4574 -2.7467
  317MPD2     N 4771   3.566   0.981  13.367  0.4762 -0.1386 -0.2875
  317MPD2    H5 4772   3.596   0.923  13.289  0.1080 -0.0481 -0.4983
  317MPD2    N1 4773   3.364   1.235  13.018  0.3587  0.4254  0.0018
  317MPD2    H7 4774   3.434   1.189  12.961  1.4289 -1.1305  2.5742
  318TMC3    C1 4775   3.674   0.832  13.515  0.3825  0.0464 -0.2590
  318TMC3    C2 4776   3.669   0.752  13.628 -0.4033  1.3320 -0.0802
  318TMC3    C3 4777   3.765   0.657  13.642 -0.0683 -0.6441  0.0528
  318TMC3    C4 4778   3.777   0.816  13.423  0.1483 -0.0145 -0.2723
  318TMC3    C5 4779   3.865   0.718  13.438  0.9411 -0.0939 -1.1646
  318TMC3    C6 4780   3.859   0.637  13.547  0.4941  0.0636  0.4513
  318TMC3     C 4781   3.577   0.941  13.495  0.2617  0.2513 -0.5719
  318TMC3     O 4782   3.506   0.969  13.588 -0.3030 -0.4055  0.5477
  318TMC3     H 4783   3.585   0.764  13.696  0.1214  1.7211  0.4980
  318TMC3    H1 4784   3.784   0.878  13.334  2.0292  0.8355  0.4630
  318TMC3    H2 4785   3.908   0.540  13.541  0.8227  0.1686  1.3903
  318TMC3    C7 4786   3.947   0.684  13.327 -0.0898 -0.6362  0.4973
  318TMC3    C8 4787   3.723   0.537  13.702  0.4187  0.2869  0.2886
  318TMC3    O1 4788   3.878   0.671  13.229  0.2139  0.2600  0.1472
  318TMC3    O2 4789   3.773   0.500  13.807 -0.0900  0.4291 -0.3781
  319MPD2     C 4790   4.331   2.573  16.135  1.0322  0.1582 -0.2071
  319MPD2    C1 4791   4.297   2.557  16.266 -0.6347  0.1457 -0.4042
  319MPD2    C2 4792   4.164   2.593  16.293  0.0877 -0.0396  0.0987
  319MPD2    C3 4793   4.071   2.639  16.199  0.3627  0.7144 -0.3911
  319MPD2    C4 4794   4.122   2.660  16.075  0.0531 -0.1438  0.1337
  319MPD2    C5 4795   4.254   2.631  16.041 -0.3523 -0.2027 -0.4513
  319MPD2     H 4796   4.135   2.581  16.397  1.0867  1.8815  0.5913
  319MPD2    H1 4797   4.053   2.694  15.998 -0.3997 -0.3284  0.4597
  319MPD2    H2 4798   4.435   2.553  16.115  1.1070 -0.4847  0.8390
  319MPD2    H3 4799   4.285   2.644  15.939 -0.6940 -0.1169 -0.5449
  319MPD2     N 4800   3.937   2.676  16.227  0.1518  0.6657 -0.3390
  319MPD2    H5 4801   3.885   2.692  16.142 -1.7295  1.5331  0.9708
  319MPD2    N1 4802   4.378   2.497  16.365 -0.2905 -0.1174  0.0297
  319MPD2    H7 4803   4.354   2.504  16.463  1.6389 -0.0455  0.5024
  320TMC3    C1 4804   3.720   2.663  16.324  0.3347  0.6514 -0.2885
  320TMC3    C2 4805   3.679   2.750  16.222  0.4293 -0.3709 -0.5590
  320TMC3    C3 4806   3.579   2.717  16.136 -0.5227 -0.2553 -0.3368
  320TMC3    C4 4807   3.641   2.555  16.344  0.4162  0.5686 -0.4602
  320TMC3    C5 4808   3.546   2.520  16.255 -0.3668  0.9354  0.1330
  320TMC3    C6 4809   3.508   2.602  16.153 -0.3580 -0.6305 -0.1416
  320TMC3     C 4810   3.871   2.647  16.349  0.3991 -0.7341 -0.0828
  320TMC3     O 4811   3.910   2.590  16.448  0.1271 -0.1222 -0.0339
  320TMC3     H 4812   3.747   2.832  16.200 -0.1853  0.6036  1.1250
  320TMC3    H1 4813   3.669   2.480  16.417  0.3867  0.0183 -1.0098
  320TMC3    H2 4814   3.415   2.584  16.100  0.5951  2.1148 -2.7821
  320TMC3    C7 4815   3.529   2.376  16.235 -0.2651  0.6154  0.0584
  320TMC3    C8 4816   3.517   2.822  16.066 -0.0568  0.5457  0.4902
  320TMC3    O1 4817   3.513   2.340  16.120  0.4497  0.1995 -0.1829
  320TMC3    O2 4818   3.542   2.936  16.109 -0.7802 -0.7218 -0.1293
  321TMC3    C1 4819   4.577   2.451  16.469  0.6438  0.3655  0.1728
  321TMC3    C2 4820   4.510   2.449  16.589 -0.2990 -1.1092 -0.1021
  321TMC3    C3 4821   4.573   2.496  16.700 -0.0036 -0.1634  0.4405
  321TMC3    C4 4822   4.713   2.479  16.461  0.2671 -0.0899 -0.0133
  321TMC3    C5 4823   0.047   2.509  16.583  0.0291  0.0454  0.1383
  321TMC3    C6 4824   4.700   2.547  16.697 -0.4925 -0.0757  0.2847
  321TMC3     C 4825   4.509   2.454  16.346  0.5532 -0.1343  0.1666
  321TMC3     O 4826   4.566   2.414  16.245 -0.3816 -0.1304  0.0876
  321TMC3     H 4827   4.407   2.414  16.590 -0.7081  0.0517 -1.7499
  321TMC3    H1 4828   0.047   2.475  16.368 -0.3335 -0.0371 -0.3709
  321TMC3    H2 4829   0.022   2.585  16.788  1.1680 -1.0828 -0.0672
  321TMC3    C7 4830   0.174   2.444  16.608  0.0700 -0.6089  0.0099
  321TMC3    C8 4831   4.554   2.404  16.809 -0.3341  0.2803  0.2082
  321TMC3    O1 4832   0.240   2.407  16.510  0.4807  0.1764 -0.0074
  321TMC3    O2 4833   4.642   2.415  16.896 -0.1077  0.0665  0.5804
  322MPD2     C 4834   3.405   3.624  13.388 -0.1966  0.1551  0.0874
  322MPD2    C1 4835   3.314   3.589  13.483  0.7888  0.6299  0.2091
  322MPD2    C2 4836   3.249   3.464  13.482 -0.4430  0.4245 -1.2258
  322MPD2    C3 4837   3.256   3.386  13.364 -0.4692  0.1715  0.1071
  322MPD2    C4 4838   3.332   3.438  13.260 -0.2608  0.0580 -0.1561
  322MPD2    C5 4839   3.407   3.550  13.275 -0.3215 -0.1313  0.3010
  322MPD2     H 4840   3.178   3.438  13.560 -1.5258  0.0336 -2.3445
  322MPD2    H1 4841   3.340   3.391  13.162  1.4250 -0.3793  0.1876
  322MPD2    H2 4842   3.451   3.722  13.392  1.8375 -0.7631 -0.6109
  322MPD2    H3 4843   3.469   3.599  13.200 -2.4255  1.0451 -0.6903
  322MPD2     N 4844   3.198   3.262  13.368 -0.8157 -0.2023  0.2085
  322MPD2    H5 4845   3.126   3.244  13.438 -0.8767 -0.1090  0.1701
  322MPD2    N1 4846   3.294   3.683  13.593  0.1008  0.0848  0.5229
  322MPD2    H7 4847   3.347   3.770  13.594 -0.8283  0.6639 -1.0414
  323TMC3    C1 4848   3.233   3.754  13.821 -0.2947  0.0223 -0.1194
  323TMC3    C2 4849   3.292   3.883  13.810  0.2735 -0.1263  0.0013
  323TMC3    C3 4850   3.305   3.955  13.929  0.6191 -0.3209 -0.2040
  323TMC3    C4 4851   3.190   3.705  13.944  0.2977  0.5080  0.1243
  323TMC3    C5 4852   3.219   3.778  14.055 -0.1203  0.0812  0.2441
  323TMC3    C6 4853   3.259   3.908  14.046 -0.1166  0.1572  0.5311
  323TMC3     C 4854   3.213   3.661  13.707 -0.1247  0.7016 -0.5262
  323TMC3     O 4855   3.135   3.569  13.718 -0.3935  0.3534  0.0493
  323TMC3     H 4856   3.338   3.911  13.716 -0.8669  0.6707 -0.3240
  323TMC3    H1 4857   3.142   3.608  13.955  0.9615 -0.0397 -1.7513
  323TMC3    H2 4858   3.272   3.969  14.134  0.6933  1.4705 -0.4963
  323TMC3    C7 4859   3.275   3.707  14.164 -0.3839  0.0716  0.4236
  323TMC3    C8 4860   3.434   4.009  13.950  0.1610  0.3767  0.2143
  323TMC3    O1 4861   3.252   3.588  14.174  0.3754  0.5434  0.4415
  323TMC3    O2 4862   3.488   3.986  14.054 -0.3403  0.4296 -0.4194
  324MPD2     C 4863   0.635   0.573  14.447 -0.2431 -0.1426  0.5611
  324MPD2    C1 4864   0.594   0.479  14.362 -0.0795  0.2701 -0.1561
  324MPD2    C2 4865   0.459   0.474  14.325  0.5929 -0.2084  0.0875
  324MPD2    C3 4866   0.371   0.557  14.384 -0.1582  0.2394  0.4176
  324MPD2    C4 4867   0.414   0.645  14.481 -0.5894  0.2633  0.1829
  324MPD2    C5 4868   0.548   0.656  14.508 -0.3204  0.0932 -0.7002
  324MPD2     H 4869   0.434   0.385  14.268 -1.2084 -0.8683  1.9055
  324MPD2    H1 4870   0.344   0.702  14.541 -0.4468  0.6141  0.0106
  324MPD2    H2 4871   0.736   0.573  14.487  0.0006  0.4551 -0.0489
  324MPD2    H3 4872   0.582   0.718  14.590 -1.4771 -0.6678  0.3656
  324MPD2     N 4873   0.232   0.551  14.355 -0.5042  0.5096  0.0732
  324MPD2    H5 4874   0.174   0.607  14.416  1.6551 -0.0110  2.6386
  324MPD2    N1 4875   0.683   0.381  14.317  0.4962 -0.1368  0.4900
  324MPD2    H7 4876   0.638   0.315  14.255  1.5502 -1.3059  0.9747
  325TMC3    C1 4877   0.026   0.487  14.240 -0.6903  0.8321 -0.3333
  325TMC3    C2 4878   4.683   0.385  14.178 -0.3806 -0.0429 -0.0428
  325TMC3    C3 4879   4.550   0.384  14.187 -0.6463  0.1006 -0.5807
  325TMC3    C4 4880   4.684   0.601  14.277 -0.3554 -0.3286 -0.2246
  325TMC3    C5 4881   4.546   0.602  14.281  0.2519  0.1199 -0.5861
  325TMC3    C6 4882   4.479   0.491  14.240  0.3501  0.1174  0.3647
  325TMC3     C 4883   0.175   0.481  14.245  0.2375  0.0884 -0.2165
  325TMC3     O 4884   0.224   0.411  14.159  0.0326  0.1351  0.0144
  325TMC3     H 4885   0.018   0.306  14.130  2.2555  0.1000  2.7630
  325TMC3    H1 4886   0.014   0.687  14.319  1.1563 -0.2012 -2.3382
  325TMC3    H2 4887   4.373   0.505  14.225  0.2737  0.7717  1.5542
  325TMC3    C7 4888   4.473   0.708  14.363 -0.4050  0.1342  0.1002
  325TMC3    C8 4889   4.482   0.282  14.096 -0.1100 -0.1856 -0.0858
  325TMC3    O1 4890   4.512   0.826  14.351 -0.5873  0.1501  0.6400
  325TMC3    O2 4891   4.553   0.216  14.019  0.2688  0.7720  0.1991
  326MPD2     C 4892   1.068   0.709  11.173  0.0464  0.5496 -0.4841
  326MPD2    C1 4893   1.097   0.723  11.036 -0.0311  0.4312  0.1525
  326MPD2    C2 4894   1.238   0.718  11.019  0.3760 -0.1114  0.0069
  326MPD2    C3 4895   1.326   0.694  11.115 -0.5509  0.0804 -0.2667
  326MPD2    C4 4896   1.283   0.668  11.240  0.0529 -0.0471  0.5087
  326MPD2    C5 4897   1.152   0.674  11.270 -0.1798  0.1430 -0.1831
  326MPD2     H 4898   1.276   0.750  10.923  2.2068  0.2661  0.8706
  326MPD2    H1 4899   1.355   0.649  11.319 -0.8417  0.0510  1.3618
  326MPD2    H2 4900   0.964   0.722  11.202  0.3142 -1.1817  1.2497
  326MPD2    H3 4901   1.112   0.658  11.369 -1.6312  1.3826 -0.5680
  326MPD2     N 4902   1.465   0.704  11.092 -0.4615 -0.0764  0.4073
  326MPD2    H5 4903   1.527   0.707  11.172 -1.2035 -0.0436  0.9766
  326MPD2    N1 4904   1.004   0.755  10.933  1.3846  0.3348  0.5075
  326MPD2    H7 4905   1.042   0.766  10.840  0.4946 -1.9546 -0.1055
  327TMC3    C1 4906   0.812   0.797  10.830  0.5839 -0.7211 -0.1394
  327TMC3    C2 4907   0.832   0.927  10.793  0.5039  0.7404 -0.4308
  327TMC3    C3 4908   0.861   0.954  10.660 -0.4130  0.1845  0.2660
  327TMC3    C4 4909   0.831   0.699  10.737 -0.0897 -0.3572 -0.2907
  327TMC3    C5 4910   0.867   0.727  10.608  0.3489  0.0261  0.4908
  327TMC3    C6 4911   0.892   0.856  10.572 -0.6728  0.1058  0.1407
  327TMC3     C 4912   0.873   0.774  10.950  0.6485  0.5948 -0.1826
  327TMC3     O 4913   0.807   0.768  11.056  0.0149 -0.4391  0.3029
  327TMC3     H 4914   0.852   0.999  10.871 -0.0611  0.2690  0.1504
  327TMC3    H1 4915   0.823   0.599  10.778  1.6916  0.4843  2.0807
  327TMC3    H2 4916   0.914   0.886  10.470  1.5417 -2.8570 -0.2301
  327TMC3    C7 4917   0.960   0.630  10.550  0.5629  0.3782  0.0546
  327TMC3    C8 4918   0.900   1.087  10.621  0.0656 -0.2260 -1.1720
  327TMC3    O1 4919   1.000   0.648  10.436  0.0068  0.3414 -0.2049
  327TMC3    O2 4920   0.977   1.103  10.529  0.6935 -0.1716  0.5318
  328MPD2     C 4921   3.834   1.170  16.782 -0.3031 -0.0282  0.4989
  328MPD2    C1 4922   3.746   1.124  16.683  0.8306  0.4582 -0.7192
  328MPD2    C2 4923   3.631   1.199  16.658 -0.7223  0.5696 -0.0480
  328MPD2    C3 4924   3.609   1.322  16.708  0.1273  0.1404  0.5671
  328MPD2    C4 4925   3.709   1.374  16.792 -0.5583 -0.7919  0.5761
  328MPD2    C5 4926   3.819   1.297  16.822  0.3445 -0.6716 -0.0095
  328MPD2     H 4927   3.559   1.159  16.588  0.6211  1.3296 -1.8846
  328MPD2    H1 4928   3.708   1.480  16.815 -4.9611 -0.4711 -1.1856
  328MPD2    H2 4929   3.921   1.109  16.803 -1.0387 -1.6109 -0.9698
  328MPD2    H3 4930   3.896   1.336  16.887 -1.6591  0.5579  1.6445
  328MPD2     N 4931   3.485   1.407  16.682  0.7023  0.3530  0.3129
  328MPD2    H5 4932   3.490   1.502  16.718 -0.0321  0.9050 -1.0442
  328MPD2    N1 4933   3.761   0.995  16.622 -0.1589  0.8202  0.2313
  328MPD2    H7 4934   3.821   0.925  16.665 -0.1553 -0.5120 -1.9539
  329TMC3    C1 4935   3.744   0.826  16.458 -0.2149  0.1750  0.0954
  329TMC3    C2 4936   3.776   0.738  16.559 -1.0272 -0.2973  0.1968
  329TMC3    C3 4937   3.851   0.628  16.531 -0.0676 -0.2270 -0.9221
  329TMC3    C4 4938   3.764   0.798  16.326  0.6591  0.3155 -0.0620
  329TMC3    C5 4939   3.824   0.684  16.297 -0.4184  0.7579  0.1101
  329TMC3    C6 4940   3.871   0.604  16.399 -0.1686 -0.2554  0.7988
  329TMC3     C 4941   3.692   0.952  16.512 -0.2306 -0.4303  0.0726
  329TMC3     O 4942   3.637   1.024  16.430  0.7021 -0.4116  0.0536
  329TMC3     H 4943   3.742   0.753  16.661 -1.1150 -2.5044  0.4917
  329TMC3    H1 4944   3.724   0.871  16.256 -1.1691 -1.0138 -0.4092
  329TMC3    H2 4945   3.905   0.507  16.364  0.5352 -1.0648  3.6481
  329TMC3    C7 4946   3.876   0.664  16.162  0.5690  0.5758 -0.7572
  329TMC3    C8 4947   3.876   0.523  16.629 -0.7610  0.0010 -0.1635
  329TMC3    O1 4948   3.974   0.594  16.161  0.6615  0.7808 -0.0138
  329TMC3    O2 4949   3.955   0.435  16.590 -0.1982 -0.0149 -0.1929
  330TMC3    C1 4950   1.448   4.182   9.420 -0.7116  0.2717 -0.2254
  330TMC3    C2 4951   1.319   4.182   9.447  0.0725 -0.5016 -0.0349
  330TMC3    C3 4952   1.243   4.072   9.399  0.3354 -0.5887 -0.3670
  330TMC3    C4 4953   1.499   4.092   9.331 -0.7139  0.5700  0.6253
  330TMC3    C5 4954   1.420   3.993   9.291 -0.5034  0.2686 -0.1531
  330TMC3    C6 4955   1.292   3.972   9.322 -0.4261  0.4966  0.3978
  330TMC3     C 4956   1.529   4.288   9.479  0.4082  0.6566  0.1703
  330TMC3     O 4957   1.650   4.272   9.485 -0.0414 -0.2810 -0.3589
  330TMC3     H 4958   1.268   4.253   9.512  1.1865 -0.1884  0.4903
  330TMC3    H1 4959   1.602   4.111   9.302 -0.6868 -0.7125 -0.1274
  330TMC3    H2 4960   1.240   3.884   9.286 -0.5599  0.6191  0.2942
  330TMC3    C7 4961   1.481   3.879   9.213  0.4328  0.3647  0.1065
  330TMC3    C8 4962   1.111   4.055   9.454 -0.0551 -0.6464  0.0493
  330TMC3    O1 4963   1.410   3.781   9.205  0.0529 -0.6951  0.0056
  330TMC3    O2 4964   1.055   4.141   9.521  0.1458  0.5245  0.2280
  331MPD2     C 4965   4.336   4.307  12.888 -0.4382  0.0475  0.1797
  331MPD2    C1 4966   4.450   4.315  12.807 -0.0971  0.4292  0.1765
  331MPD2    C2 4967   4.462   4.219  12.706 -0.2605 -0.9859 -0.3489
  331MPD2    C3 4968   4.370   4.110  12.695 -0.8463  0.5507  0.2266
  331MPD2    C4 4969   4.253   4.112  12.766 -0.7236  0.5011  0.6180
  331MPD2    C5 4970   4.243   4.210  12.865  0.0636 -0.2930 -0.2006
  331MPD2     H 4971   4.555   4.209  12.651  0.5592  0.7071  0.7224
  331MPD2    H1 4972   4.171   4.043  12.749  0.0831 -0.6817  1.4746
  331MPD2    H2 4973   4.305   4.372  12.968 -0.1701 -0.8250  0.9885
  331MPD2    H3 4974   4.150   4.211  12.920  1.8242 -1.0777  2.7921
  331MPD2     N 4975   4.399   4.006  12.609  0.5469  0.5853  0.1655
  331MPD2    H5 4976   4.476   4.018  12.544  0.5781  2.1183  0.4741
  331MPD2    N1 4977   4.541   4.422  12.821  0.2480 -0.3078  0.4459
  331MPD2    H7 4978   4.523   4.499  12.885  0.0879 -1.5778  1.9388
  332TMC3    C1 4979   4.413   3.780  12.520  0.9494 -0.0474  0.0435
  332TMC3    C2 4980   4.459   3.823  12.395 -1.0090  0.1025  0.8491
  332TMC3    C3 4981   4.567   3.765  12.339  0.5607  0.3481  0.4362
  332TMC3    C4 4982   4.479   3.686  12.595  0.1048 -0.6838 -0.4970
  332TMC3    C5 4983   4.595   3.640  12.537 -0.9748 -0.8918  0.3049
  332TMC3    C6 4984   4.634   3.671  12.412  0.6037  0.1643 -0.1272
  332TMC3     C 4985   4.342   3.880  12.610  0.0549 -0.1622  0.1340
  332TMC3     O 4986   4.272   3.833  12.701  0.4084  0.2326  0.2932
  332TMC3     H 4987   4.398   3.898  12.345  1.9888  0.4524 -2.2440
  332TMC3    H1 4988   4.459   3.668  12.700  0.4658  1.9536  0.0031
  332TMC3    H2 4989   0.001   3.624  12.370  0.5026  0.2598 -0.4417
  332TMC3    C7 4990   4.689   3.593  12.635  0.1618 -0.0697  0.5775
  332TMC3    C8 4991   4.646   3.828  12.229 -0.7026 -0.0416 -0.0757
  332TMC3    O1 4992   4.648   3.551  12.745 -0.1514  1.0415  0.4687
  332TMC3    O2 4993   0.039   3.794  12.225  0.2597 -0.3434 -0.0326
  333MPD2     C 4994   4.716   3.919  11.584  0.3676 -0.3165  0.2791
  333MPD2    C1 4995   4.676   3.890  11.450 -0.3612 -0.1203 -0.2469
  333MPD2    C2 4996   4.568   3.803  11.427  0.3349 -0.2617  0.3466
  333MPD2    C3 4997   4.491   3.752  11.528 -0.0429  0.1081 -0.3235
  333MPD2    C4 4998   4.528   3.784  11.660  0.7795  0.1274  0.4421
  333MPD2    C5 4999   4.636   3.862  11.684  0.0253 -0.6356  0.0214
  333MPD2     H 5000   4.539   3.781  11.325 -0.8086 -1.1330  0.8616
  333MPD2    H1 5001   4.493   3.733  11.749 -2.0596 -1.6805 -1.7093
  333MPD2    H2 5002   0.071   3.995  11.601  0.4235 -0.2683 -0.1652
  333MPD2    H3 5003   4.667   3.880  11.786  0.5828  0.3242 -0.3102
  333MPD2     N 5004   4.385   3.662  11.506  0.0568 -0.7063  0.3283
  333MPD2    H5 5005   4.353   3.652  11.410 -0.4140 -0.3133  0.4479
  333MPD2    N1 5006   0.044   3.939  11.350  0.0255 -0.0780 -0.0727
  333MPD2    H7 5007   0.109   4.013  11.376 -0.2134  1.1919 -3.0780
  334TMC3    C1 5008   0.113   3.988  11.137 -0.1829 -0.8095  0.6776
  334TMC3    C2 5009   0.205   3.939  11.047 -0.2482 -0.0209  0.6709
  334TMC3    C3 5010   0.294   4.027  10.995 -0.1118 -0.0893  0.7315
  334TMC3    C4 5011   0.112   4.114  11.175  0.4345 -0.2115 -0.0706
  334TMC3    C5 5012   0.199   4.205  11.116 -0.3610 -0.8910  0.7362
  334TMC3    C6 5013   0.289   4.160  11.026  0.5134 -0.4902  0.6335
  334TMC3     C 5014   0.052   3.890  11.224  0.5611 -0.1382 -0.2385
  334TMC3     O 5015   0.023   3.779  11.179 -0.1658  0.4251  0.4159
  334TMC3     H 5016   0.200   3.833  11.022  1.3416 -0.4766  2.2582
  334TMC3    H1 5017   0.048   4.150  11.254 -1.6039 -0.6159 -1.5216
  334TMC3    H2 5018   0.364   4.230  10.989 -1.7632  1.2450 -0.7097
  334TMC3    C7 5019   0.185   4.344  11.140 -0.3058  0.3145  0.0692
  334TMC3    C8 5020   0.367   3.981  10.876  0.5232  0.7946  0.1518
  334TMC3    O1 5021   0.288   4.411  11.130  0.7053 -0.0521  0.0069
  334TMC3    O2 5022   0.322   3.874  10.842 -0.8041 -0.4324 -0.5098
  335TMC3    C1 5023   4.281   1.294  17.109 -0.3846  0.3815  0.2688
  335TMC3    C2 5024   4.255   1.201  17.012  0.3693 -0.1541  0.0376
  335TMC3    C3 5025   4.336   1.200  16.900  1.3126  0.3971  0.0433
  335TMC3    C4 5026   4.400   1.372  17.100 -0.3995 -0.3941 -0.5918
  335TMC3    C5 5027   4.485   1.353  16.995  1.1736 -0.0680  0.4361
  335TMC3    C6 5028   4.450   1.280  16.885 -1.1750 -0.2495  0.1794
  335TMC3     C 5029   4.179   1.317  17.212  0.3528  0.4306  0.6445
  335TMC3     O 5030   4.118   1.219  17.250 -0.2295  0.0580 -0.1711
  335TMC3     H 5031   4.159   1.150  17.010  0.2932 -0.0690  1.4720
  335TMC3    H1 5032   4.438   1.441  17.175  0.5425 -0.3905 -1.0657
  335TMC3    H2 5033   4.506   1.283  16.793 -0.5175  1.2098  0.6305
  335TMC3    C7 5034   4.628   1.335  17.021 -0.7038  0.0591 -0.7145
  335TMC3    C8 5035   4.326   1.084  16.808  0.4918  0.6471  0.3434
  335TMC3    O1 5036   4.698   1.345  16.923  0.2369 -0.6092 -0.2132
  335TMC3    O2 5037   4.368   1.087  16.696  0.7172 -0.6212 -0.1959
  336MPD2     C 5038   3.409   4.158  16.117  0.4165 -0.1573  0.2433
  336MPD2    C1 5039   3.383   4.028  16.143  0.7874  0.1550 -0.8275
  336MPD2    C2 5040   3.482   3.948  16.199 -0.0568  0.5483 -0.3221
  336MPD2    C3 5041   3.611   3.993  16.228  0.5268 -0.1380 -0.2629
  336MPD2    C4 5042   3.633   4.124  16.194  0.2626 -0.5152  0.5536
  336MPD2    C5 5043   3.536   4.203  16.142  0.1772  0.3471 -0.6940
  336MPD2     H 5044   3.461   3.844  16.221  0.5383  0.6733  0.8276
  336MPD2    H1 5045   3.728   4.172  16.218  0.4778  0.4016 -2.1190
  336MPD2    H2 5046   3.335   4.227  16.078 -1.7151 -1.7204  1.5213
  336MPD2    H3 5047   3.568   4.304  16.120  2.6739 -0.1369  0.6843
  336MPD2     N 5048   3.713   3.925  16.297 -1.2284 -0.2892  0.4041
  336MPD2    H5 5049   3.786   3.978  16.343  0.3931 -0.7788 -1.6149
  336MPD2    N1 5050   3.259   3.967  16.109 -0.7754  0.2776 -0.0138
  336MPD2    H7 5051   3.232   3.876  16.145  0.6869 -0.2930 -0.3738
  337TMC3    C1 5052   3.028   3.991  16.071  0.7373 -0.0909  0.2919
  337TMC3    C2 5053   2.924   4.006  15.983 -0.1479 -0.2288  0.1340
  337TMC3    C3 5054   2.797   3.990  16.033 -0.0070  0.1637  0.4389
  337TMC3    C4 5055   3.011   3.985  16.204  0.3111  0.5877  0.1480
  337TMC3    C5 5056   2.884   3.985  16.249  0.0607  0.5026  0.5186
  337TMC3    C6 5057   2.779   4.000  16.168 -0.0977  0.3189  0.5996
  337TMC3     C 5058   3.158   4.023  16.026  0.2739 -0.3661  0.5942
  337TMC3     O 5059   3.167   4.116  15.944 -0.3925 -0.4231  0.4377
  337TMC3     H 5060   2.943   4.001  15.877  1.4820  1.7177  0.3273
  337TMC3    H1 5061   3.090   3.961  16.275 -0.8479 -2.1757  0.4929
  337TMC3    H2 5062   2.682   3.980  16.214  0.4646  0.8941  2.0534
  337TMC3    C7 5063   2.864   3.938  16.385  0.4299 -0.3773  0.1286
  337TMC3    C8 5064   2.718   3.880  15.975 -0.6125 -0.3242 -0.2195
  337TMC3    O1 5065   2.928   3.839  16.430  0.3161  0.2014 -0.9763
  337TMC3    O2 5066   2.651   3.810  16.052  0.5581 -0.1516  0.0175
  338MPD2     C 5067   4.353   2.768   0.939  0.0072  0.6561 -0.2476
  338MPD2    C1 5068   4.315   2.811   0.810 -0.4265  1.5501  0.0790
  338MPD2    C2 5069   4.245   2.922   0.792  0.1615 -1.1746 -0.2131
  338MPD2    C3 5070   4.198   2.988   0.905 -0.0105 -0.2142  0.6570
  338MPD2    C4 5071   4.236   2.945   1.032 -0.4785  0.6072 -0.0927
  338MPD2    C5 5072   4.323   2.842   1.046 -0.2802 -1.3019  0.1828
  338MPD2     H 5073   4.205   2.944   0.694  1.2706  0.4718 -0.2970
  338MPD2    H1 5074   4.201   3.002   1.117  1.5519  0.2124  0.9989
  338MPD2    H2 5075   4.410   2.677   0.957  1.5383  1.4340 -1.1488
  338MPD2    H3 5076   4.375   2.824   1.140 -0.4183 -0.3967  0.4360
  338MPD2     N 5077   4.100   3.092   0.885  0.5937  0.2380 -0.1066
  338MPD2    H5 5078   4.049   3.085   0.798  1.7928 -1.3146 -0.6839
  338MPD2    N1 5079   4.356   2.745   0.691  0.9294 -0.2624  0.3624
  338MPD2    H7 5080   4.305   2.770   0.606  0.3365 -0.3616  0.6906
  339TMC3    C1 5081   3.952   3.261   0.924 -0.2989 -0.0098  0.4185
  339TMC3    C2 5082   3.875   3.326   1.011 -0.7535 -0.3108  0.1126
  339TMC3    C3 5083   3.774   3.396   0.951  0.0048 -0.4988 -0.7371
  339TMC3    C4 5084   3.944   3.266   0.790 -0.6274 -0.2932  0.0648
  339TMC3    C5 5085   3.852   3.351   0.740  0.0915  0.1727 -0.3769
  339TMC3    C6 5086   3.765   3.415   0.820 -0.2179 -0.5615 -0.4097
  339TMC3     C 5087   4.052   3.179   0.979  0.2297  0.8959 -0.2340
  339TMC3     O 5088   4.063   3.176   1.099 -0.0070  1.0325  0.4238
  339TMC3     H 5089   3.887   3.298   1.115  2.4735  0.0441 -0.1721
  339TMC3    H1 5090   4.034   3.242   0.735  0.2038  0.4185  1.1203
  339TMC3    H2 5091   3.688   3.477   0.774 -2.1869 -3.5288 -1.1471
  339TMC3    C7 5092   3.866   3.384   0.596  0.9485 -0.3385 -0.0193
  339TMC3    C8 5093   3.640   3.378   1.005 -0.1511  0.0483 -0.7563
  339TMC3    O1 5094   3.813   3.486   0.555  0.3417 -0.4125 -0.4033
  339TMC3    O2 5095   3.542   3.383   0.934  0.0354 -0.2876  0.6966
  340MPD2     C 5096   4.508   0.264  10.240  0.1541 -0.3480  0.2435
  340MPD2    C1 5097   4.551   0.263  10.108  0.4785  0.4469  0.4625
  340MPD2    C2 5098   4.665   0.332  10.071  0.4440 -0.4794 -0.0885
  340MPD2    C3 5099   0.009   0.414  10.164 -0.1878  0.1705 -0.2867
  340MPD2    C4 5100   4.676   0.424  10.292  0.3139 -0.4246 -0.2773
  340MPD2    C5 5101   4.571   0.347  10.325  0.1487  0.1908  0.3124
  340MPD2     H 5102   4.720   0.305   9.981 -1.4972 -0.9607 -1.1266
  340MPD2    H1 5103   4.719   0.474  10.378 -0.9927  1.9766 -1.0261
  340MPD2    H2 5104   4.422   0.207  10.272  0.1392 -1.2678 -1.4021
  340MPD2    H3 5105   4.536   0.359  10.427  0.6523  1.8977  0.2864
  340MPD2     N 5106   0.135   0.478  10.138  0.4178 -0.5777  0.7468
  340MPD2    H5 5107   0.194   0.501  10.217 -1.5438  0.2949  1.9503
  340MPD2    N1 5108   4.507   0.163  10.029 -0.7892  0.6742 -0.0108
  340MPD2    H7 5109   4.438   0.103  10.074 -1.0020  1.1945  0.3563
  341TMC3    C1 5110   4.495   0.015   9.847  0.5554  0.2687 -0.0670
  341TMC3    C2 5111   4.496   4.634   9.937  0.7874 -0.1442 -0.6065
  341TMC3    C3 5112   4.527   4.509   9.885  0.1949  0.4574 -0.2678
  341TMC3    C4 5113   4.535   4.720   9.717 -0.2695 -0.1093  0.5802
  341TMC3    C5 5114   4.572   4.593   9.678  0.1448 -0.3523 -0.0732
  341TMC3    C6 5115   4.565   4.488   9.759  0.3084 -0.4579  0.0993
  341TMC3     C 5116   4.533   0.146   9.896  0.6043 -0.8599  0.0500
  341TMC3     O 5117   4.590   0.223   9.818 -0.0346  0.5454  0.0712
  341TMC3     H 5118   4.460   4.644  10.040 -1.7976  2.8453 -1.7820
  341TMC3    H1 5119   4.545   0.073   9.638 -0.9493 -0.8293 -0.1770
  341TMC3    H2 5120   4.605   4.390   9.738 -0.6193 -0.7559 -0.2749
  341TMC3    C7 5121   4.682   4.580   9.585  0.0829  0.3112  0.8012
  341TMC3    C8 5122   4.512   4.391   9.965  0.1323 -0.1089 -0.9856
  341TMC3    O1 5123   0.064   4.526   9.623 -0.0602  0.6097  0.1676
  341TMC3    O2 5124   4.598   4.307   9.947 -0.3336  0.9034  0.6020
  342MPD2     C 5125   1.985   3.519   0.227  0.3361 -0.0334  0.4512
  342MPD2    C1 5126   2.110   3.562   0.183  0.4500 -0.0750 -0.5584
  342MPD2    C2 5127   2.128   3.701   0.156 -0.8554 -0.3079 -0.1281
  342MPD2    C3 5128   2.022   3.790   0.177  0.1501 -0.0223 -1.1176
  342MPD2    C4 5129   1.899   3.744   0.213 -0.5209 -0.0166 -0.0877
  342MPD2    C5 5130   1.880   3.606   0.231 -0.5741  0.7959 -0.3746
  342MPD2     H 5131   2.231   3.730   0.133 -1.0466  1.7057  1.5595
  342MPD2    H1 5132   1.817   3.810   0.236  0.2694 -0.0474  2.7804
  342MPD2    H2 5133   1.960   3.416   0.252 -1.1980 -0.0547 -1.1641
  342MPD2    H3 5134   1.778   3.569   0.235 -1.0132  2.2543  1.9426
  342MPD2     N 5135   2.045   3.929   0.151  0.4106 -0.3700  0.3022
  342MPD2    H5 5136   1.967   3.992   0.167 -0.9865 -1.5737 -1.8137
  342MPD2    N1 5137   2.225   3.477   0.167 -0.4304  0.6784  0.0821
  342MPD2    H7 5138   2.309   3.527   0.138  1.5932 -1.1291  2.8557
  343TMC3    C1 5139   2.362   3.294   0.147 -0.9361  0.1500  0.6440
  343TMC3    C2 5140   2.474   3.358   0.196  0.5830 -0.4697  0.4968
  343TMC3    C3 5141   2.594   3.291   0.180  0.7582  0.3407 -0.1546
  343TMC3    C4 5142   2.366   3.177   0.080  0.6648  0.2253 -0.1317
  343TMC3    C5 5143   2.483   3.107   0.083 -0.6976  0.2838  0.1314
  343TMC3    C6 5144   2.600   3.164   0.128  0.7265 -0.4518 -0.6949
  343TMC3     C 5145   2.228   3.341   0.179  0.7033  0.0498 -0.7713
  343TMC3     O 5146   2.136   3.260   0.173  0.3164 -0.2867 -0.2054
  343TMC3     H 5147   2.466   3.445   0.259 -0.3258  0.7294 -1.2895
  343TMC3    H1 5148   2.275   3.146   0.030 -0.1214 -0.5550  1.7779
  343TMC3    H2 5149   2.697   3.116   0.127 -0.1153 -2.1313 -1.8842
  343TMC3    C7 5150   2.495   2.974   0.031  0.1303  0.4323  0.8503
  343TMC3    C8 5151   2.708   3.355   0.232 -0.6606 -0.7796 -0.0145
  343TMC3    O1 5152   2.612   2.935   0.024  1.0525 -0.4877 -0.5529
  343TMC3    O2 5153   2.689   3.456   0.296 -0.0134 -0.0334 -0.4574
  344MPD2     C 5154   3.224   2.721   9.819  0.0237 -0.4442  0.0269
  344MPD2    C1 5155   3.346   2.710   9.881  0.1535  0.2941 -0.0011
  344MPD2    C2 5156   3.434   2.813   9.874 -0.1752 -0.1942  0.1015
  344MPD2    C3 5157   3.403   2.931   9.818 -0.1953  1.0188 -0.2708
  344MPD2    C4 5158   3.281   2.939   9.754 -0.1950 -0.3675 -0.2674
  344MPD2    C5 5159   3.192   2.837   9.758  0.2047  0.4564  0.0434
  344MPD2     H 5160   3.535   2.798   9.912  0.4921  1.9656 -0.8740
  344MPD2    H1 5161   3.240   3.028   9.710 -2.8261  0.0248  2.9323
  344MPD2    H2 5162   3.149   2.643   9.810  1.4189 -1.9459  1.1833
  344MPD2    H3 5163   3.095   2.844   9.710  0.5699 -0.2307 -0.7924
  344MPD2     N 5164   3.489   3.039   9.806 -0.3263 -0.9949 -0.3644
  344MPD2    H5 5165   3.467   3.117   9.746 -2.6128  0.1574  1.9759
  344MPD2    N1 5166   3.399   2.600   9.955  0.4181 -0.1681 -0.6318
  344MPD2    H7 5167   3.484   2.597  10.010  0.2648  2.1285 -0.2545
  345TMC3    C1 5168   3.658   3.185   9.877 -0.1348  0.1632 -0.2473
  345TMC3    C2 5169   3.772   3.211   9.950 -0.1219 -0.3027  0.0743
  345TMC3    C3 5170   3.801   3.344   9.969 -0.5191 -0.4673  0.2863
  345TMC3    C4 5171   3.595   3.288   9.806 -0.0159  0.2910 -0.4285
  345TMC3    C5 5172   3.627   3.419   9.824 -1.0360 -0.6146 -0.0002
  345TMC3    C6 5173   3.726   3.448   9.919 -0.0157  0.2123 -0.0001
  345TMC3     C 5174   3.597   3.055   9.889 -0.0912  0.0151  0.0999
  345TMC3     O 5175   3.653   2.976   9.965  0.2487  0.5146 -0.0949
  345TMC3     H 5176   3.822   3.131  10.002 -2.8336 -2.1928 -0.1940
  345TMC3    H1 5177   3.516   3.259   9.738  0.7577 -1.1106 -0.7451
  345TMC3    H2 5178   3.756   3.552   9.925  3.1581 -0.7133  0.2203
  345TMC3    C7 5179   3.573   3.531   9.755 -0.9615  0.3113 -1.0471
  345TMC3    C8 5180   3.901   3.380  10.069  0.0812 -0.2762 -0.3359
  345TMC3    O1 5181   3.590   3.641   9.809  0.1418 -0.2656  0.3953
  345TMC3    O2 5182   3.892   3.488  10.135 -0.3954  0.3014 -0.0159
  346MPD2     C 5183   3.612   4.701  14.194  0.3610 -0.1713 -0.1847
  346MPD2    C1 5184   3.691   0.090  14.173  0.1499 -0.3102 -0.6141
  346MPD2    C2 5185   3.711   0.181  14.273  0.0384 -0.1871 -0.4381
  346MPD2    C3 5186   3.650   0.164  14.394 -0.4206  0.2497  0.8719
  346MPD2    C4 5187   3.558   0.065  14.416  0.5242 -0.1500  0.5287
  346MPD2    C5 5188   3.543   4.696  14.313 -0.3075  0.3151  0.1767
  346MPD2     H 5189   3.775   0.266  14.253 -0.2075  0.4231  1.4105
  346MPD2    H1 5190   3.515   0.044  14.513 -2.7406  0.9338 -0.6689
  346MPD2    H2 5191   3.596   4.620  14.123  2.5658 -0.2657 -0.5919
  346MPD2    H3 5192   3.472   4.616  14.330  2.0427 -1.5769  1.0418
  346MPD2     N 5193   3.680   0.255  14.499 -0.1288 -0.3143  0.0119
  346MPD2    H5 5194   3.746   0.329  14.479  1.6772 -2.2518 -1.2632
  346MPD2    N1 5195   3.765   0.104  14.049 -0.3038 -0.2512 -0.3521
  346MPD2    H7 5196   3.817   0.191  14.040 -0.7355  0.3372  2.8814
  347TMC3    C1 5197   3.674   0.373  14.707  0.4027  0.0795 -0.5160
  347TMC3    C2 5198   3.793   0.439  14.673 -0.3653 -0.5770 -0.8082
  347TMC3    C3 5199   3.837   0.535  14.763  0.3826 -0.4668  0.2647
  347TMC3    C4 5200   3.603   0.397  14.821 -0.0630  0.7166 -0.4053
  347TMC3    C5 5201   3.659   0.487  14.905 -0.3688 -0.0003 -0.1745
  347TMC3    C6 5202   3.769   0.557  14.882 -0.1944  0.6452  0.2284
  347TMC3     C 5203   3.608   0.278  14.611 -0.0772 -0.8682  0.1581
  347TMC3     O 5204   3.500   0.231  14.643 -0.5241 -0.6368  0.3691
  347TMC3     H 5205   3.849   0.420  14.582  0.1643 -2.0922 -0.1866
  347TMC3    H1 5206   3.502   0.360  14.835  0.5039 -0.4232  0.6579
  347TMC3    H2 5207   3.817   0.624  14.952  1.6482  0.6870 -1.0703
  347TMC3    C7 5208   3.576   0.515  15.013 -0.4047  0.0022 -0.5055
  347TMC3    C8 5209   3.982   0.554  14.767  0.1793 -0.5326 -0.3263
  347TMC3    O1 5210   3.534   0.628  15.028 -0.2292  0.1261  0.6099
  347TMC3    O2 5211   4.049   0.458  14.730 -0.5339 -0.1899 -0.2349
  348MPD2     C 5212   2.592   4.560  11.861  0.7282  0.1071  0.5814
  348MPD2    C1 5213   2.486   4.491  11.804 -0.7611  0.0277 -0.3025
  348MPD2    C2 5214   2.378   4.560  11.757 -0.4391  0.0724  0.1261
  348MPD2    C3 5215   2.366   4.694  11.773  0.1650 -0.2614 -1.0582
  348MPD2    C4 5216   2.465   0.037  11.843 -0.0251  0.2368 -0.6359
  348MPD2    C5 5217   2.579   4.692  11.884 -0.6544 -0.2363 -0.5132
  348MPD2     H 5218   2.297   4.506  11.710 -0.0163  0.8351 -1.4756
  348MPD2    H1 5219   2.451   0.141  11.868  0.7892  0.6178 -1.7454
  348MPD2    H2 5220   2.681   4.516  11.904  1.0935  1.4404  1.1816
  348MPD2    H3 5221   2.657   0.026  11.936 -0.5970 -0.2010 -0.6384
  348MPD2     N 5222   2.258   0.048  11.725 -0.0531  0.3179 -0.2461
  348MPD2    H5 5223   2.253   0.146  11.751 -0.7111  0.2558 -0.1222
  348MPD2    N1 5224   2.488   4.352  11.787 -0.6180 -0.0126  0.3725
  348MPD2    H7 5225   2.402   4.307  11.757  0.2052 -1.8686  0.8081
  349TMC3    C1 5226   2.575   4.138  11.754 -0.1499  0.5658 -0.3205
  349TMC3    C2 5227   2.643   4.033  11.823  0.1443 -0.6483 -0.7434
  349TMC3    C3 5228   2.572   3.914  11.833 -0.1024  0.1246  0.5240
  349TMC3    C4 5229   2.463   4.110  11.692  0.5746 -0.0223  0.6169
  349TMC3    C5 5230   2.398   3.988  11.708 -0.1182 -0.4228  0.6157
  349TMC3    C6 5231   2.451   3.887  11.777  0.1729 -0.1696 -1.3283
  349TMC3     C 5232   2.599   4.270  11.806 -0.1964  0.5335 -0.8222
  349TMC3     O 5233   2.703   4.300  11.861  0.7378 -0.6767  0.1977
  349TMC3     H 5234   2.730   4.062  11.880 -1.2207  0.0849  0.9916
  349TMC3    H1 5235   2.408   4.189  11.642 -1.6873 -0.7775  1.9167
  349TMC3    H2 5236   2.389   3.804  11.808 -0.6319  0.4951 -1.1477
  349TMC3    C7 5237   2.253   4.014  11.725  0.1298  0.1816  0.7242
  349TMC3    C8 5238   2.607   3.826  11.953  0.0154 -0.2238  0.3761
  349TMC3    O1 5239   2.188   3.965  11.633  0.5124 -0.1822 -0.0225
  349TMC3    O2 5240   2.519   3.753  11.999  0.3393  0.3830 -0.1062
  350MPD2     C 5241   1.748   1.799   9.544 -0.4881  0.7615  0.1111
  350MPD2    C1 5242   1.882   1.823   9.519 -0.8877 -0.0613 -0.2442
  350MPD2    C2 5243   1.945   1.925   9.590  0.0801  0.5688  0.2861
  350MPD2    C3 5244   1.886   1.982   9.702  0.0782  0.3324 -0.2521
  350MPD2    C4 5245   1.763   1.940   9.742  0.4180  0.0927 -0.0144
  350MPD2    C5 5246   1.691   1.853   9.658 -0.2136  0.1715 -0.0781
  350MPD2     H 5247   2.048   1.951   9.568  0.0279 -0.4168 -1.1340
  350MPD2    H1 5248   1.709   1.985   9.824 -1.3988 -2.2326  0.0327
  350MPD2    H2 5249   1.697   1.721   9.489 -0.1923  0.4221  0.3167
  350MPD2    H3 5250   1.588   1.824   9.675 -0.1592  1.0170  1.7404
  350MPD2     N 5251   1.944   2.076   9.788  0.6916 -0.2774 -0.1997
  350MPD2    H5 5252   1.897   2.088   9.877  0.4483  0.5994 -0.4517
  350MPD2    N1 5253   1.947   1.770   9.407  0.8248 -0.3160 -0.4632
  350MPD2    H7 5254   2.042   1.805   9.398  0.4916  1.0635  1.3860
  351TMC3    C1 5255   1.994   1.636   9.223 -0.2358  0.3939  0.7649
  351TMC3    C2 5256   2.047   1.510   9.217  0.3547 -0.1304 -0.6880
  351TMC3    C3 5257   2.161   1.490   9.144 -0.6037  0.0207  0.0107
  351TMC3    C4 5258   2.056   1.739   9.167  0.2759  0.0685 -0.0387
  351TMC3    C5 5259   2.171   1.716   9.095 -0.8015 -0.1697  0.3021
  351TMC3    C6 5260   2.226   1.591   9.080 -0.3319  0.5729  0.3355
  351TMC3     C 5261   1.905   1.661   9.336 -0.3687  0.4818 -0.0865
  351TMC3     O 5262   1.821   1.579   9.365 -0.3366  0.0306 -0.4721
  351TMC3     H 5263   1.998   1.429   9.270 -1.5587 -0.2970 -2.7236
  351TMC3    H1 5264   2.011   1.838   9.171 -0.4127 -0.2154 -0.8184
  351TMC3    H2 5265   2.326   1.570   9.045  0.1682  2.3137  0.7630
  351TMC3    C7 5266   2.254   1.833   9.052  0.3598  0.8085 -1.0543
  351TMC3    C8 5267   2.231   1.363   9.173  0.0400  0.8349  0.4755
  351TMC3    O1 5268   2.227   1.937   9.112 -0.4899 -0.6010  0.0710
  351TMC3    O2 5269   2.354   1.357   9.182 -0.2709 -0.1316  0.4349
  352MPD2     C 5270   0.075   0.124   1.059 -0.0504 -0.1373  0.2569
  352MPD2    C1 5271   4.675   0.103   1.123 -0.0961 -0.3970 -0.6523
  352MPD2    C2 5272   4.647   4.690   1.164 -0.6140  0.2720 -0.7069
  352MPD2    C3 5273   0.012   4.582   1.135  0.2368  0.3981 -0.6027
  352MPD2    C4 5274   0.129   4.615   1.063 -0.2183  0.0883 -0.4260
  352MPD2    C5 5275   0.165   0.026   1.044  0.0609 -0.2383 -0.4500
  352MPD2     H 5276   4.550   4.678   1.211 -0.9105 -1.6634 -1.8102
  352MPD2    H1 5277   0.205   4.541   1.039 -0.5343 -0.1268 -0.7670
  352MPD2    H2 5278   0.122   0.218   1.029 -0.4335  0.4056  1.3681
  352MPD2    H3 5279   0.264   0.057   1.011 -0.5162  0.6967 -1.3030
  352MPD2     N 5280   4.704   4.448   1.169 -0.2950 -0.4254  0.4017
  352MPD2    H5 5281   0.060   4.383   1.158 -0.5111 -0.4680 -0.8253
  352MPD2    N1 5282   4.589   0.215   1.150 -0.2035  0.1334 -0.0105
  352MPD2    H7 5283   4.617   0.309   1.123  2.6373 -1.1871 -1.5646
  353TMC3    C1 5284   4.589   4.272   1.279  0.5597 -0.9952 -0.9212
  353TMC3    C2 5285   4.708   4.194   1.295 -0.6396  0.0607 -0.2485
  353TMC3    C3 5286   4.694   4.057   1.306 -0.1970 -0.2586 -0.2151
  353TMC3    C4 5287   4.465   4.217   1.289 -0.2990 -0.2936 -0.2353
  353TMC3    C5 5288   4.455   4.085   1.302 -0.0572  0.2031 -0.6066
  353TMC3    C6 5289   4.568   4.002   1.317 -0.1159 -0.2449 -0.9453
  353TMC3     C 5290   4.591   4.411   1.238  0.4639  1.3120  0.3542
  353TMC3     O 5291   4.486   4.475   1.255  0.0683 -0.4583 -0.1279
  353TMC3     H 5292   0.083   4.245   1.295  0.2348 -1.5864  2.1229
  353TMC3    H1 5293   4.382   4.286   1.282 -1.0640 -1.0350  1.3630
  353TMC3    H2 5294   4.551   3.899   1.347 -0.6249 -0.2956 -1.4175
  353TMC3    C7 5295   4.362   4.013   1.219  0.0793 -0.7891 -0.1990
  353TMC3    C8 5296   0.081   3.977   1.356 -0.4185 -0.1733  0.0332
  353TMC3    O1 5297   4.332   4.072   1.113  0.2160 -0.1544 -0.9618
  353TMC3    O2 5298   0.174   4.036   1.411 -0.4641 -0.1848  0.6872
  354TMC3    C1 5299   1.484   1.099  13.522  0.1526 -0.6741  0.8148
  354TMC3    C2 5300   1.461   1.213  13.454 -0.4218 -0.0209 -0.6162
  354TMC3    C3 5301   1.571   1.262  13.386 -0.6536 -0.5106 -0.1605
  354TMC3    C4 5302   1.591   1.022  13.499 -0.2372  0.0379  0.2730
  354TMC3    C5 5303   1.687   1.070  13.416  0.4484  0.0604 -0.1150
  354TMC3    C6 5304   1.684   1.191  13.362 -0.3730 -0.4203  0.4388
  354TMC3     C 5305   1.420   1.084  13.652  0.2913 -0.0929 -0.3631
  354TMC3     O 5306   1.417   0.964  13.686  0.1654  0.2476  0.6879
  354TMC3     H 5307   1.374   1.276  13.463  0.0894  0.5510  0.3140
  354TMC3    H1 5308   1.589   0.918  13.531 -0.1941  0.8682  2.9660
  354TMC3    H2 5309   1.773   1.230  13.314 -0.2898  1.2290  1.9268
  354TMC3    C7 5310   1.779   0.972  13.364 -0.2462  0.9186 -0.4098
  354TMC3    C8 5311   1.571   1.394  13.316 -0.0938  0.0417 -1.0595
  354TMC3    O1 5312   1.813   0.876  13.431 -0.3262 -0.0050 -0.0093
  354TMC3    O2 5313   1.664   1.403  13.236  0.1496  0.0577  0.4007
  355MPD2     C 5314   1.389   1.713  11.780 -0.4349  0.5666  0.0288
  355MPD2    C1 5315   1.448   1.692  11.656  0.1332 -0.0474 -0.1830
  355MPD2    C2 5316   1.586   1.667  11.653  0.6590  0.4888  0.2126
  355MPD2    C3 5317   1.665   1.668  11.765 -0.2810 -0.3490 -1.2083
  355MPD2    C4 5318   1.602   1.688  11.887  0.8538 -0.1811 -0.3037
  355MPD2    C5 5319   1.472   1.715  11.893 -0.3902 -0.1075  0.5945
  355MPD2     H 5320   1.622   1.643  11.553  0.7335 -0.7945  0.5465
  355MPD2    H1 5321   1.659   1.680  11.979 -3.4899  0.0250  2.4531
  355MPD2    H2 5322   1.284   1.740  11.788 -0.3842  0.9383 -0.5468
  355MPD2    H3 5323   1.421   1.732  11.987 -2.7025  1.1149 -0.8445
  355MPD2     N 5324   1.807   1.646  11.766 -0.2427  0.4304 -0.1593
  355MPD2    H5 5325   1.853   1.625  11.854 -1.6653  1.4684  0.8235
  355MPD2    N1 5326   1.361   1.675  11.551  0.5702 -0.7916 -0.0469
  355MPD2    H7 5327   1.278   1.621  11.574  0.8452 -0.5072  1.6159
  356TMC3    C1 5328   2.019   1.676  11.661 -0.0618 -0.0832 -0.6932
  356TMC3    C2 5329   2.070   1.698  11.536 -0.7601 -0.0172 -0.0039
  356TMC3    C3 5330   2.172   1.789  11.530 -0.9430  0.3558 -0.5097
  356TMC3    C4 5331   2.075   1.723  11.777  0.0684 -0.2467 -0.1518
  356TMC3    C5 5332   2.185   1.797  11.773  0.1280  0.2774 -0.0047
  356TMC3    C6 5333   2.228   1.836  11.645  0.9392  0.4217  0.9794
  356TMC3     C 5334   1.878   1.662  11.645 -0.3917  0.5054  0.0942
  356TMC3     O 5335   1.839   1.643  11.533 -0.5334  0.0327 -0.0394
  356TMC3     H 5336   2.031   1.676  11.438  1.4166  1.3781 -1.1833
  356TMC3    H1 5337   2.014   1.715  11.867 -1.2473 -0.7065 -1.0834
  356TMC3    H2 5338   2.309   1.907  11.634  0.4251  0.5389 -2.0666
  356TMC3    C7 5339   2.245   1.844  11.895  0.4210 -0.2584 -0.2888
  356TMC3    C8 5340   2.205   1.849  11.397  0.2087 -0.0391  0.4031
  356TMC3    O1 5341   2.221   1.777  11.994 -0.1046  0.5626  0.0168
  356TMC3    O2 5342   2.154   1.797  11.299 -0.4792  0.5881 -0.5552
  357MPD2     C 5343   1.197   1.824   1.688 -0.1311 -0.4191 -0.6575
  357MPD2    C1 5344   1.227   1.773   1.565  1.3781  0.9075 -0.0301
  357MPD2    C2 5345   1.131   1.778   1.469  0.3410 -0.0112 -0.8585
  357MPD2    C3 5346   1.002   1.834   1.485 -0.2881  0.7319 -0.3577
  357MPD2    C4 5347   0.977   1.890   1.608 -0.2049  0.1468 -0.0315
  357MPD2    C5 5348   1.075   1.882   1.708  0.6117  0.0065  0.9057
  357MPD2     H 5349   1.158   1.741   1.371 -2.3081 -0.1038 -1.5342
  357MPD2    H1 5350   0.879   1.930   1.629 -0.7456 -1.4788  0.5299
  357MPD2    H2 5351   1.263   1.805   1.772 -0.4198  1.4225 -0.0201
  357MPD2    H3 5352   1.059   1.928   1.805 -1.0514  1.1277  0.1024
  357MPD2     N 5353   0.904   1.850   1.384 -0.5029 -0.9754  0.2693
  357MPD2    H5 5354   0.815   1.894   1.404  0.1031  0.4682 -0.2354
  357MPD2    N1 5355   1.349   1.698   1.555  0.0902 -0.0356 -0.6549
  357MPD2    H7 5356   1.410   1.704   1.635  0.1407 -1.7916 -0.5623
  358TMC3    C1 5357   1.507   1.545   1.459 -0.4299  0.1465 -0.5037
  358TMC3    C2 5358   1.529   1.441   1.377  1.0836 -0.0749 -0.2604
  358TMC3    C3 5359   1.653   1.397   1.347 -0.3822  0.3796 -0.8104
  358TMC3    C4 5360   1.616   1.609   1.513 -0.5199 -0.5096  0.6310
  358TMC3    C5 5361   1.744   1.572   1.491 -0.0724 -0.1310 -0.6028
  358TMC3    C6 5362   1.766   1.471   1.398  0.1078  0.3024 -1.0746
  358TMC3     C 5363   1.376   1.608   1.457 -0.9690 -0.2989  0.1142
  358TMC3     O 5364   1.304   1.568   1.368 -0.0210  0.1049 -0.5286
  358TMC3     H 5365   1.445   1.394   1.327  0.5997 -0.7084  1.1448
  358TMC3    H1 5366   1.590   1.700   1.568 -1.6831 -0.4003 -0.0928
  358TMC3    H2 5367   1.868   1.437   1.393  0.5624  1.5472 -0.3310
  358TMC3    C7 5368   1.848   1.578   1.590  1.0905 -0.0965  0.8233
  358TMC3    C8 5369   1.671   1.335   1.219  0.2272  0.0386 -0.4170
  358TMC3    O1 5370   1.963   1.549   1.553  0.4422  1.2169  0.2649
  358TMC3    O2 5371   1.756   1.375   1.139 -0.1256  0.5779  0.1503
  359MPD2     C 5372   1.789   0.865  12.585 -0.1901 -0.6832  0.4302
  359MPD2    C1 5373   1.865   0.774  12.518 -0.5057 -0.0723 -0.2224
  359MPD2    C2 5374   1.951   0.694  12.581 -0.2556  0.2230  1.1901
  359MPD2    C3 5375   1.960   0.690  12.719  0.1002  0.1746 -0.5537
  359MPD2    C4 5376   1.872   0.770  12.793 -0.0186 -0.5003  0.1718
  359MPD2    C5 5377   1.799   0.859  12.725  0.9922 -0.4572 -0.0209
  359MPD2     H 5378   2.009   0.638  12.508 -2.6287 -2.7765  1.5999
  359MPD2    H1 5379   1.877   0.778  12.901  2.9608  0.3201 -0.0292
  359MPD2    H2 5380   1.735   0.945  12.536  0.5240  0.0900  0.8819
  359MPD2    H3 5381   1.745   0.928  12.788  0.3423 -0.2346 -0.8229
  359MPD2     N 5382   2.044   0.596  12.780  0.0651  0.3738  0.1864
  359MPD2    H5 5383   2.021   0.560  12.872 -2.7656  0.5922 -0.4580
  359MPD2    N1 5384   1.854   0.759  12.372 -0.5738 -0.5008 -0.2934
  359MPD2    H7 5385   1.920   0.694  12.330  0.2283  0.1487 -0.0429
  360TMC3    C1 5386   1.785   0.791  12.156 -0.6614 -0.0722 -0.5221
  360TMC3    C2 5387   1.919   0.775  12.124 -0.4135 -0.0775  0.0942
  360TMC3    C3 5388   1.957   0.732  11.999  0.3948 -0.6240 -0.0826
  360TMC3    C4 5389   1.688   0.752  12.061 -0.1119  0.6868 -0.4734
  360TMC3    C5 5390   1.735   0.699  11.944 -0.6727  0.4429 -0.1449
  360TMC3    C6 5391   1.868   0.689  11.913 -0.4435 -0.3912 -0.3602
  360TMC3     C 5392   1.752   0.807  12.294  0.0989 -0.6892 -0.3159
  360TMC3     O 5393   1.644   0.855  12.326  0.0164 -0.3637  0.3382
  360TMC3     H 5394   1.990   0.822  12.192 -0.4797  1.1770 -0.6979
  360TMC3    H1 5395   1.582   0.767  12.077 -0.6203 -2.4400 -0.9082
  360TMC3    H2 5396   1.901   0.667  11.812 -0.8383 -0.6300 -0.4360
  360TMC3    C7 5397   1.645   0.642  11.843 -0.1528 -0.3614  0.1239
  360TMC3    C8 5398   2.082   0.784  11.951  0.3117  0.2445  0.0455
  360TMC3    O1 5399   1.704   0.591  11.753  0.3250 -0.0682 -0.0319
  360TMC3    O2 5400   2.125   0.894  11.991  0.2002 -0.1455  0.0726
  361MPD2     C 5401   3.877   4.638  16.554 -0.3469 -0.0909  0.4908
  361MPD2    C1 5402   3.822   4.654  16.680  0.2384 -0.2723 -0.1028
  361MPD2    C2 5403   3.878   4.584  16.785 -0.4499  0.1968  0.0519
  361MPD2    C3 5404   3.976   4.494  16.768 -0.1859 -0.6702  0.0657
  361MPD2    C4 5405   4.040   4.490  16.649 -0.5398 -0.2498 -0.4367
  361MPD2    C5 5406   3.989   4.558  16.539  0.0054 -0.0772 -0.2896
  361MPD2     H 5407   3.827   4.591  16.881  0.7859 -2.1746  0.8761
  361MPD2    H1 5408   4.129   4.429  16.634 -0.5912 -0.5352  0.4191
  361MPD2    H2 5409   3.851   4.712  16.479 -0.8968 -0.4972  0.2859
  361MPD2    H3 5410   4.035   4.556  16.440 -0.5572 -0.6974 -0.5384
  361MPD2     N 5411   4.033   4.418  16.870  0.0075 -0.2950  0.5710
  361MPD2    H5 5412   4.095   4.346  16.835 -2.6521 -0.5042 -3.6374
  361MPD2    N1 5413   3.708   0.013  16.714  0.0881 -0.4678 -0.4091
  361MPD2    H7 5414   3.666   0.001  16.806  0.6202 -2.1819 -0.3996
  362TMC3    C1 5415   3.521   0.148  16.677  0.8121 -0.1023 -1.1932
  362TMC3    C2 5416   3.453   0.065  16.764 -0.1547  0.1240  0.5770
  362TMC3    C3 5417   3.330   0.105  16.813  1.2138  0.3087  1.2494
  362TMC3    C4 5418   3.485   0.277  16.655  0.6981 -0.8509  0.0377
  362TMC3    C5 5419   3.361   0.314  16.713 -0.5080 -0.1997 -0.2877
  362TMC3    C6 5420   3.285   0.229  16.789 -0.2001 -0.1448 -0.4146
  362TMC3     C 5421   3.651   0.105  16.627 -0.0372  0.2608  0.6677
  362TMC3     O 5422   3.694   0.153  16.521 -0.0644  0.1981 -0.1387
  362TMC3     H 5423   3.466   4.678  16.756 -1.8184 -0.0652  0.2442
  362TMC3    H1 5424   3.556   0.353  16.624 -0.1203 -0.7797 -1.6394
  362TMC3    H2 5425   3.192   0.271  16.826  1.2193 -0.1530  3.1191
  362TMC3    C7 5426   3.277   0.369  16.608  1.0107 -0.3372 -0.6864
  362TMC3    C8 5427   3.266   0.019  16.906 -0.4146 -0.3542 -0.7035
  362TMC3    O1 5428   3.158   0.390  16.630  0.2775 -0.6047  0.0467
  362TMC3    O2 5429   3.335   4.651  16.954  0.2274  0.4639  0.1528
  363TMC3    C1 5430   2.570   2.092   9.349 -1.0788 -0.1417  0.5213
  363TMC3    C2 5431   2.538   1.965   9.394  0.0507 -0.7950 -0.2810
  363TMC3    C3 5432   2.403   1.935   9.421 -0.3972 -0.5179  0.4913
  363TMC3    C4 5433   2.471   2.184   9.323  0.1984 -0.2078  0.2963
  363TMC3    C5 5434   2.342   2.152   9.346 -0.0108  0.6552  0.5249
  363TMC3    C6 5435   2.308   2.038   9.405 -0.2565  0.5394  0.4927
  363TMC3     C 5436   2.695   2.148   9.388  0.5101  0.2450 -0.9981
  363TMC3     O 5437   2.738   2.255   9.347 -0.4133 -0.5462 -0.0046
  363TMC3     H 5438   2.619   1.893   9.405  0.0304 -0.9615 -1.2316
  363TMC3    H1 5439   2.489   2.284   9.286  0.2016  0.2822  1.6058
  363TMC3    H2 5440   2.204   2.012   9.421 -0.1379  0.3181  0.9154
  363TMC3    C7 5441   2.234   2.236   9.298  0.0778  0.4525 -0.5063
  363TMC3    C8 5442   2.347   1.802   9.434 -0.1310 -0.1834 -0.1461
  363TMC3    O1 5443   2.257   2.312   9.204  0.6786 -0.1302 -0.4740
  363TMC3    O2 5444   2.223   1.791   9.438 -0.2786  0.3893  0.4566
  364MPD2     C 5445   0.888   1.587  10.697  0.0976 -0.8564  0.0635
  364MPD2    C1 5446   0.986   1.511  10.639  0.0531 -0.3748  0.4871
  364MPD2    C2 5447   0.970   1.376  10.628  1.1008  0.4591  0.3176
  364MPD2    C3 5448   0.849   1.322  10.681 -0.2501 -0.2417 -0.1136
  364MPD2    C4 5449   0.754   1.402  10.739 -0.0539 -0.1170 -0.3778
  364MPD2    C5 5450   0.767   1.537  10.747 -0.1299 -0.1611  0.5289
  364MPD2     H 5451   1.044   1.305  10.592  1.0323  1.9812 -2.8500
  364MPD2    H1 5452   0.657   1.367  10.775  0.2902 -1.1386 -0.4482
  364MPD2    H2 5453   0.885   1.695  10.686  2.2524 -0.7747  0.3635
  364MPD2    H3 5454   0.690   1.601  10.787 -1.8042 -0.3680 -2.3648
  364MPD2     N 5455   0.827   1.182  10.687  0.1357 -0.1074 -0.1180
  364MPD2    H5 5456   0.752   1.145  10.745  0.9858 -1.2069  0.2985
  364MPD2    N1 5457   1.100   1.573  10.589 -0.3303  0.8173  0.3672
  364MPD2    H7 5458   1.093   1.673  10.605 -3.7424  0.7315 -0.7150
  365TMC3    C1 5459   1.293   1.613  10.468 -0.2071 -0.3507  0.0202
  365TMC3    C2 5460   1.399   1.571  10.397 -0.3926 -0.2201 -0.2135
  365TMC3    C3 5461   1.493   1.661  10.349  0.3071 -0.3843  0.4564
  365TMC3    C4 5462   1.270   1.750  10.489  0.0286 -1.0003  0.3963
  365TMC3    C5 5463   1.359   1.839  10.434 -0.0813  0.1937 -0.0765
  365TMC3    C6 5464   1.473   1.793  10.371 -0.2140  0.1281 -1.1262
  365TMC3     C 5465   1.193   1.514  10.512 -0.3033 -0.0462 -0.1181
  365TMC3     O 5466   1.216   1.397  10.494  0.1388  0.2436  0.7771
  365TMC3     H 5467   1.408   1.463  10.386 -0.0225  0.1636 -3.6549
  365TMC3    H1 5468   1.178   1.789  10.531 -0.3335 -2.9862  1.4800
  365TMC3    H2 5469   1.549   1.864  10.340  0.4713  0.0738  0.4568
  365TMC3    C7 5470   1.374   1.976  10.490  0.0877 -0.3216 -0.1302
  365TMC3    C8 5471   1.608   1.616  10.272 -0.0496 -0.4136  0.4989
  365TMC3    O1 5472   1.465   2.047  10.451  0.7907 -0.0995 -0.1170
  365TMC3    O2 5473   1.695   1.698  10.240 -0.2975 -0.4175 -0.0833
  366MPD2     C 5474   3.314   3.542  15.740 -0.1374  0.2427 -0.5481
  366MPD2    C1 5475   3.437   3.542  15.793 -0.1042 -0.0891 -0.1596
  366MPD2    C2 5476   3.505   3.420  15.790 -0.0416 -0.2854  0.1564
  366MPD2    C3 5477   3.461   3.308  15.734  0.0022 -0.7323 -0.6185
  366MPD2    C4 5478   3.336   3.313  15.680 -0.0580 -0.6216 -0.4235
  366MPD2    C5 5479   3.264   3.436  15.676  0.1396 -0.2366 -0.2567
  366MPD2     H 5480   3.602   3.414  15.838 -0.1428 -0.1795  0.3706
  366MPD2    H1 5481   3.300   3.230  15.621  1.0821 -1.7257  0.4349
  366MPD2    H2 5482   3.252   3.631  15.745 -0.8956 -0.1780 -2.3560
  366MPD2    H3 5483   3.165   3.441  15.632  0.4031 -1.7639 -1.0404
  366MPD2     N 5484   3.551   3.199  15.722 -0.3434  0.4497 -0.3419
  366MPD2    H5 5485   3.640   3.195  15.770 -0.4104 -1.6890 -0.3803
  366MPD2    N1 5486   3.494   3.653  15.859 -0.5542 -0.3636 -0.5928
  366MPD2    H7 5487   3.593   3.646  15.878 -0.5566  0.4077 -0.2831
  367TMC3    C1 5488   3.511   3.881  15.867 -0.0642  0.6289  0.1374
  367TMC3    C2 5489   3.636   3.858  15.909 -0.3774 -0.4318 -0.0219
  367TMC3    C3 5490   3.731   3.902  15.819 -0.0194 -0.0272  0.3531
  367TMC3    C4 5491   3.477   3.948  15.758 -0.2795  0.1156  0.6860
  367TMC3    C5 5492   3.568   3.960  15.657 -0.1056 -0.2097 -0.0845
  367TMC3    C6 5493   3.699   3.934  15.690 -0.0401  0.2662  0.2909
  367TMC3     C 5494   3.423   3.772  15.886  0.1092  0.9447 -0.7491
  367TMC3     O 5495   3.302   3.790  15.877  0.6843  0.2376  0.7649
  367TMC3     H 5496   3.667   3.808  16.000  3.2223 -1.1056 -1.6118
  367TMC3    H1 5497   3.372   3.967  15.739  0.3746  0.3468 -2.5570
  367TMC3    H2 5498   3.770   3.938  15.608  2.0339 -1.1792  1.9996
  367TMC3    C7 5499   3.516   3.978  15.520  0.9716  0.3938 -0.5146
  367TMC3    C8 5500   3.861   3.832  15.843  0.1031 -0.6064 -0.0160
  367TMC3    O1 5501   3.393   3.997  15.518  0.0011  0.5666  0.4563
  367TMC3    O2 5502   3.895   3.751  15.758 -0.3798  0.2094 -0.3007
  368MPD2     C 5503   0.854   4.260  13.481 -0.2937 -0.2647 -1.4723
  368MPD2    C1 5504   0.878   4.294  13.348 -0.5011 -0.1721 -0.4639
  368MPD2    C2 5505   1.008   4.304  13.295 -0.4443  0.1000 -0.9562
  368MPD2    C3 5506   1.118   4.287  13.372  0.3419 -0.1441  0.7211
  368MPD2    C4 5507   1.093   4.254  13.503 -0.1382  0.6185  0.5318
  368MPD2    C5 5508   0.967   4.233  13.553 -0.2365 -0.3300  0.7187
  368MPD2     H 5509   1.022   4.314  13.188  0.5525 -2.5725 -1.0780
  368MPD2    H1 5510   1.175   4.240  13.572  0.3930  3.5888  0.4777
  368MPD2    H2 5511   0.752   4.242  13.513  0.6581  0.0564  1.6828
  368MPD2    H3 5512   0.955   4.205  13.657 -1.5515 -2.6099 -0.0708
  368MPD2     N 5513   1.253   4.286  13.334  0.5229  0.0487  0.0335
  368MPD2    H5 5514   1.323   4.266  13.404 -0.5420 -1.6300  0.6425
  368MPD2    N1 5515   0.758   4.299  13.266  0.2865  0.0894  0.2010
  368MPD2    H7 5516   0.671   4.274  13.311  1.0457  0.3725  1.8458
  369TMC3    C1 5517   0.625   4.344  13.089  0.0129 -0.1816 -0.3176
  369TMC3    C2 5518   0.596   4.463  13.022 -0.3744 -0.2022  0.7946
  369TMC3    C3 5519   0.461   4.497  13.015  0.4146 -0.1891 -0.0359
  369TMC3    C4 5520   0.528   4.258  13.137  0.2946 -0.2158  0.4282
  369TMC3    C5 5521   0.393   4.296  13.113  0.3781 -0.1596  0.2703
  369TMC3    C6 5522   0.357   4.413  13.053  0.4824 -0.3436  0.8288
  369TMC3     C 5523   0.759   4.340  13.136  0.5883 -0.2418 -0.1287
  369TMC3     O 5524   0.840   4.391  13.063  0.2579 -0.2429 -0.2376
  369TMC3     H 5525   0.668   4.536  12.986  0.5418 -3.1821 -3.3832
  369TMC3    H1 5526   0.554   4.167  13.189  1.0997 -0.7424 -0.8733
  369TMC3    H2 5527   0.253   4.441  13.041 -0.0305 -2.0147  1.3598
  369TMC3    C7 5528   0.289   4.207  13.172 -0.0311  0.0008  0.0415
  369TMC3    C8 5529   0.435   4.632  12.974 -0.8332  0.1734 -0.4284
  369TMC3    O1 5530   0.322   4.129  13.255 -0.0137  0.3550  0.3559
  369TMC3    O2 5531   0.517   4.668  12.890  0.1595  0.2615  0.9183
  370TMC3    C1 5532   4.555   0.456  16.079 -0.6479  0.2249  0.4476
  370TMC3    C2 5533   4.523   0.415  16.206 -0.4419 -0.5449 -0.1431
  370TMC3    C3 5534   4.493   0.283  16.227 -0.5889  0.3311  0.1243
  370TMC3    C4 5535   4.551   0.371  15.973  0.2355 -0.0687  0.2970
  370TMC3    C5 5536   4.526   0.238  16.001  0.2713  0.2495 -0.5467
  370TMC3    C6 5537   4.492   0.198  16.125 -0.6788  0.5350  0.5353
  370TMC3     C 5538   4.607   0.590  16.055  0.6368  0.3107  0.5081
  370TMC3     O 5539   4.643   0.623  15.942 -0.3481 -0.3200  0.4959
  370TMC3     H 5540   4.559   0.479  16.286  0.3319 -0.7759 -0.3104
  370TMC3    H1 5541   4.593   0.408  15.881  1.6950 -0.2061  0.9058
  370TMC3    H2 5542   4.483   0.092  16.143 -1.4096  0.7041  1.1365
  370TMC3    C7 5543   4.581   0.137  15.921  0.3260 -0.5322 -0.3026
  370TMC3    C8 5544   4.522   0.219  16.351 -0.2939  0.3502 -0.1302
  370TMC3    O1 5545   4.661   0.177  15.839 -0.4374  0.0678  0.0827
  370TMC3    O2 5546   4.550   0.100  16.350 -0.1220 -0.2778 -0.5475
  371TMC3    C1 5547   0.765   3.219  15.578 -0.4715 -0.0444 -0.5304
  371TMC3    C2 5548   0.729   3.278  15.696 -0.1499 -0.3124 -0.4602
  371TMC3    C3 5549   0.734   3.414  15.695  0.1792  0.2612 -0.1864
  371TMC3    C4 5550   0.809   3.289  15.469  0.1430  0.7251  0.0191
  371TMC3    C5 5551   0.822   3.425  15.481  0.7114  0.6355  0.0806
  371TMC3    C6 5552   0.778   3.492  15.588  0.6343 -0.1185 -0.2782
  371TMC3     C 5553   0.837   3.090  15.585  0.0407  0.2408 -0.2927
  371TMC3     O 5554   0.941   3.076  15.520  0.0915 -0.0767  0.0878
  371TMC3     H 5555   0.703   3.218  15.783  2.4730 -0.5257  0.1664
  371TMC3    H1 5556   0.841   3.243  15.376  2.1396  0.7261  0.6998
  371TMC3    H2 5557   0.799   3.599  15.597  0.7178 -0.0777 -1.0004
  371TMC3    C7 5558   0.883   3.518  15.389 -0.2089  0.5004  0.0303
  371TMC3    C8 5559   0.708   3.479  15.822 -0.7667 -0.2372  1.1205
  371TMC3    O1 5560   0.870   3.637  15.396  0.2404 -0.4640 -0.2782
  371TMC3    O2 5561   0.738   3.414  15.922 -0.6635 -0.5524  0.2727
  372MPD2     C 5562   0.488   4.620  13.349  0.0908  0.3547  0.2106
  372MPD2    C1 5563   0.579   4.561  13.431  0.4581 -0.3005  0.0798
  372MPD2    C2 5564   0.536   4.448  13.496  0.4217 -0.2080  0.3633
  372MPD2    C3 5565   0.405   4.413  13.504 -0.1755  0.3916  0.6161
  372MPD2    C4 5566   0.309   4.490  13.441 -0.5679 -0.7566 -0.1405
  372MPD2    C5 5567   0.350   4.596  13.361 -0.0861 -0.1181 -0.2118
  372MPD2     H 5568   0.606   4.396  13.559  0.0888 -0.7953  0.2504
  372MPD2    H1 5569   0.202   4.471  13.445 -1.1979  3.0006  0.7725
  372MPD2    H2 5570   0.511   4.705  13.285  0.0874  1.0261  1.0985
  372MPD2    H3 5571   0.289   4.670  13.311 -0.7042 -0.0495  0.6522
  372MPD2     N 5572   0.376   4.302  13.583 -0.7972  0.0629  0.8582
  372MPD2    H5 5573   0.458   4.261  13.627 -1.8830 -2.2512  0.6911
  372MPD2    N1 5574   0.719   4.598  13.442  0.3579 -0.2500  0.1783
  372MPD2    H7 5575   0.773   4.542  13.507  0.6979 -0.7266 -0.5125
  373TMC3    C1 5576   0.275   4.132  13.694  0.0677  0.4174  0.1891
  373TMC3    C2 5577   0.286   4.173  13.822  0.4907 -0.2625 -0.2605
  373TMC3    C3 5578   0.356   4.101  13.913  0.0473 -0.0219 -0.0312
  373TMC3    C4 5579   0.344   4.027  13.654  0.0818 -0.1543 -0.0447
  373TMC3    C5 5580   0.419   3.949  13.747  0.1975 -0.6776 -0.2448
  373TMC3    C6 5581   0.424   3.991  13.879 -0.0740  0.0127 -0.0704
  373TMC3     C 5582   0.261   4.241  13.607 -0.2718  0.5376  0.0051
  373TMC3     O 5583   0.145   4.271  13.589 -0.2407  0.0880  0.3871
  373TMC3     H 5584   0.236   4.264  13.853  0.7473 -0.9586  2.2074
  373TMC3    H1 5585   0.341   4.003  13.549  0.7677 -1.4450  0.2362
  373TMC3    H2 5586   0.478   3.939  13.957 -1.1268  0.4325  0.9296
  373TMC3    C7 5587   0.528   3.878  13.686 -0.0095 -0.2051 -0.2792
  373TMC3    C8 5588   0.407   4.170  14.026  0.1600 -0.4211  0.3580
  373TMC3    O1 5589   0.550   3.896  13.568 -0.0494 -0.4562 -0.6040
  373TMC3    O2 5590   0.526   4.167  14.037  0.2319 -0.1648 -0.1316
  374TMC3    C1 5591   0.997   4.025   9.973 -0.6574  0.7232 -0.2165
  374TMC3    C2 5592   1.116   4.101   9.966 -0.2218  0.4025 -0.3025
  374TMC3    C3 5593   1.105   4.211   9.887  0.2635  0.3536  0.2959
  374TMC3    C4 5594   0.877   4.059   9.913 -0.5930  0.2585 -0.3184
  374TMC3    C5 5595   0.878   4.175   9.845  0.4127 -0.3423  0.2042
  374TMC3    C6 5596   0.983   4.251   9.826  0.4728  0.2914 -0.5071
  374TMC3     C 5597   1.022   3.884  10.001  0.1260  0.5413 -0.1976
  374TMC3     O 5598   1.120   3.858  10.070 -0.0849 -0.0524 -0.0931
  374TMC3     H 5599   1.213   4.063   9.996 -0.3891 -0.8011 -1.2664
  374TMC3    H1 5600   0.782   4.007   9.922 -1.3546  1.3579 -1.8947
  374TMC3    H2 5601   0.981   4.339   9.763 -2.2130  1.1842  0.8299
  374TMC3    C7 5602   0.765   4.195   9.755  0.1057  0.4378 -0.2538
  374TMC3    C8 5603   1.214   4.305   9.876  0.6552 -0.3611 -0.4815
  374TMC3    O1 5604   0.663   4.141   9.792  0.3913  0.0957 -0.0857
  374TMC3    O2 5605   1.212   4.374   9.772  0.0815  0.0347  0.0214
  375MPD2     C 5606   0.889   0.423  16.952 -0.2424  0.2047 -0.1317
  375MPD2    C1 5607   0.880   0.504  16.842 -0.1963 -0.3726 -0.0030
  375MPD2    C2 5608   0.945   0.467  16.721 -0.3948  0.2848 -0.6267
  375MPD2    C3 5609   1.018   0.348  16.719 -0.2346 -0.1931 -0.9196
  375MPD2    C4 5610   1.009   0.260  16.825  0.3854 -0.7267  0.6000
  375MPD2    C5 5611   0.963   0.304  16.941 -0.4622 -0.4173 -0.4940
  375MPD2     H 5612   0.940   0.532  16.634 -0.1153  0.9728 -0.1223
  375MPD2    H1 5613   1.065   0.167  16.825  2.2111  0.3737 -0.2637
  375MPD2    H2 5614   0.848   0.446  17.050  0.1237 -1.1430  0.3392
  375MPD2    H3 5615   0.980   0.246  17.031  0.2659  0.6403  0.0575
  375MPD2     N 5616   1.102   0.301  16.617  0.4868  0.0838 -0.1118
  375MPD2    H5 5617   1.140   0.209  16.634  2.8312  0.6839 -2.0227
  375MPD2    N1 5618   0.798   0.621  16.843  0.3177 -0.1125  0.0388
  375MPD2    H7 5619   0.789   0.664  16.752  1.1769 -1.3300 -0.6293
  376TMC3    C1 5620   1.224   0.299  16.412 -1.6810 -0.0949  1.2074
  376TMC3    C2 5621   1.343   0.269  16.465  0.1456  0.5653  0.0316
  376TMC3    C3 5622   1.425   0.183  16.393  0.1037 -0.0766 -0.1800
  376TMC3    C4 5623   1.174   0.265  16.293  0.7543  0.1292 -1.1184
  376TMC3    C5 5624   1.263   0.199  16.218  0.1675  0.4536  0.5616
  376TMC3    C6 5625   1.383   0.156  16.263  0.1308 -0.5048 -0.2586
  376TMC3     C 5626   1.123   0.367  16.497 -0.7593  0.2838 -0.3165
  376TMC3     O 5627   1.069   0.467  16.447 -0.4518  0.1462  0.2506
  376TMC3     H 5628   1.370   0.297  16.567  2.3076 -2.4408  0.2894
  376TMC3    H1 5629   1.080   0.306  16.257 -0.4565 -1.5388  0.1775
  376TMC3    H2 5630   1.447   0.093  16.202  0.1127  0.5469 -1.3569
  376TMC3    C7 5631   1.245   0.219  16.075  0.2919 -0.4521 -0.3223
  376TMC3    C8 5632   1.563   0.221  16.399 -0.3858  0.1695 -0.0665
  376TMC3    O1 5633   1.161   0.299  16.045 -0.4783 -0.1998 -0.2508
  376TMC3    O2 5634   1.613   0.242  16.289  0.0974 -0.3750  0.2355
  377MPD2     C 5635   3.921   0.586  12.309 -0.1371 -0.2167 -0.2570
  377MPD2    C1 5636   3.990   0.476  12.359  0.0172 -0.3173  0.3567
  377MPD2    C2 5637   3.929   0.409  12.463 -0.9523  0.1247  0.7706
  377MPD2    C3 5638   3.802   0.443  12.510 -0.4911 -0.6631  0.0605
  377MPD2    C4 5639   3.729   0.551  12.455  0.2094  0.8085 -0.5200
  377MPD2    C5 5640   3.797   0.624  12.357  0.2635  1.1827 -0.7534
  377MPD2     H 5641   3.976   0.320  12.503  2.6896  1.4373 -0.5349
  377MPD2    H1 5642   3.629   0.573  12.490  0.3790 -1.7650  1.5774
  377MPD2    H2 5643   3.967   0.649  12.233 -0.7468 -0.4027 -0.7829
  377MPD2    H3 5644   3.747   0.708  12.311  1.0418  1.3286 -1.3455
  377MPD2     N 5645   3.735   0.369  12.602  0.6777 -0.3766 -0.0970
  377MPD2    H5 5646   3.649   0.408  12.639 -1.2298 -4.3123 -0.3491
  377MPD2    N1 5647   4.119   0.441  12.307  0.1260 -0.2253  0.4396
  377MPD2    H7 5648   4.145   0.511  12.238  0.8062 -0.6751  0.2451
  378TMC3    C1 5649   4.465   0.441  12.130 -0.6097  0.0021  0.0651
  378TMC3    C2 5650   4.337   0.406  12.171 -0.0985 -0.0922 -0.6142
  378TMC3    C3 5651   4.327   0.351  12.293 -0.2498 -0.2326 -0.3638
  378TMC3    C4 5652   4.578   0.407  12.198  0.4610 -0.8810  0.4218
  378TMC3    C5 5653   4.562   0.354  12.323 -0.5223 -0.1257  0.5932
  378TMC3    C6 5654   4.440   0.324  12.369 -0.1348 -0.9784 -0.1235
  378TMC3     C 5655   4.479   0.494  11.999  0.1361  0.5958  0.1128
  378TMC3     O 5656   4.385   0.500  11.922 -0.0145 -0.1170  0.1116
  378TMC3     H 5657   4.261   0.427  12.096 -0.7793 -0.5918 -0.0602
  378TMC3    H1 5658   4.676   0.426  12.155  0.2525  4.4588  2.2801
  378TMC3    H2 5659   4.430   0.276  12.466 -2.9617  1.1771  0.6633
  378TMC3    C7 5660   4.683   0.329  12.405 -0.1993 -0.3855 -0.2996
  378TMC3    C8 5661   4.202   0.342  12.350 -0.4426  0.6955 -0.1027
  378TMC3    O1 5662   4.664   0.302  12.522  0.3984 -0.0211  0.2141
  378TMC3    O2 5663   4.193   0.273  12.450 -0.0945  0.5641  0.2806
  379MPD2     C 5664   4.681   2.635  15.931 -0.9988 -0.0212 -0.0566
  379MPD2    C1 5665   4.679   2.739  16.019 -0.0623 -0.2439  0.5322
  379MPD2    C2 5666   0.045   2.755  16.120  0.3556  0.0092 -0.6236
  379MPD2    C3 5667   0.130   2.650  16.147  0.1739 -0.1684  0.7059
  379MPD2    C4 5668   0.131   2.539  16.061 -0.7051 -0.1569 -0.1297
  379MPD2    C5 5669   0.041   2.530  15.959 -0.3441  0.1771  0.1832
  379MPD2     H 5670   0.052   2.841  16.185  0.4689  1.4287 -2.5028
  379MPD2    H1 5671   0.204   2.463  16.085 -0.0240 -0.0616 -1.9219
  379MPD2    H2 5672   4.619   2.628  15.842  0.3343  1.2233 -1.0687
  379MPD2    H3 5673   0.041   2.439  15.900  0.8553  0.7410 -0.6795
  379MPD2     N 5674   0.231   2.656  16.242 -0.4978 -0.5813 -0.4226
  379MPD2    H5 5675   0.284   2.572  16.261  1.7245  0.0901 -3.7382
  379MPD2    N1 5676   4.582   2.838  15.989  0.3778  0.1139  0.4786
  379MPD2    H7 5677   4.530   2.805  15.908 -1.9653 -1.9586  2.8076
  380TMC3    C1 5678   4.434   3.023  16.001 -0.0408 -0.5419 -0.1037
  380TMC3    C2 5679   4.407   2.993  15.874 -1.1951 -0.0727 -0.2503
  380TMC3    C3 5680   4.344   3.092  15.801  0.0368 -0.0063 -0.0396
  380TMC3    C4 5681   4.402   3.146  16.051 -0.4749 -0.5347 -0.3396
  380TMC3    C5 5682   4.345   3.242  15.977 -0.2419 -0.3966  0.5511
  380TMC3    C6 5683   4.308   3.217  15.846  0.6202  0.9960  0.0022
  380TMC3     C 5684   4.548   2.952  16.057 -0.4139 -0.2661  0.3062
  380TMC3     O 5685   4.588   2.991  16.168 -0.6773 -0.0300 -0.0482
  380TMC3     H 5686   4.438   2.904  15.820  1.6847  1.6519 -1.4490
  380TMC3    H1 5687   4.444   3.177  16.146 -2.2569 -1.9909  0.9185
  380TMC3    H2 5688   4.274   3.305  15.792 -1.2983  1.1266  1.4037
  380TMC3    C7 5689   4.327   3.370  16.032 -0.4057 -0.0421 -0.0017
  380TMC3    C8 5690   4.339   3.066  15.655 -0.1174 -1.1558  0.3102
  380TMC3    O1 5691   4.405   3.411  16.117 -0.2367  0.4995  0.1742
  380TMC3    O2 5692   4.392   2.967  15.608  0.2813  0.5181 -0.5321
  381TMC3    C1 5693   4.681   4.261  16.182  0.1396 -0.2250  0.4213
  381TMC3    C2 5694   0.054   4.358  16.168  0.0640 -0.5902  0.2888
  381TMC3    C3 5695   0.035   4.467  16.245  0.1729  0.4472  0.4328
  381TMC3    C4 5696   4.580   4.267  16.267  0.1879  0.3728 -0.2786
  381TMC3    C5 5697   4.565   4.379  16.350 -0.7217  0.3788 -0.5973
  381TMC3    C6 5698   4.659   4.481  16.346 -0.3951 -0.2818  0.6784
  381TMC3     C 5699   4.718   4.131  16.135 -0.4800 -0.0034  0.3436
  381TMC3     O 5700   0.115   4.102  16.130  0.1400  0.5628  0.7762
  381TMC3     H 5701   0.143   4.348  16.107  0.2823  1.0213  0.3443
  381TMC3    H1 5702   4.514   4.181  16.277 -0.5341  1.0787  1.0380
  381TMC3    H2 5703   4.677   4.558  16.420 -4.2089  1.3235 -0.0982
  381TMC3    C7 5704   4.509   4.337  16.477 -0.7599  0.0326  0.0742
  381TMC3    C8 5705   0.119   4.578  16.206 -0.1910 -0.3148  0.4444
  381TMC3    O1 5706   4.508   4.218  16.496 -0.3035  0.3437 -0.8019
  381TMC3    O2 5707   0.202   4.549  16.120  0.2502 -0.1674  0.3215
  382MPD2     C 5708   3.957   2.375  16.990  0.4618  0.0988  0.0868
  382MPD2    C1 5709   3.918   2.385  17.122  0.6207 -0.0027  0.2743
  382MPD2    C2 5710   3.829   2.301  17.183  0.0501 -0.6613 -0.4187
  382MPD2    C3 5711   3.770   2.205  17.111  0.1259 -0.9747  0.1428
  382MPD2    C4 5712   3.820   2.183  16.976  1.0552 -0.2076  0.1262
  382MPD2    C5 5713   3.901   2.273  16.919  0.4621  0.3404 -0.3491
  382MPD2     H 5714   3.810   2.318  17.288 -2.1125 -0.7243 -0.7823
  382MPD2    H1 5715   3.774   2.115  16.904  0.4788  1.0983 -0.7458
  382MPD2    H2 5716   4.026   2.440  16.937  1.8899 -1.9547 -0.5715
  382MPD2    H3 5717   3.924   2.259  16.814 -0.5983  0.9803 -0.6686
  382MPD2     N 5718   3.664   2.126  17.158 -0.0820 -0.3829  0.5927
  382MPD2    H5 5719   3.641   2.049  17.097  1.1697 -0.5174  0.2919
  382MPD2    N1 5720   3.963   2.492  17.203  0.5096  0.4635 -0.2331
  382MPD2    H7 5721   3.921   2.489  17.296  1.8867  0.7628  0.3842
  383TMC3    C1 5722   3.519   2.021  17.297 -0.2928 -0.2733  0.3387
  383TMC3    C2 5723   3.515   1.908  17.221  0.0151 -0.5141  0.0543
  383TMC3    C3 5724   3.411   1.815  17.249 -0.0177  0.2122  0.0890
  383TMC3    C4 5725   3.427   2.045  17.401 -0.6673  0.1631 -0.4525
  383TMC3    C5 5726   3.326   1.953  17.423 -0.0072 -0.8978 -0.2849
  383TMC3    C6 5727   3.318   1.834  17.350  0.7139  0.0859 -0.4407
  383TMC3     C 5728   3.590   2.145  17.267  0.2632 -0.0470 -0.9040
  383TMC3     O 5729   3.590   2.235  17.349  0.4728 -1.2425 -0.0353
  383TMC3     H 5730   3.576   1.889  17.133 -0.7374 -1.2522 -0.3094
  383TMC3    H1 5731   3.419   2.134  17.463 -2.3772 -1.6840  1.9930
  383TMC3    H2 5732   3.231   1.771  17.364  0.7820 -0.1198 -0.9564
  383TMC3    C7 5733   3.226   1.986  17.521 -0.3261  0.4951 -0.0219
  383TMC3    C8 5734   3.401   1.704  17.160 -0.5678  0.5018 -0.2473
  383TMC3    O1 5735   3.235   2.099  17.568 -0.3009  0.3105 -0.4872
  383TMC3    O2 5736   3.490   1.679  17.086  0.4509 -0.3496 -0.8244
  384MPD2     C 5737   0.780   3.211  11.931  0.0116  0.0968  0.6328
  384MPD2    C1 5738   0.842   3.187  12.048 -0.5513  0.8555 -0.1054
  384MPD2    C2 5739   0.955   3.111  12.062  0.3860 -0.0743 -0.1699
  384MPD2    C3 5740   1.007   3.053  11.945 -0.5323 -0.4162  0.6582
  384MPD2    C4 5741   0.951   3.079  11.822 -0.3009 -0.3512 -0.4447
  384MPD2    C5 5742   0.834   3.155  11.815 -0.1760 -0.0994  0.3618
  384MPD2     H 5743   0.995   3.085  12.160  0.2723  0.5032  0.0285
  384MPD2    H1 5744   0.989   3.047  11.725  1.0487  1.1900 -0.4105
  384MPD2    H2 5745   0.692   3.273  11.918 -0.1965 -0.1864  0.6976
  384MPD2    H3 5746   0.783   3.165  11.720 -1.1936  1.4884  1.0851
  384MPD2     N 5747   1.113   2.961  11.970  0.2054 -0.2602 -0.5336
  384MPD2    H5 5748   1.144   2.952  12.067  1.4671  0.4477 -0.8778
  384MPD2    N1 5749   0.794   3.243  12.171 -0.2983  0.9981 -0.5323
  384MPD2    H7 5750   0.836   3.208  12.256 -0.5692 -0.4484 -0.9909
  385TMC3    C1 5751   1.254   2.784  11.936 -0.1017  0.2031 -0.6255
  385TMC3    C2 5752   1.211   2.652  11.913  0.2986  0.4115  0.1456
  385TMC3    C3 5753   1.214   2.560  12.022  0.3932  0.6031 -0.5087
  385TMC3    C4 5754   1.286   2.818  12.057 -0.7704 -0.0266 -0.3402
  385TMC3    C5 5755   1.278   2.731  12.169  0.7170 -0.2758 -1.0568
  385TMC3    C6 5756   1.242   2.603  12.146  0.7658  0.3958 -0.3020
  385TMC3     C 5757   1.169   2.880  11.871 -0.8157  0.7699  0.3416
  385TMC3     O 5758   1.138   2.864  11.755  0.0519  0.4869  0.2046
  385TMC3     H 5759   1.195   2.617  11.812  0.2619 -3.0772  1.3465
  385TMC3    H1 5760   1.335   2.914  12.071  1.1669 -1.0995  0.2201
  385TMC3    H2 5761   1.248   2.525  12.221  1.4157  0.4484 -0.2926
  385TMC3    C7 5762   1.206   2.783  12.279  0.2994  0.7763 -0.0756
  385TMC3    C8 5763   1.136   2.432  12.013  0.5830  0.2421 -0.2668
  385TMC3    O1 5764   1.184   2.906  12.267  0.0832  0.4383 -0.3979
  385TMC3    O2 5765   1.097   2.388  12.120 -0.5260  0.1043 -0.3415
  386TMC3    C1 5766   1.476   0.445  12.089 -0.3196  0.1436 -0.2400
  386TMC3    C2 5767   1.369   0.401  12.011 -0.7877  0.1588  0.2687
  386TMC3    C3 5768   1.244   0.455  12.035 -0.2741 -0.5753  0.0855
  386TMC3    C4 5769   1.460   0.534  12.189 -0.4656  0.0817  0.3395
  386TMC3    C5 5770   1.333   0.568  12.217  0.4803  0.6775 -0.5995
  386TMC3    C6 5771   1.223   0.544  12.133  0.1016  0.4276 -0.2461
  386TMC3     C 5772   1.613   0.386  12.091  0.0415  0.0090 -0.0500
  386TMC3     O 5773   1.711   0.427  12.154 -0.0617 -0.1469 -0.7637
  386TMC3     H 5774   1.392   0.338  11.926 -0.1805  1.8281 -0.8288
  386TMC3    H1 5775   1.540   0.569  12.253 -2.0942 -0.9395  2.9274
  386TMC3    H2 5776   1.128   0.594  12.143 -0.2444 -0.5100  1.0408
  386TMC3    C7 5777   1.285   0.591  12.352 -0.1930 -0.1710 -0.2958
  386TMC3    C8 5778   1.127   0.415  11.954 -0.1669 -0.4998  0.1417
  386TMC3    O1 5779   1.171   0.565  12.363 -0.0423 -0.0808  0.5040
  386TMC3    O2 5780   1.025   0.469  11.979 -0.4697 -0.0325  0.2493
  387MPD2     C 5781   3.203   0.287   9.570 -0.0940 -0.3675 -0.4535
  387MPD2    C1 5782   3.303   0.234   9.655 -0.0532  0.6565  0.7029
  387MPD2    C2 5783   3.321   0.096   9.657  0.2397 -0.5794  0.1963
  387MPD2    C3 5784   3.255   0.014   9.567  0.3416  0.5157 -0.0932
  387MPD2    C4 5785   3.158   0.071   9.483 -0.1490 -0.0288 -0.2857
  387MPD2    C5 5786   3.126   0.201   9.498 -0.2736  0.4171  0.5871
  387MPD2     H 5787   3.394   0.047   9.721  0.6921 -1.0555 -0.6990
  387MPD2    H1 5788   3.101   0.019   9.406 -0.7108 -2.3197  1.6648
  387MPD2    H2 5789   3.181   0.393   9.559  4.2998  0.5912 -0.1457
  387MPD2    H3 5790   3.057   0.249   9.429 -1.8835 -1.3422  0.9873
  387MPD2     N 5791   3.287   4.598   9.576 -0.8522 -0.6785 -0.6681
  387MPD2    H5 5792   3.365   4.576   9.637 -0.5125 -0.2706 -0.9544
  387MPD2    N1 5793   3.397   0.305   9.726 -0.1331  0.4773  0.6520
  387MPD2    H7 5794   3.465   0.248   9.776  1.7700  1.1235 -1.2038
  388TMC3    C1 5795   3.541   0.467   9.790  0.5433 -0.4624 -0.4906
  388TMC3    C2 5796   3.561   0.568   9.874  0.0575 -0.4946  0.7972
  388TMC3    C3 5797   3.689   0.591   9.909  0.6291  0.5697  0.6768
  388TMC3    C4 5798   3.646   0.389   9.752  0.0046  0.5610  0.6760
  388TMC3    C5 5799   3.776   0.415   9.794  0.4812 -0.0595 -0.7499
  388TMC3    C6 5800   3.796   0.519   9.874  0.5701 -0.0538 -0.3742
  388TMC3     C 5801   3.414   0.440   9.731 -0.5239 -0.3716 -0.2812
  388TMC3     O 5802   3.332   0.530   9.719 -0.0276  0.2532  0.0670
  388TMC3     H 5803   3.474   0.624   9.905  0.0367 -0.9403  1.5674
  388TMC3    H1 5804   3.630   0.319   9.671  0.7871  1.6015 -0.3908
  388TMC3    H2 5805   3.895   0.548   9.907  0.3662  1.1558 -0.8197
  388TMC3    C7 5806   3.882   0.313   9.784  0.4422  0.6670  0.3969
  388TMC3    C8 5807   3.696   0.668  10.030  0.1128  0.8185 -0.0911
  388TMC3    O1 5808   3.998   0.349   9.757  0.9402  0.7370  0.1772
  388TMC3    O2 5809   3.694   0.602  10.133  0.3108 -0.0695  0.1939
  389MPD2     C 5810   2.719   2.994  10.651  0.5393 -0.0309 -0.2880
  389MPD2    C1 5811   2.629   2.898  10.615 -0.3623 -0.1599 -0.0946
  389MPD2    C2 5812   2.513   2.866  10.693 -0.5072  0.3023  0.0921
  389MPD2    C3 5813   2.503   2.925  10.811  0.0929 -0.7112 -0.1154
  389MPD2    C4 5814   2.606   3.010  10.858  0.4901  0.2116  0.7240
  389MPD2    C5 5815   2.706   3.048  10.772  0.2729  0.2358 -0.1074
  389MPD2     H 5816   2.441   2.798  10.648 -0.6319 -0.0392  0.8200
  389MPD2    H1 5817   2.608   3.049  10.960  0.0409 -0.3596  0.9490
  389MPD2    H2 5818   2.801   3.025  10.587 -0.8306  0.9860 -1.5884
  389MPD2    H3 5819   2.778   3.120  10.807 -0.1989  0.8418 -0.3769
  389MPD2     N 5820   2.394   2.905  10.898  0.3704  0.3026  0.5902
  389MPD2    H5 5821   2.376   2.973  10.972 -1.3462  0.9025 -0.3801
  389MPD2    N1 5822   2.652   2.844  10.491 -0.5168 -0.7636  0.2540
  389MPD2    H7 5823   2.739   2.885  10.456 -0.8789 -0.9223 -0.8215
  390TMC3    C1 5824   2.210   2.790  11.010  0.4416  0.3506 -0.5029
  390TMC3    C2 5825   2.201   2.682  11.084  0.1892  0.7017 -0.5707
  390TMC3    C3 5826   2.131   2.681  11.209  0.9111  0.4187 -0.1493
  390TMC3    C4 5827   2.171   2.911  11.059 -0.5096 -0.1490 -0.0662
  390TMC3    C5 5828   2.110   2.914  11.184  0.4337  0.6357  0.1800
  390TMC3    C6 5829   2.085   2.798  11.261 -0.4966 -0.3416 -0.7442
  390TMC3     C 5830   2.312   2.791  10.899  0.2340 -0.4519  0.5454
  390TMC3     O 5831   2.324   2.684  10.841 -0.1372 -0.3365 -0.2876
  390TMC3     H 5832   2.224   2.582  11.051 -0.6361  0.8035 -1.4742
  390TMC3    H1 5833   2.182   3.002  11.002  0.2538 -0.2026 -0.0066
  390TMC3    H2 5834   2.018   2.800  11.346  0.2362 -1.5977 -0.1222
  390TMC3    C7 5835   2.064   3.043  11.232 -0.0558  0.3908  0.2246
  390TMC3    C8 5836   2.072   2.558  11.252 -0.2095  0.0614  0.1218
  390TMC3    O1 5837   2.069   3.142  11.156 -0.3883  0.2394 -0.5920
  390TMC3    O2 5838   2.060   2.470  11.167  0.3722  0.2752 -0.1388
  391MPD2     C 5839   1.951   4.352  11.275  0.4868  0.0407  0.2768
  391MPD2    C1 5840   1.912   4.482  11.247 -0.7602  0.8214  0.6416
  391MPD2    C2 5841   1.881   4.507  11.114  1.0780  0.1900  0.2371
  391MPD2    C3 5842   1.883   4.403  11.019  0.9449 -0.2418 -0.0154
  391MPD2    C4 5843   1.903   4.275  11.052  0.1099  0.3568 -0.8520
  391MPD2    C5 5844   1.930   4.254  11.181  0.3898 -0.7499 -0.1305
  391MPD2     H 5845   1.871   4.610  11.081  0.9776  0.2449  0.4407
  391MPD2    H1 5846   1.885   4.198  10.979 -0.6465 -0.2593 -0.0127
  391MPD2    H2 5847   1.987   4.325  11.373  1.3936  3.8001  0.9870
  391MPD2    H3 5848   1.954   4.153  11.214  1.5781 -0.0196  1.2164
  391MPD2     N 5849   1.871   4.453  10.886  0.5274 -0.0830  0.4053
  391MPD2    H5 5850   1.883   4.551  10.862  1.0099  0.4998  3.0819
  391MPD2    N1 5851   1.920   4.575  11.348  0.4823 -0.4679  0.0808
  391MPD2    H7 5852   1.961   4.547  11.436 -1.2097 -0.2965  0.9365
  392TMC3    C1 5853   1.843   4.457  10.660 -0.4125 -0.0837 -0.3496
  392TMC3    C2 5854   1.758   4.421  10.558 -0.3551 -0.2016  0.2499
  392TMC3    C3 5855   1.758   4.480  10.438 -0.3573  0.6329 -0.4647
  392TMC3    C4 5856   1.949   4.535  10.635 -0.6580 -0.3014 -0.5718
  392TMC3    C5 5857   1.946   4.596  10.515 -0.5361 -0.4919  0.1326
  392TMC3    C6 5858   1.855   4.577  10.408 -0.0453  0.1248  0.0115
  392TMC3     C 5859   1.856   4.371  10.775  0.3510  0.5513  0.0068
  392TMC3     O 5860   1.831   4.252  10.771 -0.2500  0.6363  0.5530
  392TMC3     H 5861   1.674   4.354  10.578 -2.7977  2.4265 -1.2468
  392TMC3    H1 5862   2.023   4.554  10.712  0.3523  1.4441 -1.9617
  392TMC3    H2 5863   1.874   4.616  10.309 -1.8716 -0.6740 -0.6550
  392TMC3    C7 5864   2.047   4.699  10.491  0.2648 -0.3168 -0.3148
  392TMC3    C8 5865   1.645   4.463  10.357  0.1006  0.1084  0.4543
  392TMC3    O1 5866   2.087   0.038  10.588  0.2876  0.5753 -0.1242
  392TMC3    O2 5867   1.538   4.436  10.408 -0.0560 -0.1435 -0.1649
  393TMC3    C1 5868   1.294   2.406  10.395  0.3185  0.9896 -0.8316
  393TMC3    C2 5869   1.188   2.448  10.470 -0.3433  0.1505 -0.7139
  393TMC3    C3 5870   1.212   2.531  10.576  0.0327 -0.0640 -0.9097
  393TMC3    C4 5871   1.416   2.451  10.400 -0.3969 -0.0944 -0.1725
  393TMC3    C5 5872   1.433   2.546  10.498  0.2363 -0.2774  0.2785
  393TMC3    C6 5873   1.337   2.588  10.587 -0.1595  0.2377  0.0068
  393TMC3     C 5874   1.262   2.332  10.270 -0.0614 -0.1741 -0.0092
  393TMC3     O 5875   1.150   2.342  10.225  0.0919  0.1949  0.3849
  393TMC3     H 5876   1.095   2.393  10.465  1.2240 -2.5633 -0.1148
  393TMC3    H1 5877   1.486   2.431  10.319 -2.1516  0.1288 -1.7514
  393TMC3    H2 5878   1.361   2.662  10.663  0.1232  0.8826 -0.7096
  393TMC3    C7 5879   1.569   2.563  10.542  0.5840  0.0902  0.5087
  393TMC3    C8 5880   1.099   2.570  10.661 -0.9493 -0.5321 -0.4720
  393TMC3    O1 5881   1.599   2.657  10.617  0.0158  0.1022 -0.2984
  393TMC3    O2 5882   0.990   2.520  10.632 -0.2501 -0.2450  0.4512
  394TMC3    C1 5883   2.644   2.744  10.281  0.4685 -0.5040 -0.2330
  394TMC3    C2 5884   2.561   2.706  10.180  0.3530  0.7953  0.6069
  394TMC3    C3 5885   2.605   2.728  10.049 -0.6890  0.1545  0.3208
  394TMC3    C4 5886   2.765   2.807  10.254 -1.1727 -0.3145  0.2565
  394TMC3    C5 5887   2.805   2.822  10.122 -0.2146  0.0349  0.2799
  394TMC3    C6 5888   2.719   2.791  10.020 -0.4235  0.0063 -0.2681
  394TMC3     C 5889   2.585   2.756  10.413 -0.3211  0.7855  0.6072
  394TMC3     O 5890   2.475   2.703  10.436  0.0051 -0.3863 -0.2206
  394TMC3     H 5891   2.463   2.665  10.199  1.0529 -1.2207 -0.1924
  394TMC3    H1 5892   2.829   2.830  10.338 -0.7208  2.5702 -0.8601
  394TMC3    H2 5893   2.738   2.825   9.919 -1.0430 -1.3545 -0.8474
  394TMC3    C7 5894   2.931   2.882  10.083 -0.4424 -0.2335  0.0094
  394TMC3    C8 5895   2.554   2.654   9.935 -1.1231  0.5926 -0.4077
  394TMC3    O1 5896   2.928   2.961   9.988 -0.2345 -0.3461 -0.2004
  394TMC3    O2 5897   2.597   2.679   9.825  0.4790 -0.9142  0.2033
  395TMC3    C1 5898   2.135   0.806  14.618 -0.0147 -0.6031 -0.0445
  395TMC3    C2 5899   2.009   0.781  14.570 -0.0328 -0.1857  0.6810
  395TMC3    C3 5900   1.962   0.866  14.476  0.1180 -0.0302  0.0679
  395TMC3    C4 5901   2.217   0.908  14.568  0.1894 -0.9048 -0.1319
  395TMC3    C5 5902   2.167   0.987  14.469  0.1787 -0.8590 -0.1178
  395TMC3    C6 5903   2.042   0.965  14.425 -0.0411 -1.0010  0.8005
  395TMC3     C 5904   2.194   0.713  14.717  0.3776 -0.3730  0.3715
  395TMC3     O 5905   2.308   0.669  14.696 -0.1824  0.1159  0.6050
  395TMC3     H 5906   1.942   0.709  14.614 -0.4217 -1.1377 -1.4792
  395TMC3    H1 5907   2.314   0.925  14.615 -2.5818  0.8690  4.9545
  395TMC3    H2 5908   2.018   1.025  14.338 -1.7081  0.8699  2.5331
  395TMC3    C7 5909   2.231   1.120  14.475  0.3813  0.4909 -0.1061
  395TMC3    C8 5910   1.837   0.833  14.402  0.0528  1.0628  0.6872
  395TMC3    O1 5911   2.350   1.111  14.480  0.4492  0.1188  0.9732
  395TMC3    O2 5912   1.781   0.923  14.340 -0.0828 -0.2157  0.1840
  396MPD2     C 5913   1.814   2.053  17.320  0.6608  0.3629 -0.0091
  396MPD2    C1 5914   1.943   2.017  17.307 -0.1718 -0.2604 -0.4369
  396MPD2    C2 5915   2.029   2.115  17.261  0.2137 -0.5168 -0.4469
  396MPD2    C3 5916   1.985   2.239  17.220  0.3232 -0.9228  0.0817
  396MPD2    C4 5917   1.851   2.266  17.225  0.5662  0.1175 -0.2156
  396MPD2    C5 5918   1.769   2.169  17.276 -0.5358 -0.1138 -0.6382
  396MPD2     H 5919   2.137   2.112  17.259  0.1991  0.8037 -2.5489
  396MPD2    H1 5920   1.801   2.359  17.198  1.1738  0.5499  0.1404
  396MPD2    H2 5921   1.743   1.986  17.365  0.0116  1.8785  1.2173
  396MPD2    H3 5922   1.664   2.198  17.283 -0.0471  1.9646 -2.2640
  396MPD2     N 5923   2.085   2.336  17.175  0.3179 -0.3389  0.1972
  396MPD2    H5 5924   2.181   2.312  17.198  0.2412 -0.3926  0.4682
  396MPD2    N1 5925   1.983   1.894  17.335 -0.5476 -0.6635  0.4155
  396MPD2    H7 5926   1.907   1.829  17.353 -1.2758  0.3433  0.9772
  397TMC3    C1 5927   2.109   1.704  17.361 -0.4271  0.1301 -0.3437
  397TMC3    C2 5928   2.126   1.608  17.262  0.3910  0.3370 -0.0316
  397TMC3    C3 5929   2.032   1.516  17.236 -0.4461  0.3519  0.8302
  397TMC3    C4 5930   2.006   1.685  17.446 -0.1082  0.4893 -0.0195
  397TMC3    C5 5931   1.932   1.574  17.431 -0.0626 -0.7044  0.9206
  397TMC3    C6 5932   1.935   1.494  17.318  0.6936 -0.5169 -0.1381
  397TMC3     C 5933   2.107   1.840  17.316 -0.4786  0.0379 -0.3076
  397TMC3     O 5934   2.212   1.887  17.268 -0.0164  0.1126  0.0847
  397TMC3     H 5935   2.195   1.644  17.187 -2.2890  1.5931 -1.8794
  397TMC3    H1 5936   1.990   1.736  17.540  1.5590  1.0778 -0.0511
  397TMC3    H2 5937   1.873   1.408  17.299  3.4611 -2.4683 -0.4124
  397TMC3    C7 5938   1.819   1.560  17.519  0.2075  0.2598  0.1847
  397TMC3    C8 5939   2.021   1.492  17.093 -0.2830  0.0744 -0.0575
  397TMC3    O1 5940   1.764   1.655  17.575 -0.2393  0.2747  0.3051
  397TMC3    O2 5941   2.059   1.582  17.018 -0.3807  0.1364  0.1338
  398MPD2     C 5942   4.679   2.307  17.592  0.5815 -0.0749 -0.0992
  398MPD2    C1 5943   0.005   2.299   0.039  0.3933  0.1184 -0.0626
  398MPD2    C2 5944   0.047   2.417   0.104 -0.2120  0.0823  0.0083
  398MPD2    C3 5945   0.044   2.542   0.036 -0.0231  0.0357 -0.0507
  398MPD2    C4 5946   0.006   2.541  17.587 -0.2426 -0.0149 -0.2990
  398MPD2    C5 5947   4.685   2.427  17.522  0.0022  0.5921 -0.2029
  398MPD2     H 5948   0.083   2.427   0.206 -0.4255 -1.1990  0.2060
  398MPD2    H1 5949   0.015   2.635  17.533  0.4249 -0.3589 -0.7860
  398MPD2    H2 5950   4.652   2.215  17.541  0.6551 -0.1116 -0.0712
  398MPD2    H3 5951   4.660   2.437  17.417  0.7175 -1.1795 -0.5325
  398MPD2     N 5952   0.087   2.651   0.103 -0.5234 -0.4254 -0.3341
  398MPD2    H5 5953   0.133   2.637   0.192  0.9817  0.4172 -0.9748
  398MPD2    N1 5954   0.033   2.182   0.107 -0.3204 -0.4345  0.5880
  398MPD2    H7 5955   0.096   2.182   0.187 -0.7639  1.2242  0.9263
  399TMC3    C1 5956   0.028   1.944   0.147  0.1321  0.7836 -0.0200
  399TMC3    C2 5957   0.139   1.949   0.223  0.2746 -0.3811  0.1909
  399TMC3    C3 5958   0.194   1.846   0.292  0.5978  0.5526  0.5392
  399TMC3    C4 5959   4.682   1.823   0.137  0.0846  0.1101 -0.2482
  399TMC3    C5 5960   0.011   1.716   0.211  0.1134 -0.0427  0.0613
  399TMC3    C6 5961   0.128   1.722   0.292  0.2338  0.4433  0.5875
  399TMC3     C 5962   4.694   2.053   0.078 -0.0614 -0.1028  0.7873
  399TMC3     O 5963   4.614   2.038  17.674 -0.3334 -0.1945 -0.1387
  399TMC3     H 5964   0.207   2.033   0.214 -0.4846  0.0679 -1.3044
  399TMC3    H1 5965   4.592   1.812   0.078  0.0391 -1.1336  0.0565
  399TMC3    H2 5966   0.164   1.632   0.342 -0.3736 -0.6590 -0.9736
  399TMC3    C7 5967   4.639   1.609   0.241  0.2020 -0.5696 -0.5590
  399TMC3    C8 5968   0.330   1.861   0.325  0.2678  0.2695 -0.9498
  399TMC3    O1 5969   4.669   1.536   0.332 -0.0313  0.0787 -0.0149
  399TMC3    O2 5970   0.393   1.966   0.305  0.2956 -0.5865  0.7176
  400TMC3    C1 5971   3.262   1.447  16.665  0.8098 -0.7311 -0.2336
  400TMC3    C2 5972   3.144   1.407  16.619  0.3194  0.4071 -0.6703
  400TMC3    C3 5973   3.029   1.482  16.631  0.3504  0.0213  0.8346
  400TMC3    C4 5974   3.273   1.563  16.740  0.8881  0.1597 -0.8327
  400TMC3    C5 5975   3.163   1.645  16.743 -0.2947  0.0760 -0.4159
  400TMC3    C6 5976   3.040   1.604  16.695  0.7730 -0.0851  0.4638
  400TMC3     C 5977   3.368   1.352  16.644 -0.7849 -0.2541  0.1782
  400TMC3     O 5978   3.345   1.236  16.610 -0.1700  0.3367 -0.5796
  400TMC3     H 5979   3.143   1.323  16.549  1.2852  1.1840 -1.6179
  400TMC3    H1 5980   3.357   1.601  16.798  0.8110  0.1659 -0.7259
  400TMC3    H2 5981   2.962   1.678  16.706  0.2023 -0.7406  0.8269
  400TMC3    C7 5982   3.168   1.765  16.815  0.1924 -0.6670  0.4863
  400TMC3    C8 5983   2.905   1.454  16.567 -1.0184  0.3947  0.7036
  400TMC3    O1 5984   3.065   1.814  16.864  0.3908 -0.3752 -0.7441
  400TMC3    O2 5985   2.851   1.553  16.531 -0.3874 -0.1253  0.3724
  401MPD2     C 5986   1.752   0.044   0.914  1.0422 -0.2199  0.3927
  401MPD2    C1 5987   1.858   0.010   1.000  0.1661  0.3823  0.4904
  401MPD2    C2 5988   1.904   4.601   0.994 -0.4022 -0.4896 -0.1965
  401MPD2    C3 5989   1.858   4.508   0.901  0.2471  0.2103 -0.0258
  401MPD2    C4 5990   1.750   4.542   0.820  0.2019  0.3960  0.0981
  401MPD2    C5 5991   1.703   4.670   0.827  0.0177 -0.2675 -0.0357
  401MPD2     H 5992   1.985   4.572   1.060  0.0247  2.0004  0.3638
  401MPD2    H1 5993   1.714   4.484   0.736  0.9502  1.7423 -1.1715
  401MPD2    H2 5994   1.709   0.143   0.908  0.1548 -0.6540 -0.2573
  401MPD2    H3 5995   1.616   4.693   0.766  0.9628  1.2985 -0.7890
  401MPD2     N 5996   1.916   4.379   0.893 -0.2142  0.2541  0.6958
  401MPD2    H5 5997   1.986   4.355   0.962  1.3303 -0.1235 -1.0142
  401MPD2    N1 5998   1.915   0.096   1.091 -0.2685  0.1123  0.1478
  401MPD2    H7 5999   1.995   0.060   1.141  1.1317 -1.0954 -2.9783
  402TMC3    C1 6000   1.967   4.159   0.825  0.5531  0.4688 -0.2557
  402TMC3    C2 6001   1.944   4.073   0.931  0.1984  0.1053 -0.2197
  402TMC3    C3 6002   1.965   3.938   0.915  0.2430  0.3056 -0.8489
  402TMC3    C4 6003   2.010   4.108   0.710 -0.5140 -0.3887 -0.1230
  402TMC3    C5 6004   2.026   3.973   0.697 -0.4370 -0.5642 -0.2952
  402TMC3    C6 6005   1.993   3.879   0.793  0.3944 -0.3753 -0.1598
  402TMC3     C 6006   1.890   4.279   0.802 -0.2269 -0.2902 -0.9109
  402TMC3     O 6007   1.811   4.286   0.712 -0.2547 -1.0412  0.3570
  402TMC3     H 6008   1.921   4.121   1.025  1.1739 -0.1517  0.1541
  402TMC3    H1 6009   2.037   4.186   0.639 -1.1336  1.4700  1.6633
  402TMC3    H2 6010   2.006   3.773   0.778  2.1744  0.0067 -1.1896
  402TMC3    C7 6011   2.116   3.920   0.596 -0.3676 -0.2752 -0.7758
  402TMC3    C8 6012   1.997   3.855   1.033 -0.2435 -0.3157 -0.1849
  402TMC3    O1 6013   2.134   3.799   0.599 -0.3143  0.3934  0.1750
  402TMC3    O2 6014   2.027   3.735   1.017 -0.6562  0.0314  0.4516
  403MPD2     C 6015   0.025   2.968  13.823 -0.3295 -0.0847  0.2627
  403MPD2    C1 6016   0.082   2.857  13.886 -0.7643 -0.1136  0.4024
  403MPD2    C2 6017   0.184   2.885  13.980 -0.0347 -0.1812 -0.4503
  403MPD2    C3 6018   0.218   3.014  14.005  0.1285 -0.8756 -0.0731
  403MPD2    C4 6019   0.152   3.123  13.952 -0.4366 -0.0655  0.0516
  403MPD2    C5 6020   0.056   3.100  13.862  0.4404 -0.5568  0.6947
  403MPD2     H 6021   0.241   2.802  14.018 -3.3436 -2.2638 -0.0333
  403MPD2    H1 6022   0.184   3.223  13.978  0.5646 -0.4510  0.3000
  403MPD2    H2 6023   4.673   2.965  13.742 -1.1830 -0.7027  1.0634
  403MPD2    H3 6024   0.018   3.188  13.812  0.3214 -0.3576  1.1377
  403MPD2     N 6025   0.315   3.021  14.110  0.7714 -0.1966  0.4779
  403MPD2    H5 6026   0.370   2.939  14.133  0.0846 -0.9388 -0.4805
  403MPD2    N1 6027   0.049   2.725  13.834 -0.1993  0.1255  0.1251
  403MPD2    H7 6028   4.699   2.722  13.762  0.8325  1.6574 -0.9463
  404TMC3    C1 6029   0.062   2.488  13.794  0.0347  0.5941 -1.0994
  404TMC3    C2 6030   0.089   2.370  13.853 -0.0855 -0.4674  0.3337
  404TMC3    C3 6031   0.137   2.269  13.775  0.0543  0.5068  1.3684
  404TMC3    C4 6032   0.067   2.505  13.659  0.1541  0.3685  0.1576
  404TMC3    C5 6033   0.117   2.402  13.585  0.2045 -0.4096  0.1138
  404TMC3    C6 6034   0.151   2.288  13.645 -0.3853 -0.0310  0.0976
  404TMC3     C 6035   0.107   2.605  13.867  0.6580  0.5462 -0.4737
  404TMC3     O 6036   0.201   2.585  13.944  0.0445  0.5801 -0.3389
  404TMC3     H 6037   0.075   2.358  13.960  0.4185  2.4247  0.7454
  404TMC3    H1 6038   0.063   2.603  13.613 -1.6629  0.8262  1.2791
  404TMC3    H2 6039   0.191   2.217  13.573 -0.4855 -1.4562  1.4414
  404TMC3    C7 6040   0.201   2.439  13.474 -0.6466  0.3063  0.1523
  404TMC3    C8 6041   0.189   2.152  13.839 -0.0968  0.2074  0.2453
  404TMC3    O1 6042   0.270   2.538  13.494 -0.2547 -0.9140 -0.8618
  404TMC3    O2 6043   0.296   2.118  13.791  0.2363  0.1354 -0.6106
  405MPD2     C 6044   0.221   2.702  15.185 -0.2572 -1.1961  0.4488
  405MPD2    C1 6045   0.118   2.704  15.091  0.0294  0.1353  0.9251
  405MPD2    C2 6046   0.129   2.784  14.980 -0.6331  0.7705 -0.0177
  405MPD2    C3 6047   0.253   2.846  14.946  0.0014 -0.2933 -0.3898
  405MPD2    C4 6048   0.352   2.846  15.040  0.2186 -0.0024 -0.0799
  405MPD2    C5 6049   0.339   2.768  15.152 -0.1702  0.7419  0.2072
  405MPD2     H 6050   0.052   2.773  14.905 -1.2032  1.5147  0.4607
  405MPD2    H1 6051   0.436   2.914  15.034  1.7143 -1.8150  0.2300
  405MPD2    H2 6052   0.217   2.647  15.278 -2.3136  1.8213  2.1482
  405MPD2    H3 6053   0.416   2.763  15.228 -1.0891  0.4046  1.1153
  405MPD2     N 6054   0.263   2.909  14.823 -0.3271  0.2715  0.5988
  405MPD2    H5 6055   0.171   2.915  14.782 -0.4965 -0.0384  0.9279
  405MPD2    N1 6056   4.720   2.630  15.110 -0.0390  0.0543 -0.0208
  405MPD2    H7 6057   4.716   2.587  15.202 -0.1686  2.1247  0.9279
  406TMC3    C1 6058   0.272   3.247  14.563  0.8394 -0.3109 -0.4901
  406TMC3    C2 6059   0.182   3.184  14.480  0.2903 -0.2095  0.0058
  406TMC3    C3 6060   0.173   3.043  14.476  0.3014 -0.6587 -0.2576
  406TMC3    C4 6061   0.349   3.179  14.650 -0.5263  0.9699 -0.2383
  406TMC3    C5 6062   0.337   3.042  14.644  0.0479  0.0464  0.0109
  406TMC3    C6 6063   0.247   2.972  14.567  0.3647 -0.1791  0.3687
  406TMC3     C 6064   0.283   3.393  14.570  0.4083  0.0625  0.3929
  406TMC3     O 6065   0.393   3.443  14.590 -0.3344  0.7271  0.2767
  406TMC3     H 6066   0.105   3.239  14.427 -1.3787 -1.0816  1.4779
  406TMC3    H1 6067   0.432   3.232  14.695 -0.6317  0.3472  0.6920
  406TMC3    H2 6068   0.267   2.866  14.552  1.5583 -0.2072  2.1461
  406TMC3    C7 6069   0.372   2.975  14.769 -0.2284  0.1317 -0.5563
  406TMC3    C8 6070   0.052   2.988  14.422 -0.2785 -0.2958  0.2641
  406TMC3    O1 6071   0.483   2.996  14.813  0.1861 -0.4703 -0.1217
  406TMC3    O2 6072   4.706   3.057  14.347 -0.2006 -0.3193  0.3133
  407MPD2     C 6073   2.636   0.003   9.437 -0.4921  0.1586 -0.1950
  407MPD2    C1 6074   2.751   4.649   9.463 -0.6815 -0.0648  0.2106
  407MPD2    C2 6075   2.824   4.686   9.572 -0.0143  0.1668  0.1417
  407MPD2    C3 6076   2.801   0.083   9.641 -0.4262  0.1435 -0.3808
  407MPD2    C4 6077   2.694   0.163   9.607  0.0865 -0.1502 -0.9631
  407MPD2    C5 6078   2.615   0.116   9.508 -0.3217 -0.1795 -1.2130
  407MPD2     H 6079   2.907   4.622   9.599 -0.6344 -0.9457 -0.6346
  407MPD2    H1 6080   2.666   0.256   9.655 -0.6542  0.0451 -1.7749
  407MPD2    H2 6081   2.567   4.693   9.359 -1.8814  0.7282  0.8055
  407MPD2    H3 6082   2.526   0.175   9.489 -0.1217  0.9629  1.3981
  407MPD2     N 6083   2.874   0.127   9.751 -0.0153 -0.0485  0.4742
  407MPD2    H5 6084   2.882   0.227   9.770  0.5016 -0.1830  0.9764
  407MPD2    N1 6085   2.793   4.533   9.389  0.0728  0.5031  0.1038
  407MPD2    H7 6086   2.870   4.475   9.423  0.0252  0.0319 -0.5953
  408TMC3    C1 6087   2.789   4.366   9.226 -0.3658  0.0629  0.0569
  408TMC3    C2 6088   2.926   4.359   9.217  0.1246  0.2448 -0.3848
  408TMC3    C3 6089   2.970   4.242   9.157 -0.0214 -0.2298 -0.3733
  408TMC3    C4 6090   2.706   4.275   9.165  0.5117  0.2586 -0.0833
  408TMC3    C5 6091   2.753   4.158   9.115  1.1815 -0.1524 -0.1433
  408TMC3    C6 6092   2.886   4.143   9.106 -0.0533 -0.9026 -0.1352
  408TMC3     C 6093   2.730   4.489   9.277 -0.6850 -0.6256 -0.7542
  408TMC3     O 6094   2.637   4.536   9.211  0.6005  0.1816 -0.4791
  408TMC3     H 6095   2.986   4.444   9.247 -0.7121  0.6859  0.0369
  408TMC3    H1 6096   2.599   4.296   9.164  0.4008 -0.3446 -2.6461
  408TMC3    H2 6097   2.921   4.044   9.082 -2.2426 -1.1484 -2.2371
  408TMC3    C7 6098   2.671   4.041   9.127 -0.2580 -0.1800 -0.0923
  408TMC3    C8 6099   3.111   4.218   9.113  0.8627  0.2713  0.4001
  408TMC3    O1 6100   2.560   4.063   9.173 -0.3243 -0.0219 -0.3640
  408TMC3    O2 6101   3.141   4.120   9.049 -0.1257 -0.5818 -0.2301
  409MPD2     C 6102   2.296   0.701  16.666 -0.1262 -0.3498  0.7012
  409MPD2    C1 6103   2.349   0.736  16.789 -0.4889 -1.7079  0.0642
  409MPD2    C2 6104   2.420   0.855  16.807 -0.3427  0.2568  1.2816
  409MPD2    C3 6105   2.431   0.940  16.700  0.0496 -0.5812 -0.2709
  409MPD2    C4 6106   2.398   0.896  16.573  0.4693  0.0289 -0.1256
  409MPD2    C5 6107   2.326   0.785  16.562 -0.4476  0.2868  0.0540
  409MPD2     H 6108   2.458   0.880  16.905  0.1665  1.0795  0.8804
  409MPD2    H1 6109   2.405   0.953  16.481  0.8916  0.3385  0.0990
  409MPD2    H2 6110   2.241   0.611  16.642  0.4940 -0.5841  0.1634
  409MPD2    H3 6111   2.290   0.766  16.462  0.6399  0.7449 -0.4220
  409MPD2     N 6112   2.496   1.065  16.712 -0.8178  0.8281  0.4788
  409MPD2    H5 6113   2.510   1.115  16.625 -0.0594  2.2497  1.4116
  409MPD2    N1 6114   2.348   0.648  16.905  0.6358  0.2830  0.6756
  409MPD2    H7 6115   2.401   0.681  16.985 -2.3404 -0.8718  3.1612
  410TMC3    C1 6116   2.607   1.252  16.804  0.0068 -0.3028 -0.2892
  410TMC3    C2 6117   2.704   1.293  16.888 -0.3262  0.6938 -0.0505
  410TMC3    C3 6118   2.736   1.421  16.894 -0.8591 -0.1893 -0.0304
  410TMC3    C4 6119   2.534   1.334  16.720  0.2465 -0.6221 -0.5577
  410TMC3    C5 6120   2.570   1.462  16.726 -0.2251  0.5866 -0.0080
  410TMC3    C6 6121   2.669   1.507  16.810 -0.1037 -0.3511  0.2436
  410TMC3     C 6122   2.574   1.108  16.815  0.5370  0.5747  0.8913
  410TMC3     O 6123   2.609   1.056  16.920 -0.4857 -1.0547  0.2333
  410TMC3     H 6124   2.744   1.224  16.961  0.8555  1.1619 -0.2559
  410TMC3    H1 6125   2.447   1.301  16.665 -1.0197  1.0692  0.4182
  410TMC3    H2 6126   2.693   1.612  16.805  0.6063 -0.6020 -1.5390
  410TMC3    C7 6127   2.492   1.542  16.639 -0.2017 -0.3956 -0.3319
  410TMC3    C8 6128   2.842   1.466  16.974  0.4840 -0.8881  1.2414
  410TMC3    O1 6129   2.373   1.507  16.635  0.0035 -0.4051  0.2343
  410TMC3    O2 6130   2.848   1.584  17.005  0.3361 -0.2520 -0.0822
  411MPD2     C 6131   2.712   1.635  14.547 -0.3630 -0.0041 -0.0854
  411MPD2    C1 6132   2.612   1.708  14.491  0.0456 -0.3437  0.2206
  411MPD2    C2 6133   2.535   1.639  14.398 -0.2751  0.8267 -0.4639
  411MPD2    C3 6134   2.550   1.501  14.373 -0.1059 -0.0098 -0.0174
  411MPD2    C4 6135   2.645   1.429  14.450  0.4525  0.1251  0.4181
  411MPD2    C5 6136   2.733   1.502  14.528 -0.8539 -0.0758 -0.3063
  411MPD2     H 6137   2.454   1.698  14.358  0.0177  1.2417 -0.4490
  411MPD2    H1 6138   2.659   1.323  14.435  0.5993  0.4136 -1.4429
  411MPD2    H2 6139   2.791   1.690  14.597 -0.6963  0.1297  0.2961
  411MPD2    H3 6140   2.821   1.457  14.573 -1.0426  0.6517  0.7717
  411MPD2     N 6141   2.476   1.423  14.284 -0.4522 -0.1256  0.5755
  411MPD2    H5 6142   2.478   1.322  14.289  2.8110 -0.0376  0.4298
  411MPD2    N1 6143   2.576   1.833  14.525  0.4731  0.1817 -0.4781
  411MPD2    H7 6144   2.496   1.870  14.475 -0.1663  0.3340  0.6626
  412TMC3    C1 6145   2.316   1.383  14.124 -0.3115 -0.0559  0.2717
  412TMC3    C2 6146   2.194   1.423  14.085  0.4247 -0.3355 -0.3597
  412TMC3    C3 6147   2.114   1.336  14.020  0.1971  0.0347 -0.1260
  412TMC3    C4 6148   2.367   1.252  14.115  0.7256 -0.6189 -0.2517
  412TMC3    C5 6149   2.284   1.161  14.050 -0.8840  0.4188 -0.4269
  412TMC3    C6 6150   2.160   1.206  14.003 -0.2109  0.0502  0.1636
  412TMC3     C 6151   2.393   1.478  14.201 -0.3708  0.0290  0.7372
  412TMC3     O 6152   2.358   1.589  14.173 -0.5021 -0.2564 -0.2386
  412TMC3     H 6153   2.157   1.524  14.090 -1.1585 -0.8894 -0.7100
  412TMC3    H1 6154   2.458   1.212  14.158  0.3864 -0.2484  0.8314
  412TMC3    H2 6155   2.094   1.133  13.958 -1.1260  1.2011 -0.3668
  412TMC3    C7 6156   2.344   1.082  13.952  0.1567  0.2326  0.5933
  412TMC3    C8 6157   2.044   1.389  13.901  0.0286  0.4955 -0.2558
  412TMC3    O1 6158   2.293   1.082  13.843 -0.8500  0.2725  0.2734
  412TMC3    O2 6159   1.989   1.495  13.896 -0.3337  0.6034 -0.2028
  413MPD2     C 6160   3.716   4.300  15.717  0.2574  0.1090 -0.7663
  413MPD2    C1 6161   3.707   4.293  15.580 -0.3286  0.0970  0.0632
  413MPD2    C2 6162   3.812   4.247  15.502 -0.5656  0.0846 -0.0361
  413MPD2    C3 6163   3.927   4.195  15.569 -0.3961 -0.0785 -0.0133
  413MPD2    C4 6164   3.927   4.194  15.710 -0.1636 -0.1421  0.6143
  413MPD2    C5 6165   3.822   4.248  15.781  0.3831  0.3732 -0.5530
  413MPD2     H 6166   3.807   4.239  15.395  1.1561  0.4387 -0.1495
  413MPD2    H1 6167   3.999   4.137  15.767 -0.6496 -1.5842 -0.1933
  413MPD2    H2 6168   3.631   4.323  15.780  1.4123  1.0133  0.4232
  413MPD2    H3 6169   3.836   4.263  15.888 -1.0064 -0.9865 -0.1825
  413MPD2     N 6170   4.018   4.130  15.487 -0.3703 -0.0426  0.6185
  413MPD2    H5 6171   4.026   4.150  15.388 -1.8819  0.0067  0.5058
  413MPD2    N1 6172   3.575   4.319  15.529 -0.0620  0.8483 -0.0670
  413MPD2    H7 6173   3.502   4.333  15.597 -0.1414 -0.1139  0.0393
  414TMC3    C1 6174   4.201   4.003  15.420 -0.1419 -0.0155  0.2725
  414TMC3    C2 6175   4.241   3.872  15.432 -0.0749  0.2621 -0.2057
  414TMC3    C3 6176   4.335   3.826  15.345 -0.2260 -1.3427  0.0700
  414TMC3    C4 6177   4.268   4.092  15.342  0.3165 -1.1690 -0.2010
  414TMC3    C5 6178   4.370   4.045  15.277  0.0111  0.0144 -0.2063
  414TMC3    C6 6179   4.402   3.911  15.264 -0.0770 -0.0688  0.1383
  414TMC3     C 6180   4.119   4.054  15.533  0.2353 -0.4357 -0.2709
  414TMC3     O 6181   4.129   3.992  15.635  0.1012  0.1819  0.1644
  414TMC3     H 6182   4.177   3.806  15.490  2.3564  0.0923  2.3277
  414TMC3    H1 6183   4.254   4.199  15.339 -2.3229 -1.4870  0.7806
  414TMC3    H2 6184   4.484   3.877  15.202 -0.2317 -2.8750  1.4670
  414TMC3    C7 6185   4.473   4.131  15.221  0.6818 -0.0428 -0.4037
  414TMC3    C8 6186   4.411   3.703  15.368  0.5723 -0.1473  0.1371
  414TMC3    O1 6187   4.433   4.220  15.147 -0.3671  0.3468  0.1129
  414TMC3    O2 6188   4.472   3.664  15.268  0.0467  0.0730  0.3239
  415TMC3    C1 6189   0.917   1.342  10.079 -0.7347  0.1298 -0.5685
  415TMC3    C2 6190   0.896   1.377   9.947  0.1390 -0.1680 -0.4058
  415TMC3    C3 6191   0.867   1.273   9.865  0.3947 -0.1064 -0.1823
  415TMC3    C4 6192   0.882   1.218  10.129  0.0308  0.5815 -0.0463
  415TMC3    C5 6193   0.837   1.120  10.051  0.2155  0.4711  0.2465
  415TMC3    C6 6194   0.832   1.149   9.918 -0.5098 -0.5168  0.4433
  415TMC3     C 6195   0.942   1.447  10.179 -0.1752 -0.2404  0.7664
  415TMC3     O 6196   0.908   1.418  10.292  0.6265 -0.4073 -0.3494
  415TMC3     H 6197   0.911   1.478   9.910  1.4358 -0.6171 -1.1189
  415TMC3    H1 6198   0.908   1.195  10.232  2.4474  1.7356 -0.4002
  415TMC3    H2 6199   0.794   1.071   9.853  0.6374 -1.5174  0.9664
  415TMC3    C7 6200   0.769   1.008  10.115  0.4283  0.1957  0.4931
  415TMC3    C8 6201   0.850   1.286   9.725  0.0253 -0.2008 -0.1468
  415TMC3    O1 6202   0.768   0.906  10.049 -0.3857 -0.4974 -0.2944
  415TMC3    O2 6203   0.768   1.207   9.677  0.1663  0.0348  0.5591
  416MPD2     C 6204   2.108   0.877  11.222  0.2195  0.7604  0.6386
  416MPD2    C1 6205   2.023   0.849  11.330 -0.9326 -0.0129 -0.4635
  416MPD2    C2 6206   1.945   0.735  11.334  0.0344 -0.5780 -1.0354
  416MPD2    C3 6207   1.934   0.653  11.224 -0.0998  0.3026  0.3793
  416MPD2    C4 6208   2.029   0.673  11.126  0.3767 -0.4206 -0.4884
  416MPD2    C5 6209   2.108   0.784  11.118 -0.5642 -0.5751  0.8575
  416MPD2     H 6210   1.883   0.703  11.417  0.5687  0.0583 -0.3909
  416MPD2    H1 6211   2.034   0.610  11.038 -0.6211  0.2749 -1.0463
  416MPD2    H2 6212   2.166   0.967  11.208 -1.4244  1.7095 -0.0974
  416MPD2    H3 6213   2.170   0.800  11.030 -1.0437  0.3104  0.6765
  416MPD2     N 6214   1.843   0.541  11.235  0.6105 -0.3876  0.1850
  416MPD2    H5 6215   1.775   0.551  11.310 -0.3487 -3.0671 -0.3262
  416MPD2    N1 6216   2.011   0.949  11.426 -0.1851  0.3236 -0.3932
  416MPD2    H7 6217   2.046   1.042  11.406  1.5121 -0.2288  0.0527
  417TMC3    C1 6218   1.907   1.050  11.603 -0.2735  0.6459  0.2979
  417TMC3    C2 6219   1.876   1.061  11.739 -0.7273 -0.0380  1.4537
  417TMC3    C3 6220   1.812   1.173  11.789 -0.2957 -0.3665  0.2505
  417TMC3    C4 6221   1.867   1.148  11.513 -0.2520 -0.9009 -0.0074
  417TMC3    C5 6222   1.806   1.260  11.566  0.2477 -0.9430 -0.0937
  417TMC3    C6 6223   1.778   1.268  11.707  0.2083  0.0324  0.1054
  417TMC3     C 6224   1.944   0.918  11.544 -0.6761 -0.6778 -0.1403
  417TMC3     O 6225   1.947   0.814  11.610  0.0033  0.1624 -0.1333
  417TMC3     H 6226   1.920   0.996  11.814 -1.3397 -0.6022  1.3242
  417TMC3    H1 6227   1.870   1.132  11.405 -0.7827 -1.9398  0.1336
  417TMC3    H2 6228   1.733   1.361  11.741  0.1481 -1.0158  2.8838
  417TMC3    C7 6229   1.724   1.330  11.472  0.3291 -0.0724  0.7863
  417TMC3    C8 6230   1.798   1.212  11.925 -0.3431 -0.5561  0.1184
  417TMC3    O1 6231   1.772   1.362  11.362 -0.0945 -0.5723  0.1079
  417TMC3    O2 6232   1.727   1.307  11.959  0.0799  0.6958 -0.1871
  418TMC3    C1 6233   0.422   2.893   0.112 -0.2513  0.1541  0.4522
  418TMC3    C2 6234   0.293   2.891   0.052 -0.5423 -0.4451 -0.2255
  418TMC3    C3 6235   0.187   2.856   0.133  0.5469 -0.7705  0.0719
  418TMC3    C4 6236   0.445   2.846   0.236 -0.5268 -0.2312  0.7230
  418TMC3    C5 6237   0.334   2.806   0.310  0.4574  0.1522  0.7080
  418TMC3    C6 6238   0.209   2.800   0.255 -0.4727 -0.5549  0.0833
  418TMC3     C 6239   0.537   2.903   0.023  0.0565  0.1802  0.4965
  418TMC3     O 6240   0.526   2.985  17.622 -0.4203  0.2975  0.0157
  418TMC3     H 6241   0.277   2.924  17.636  0.5155 -1.6480 -0.7836
  418TMC3    H1 6242   0.549   2.842   0.266 -0.6709 -0.4435  1.1878
  418TMC3    H2 6243   0.126   2.794   0.323 -0.1677  2.2200  0.6939
  418TMC3    C7 6244   0.360   2.710   0.412 -1.4184 -0.5889  0.5128
  418TMC3    C8 6245   0.100   2.779   0.046 -0.2752 -0.3316  0.6975
  418TMC3    O1 6246   0.331   2.592   0.386  0.0995 -0.3616 -0.2582
  418TMC3    O2 6247   0.074   2.837  17.627 -0.3509 -0.1477  0.0516
  419MPD2     C 6248   4.282   0.974  12.678  0.3806  0.0113 -0.2818
  419MPD2    C1 6249   4.185   1.075  12.660  0.3573 -0.5128 -0.0941
  419MPD2    C2 6250   4.095   1.101  12.761  0.4906 -0.4870 -0.5584
  419MPD2    C3 6251   4.099   1.038  12.875  0.3982  0.5783 -0.3792
  419MPD2    C4 6252   4.187   0.936  12.893  0.0270 -0.1319 -0.0575
  419MPD2    C5 6253   4.276   0.899  12.794  0.1347  0.4352  0.5280
  419MPD2     H 6254   4.006   1.162  12.747 -0.2995 -1.4114  0.3817
  419MPD2    H1 6255   4.197   0.886  12.989  0.9405 -1.4283 -0.8517
  419MPD2    H2 6256   4.342   0.940  12.594  0.4137  2.6016 -1.3260
  419MPD2    H3 6257   4.341   0.813  12.807 -1.4691 -0.4642  2.6589
  419MPD2     N 6258   4.013   1.091  12.972 -0.3032  0.1796  0.4162
  419MPD2    H5 6259   3.962   1.175  12.947  0.4597  0.6609  0.4617
  419MPD2    N1 6260   4.168   1.151  12.541 -0.3814 -0.4573 -0.4288
  419MPD2    H7 6261   4.094   1.220  12.550 -1.7482 -1.9539 -0.1258
  420TMC3    C1 6262   3.915   1.137  13.175 -0.3136  0.7967 -0.2324
  420TMC3    C2 6263   3.822   1.211  13.110  0.0628 -0.1526  0.3943
  420TMC3    C3 6264   3.744   1.296  13.180 -0.4521 -0.5815  0.1264
  420TMC3    C4 6265   3.930   1.133  13.306 -0.3158  0.8198 -0.8347
  420TMC3    C5 6266   3.860   1.226  13.376 -0.1514 -0.4306 -0.6125
  420TMC3    C6 6267   3.767   1.311  13.315 -0.0944 -0.0403 -0.6676
  420TMC3     C 6268   3.995   1.046  13.103 -0.3452 -0.6289 -0.2627
  420TMC3     O 6269   4.031   0.939  13.156 -0.8660 -0.0330 -0.5083
  420TMC3     H 6270   3.813   1.199  13.003 -1.4487 -0.4466  0.5519
  420TMC3    H1 6271   4.001   1.063  13.347 -0.5692  1.2971  0.4006
  420TMC3    H2 6272   3.710   1.377  13.379  0.7921  1.6278 -1.6135
  420TMC3    C7 6273   3.894   1.240  13.515 -0.4193 -0.5624 -1.1791
  420TMC3    C8 6274   3.668   1.384  13.098 -0.1097  1.0314  0.0216
  420TMC3    O1 6275   3.945   1.133  13.561  0.6040  0.2396  0.1780
  420TMC3    O2 6276   3.684   1.378  12.975  0.0340  0.4821  0.1510
  421TMC3    C1 6277   0.442   3.116  14.286  0.7909 -0.1954  0.5500
  421TMC3    C2 6278   0.493   3.219  14.355 -0.4350  0.5613 -0.6627
  421TMC3    C3 6279   0.613   3.205  14.417 -0.3338 -0.5392  0.8176
  421TMC3    C4 6280   0.505   2.984  14.297 -0.6325  0.0072  0.2631
  421TMC3    C5 6281   0.627   2.976  14.361  0.5604  0.4425 -0.2752
  421TMC3    C6 6282   0.678   3.088  14.422 -0.2853  0.0104 -0.4189
  421TMC3     C 6283   0.342   3.134  14.181  0.0143 -0.1868  0.1783
  421TMC3     O 6284   0.290   3.244  14.172 -0.1682 -0.1468 -0.1858
  421TMC3     H 6285   0.458   3.316  14.319 -0.0090  1.1568  0.5460
  421TMC3    H1 6286   0.480   2.900  14.232  1.8460 -0.4614 -0.0769
  421TMC3    H2 6287   0.765   3.074  14.485 -1.1104  0.1256  0.7581
  421TMC3    C7 6288   0.706   2.853  14.354  0.2419  0.2411 -0.5775
  421TMC3    C8 6289   0.712   3.316  14.426  0.3378  0.1186 -0.2965
  421TMC3    O1 6290   0.821   2.880  14.391 -0.0271  0.2467  0.2581
  421TMC3    O2 6291   0.674   3.429  14.457  0.2266 -0.0093 -0.0916
  422TMC3    C1 6292   2.965   4.133  12.487 -0.9892  0.0769 -0.2396
  422TMC3    C2 6293   2.978   4.162  12.616 -0.4708 -0.2578 -0.2225
  422TMC3    C3 6294   2.897   4.099  12.705  0.2136  0.0877 -0.3725
  422TMC3    C4 6295   2.866   4.049  12.441 -0.5630  0.7888 -0.3253
  422TMC3    C5 6296   2.796   3.983  12.538 -0.2419  0.1064 -0.3108
  422TMC3    C6 6297   2.809   4.002  12.672 -0.1950 -0.0253  0.0404
  422TMC3     C 6298   3.048   4.201  12.396  0.4465  0.0327 -0.0706
  422TMC3     O 6299   3.090   4.307  12.439 -0.2910  0.0435 -0.1902
  422TMC3     H 6300   3.045   4.243  12.641 -1.7296 -0.0290  2.4201
  422TMC3    H1 6301   2.841   4.037  12.336  2.4763 -0.7740 -0.8633
  422TMC3    H2 6302   2.753   3.954  12.751  0.5747  0.6003  0.9728
  422TMC3    C7 6303   2.682   3.912  12.487  0.5407  0.2333 -0.1064
  422TMC3    C8 6304   2.892   4.163  12.836 -0.2725 -0.4366 -0.3375
  422TMC3    O1 6305   2.670   3.897  12.367  0.2303  0.5129 -0.1664
  422TMC3    O2 6306   2.888   4.284  12.828 -0.8403  0.0781  0.3879
  423MPD2     C 6307   4.301   0.741   0.740 -0.0566 -1.2359 -0.7177
  423MPD2    C1 6308   4.342   0.608   0.761 -0.4024 -0.1350  0.5913
  423MPD2    C2 6309   4.392   0.535   0.655  0.0520  0.4123  0.3836
  423MPD2    C3 6310   4.400   0.595   0.529  0.0334  0.2623 -0.0363
  423MPD2    C4 6311   4.364   0.727   0.515 -0.5116  1.2718 -0.6215
  423MPD2    C5 6312   4.309   0.800   0.617  0.0944 -0.2192  0.6435
  423MPD2     H 6313   4.424   0.435   0.683 -0.3903  0.3096  0.5263
  423MPD2    H1 6314   4.373   0.769   0.416  1.0972  2.1284 -0.1171
  423MPD2    H2 6315   4.279   0.797   0.831  2.2194 -1.9523  0.2688
  423MPD2    H3 6316   4.278   0.902   0.596 -0.4322 -0.1263  1.8429
  423MPD2     N 6317   4.443   0.526   0.411  1.2265 -0.0913  0.2068
  423MPD2    H5 6318   4.418   0.568   0.321  0.0716  1.2707  1.1557
  423MPD2    N1 6319   4.337   0.549   0.892 -0.2056  1.0843 -0.0980
  423MPD2    H7 6320   4.378   0.456   0.903 -2.2557  0.2343  0.2556
  424TMC3    C1 6321   4.318   0.521   1.120  0.3675 -0.2691 -0.3669
  424TMC3    C2 6322   4.404   0.411   1.120 -0.5208 -0.0384  0.1157
  424TMC3    C3 6323   4.401   0.331   1.230 -0.5715 -0.0400  0.2948
  424TMC3    C4 6324   4.233   0.545   1.220  0.1879  0.6492 -0.0351
  424TMC3    C5 6325   4.227   0.463   1.325  0.5212  0.3818 -0.1532
  424TMC3    C6 6326   4.314   0.354   1.337  0.3269 -0.1784 -0.2596
  424TMC3     C 6327   4.311   0.615   1.007  1.1573  0.0037  0.0688
  424TMC3     O 6328   4.269   0.724   1.032 -0.1002 -0.4414  0.0776
  424TMC3     H 6329   4.460   0.394   1.029  1.4649  0.3270  1.2836
  424TMC3    H1 6330   4.161   0.625   1.208 -0.5384 -0.1586 -1.1010
  424TMC3    H2 6331   4.305   0.283   1.419 -0.9767 -1.2131 -1.3036
  424TMC3    C7 6332   4.138   0.497   1.436  0.5074  0.4782 -1.0563
  424TMC3    C8 6333   4.474   0.208   1.221 -0.2901 -0.0563  0.1036
  424TMC3    O1 6334   4.047   0.580   1.412  0.5723 -1.0257 -0.0000
  424TMC3    O2 6335   4.433   0.123   1.295 -0.2267  0.2605 -0.6341
  425MPD2     C 6336   2.872   4.384  17.503  0.5115 -1.0838  0.8036
  425MPD2    C1 6337   2.845   4.256  17.540 -0.6239  0.0256 -0.1849
  425MPD2    C2 6338   2.709   4.230  17.584  0.9179  0.7881 -0.1652
  425MPD2    C3 6339   2.616   4.334  17.584  0.1356  0.1169  0.4923
  425MPD2    C4 6340   2.654   4.463  17.564 -0.2384 -0.3466  0.6751
  425MPD2    C5 6341   2.781   4.486  17.522  0.1067  0.6290 -0.2002
  425MPD2     H 6342   2.676   4.128  17.600 -1.8729  1.5349 -1.1676
  425MPD2    H1 6343   2.590   4.550  17.565  0.8029  0.4204  0.5605
  425MPD2    H2 6344   2.976   4.415  17.499 -0.7894  3.1012 -0.2437
  425MPD2    H3 6345   2.820   4.583  17.494  0.5043  0.6782  0.5250
  425MPD2     N 6346   2.482   4.304  17.621 -0.2894 -0.2548  0.1092
  425MPD2    H5 6347   2.470   4.206  17.647 -2.3093 -0.2802 -0.9352
  425MPD2    N1 6348   2.951   4.161  17.529  0.4321 -1.1273  0.2830
  425MPD2    H7 6349   3.039   4.205  17.506 -0.8192 -0.0523 -2.4449
  426TMC3    C1 6350   3.075   3.958  17.530 -0.6405  0.2607 -0.1224
  426TMC3    C2 6351   3.087   3.829  17.494 -0.8824 -0.5703  1.0971
  426TMC3    C3 6352   3.216   3.776  17.486  0.3298  0.1830  0.1573
  426TMC3    C4 6353   3.188   4.024  17.576 -0.2078  0.4492  0.3847
  426TMC3    C5 6354   3.314   3.973  17.550  0.6070  0.6859  0.1742
  426TMC3    C6 6355   3.327   3.846  17.507 -0.2552  0.5315 -0.1010
  426TMC3     C 6356   2.945   4.025  17.537  0.2074  0.4287 -0.2393
  426TMC3     O 6357   2.843   3.950  17.545  0.8686 -0.0295  0.0721
  426TMC3     H 6358   2.997   3.777  17.461 -0.5126 -1.4658  1.5107
  426TMC3    H1 6359   3.180   4.131  17.593 -3.4380 -0.0187  1.8444
  426TMC3    H2 6360   3.426   3.802  17.506 -0.1801  0.6965  0.2513
  426TMC3    C7 6361   3.430   4.037  17.612  0.1153 -0.8548 -0.1163
  426TMC3    C8 6362   3.239   3.656  17.408 -0.0112 -0.4566 -0.2530
  426TMC3    O1 6363   3.535   4.027  17.549 -0.5764 -0.2299  0.0390
  426TMC3    O2 6364   3.342   3.659  17.348  0.1233  0.0841  0.5633
  427MPD2     C 6365   1.596   1.779  14.965  0.4800  0.0998  0.7817
  427MPD2    C1 6366   1.560   1.727  15.090 -0.4096 -0.0950 -0.8501
  427MPD2    C2 6367   1.427   1.715  15.115  0.3810 -0.4262  0.2596
  427MPD2    C3 6368   1.325   1.754  15.028 -0.6776  0.5537 -0.5468
  427MPD2    C4 6369   1.356   1.807  14.906  0.5721 -0.3443  0.0268
  427MPD2    C5 6370   1.491   1.818  14.879  0.4023  0.3807 -0.0227
  427MPD2     H 6371   1.398   1.668  15.208 -0.5088 -2.4421 -1.0265
  427MPD2    H1 6372   1.285   1.832  14.827 -1.9383 -1.4837  1.9257
  427MPD2    H2 6373   1.699   1.799  14.937 -0.6934  2.2158 -2.0684
  427MPD2    H3 6374   1.512   1.862  14.782 -0.7472  0.2221 -0.3411
  427MPD2     N 6375   1.191   1.734  15.057 -0.3128  0.0754 -0.0914
  427MPD2    H5 6376   1.131   1.743  14.975 -0.4561 -1.0918 -0.1150
  427MPD2    N1 6377   1.658   1.696  15.190 -0.2743  0.5338 -0.0237
  427MPD2    H7 6378   1.620   1.662  15.278 -0.1529  0.3122 -0.0585
  428TMC3    C1 6379   1.859   1.615  15.280  0.8347 -0.6745 -0.3988
  428TMC3    C2 6380   1.788   1.523  15.347  0.7345 -0.6433 -0.6949
  428TMC3    C3 6381   1.839   1.474  15.460  0.8770 -0.2037  0.6787
  428TMC3    C4 6382   1.981   1.662  15.328 -0.4298  0.0039  0.2922
  428TMC3    C5 6383   2.032   1.612  15.444  0.1898  0.9114 -0.4610
  428TMC3    C6 6384   1.955   1.526  15.517  0.3462 -0.0482 -0.3845
  428TMC3     C 6385   1.795   1.683  15.171 -0.3103 -0.5163  0.5680
  428TMC3     O 6386   1.870   1.717  15.080  0.1073 -0.1888 -1.1422
  428TMC3     H 6387   1.699   1.474  15.307  0.5818 -0.6074 -0.3933
  428TMC3    H1 6388   2.019   1.749  15.275 -0.1892  0.0468  0.5377
  428TMC3    H2 6389   1.998   1.501  15.613  0.7248 -0.1032 -0.5684
  428TMC3    C7 6390   2.176   1.629  15.469  0.2382 -0.3108 -0.1299
  428TMC3    C8 6391   1.743   1.409  15.545  0.5223 -0.2967  0.2993
  428TMC3    O1 6392   2.217   1.592  15.581 -0.1991  0.1711  0.0242
  428TMC3    O2 6393   1.745   1.457  15.656 -0.0481  0.0319  0.1556
  429MPD2     C 6394   2.504   1.669  17.568  0.7235 -0.7555 -0.7477
  429MPD2    C1 6395   2.640   1.657  17.570  0.0230 -0.2544 -0.4947
  429MPD2    C2 6396   2.707   1.771  17.544 -0.4425 -0.8106  0.6975
  429MPD2    C3 6397   2.651   1.884  17.489  0.3969 -0.0526 -0.4121
  429MPD2    C4 6398   2.513   1.888  17.492 -0.6964  0.3540  0.5377
  429MPD2    C5 6399   2.442   1.786  17.538 -0.1502  1.0805 -0.0970
  429MPD2     H 6400   2.815   1.770  17.557 -0.5099 -1.4022  1.2090
  429MPD2    H1 6401   2.463   1.976  17.452  1.7801  1.3061 -0.4723
  429MPD2    H2 6402   2.434   1.593  17.602  1.6705 -0.1656  2.5042
  429MPD2    H3 6403   2.334   1.789  17.530 -0.1777  1.0773  0.2595
  429MPD2     N 6404   2.731   1.987  17.439 -0.7816  0.2237  0.0615
  429MPD2    H5 6405   2.825   1.960  17.411 -0.4948  1.8327 -0.5185
  429MPD2    N1 6406   2.704   1.540  17.595  0.5000 -0.6414  0.0738
  429MPD2    H7 6407   2.802   1.555  17.615  0.4025 -0.1009  0.1306
  430TMC3    C1 6408   2.794   2.171  17.306 -0.1494  0.5735 -0.2942
  430TMC3    C2 6409   2.753   2.259  17.213  0.4241  0.2704  0.1836
  430TMC3    C3 6410   2.839   2.334  17.140 -0.2395  0.2708  0.8168
  430TMC3    C4 6411   2.929   2.150  17.323 -0.8185 -0.0368 -0.7318
  430TMC3    C5 6412   3.017   2.216  17.246 -0.3410 -0.4420  0.1348
  430TMC3    C6 6413   2.975   2.314  17.157  0.1994  0.1167  0.2959
  430TMC3     C 6414   2.691   2.108  17.388  0.6044  0.0650  0.1385
  430TMC3     O 6415   2.577   2.144  17.379 -0.0585 -0.0467  0.4091
  430TMC3     H 6416   2.647   2.280  17.211 -0.1754 -2.6874  1.5520
  430TMC3    H1 6417   2.959   2.072  17.391 -2.6172  0.1681  0.2926
  430TMC3    H2 6418   3.048   2.370  17.100 -0.5092 -1.2449 -1.9491
  430TMC3    C7 6419   3.112   2.130  17.186 -0.2091 -0.2611  0.5097
  430TMC3    C8 6420   2.782   2.397  17.019 -0.2033 -0.0135 -0.6160
  430TMC3    O1 6421   3.107   2.009  17.216 -0.4048  0.1622 -0.1705
  430TMC3    O2 6422   2.675   2.371  16.969 -0.7573  0.0378  0.0903
  431MPD2     C 6423   4.180   1.911  12.786 -0.3540  0.3176  0.2156
  431MPD2    C1 6424   4.250   1.931  12.673 -0.0237 -0.1264 -0.3231
  431MPD2    C2 6425   4.242   1.843  12.563  0.5674 -0.8451 -0.3012
  431MPD2    C3 6426   4.183   1.718  12.581  0.2136 -0.1886 -0.1433
  431MPD2    C4 6427   4.102   1.708  12.698  0.3218 -0.4214 -0.5653
  431MPD2    C5 6428   4.099   1.801  12.799  0.3027  0.8989 -0.5007
  431MPD2     H 6429   4.296   1.865  12.472 -1.2568  1.2118 -0.8909
  431MPD2    H1 6430   4.040   1.620  12.707  0.7507 -0.5874  0.8231
  431MPD2    H2 6431   4.182   1.982  12.868 -0.1555  1.8398 -1.1070
  431MPD2    H3 6432   4.032   1.799  12.884 -2.8635  1.9290 -2.9753
  431MPD2     N 6433   4.191   1.606  12.497 -0.2807 -0.0112 -0.0940
  431MPD2    H5 6434   4.140   1.522  12.525  0.2409  0.0490  1.0312
  431MPD2    N1 6435   4.333   2.045  12.671 -0.3281  0.1210  0.3399
  431MPD2    H7 6436   4.333   2.097  12.757 -0.6951  1.3549 -0.4104
  432TMC3    C1 6437   4.261   1.477  12.319  0.0174  0.7841  0.0055
  432TMC3    C2 6438   4.284   1.466  12.184 -0.0356 -0.2263  0.1575
  432TMC3    C3 6439   4.284   1.343  12.128  0.7886  0.0725 -0.0794
  432TMC3    C4 6440   4.222   1.365  12.386 -0.0015 -0.3613 -0.0090
  432TMC3    C5 6441   4.209   1.244  12.328  0.4189 -1.0066 -0.5797
  432TMC3    C6 6442   4.255   1.232  12.200  0.0122  0.4900  0.0666
  432TMC3     C 6443   4.266   1.603  12.383  0.6169  0.9333  0.4973
  432TMC3     O 6444   4.340   1.687  12.331 -0.4126  0.4868 -0.4433
  432TMC3     H 6445   4.297   1.559  12.131 -0.7526 -1.0805 -1.5201
  432TMC3    H1 6446   4.225   1.374  12.494  0.1690  1.0108 -0.1337
  432TMC3    H2 6447   4.243   1.138  12.148 -0.0951 -0.5391  1.9408
  432TMC3    C7 6448   4.226   1.130  12.415  0.3488 -0.5264 -0.0688
  432TMC3    C8 6449   4.345   1.325  11.996 -0.2914 -0.8632  0.2438
  432TMC3    O1 6450   4.298   1.045  12.368  0.3529 -0.8927 -0.0014
  432TMC3    O2 6451   4.337   1.221  11.935 -0.0449 -0.2212 -0.0023
  433MPD2     C 6452   3.057   0.339  10.842 -0.1387 -0.0416  0.2002
  433MPD2    C1 6453   2.935   0.289  10.841 -1.1322 -0.0195  0.5413
  433MPD2    C2 6454   2.868   0.298  10.956  0.6696  1.1001  0.0785
  433MPD2    C3 6455   2.920   0.355  11.072  0.4071 -0.1408 -0.3840
  433MPD2    C4 6456   3.044   0.410  11.067  0.6378 -0.3067 -0.0091
  433MPD2    C5 6457   3.114   0.405  10.950 -0.0130  0.4871 -0.5676
  433MPD2     H 6458   2.762   0.272  10.959  1.2801 -1.2009  2.3705
  433MPD2    H1 6459   3.102   0.449  11.149  1.3629 -2.5340  0.5506
  433MPD2    H2 6460   3.119   0.321  10.755 -0.3771  0.1298 -0.0080
  433MPD2    H3 6461   3.215   0.444  10.942  0.8563 -2.2543 -2.9304
  433MPD2     N 6462   2.850   0.338  11.196 -0.2557 -0.2680  0.4834
  433MPD2    H5 6463   2.755   0.305  11.187 -0.1222 -0.8876  1.3669
  433MPD2    N1 6464   2.888   0.221  10.730 -0.6026  0.2796  0.2178
  433MPD2    H7 6465   2.952   0.199  10.654 -1.2532  0.0106 -0.2418
  434TMC3    C1 6466   2.786   0.049  10.615  0.1019 -0.2269  0.3387
  434TMC3    C2 6467   2.899   4.692  10.618  0.2675 -0.1912  0.3587
  434TMC3    C3 6468   2.897   4.570  10.560 -0.7547 -0.2029  0.7043
  434TMC3    C4 6469   2.679   0.006  10.545 -0.3880  0.3468  0.2120
  434TMC3    C5 6470   2.686   4.608  10.478  0.2737  0.3793 -0.6863
  434TMC3    C6 6471   2.794   4.523  10.487  1.2498 -0.5925 -0.2875
  434TMC3     C 6472   2.772   0.160  10.710  0.8124 -0.3177 -0.3814
  434TMC3     O 6473   2.673   0.164  10.785 -0.4949 -0.2497 -0.0565
  434TMC3     H 6474   2.991   4.719  10.669  0.6606  1.6362 -1.3325
  434TMC3    H1 6475   2.588   0.064  10.537 -0.5083  0.0090 -0.8191
  434TMC3    H2 6476   2.804   4.443  10.415 -0.1553 -1.2824  0.2839
  434TMC3    C7 6477   2.584   4.581  10.385  0.1902  0.3011  0.0175
  434TMC3    C8 6478   2.970   4.467  10.629 -0.4959  0.3303  0.2874
  434TMC3    O1 6479   2.528   4.681  10.340 -0.3981 -0.3000 -0.1067
  434TMC3    O2 6480   3.000   4.478  10.747  0.2470 -0.0533 -0.0810
  435MPD2     C 6481   0.003   0.822  15.266 -0.6536 -0.3973 -0.0277
  435MPD2    C1 6482   4.663   0.758  15.377 -0.1997  0.3251 -0.4673
  435MPD2    C2 6483   0.018   0.658  15.442 -0.1895  0.9335 -0.8530
  435MPD2    C3 6484   0.137   0.611  15.387 -0.1830 -0.9086  0.0196
  435MPD2    C4 6485   0.195   0.682  15.282  0.0935 -0.1415  0.1288
  435MPD2    C5 6486   0.122   0.781  15.221  0.4304 -0.1350 -0.1696
  435MPD2     H 6487   4.707   0.595  15.524  0.6402  0.3086 -1.0060
  435MPD2    H1 6488   0.293   0.665  15.240 -0.0734  2.1616 -1.1554
  435MPD2    H2 6489   4.686   0.912  15.218 -1.7863 -0.7393  0.2117
  435MPD2    H3 6490   0.168   0.827  15.134 -0.9478  2.8953  0.7178
  435MPD2     N 6491   0.215   0.510  15.451 -0.3510 -0.4163 -0.1155
  435MPD2    H5 6492   0.184   0.491  15.546 -0.5367 -0.6319 -0.2188
  435MPD2    N1 6493   4.537   0.798  15.424  0.5053  0.0824 -0.2423
  435MPD2    H7 6494   4.508   0.748  15.507 -3.7491  1.2455 -1.0496
  436TMC3    C1 6495   4.188   0.924  15.612  0.4579 -0.0142  1.2944
  436TMC3    C2 6496   4.293   0.875  15.541  0.0738 -0.0642  0.1295
  436TMC3    C3 6497   4.329   0.931  15.424 -0.1859  0.1580  0.0913
  436TMC3    C4 6498   4.115   1.026  15.555 -0.1322  0.2425 -0.8253
  436TMC3    C5 6499   4.151   1.075  15.433 -0.1394 -0.0556  0.3461
  436TMC3    C6 6500   4.257   1.025  15.358  0.6650  0.3041 -0.2769
  436TMC3     C 6501   4.208   0.908  15.762  0.6081 -0.9794 -0.6254
  436TMC3     O 6502   4.316   0.868  15.800  0.6603  0.0772 -0.4966
  436TMC3     H 6503   4.350   0.793  15.582  1.5126  0.8702  0.0202
  436TMC3    H1 6504   4.034   1.068  15.614 -0.5963 -0.7130 -0.7730
  436TMC3    H2 6505   4.275   1.047  15.253 -0.3076 -1.9000 -0.9020
  436TMC3    C7 6506   4.036   1.124  15.354  0.1623 -0.1450 -0.2636
  436TMC3    C8 6507   4.461   0.900  15.366  0.0044 -0.5108  0.3506
  436TMC3    O1 6508   3.952   1.187  15.422  0.6897 -1.0263  0.2831
  436TMC3    O2 6509   4.485   0.966  15.268  0.7847 -0.0620 -0.5316
  437TMC3    C1 6510   3.472   2.600  12.248 -0.6179 -0.8439  0.2129
  437TMC3    C2 6511   3.380   2.631  12.149 -0.1760 -0.6032 -0.0960
  437TMC3    C3 6512   3.420   2.625  12.012 -0.0152  0.0223 -0.0561
  437TMC3    C4 6513   3.599   2.550  12.223  0.1507 -0.3562 -0.7681
  437TMC3    C5 6514   3.638   2.548  12.086 -0.7943  0.5401 -0.5095
  437TMC3    C6 6515   3.554   2.585  11.984 -0.2837  0.1054 -0.3575
  437TMC3     C 6516   3.396   2.553  12.364 -0.4117 -0.0077  0.0496
  437TMC3     O 6517   3.286   2.606  12.381 -0.4892 -0.0373 -0.0433
  437TMC3     H 6518   3.297   2.689  12.187 -0.4650  0.2991 -2.0837
  437TMC3    H1 6519   3.673   2.540  12.301 -0.5546 -0.9982 -0.1842
  437TMC3    H2 6520   3.590   2.586  11.881  0.8104 -0.6440  0.0245
  437TMC3    C7 6521   3.776   2.499  12.049 -0.2720 -0.3000  0.0886
  437TMC3    C8 6522   3.350   2.700  11.913  0.2307 -0.7942  0.4097
  437TMC3    O1 6523   3.806   2.482  11.929 -0.2738  0.2431  0.2819
  437TMC3    O2 6524   3.422   2.743  11.824  0.4017  0.0968 -0.1768
  438MPD2     C 6525   0.747   2.944  16.465  0.8161  0.2801  0.2689
  438MPD2    C1 6526   0.815   2.910  16.582 -0.5244 -0.3567 -0.0678
  438MPD2    C2 6527   0.777   2.953  16.705  0.0156  0.5276 -1.1104
  438MPD2    C3 6528   0.654   3.018  16.717  0.0296 -1.0844 -0.4335
  438MPD2    C4 6529   0.579   3.045  16.601 -0.5259  0.4881  0.0080
  438MPD2    C5 6530   0.627   3.007  16.476 -0.0920  0.1149 -0.2814
  438MPD2     H 6531   0.839   2.934  16.792 -1.5281  0.3562 -0.0575
  438MPD2    H1 6532   0.479   3.086  16.608 -1.5085 -1.7806 -0.6870
  438MPD2    H2 6533   0.797   2.918  16.372 -0.0707  0.6199 -0.2962
  438MPD2    H3 6534   0.563   3.022  16.390  0.6846  3.1032 -0.3200
  438MPD2     N 6535   0.599   3.044  16.845 -0.3888  0.2476  0.2932
  438MPD2    H5 6536   0.657   3.044  16.928 -2.3246  0.5724  1.6524
  438MPD2    N1 6537   0.937   2.841  16.584  0.6848 -0.0639  0.0116
  438MPD2    H7 6538   0.968   2.816  16.677 -1.4757 -1.0899  0.4594
  439TMC3    C1 6539   1.122   2.731  16.516 -0.4891  0.1732  0.7224
  439TMC3    C2 6540   1.148   2.621  16.447  0.0513 -1.0051  0.5968
  439TMC3    C3 6541   1.267   2.557  16.468 -0.3124 -0.1092 -0.0660
  439TMC3    C4 6542   1.195   2.776  16.619  0.4549 -0.5128 -0.0967
  439TMC3    C5 6543   1.306   2.706  16.650 -0.5091  0.4223 -0.6681
  439TMC3    C6 6544   1.343   2.594  16.578  0.6979 -0.3328 -0.3223
  439TMC3     C 6545   0.996   2.787  16.475 -0.3931  0.1706  0.2314
  439TMC3     O 6546   0.978   2.791  16.354 -0.1439  0.0507  0.2967
  439TMC3     H 6547   1.094   2.605  16.354  1.7894 -1.5953 -0.3086
  439TMC3    H1 6548   1.170   2.869  16.669  2.9632 -0.7736  1.6692
  439TMC3    H2 6549   1.430   2.537  16.610  0.3587 -1.4640 -1.4094
  439TMC3    C7 6550   1.366   2.722  16.779 -0.0766 -0.2287  0.3888
  439TMC3    C8 6551   1.348   2.503  16.358 -0.7748 -0.7410 -1.1142
  439TMC3    O1 6552   1.467   2.661  16.804 -0.3701 -0.2221 -0.4727
  439TMC3    O2 6553   1.450   2.434  16.379  0.3240  0.1254  0.2172
  440MPD2     C 6554   4.670   3.834  14.946  0.3402  0.0505  0.4321
  440MPD2    C1 6555   4.573   3.738  14.951 -0.1249 -0.4721 -0.1332
  440MPD2    C2 6556   4.594   3.605  14.971  0.0521 -0.0882  0.0775
  440MPD2    C3 6557   0.004   3.564  14.972 -0.1706 -0.9190  0.6552
  440MPD2    C4 6558   0.103   3.651  14.964 -0.7896 -0.3075 -0.0348
  440MPD2    C5 6559   0.078   3.790  14.943 -0.4428 -0.2416 -1.0073
  440MPD2     H 6560   4.502   3.548  14.984  0.4117 -0.5649  0.4984
  440MPD2    H1 6561   0.207   3.618  14.958  0.3509  3.3608 -0.7714
  440MPD2    H2 6562   4.641   3.937  14.931 -1.6850 -0.7437 -1.0395
  440MPD2    H3 6563   0.159   3.862  14.947 -0.2496 -0.5728  1.0184
  440MPD2     N 6564   0.041   3.436  15.003 -0.3629 -0.4074 -0.2968
  440MPD2    H5 6565   0.139   3.425  15.025 -0.1887 -1.1719 -1.4836
  440MPD2    N1 6566   4.435   3.770  14.954  0.4719  0.4349 -0.0513
  440MPD2    H7 6567   4.365   3.698  14.969 -0.3762  1.1335 -0.6500
  441TMC3    C1 6568   0.001   3.212  15.069  0.1941 -0.2185 -0.0270
  441TMC3    C2 6569   0.054   3.224  15.194  0.4251 -0.0313 -0.2251
  441TMC3    C3 6570   0.059   3.114  15.273  0.1419 -0.9689 -0.3862
  441TMC3    C4 6571   4.644   3.106  15.042  0.1181  0.5247 -0.2307
  441TMC3    C5 6572   4.635   2.996  15.127 -0.3037 -0.5059 -0.3344
  441TMC3    C6 6573   4.719   2.997  15.234 -0.3297  0.0075 -0.9127
  441TMC3     C 6574   4.670   3.333  15.019 -0.1289 -0.1440  0.6140
  441TMC3     O 6575   4.558   3.333  14.976  0.0615  0.3433  0.0068
  441TMC3     H 6576   0.122   3.308  15.211 -1.7397  2.0380 -1.8272
  441TMC3    H1 6577   4.601   3.092  14.943 -1.1204 -3.1616  0.8379
  441TMC3    H2 6578   4.695   2.929  15.315 -0.4501  1.3337  0.1781
  441TMC3    C7 6579   4.500   2.973  15.164  0.6274 -0.0885  0.0709
  441TMC3    C8 6580   0.008   3.154  15.401  0.1789  0.5519 -0.5370
  441TMC3    O1 6581   4.486   2.883  15.245 -0.0474 -0.2157  0.4229
  441TMC3    O2 6582   0.024   3.084  15.499 -0.6828 -0.3065  0.0280
  442MPD2     C 6583   3.165   3.515  16.895 -0.6460 -0.0577 -0.2647
  442MPD2    C1 6584   3.061   3.453  16.961  0.0156  0.0534 -0.5135
  442MPD2    C2 6585   3.031   3.323  16.941  0.3856 -0.1260 -0.3991
  442MPD2    C3 6586   3.099   3.244  16.850  0.0609  0.9866  0.4183
  442MPD2    C4 6587   3.198   3.309  16.778 -0.0369 -0.9304  0.0105
  442MPD2    C5 6588   3.236   3.440  16.805 -0.5049  0.3083 -0.3116
  442MPD2     H 6589   2.940   3.283  16.984 -0.2677  0.5797 -1.1388
  442MPD2    H1 6590   3.263   3.263  16.704 -0.1697 -1.5479  0.2832
  442MPD2    H2 6591   3.197   3.618  16.909 -2.2968  0.5010 -0.5568
  442MPD2    H3 6592   3.321   3.483  16.753  0.1920 -1.6122 -0.7725
  442MPD2     N 6593   3.044   3.124  16.799  1.0048 -0.2631 -0.0297
  442MPD2    H5 6594   3.066   3.092  16.706 -1.4821 -1.2587 -0.2656
  442MPD2    N1 6595   2.979   3.516  17.053  0.3244  0.6856  0.5981
  442MPD2    H7 6596   2.900   3.460  17.084  0.3679  0.5339  0.4364
  443TMC3    C1 6597   2.891   3.671  17.195  0.4270 -0.0191 -0.4095
  443TMC3    C2 6598   2.875   3.802  17.226 -0.4577  0.5367  0.9717
  443TMC3    C3 6599   2.769   3.851  17.290  0.2908 -0.5008 -0.1891
  443TMC3    C4 6600   2.790   3.579  17.238  0.4804  0.0505  0.8153
  443TMC3    C5 6601   2.690   3.625  17.317 -0.2489  0.2902  0.0305
  443TMC3    C6 6602   2.678   3.760  17.342 -0.1720  0.7179  0.8099
  443TMC3     C 6603   2.993   3.642  17.098 -0.0416  0.9596 -0.1764
  443TMC3     O 6604   3.081   3.726  17.072  0.3347 -0.4886 -0.2462
  443TMC3     H 6605   2.942   3.866  17.170  0.0413 -2.1430 -1.5059
  443TMC3    H1 6606   2.799   3.472  17.223 -2.0353 -0.0419 -0.1716
  443TMC3    H2 6607   2.593   3.797  17.397 -0.1270 -0.4999  1.6916
  443TMC3    C7 6608   2.577   3.542  17.353  0.2771  0.1778 -0.2634
  443TMC3    C8 6609   2.698   3.970  17.235 -0.3510  0.2224  0.0490
  443TMC3    O1 6610   2.480   3.591  17.408  0.3881 -0.5381 -0.0698
  443TMC3    O2 6611   2.576   3.971  17.249  0.7888 -0.1743  0.9484
  444MPD2     C 6612   2.983   3.475   0.267 -0.6591  0.0921  0.1179
  444MPD2    C1 6613   2.955   3.365   0.185 -0.8468 -0.2688 -0.2752
  444MPD2    C2 6614   3.052   3.327   0.091 -0.3682 -0.8179 -0.0430
  444MPD2    C3 6615   3.174   3.383   0.086  0.1258 -0.5503  0.3423
  444MPD2    C4 6616   3.208   3.488   0.170 -0.2267  1.0365 -0.2645
  444MPD2    C5 6617   3.108   3.533   0.255  0.5925  0.5073  0.0193
  444MPD2     H 6618   3.024   3.253   0.017  0.6026 -1.2011 -0.0191
  444MPD2    H1 6619   3.300   3.545   0.172  0.3292  0.1023  0.5584
  444MPD2    H2 6620   2.914   3.501   0.346 -2.0327  0.0610 -1.0544
  444MPD2    H3 6621   3.125   3.616   0.322 -2.5217  0.6336  0.6734
  444MPD2     N 6622   3.267   3.327  17.681  0.4735 -0.3545  0.1905
  444MPD2    H5 6623   3.249   3.237  17.639 -0.2986 -1.0645  2.0824
  444MPD2    N1 6624   2.826   3.300   0.181 -0.4147  0.1942  0.2485
  444MPD2    H7 6625   2.819   3.220   0.118  0.3445  0.5117 -0.2386
  445TMC3    C1 6626   3.454   3.324  17.527 -0.1896 -0.2849  0.4778
  445TMC3    C2 6627   3.451   3.193  17.510  0.0603  1.0315 -0.3460
  445TMC3    C3 6628   3.543   3.141  17.423  0.3414  0.0947  0.0606
  445TMC3    C4 6629   3.547   3.401  17.460 -0.1243  0.5520 -0.0807
  445TMC3    C5 6630   3.642   3.343  17.374 -0.2225  0.6019  0.2633
  445TMC3    C6 6631   3.636   3.212  17.354  0.6021  0.3855 -0.1678
  445TMC3     C 6632   3.383   3.392  17.634  0.6043  0.1198 -0.3494
  445TMC3     O 6633   3.426   3.503  17.657  0.0668 -0.1044 -0.0382
  445TMC3     H 6634   3.372   3.131  17.551  0.3358  1.3299  0.6190
  445TMC3    H1 6635   3.541   3.508  17.474  2.4772  0.5481  0.9995
  445TMC3    H2 6636   3.727   3.167  17.317 -0.0272 -1.0590  0.0136
  445TMC3    C7 6637   3.705   3.414  17.264  0.1074  0.3973 -0.4659
  445TMC3    C8 6638   3.550   3.000  17.420  0.0052  0.7104 -1.2102
  445TMC3    O1 6639   3.736   3.344  17.169  0.2263 -0.0356 -0.3059
  445TMC3    O2 6640   3.485   2.938  17.504  0.1142  0.3351  0.4545
  446MPD2     C 6641   2.479   4.524  10.961  0.5376 -0.1320 -0.0816
  446MPD2    C1 6642   2.557   4.491  10.851 -0.9886  0.1069 -0.0181
  446MPD2    C2 6643   2.693   4.505  10.862 -0.7243 -0.3472  0.3804
  446MPD2    C3 6644   2.758   4.563  10.972  0.4574  0.5119  0.2379
  446MPD2    C4 6645   2.678   4.593  11.077 -0.3742  0.1324  0.2781
  446MPD2    C5 6646   2.542   4.567  11.072 -0.3556 -0.6584 -0.0342
  446MPD2     H 6647   2.757   4.452  10.792  1.6206  2.8805  0.0814
  446MPD2    H1 6648   2.715   4.641  11.167  2.8461  1.7589 -1.9221
  446MPD2    H2 6649   2.373   4.502  10.963  0.5747 -0.1823  0.9448
  446MPD2    H3 6650   2.478   4.593  11.155  0.9781  1.8780  0.1902
  446MPD2     N 6651   2.894   4.595  10.972  0.3093 -0.1476  0.2408
  446MPD2    H5 6652   2.943   4.574  10.885  0.2742 -1.0731  0.4456
  446MPD2    N1 6653   2.499   4.417  10.747  0.5184  0.3306  0.2442
  446MPD2    H7 6654   2.561   4.361  10.691 -0.6314 -0.4356 -0.2660
  447TMC3    C1 6655   3.103   4.642  11.057  0.0372  0.2361  0.6996
  447TMC3    C2 6656   3.134   4.702  10.941 -0.0285 -0.6546 -0.1673
  447TMC3    C3 6657   3.257   0.005  10.903  0.1722  0.0435 -0.6688
  447TMC3    C4 6658   3.201   4.592  11.139  0.7111 -0.7406  0.4262
  447TMC3    C5 6659   3.327   4.616  11.099  0.1046 -0.2090 -0.2716
  447TMC3    C6 6660   3.360   4.681  10.984  0.0084 -0.4298 -0.3738
  447TMC3     C 6661   2.964   4.628  11.082  0.3005  0.0730  0.4537
  447TMC3     O 6662   2.932   4.610  11.199 -0.5740 -0.3208 -0.3185
  447TMC3     H 6663   3.053   0.016  10.878 -0.3277 -2.3338 -0.7009
  447TMC3    H1 6664   3.174   4.540  11.231 -3.5604  1.4330  0.4239
  447TMC3    H2 6665   3.463   4.710  10.967 -0.1877 -0.5941 -1.9019
  447TMC3    C7 6666   3.441   4.602  11.186  0.5181 -0.0075 -0.0483
  447TMC3    C8 6667   3.283   0.023  10.763 -0.6292 -0.3452  0.0708
  447TMC3    O1 6668   3.548   4.573  11.137  0.2708  0.4542  0.1821
  447TMC3    O2 6669   3.200   0.085  10.698  0.1503 -0.2655  0.2694
  448TMC3    C1 6670   0.802   0.170  17.493 -0.6158 -0.1428 -0.1669
  448TMC3    C2 6671   0.822   0.073  17.400  0.5986 -0.1772 -0.3537
  448TMC3    C3 6672   0.926   4.705  17.417  0.1495  0.1265 -0.3089
  448TMC3    C4 6673   0.886   0.188  17.604 -0.4951 -0.1430  0.2656
  448TMC3    C5 6674   0.987   0.093  17.616 -0.0025  0.5639  0.5711
  448TMC3    C6 6675   1.016   4.712  17.528  0.5917  0.2163  0.3824
  448TMC3     C 6676   0.724   0.287  17.467 -0.1912 -1.0635  0.5346
  448TMC3     O 6677   0.618   0.272  17.410  0.2988 -0.5833 -0.5708
  448TMC3     H 6678   0.771   0.091  17.306  1.2487  2.9784 -0.0774
  448TMC3    H1 6679   0.861   0.255  17.685  0.2208  0.1486  0.2504
  448TMC3    H2 6680   1.091   4.636  17.549 -1.3061 -1.1296  2.3182
  448TMC3    C7 6681   1.069   0.121   0.039  0.6589 -0.8480 -0.7663
  448TMC3    C8 6682   0.927   4.583  17.339 -0.0887 -0.5486  0.2179
  448TMC3    O1 6683   1.090   0.239   0.058  0.2754  0.0013  0.2425
  448TMC3    O2 6684   1.020   4.508  17.368  0.2873  0.3144  0.2507
  449MPD2     C 6685   2.663   2.451  14.079 -0.6213  0.1969 -0.1167
  449MPD2    C1 6686   2.544   2.488  14.026 -0.0346  0.5248  0.2666
  449MPD2    C2 6687   2.433   2.499  14.102 -0.8678 -0.5221  0.7723
  449MPD2    C3 6688   2.437   2.485  14.235 -0.3124 -0.0121 -0.6568
  449MPD2    C4 6689   2.554   2.455  14.297 -0.3232 -0.7759 -0.6164
  449MPD2    C5 6690   2.666   2.436  14.214  0.2223  0.2717  1.0425
  449MPD2     H 6691   2.345   2.533  14.049 -0.5211 -0.5288  0.1883
  449MPD2    H1 6692   2.567   2.427  14.401  4.1764  0.1580 -0.9433
  449MPD2    H2 6693   2.757   2.458  14.025  0.2066  0.9900  1.4468
  449MPD2    H3 6694   2.747   2.390  14.269  0.3894  1.2787  1.6332
  449MPD2     N 6695   2.312   2.511  14.296 -0.2829  0.0300 -0.5904
  449MPD2    H5 6696   2.239   2.542  14.234 -0.5727  0.7283  0.1060
  449MPD2    N1 6697   2.527   2.512  13.890 -0.0372 -0.5928  0.1353
  449MPD2    H7 6698   2.430   2.531  13.865 -0.0744 -1.8995 -0.7274
  450TMC3    C1 6699   2.551   2.510  13.659 -0.2614  0.4511  0.7988
  450TMC3    C2 6700   2.580   2.618  13.583 -0.7983 -0.6450  0.3673
  450TMC3    C3 6701   2.477   2.674  13.516  0.3801 -0.2132 -0.1826
  450TMC3    C4 6702   2.421   2.469  13.668  0.2444  1.2518  0.2828
  450TMC3    C5 6703   2.317   2.526  13.594 -0.3895 -0.6350 -0.1718
  450TMC3    C6 6704   2.345   2.641  13.533  0.3724 -0.6452 -0.3611
  450TMC3     C 6705   2.624   2.506  13.791 -0.5070  0.7919 -0.0227
  450TMC3     O 6706   2.749   2.509  13.796  0.2686 -0.3770 -0.0986
  450TMC3     H 6707   2.680   2.659  13.579 -0.3912 -1.9556 -2.6750
  450TMC3    H1 6708   2.400   2.372  13.713  0.3892  1.4224  0.7223
  450TMC3    H2 6709   2.265   2.697  13.487  0.0532 -0.7778  0.0308
  450TMC3    C7 6710   2.212   2.525  13.694 -0.0178  0.3452  0.2764
  450TMC3    C8 6711   2.516   2.789  13.438 -0.0592 -0.2012  0.4482
  450TMC3    O1 6712   2.253   2.517  13.809 -0.0441  0.3635  0.2236
  450TMC3    O2 6713   2.441   2.884  13.442 -0.2910  0.0112  0.3807
  451MPD2     C 6714   3.438   2.006   1.594 -0.1753 -0.4665 -0.4458
  451MPD2    C1 6715   3.543   2.083   1.553  0.9174  0.0053  0.3838
  451MPD2    C2 6716   3.671   2.029   1.554 -0.5106  0.4158 -0.0516
  451MPD2    C3 6717   3.695   1.899   1.600  0.7994  0.1323  0.2493
  451MPD2    C4 6718   3.590   1.825   1.643 -0.0637  0.2746 -0.9118
  451MPD2    C5 6719   3.469   1.881   1.644 -0.2915  0.5975 -0.1161
  451MPD2     H 6720   3.746   2.097   1.514  0.8630 -1.3594 -0.4825
  451MPD2    H1 6721   3.608   1.725   1.681 -0.2949  0.1864 -1.0415
  451MPD2    H2 6722   3.335   2.039   1.589 -0.2642 -1.1596 -3.1314
  451MPD2    H3 6723   3.396   1.813   1.687 -1.0082 -0.0247 -2.2829
  451MPD2     N 6724   3.816   1.835   1.595 -0.0768  0.0399 -0.1284
  451MPD2    H5 6725   3.817   1.736   1.618 -1.2507  0.0656  0.0303
  451MPD2    N1 6726   3.509   2.213   1.522  0.3552 -0.1122  0.0228
  451MPD2    H7 6727   3.409   2.230   1.532  0.8415  2.1463  0.9573
  452TMC3    C1 6728   4.040   1.792   1.555  0.3405  0.3528  0.4444
  452TMC3    C2 6729   4.077   1.776   1.687 -0.1025 -0.0220 -0.8235
  452TMC3    C3 6730   4.122   1.650   1.729 -0.2845 -0.1453 -0.3475
  452TMC3    C4 6731   4.036   1.683   1.473  0.0046 -0.2962  0.5850
  452TMC3    C5 6732   4.089   1.565   1.518  0.2118 -0.1945  0.4831
  452TMC3    C6 6733   4.126   1.542   1.648 -0.1947 -0.3110 -0.0226
  452TMC3     C 6734   3.933   1.889   1.545 -0.0196  0.8460  0.2596
  452TMC3     O 6735   3.957   2.007   1.522  0.0247 -0.6461 -0.1495
  452TMC3     H 6736   4.050   1.853   1.759 -2.4397 -0.3652 -1.3139
  452TMC3    H1 6737   4.000   1.698   1.372  0.0242  1.6573  0.8613
  452TMC3    H2 6738   4.172   1.453   1.687  2.3051  1.5207  1.1931
  452TMC3    C7 6739   4.128   1.465   1.419  0.7978  0.5502 -0.5116
  452TMC3    C8 6740   4.125   1.628   1.872 -0.5910 -0.4323  0.8617
  452TMC3    O1 6741   4.126   1.496   1.298 -0.6818  0.3683 -0.0122
  452TMC3    O2 6742   4.106   1.515   1.912  0.6151 -0.4501 -0.0866
  453TMC3    C1 6743   0.222   3.706  11.937  0.0048 -0.4493  0.4601
  453TMC3    C2 6744   0.150   3.623  12.021  0.1835 -0.2144 -0.1617
  453TMC3    C3 6745   0.049   3.549  11.969  0.5873  0.3658  0.5982
  453TMC3    C4 6746   0.207   3.685  11.801  0.3190  0.6462 -0.0566
  453TMC3    C5 6747   0.102   3.608  11.752 -0.7120  0.3794  0.0284
  453TMC3    C6 6748   0.026   3.537  11.835  0.4224 -0.4655  0.0674
  453TMC3     C 6749   0.338   3.775  11.979  0.6294  0.0315 -0.0146
  453TMC3     O 6750   0.428   3.797  11.896  0.2457  0.0130  0.0485
  453TMC3     H 6751   0.147   3.621  12.130 -1.7670 -1.7231 -0.2466
  453TMC3    H1 6752   0.261   3.745  11.729  0.1241  0.6170 -0.2287
  453TMC3    H2 6753   4.665   3.473  11.806 -0.1021  1.6353 -3.1121
  453TMC3    C7 6754   0.122   3.570  11.609 -0.8466 -0.5483 -0.4813
  453TMC3    C8 6755   4.708   3.441  12.046  0.5519  0.4711 -0.1326
  453TMC3    O1 6756   0.189   3.640  11.536 -0.3560  0.2592  0.1219
  453TMC3    O2 6757   4.587   3.436  12.054 -0.0902 -0.4753 -0.3445
  454MPD2     C 6758   3.359   3.671  16.403 -0.5554  0.1719  0.1986
  454MPD2    C1 6759   3.348   3.544  16.351  0.2736  0.6780 -0.4756
  454MPD2    C2 6760   3.418   3.440  16.413 -0.0898  0.0797 -0.4582
  454MPD2    C3 6761   3.502   3.464  16.521 -0.5514  0.0310 -0.1414
  454MPD2    C4 6762   3.516   3.594  16.567 -0.0693  0.3048  0.3452
  454MPD2    C5 6763   3.437   3.698  16.515 -0.3581 -0.7643  0.5003
  454MPD2     H 6764   3.421   3.343  16.364  3.9574 -1.5222  3.0197
  454MPD2    H1 6765   3.578   3.631  16.648 -0.1468 -2.7095  1.7773
  454MPD2    H2 6766   3.301   3.755  16.367  2.2605  0.6254 -3.1889
  454MPD2    H3 6767   3.448   3.795  16.563 -1.3798 -2.0638  3.3596
  454MPD2     N 6768   3.587   3.353  16.564  0.4609 -1.1580 -0.1342
  454MPD2    H5 6769   3.573   3.262  16.521  0.4636 -1.1086 -0.2395
  454MPD2    N1 6770   3.256   3.514  16.241  0.4892 -0.3500 -0.4635
  454MPD2    H7 6771   3.244   3.415  16.223  2.6068 -0.2924 -2.2645
  455TMC3    C1 6772   3.626   3.241  16.764  0.5842 -0.0025 -0.2579
  455TMC3    C2 6773   3.585   3.272  16.892 -0.0313  0.1355  0.1702
  455TMC3    C3 6774   3.477   3.204  16.942 -0.3290 -0.1566  0.8561
  455TMC3    C4 6775   3.574   3.135  16.692  0.0163 -0.3492  0.4556
  455TMC3    C5 6776   3.480   3.060  16.760 -0.2033  0.1439 -0.1694
  455TMC3    C6 6777   3.420   3.093  16.883  0.3552  0.0924  0.5352
  455TMC3     C 6778   3.646   3.357  16.688 -0.3145  0.8812  0.2731
  455TMC3     O 6779   3.676   3.458  16.749  0.1530  0.1763 -0.1070
  455TMC3     H 6780   3.623   3.360  16.943  0.4431  0.3991 -0.6471
  455TMC3    H1 6781   3.609   3.097  16.597 -1.3762  1.9463 -0.9764
  455TMC3    H2 6782   3.334   3.049  16.931  0.5732  0.4169  1.2184
  455TMC3    C7 6783   3.442   2.937  16.695 -0.0129 -0.1784  0.0188
  455TMC3    C8 6784   3.408   3.285  17.051  0.2525  0.2035  0.4314
  455TMC3    O1 6785   3.482   2.910  16.582 -0.0400 -0.5388 -0.6449
  455TMC3    O2 6786   3.444   3.403  17.067  0.1487  0.2576  0.2202
  456MPD2     C 6787   1.425   3.450  16.562  0.0804  0.3586 -0.2780
  456MPD2    C1 6788   1.400   3.371  16.671 -0.2760  1.1568 -0.1078
  456MPD2    C2 6789   1.334   3.419  16.784 -0.2410 -0.3346 -0.6330
  456MPD2    C3 6790   1.317   3.553  16.797  0.4528 -0.4274 -0.2111
  456MPD2    C4 6791   1.366   3.639  16.695 -0.1648 -0.3063 -0.2019
  456MPD2    C5 6792   1.411   3.589  16.573 -0.0491  0.4551  0.2519
  456MPD2     H 6793   1.311   3.358  16.870 -1.4439  0.0018 -0.7205
  456MPD2    H1 6794   1.352   3.746  16.705  3.1124  0.0285  0.6965
  456MPD2    H2 6795   1.466   3.402  16.474  1.8099  1.3148 -0.0003
  456MPD2    H3 6796   1.434   3.657  16.492 -0.5218  3.3646  2.5427
  456MPD2     N 6797   1.236   3.591  16.912 -0.0205  0.6201 -0.4973
  456MPD2    H5 6798   1.195   3.519  16.970 -1.4321  0.6777 -1.4376
  456MPD2    N1 6799   1.438   3.238  16.662  0.4027  0.0372  0.1085
  456MPD2    H7 6800   1.494   3.227  16.578 -1.5673 -0.4526 -1.1574
  457TMC3    C1 6801   1.132   3.750  17.061  0.3888 -0.1864 -0.2375
  457TMC3    C2 6802   1.077   3.870  17.073 -0.0598 -0.5226 -0.0043
  457TMC3    C3 6803   1.081   3.925  17.199  0.3879  0.1107  0.1375
  457TMC3    C4 6804   1.177   3.683  17.167  0.2729  0.7186 -0.1538
  457TMC3    C5 6805   1.185   3.741  17.289  0.2590  0.4928  0.5350
  457TMC3    C6 6806   1.138   3.870  17.306  0.1906 -0.4656  0.3070
  457TMC3     C 6807   1.201   3.725  16.937  0.0994 -0.4053 -0.3269
  457TMC3     O 6808   1.234   3.830  16.878  0.6341 -0.2357  0.0986
  457TMC3     H 6809   1.042   3.923  16.985 -3.7143 -1.3996  0.8966
  457TMC3    H1 6810   1.226   3.586  17.165  0.0702  0.5911  1.4141
  457TMC3    H2 6811   1.122   3.913  17.404  0.2270 -0.8251  0.4709
  457TMC3    C7 6812   1.257   3.677  17.404 -0.0465  0.4212  0.2546
  457TMC3    C8 6813   1.035   4.065  17.216  0.5024 -0.9653 -0.8133
  457TMC3    O1 6814   1.232   3.561  17.427  0.5208  0.5443 -0.0340
  457TMC3    O2 6815   1.097   4.130  17.298 -0.9712 -0.0321  0.7559
  458MPD2     C 6816   4.285   2.518  12.144  1.6435 -0.4256  0.3368
  458MPD2    C1 6817   4.216   2.550  12.266  0.1874  0.3084 -0.1336
  458MPD2    C2 6818   4.078   2.538  12.268 -0.1938 -0.2946 -0.5559
  458MPD2    C3 6819   4.002   2.495  12.153 -0.1091 -0.0833 -0.8011
  458MPD2    C4 6820   4.075   2.453  12.043 -0.8380 -0.1120 -0.0980
  458MPD2    C5 6821   4.212   2.466  12.038  0.4447  0.2628 -0.6961
  458MPD2     H 6822   4.026   2.548  12.362 -1.8688  0.4195 -1.5692
  458MPD2    H1 6823   4.025   2.421  11.953 -1.8333  0.0222  0.4089
  458MPD2    H2 6824   4.393   2.524  12.140  1.7021 -1.4727  0.4663
  458MPD2    H3 6825   4.265   2.434  11.949  1.0512  0.0818 -0.2720
  458MPD2     N 6826   3.859   2.506  12.152  0.3134  0.7535 -0.3878
  458MPD2    H5 6827   3.820   2.545  12.237  0.5428  0.9623 -0.3765
  458MPD2    N1 6828   4.293   2.601  12.376  0.0117 -0.1527 -0.3093
  458MPD2    H7 6829   4.383   2.634  12.344 -0.1872 -0.3567 -1.0875
  459TMC3    C1 6830   4.341   2.678  12.589  0.1073  0.4944  0.5698
  459TMC3    C2 6831   4.434   2.770  12.555  1.0624  0.2766  0.4559
  459TMC3    C3 6832   4.548   2.776  12.634  0.3768 -0.3087 -0.0517
  459TMC3    C4 6833   4.358   2.597  12.698 -0.0280  0.3978  0.3937
  459TMC3    C5 6834   4.473   2.608  12.774  0.2540 -0.4576  0.0821
  459TMC3    C6 6835   4.572   2.693  12.742 -0.2613 -0.2932 -0.5721
  459TMC3     C 6836   4.243   2.628  12.498 -0.5017 -0.0856 -0.3989
  459TMC3     O 6837   4.132   2.592  12.542 -0.0019 -0.4355  0.5798
  459TMC3     H 6838   4.424   2.831  12.465  2.3429  1.8698  1.3827
  459TMC3    H1 6839   4.286   2.517  12.708 -0.0426  0.5362  1.4476
  459TMC3    H2 6840   4.662   2.706  12.802 -0.2322 -1.5948 -0.3337
  459TMC3    C7 6841   4.447   2.549  12.904 -0.1376  0.1457 -0.3670
  459TMC3    C8 6842   4.644   2.872  12.606  0.2220 -0.7793 -0.5168
  459TMC3    O1 6843   4.356   2.468  12.914  0.6748 -0.1643 -0.5140
  459TMC3    O2 6844   0.035   2.855  12.647  0.3092  0.2168  0.0178
  460MPD2     C 6845   3.546   4.564  10.567  0.1164  0.0395 -0.4085
  460MPD2    C1 6846   3.436   4.652  10.596  0.6841  0.1735  0.1713
  460MPD2    C2 6847   3.368   4.713  10.491 -0.5844  0.1411  0.4372
  460MPD2    C3 6848   3.412   4.697  10.357  0.4830  0.1270  0.2518
  460MPD2    C4 6849   3.520   4.615  10.329 -0.1784 -0.5147  0.1176
  460MPD2    C5 6850   3.588   4.557  10.430 -0.6026  0.4230  0.0777
  460MPD2     H 6851   3.281   0.055  10.505 -0.4467  0.4266  0.0121
  460MPD2    H1 6852   3.553   4.602  10.227  0.7027  1.9261  0.0725
  460MPD2    H2 6853   3.598   4.507  10.643 -1.5899 -0.3770  0.4226
  460MPD2    H3 6854   3.681   4.506  10.410  0.1150  1.0187  1.8725
  460MPD2     N 6855   3.329   0.034  10.253  0.4988  0.4254  0.9755
  460MPD2    H5 6856   3.266   0.108  10.283  1.3070  0.7862  1.7817
  460MPD2    N1 6857   3.392   4.666  10.728 -0.6242 -0.1130 -0.2480
  460MPD2    H7 6858   3.436   4.626  10.811 -1.7155  2.1306  1.4127
  461TMC3    C1 6859   3.239   0.097  10.050 -0.1651  0.1420 -0.9195
  461TMC3    C2 6860   3.151   0.035   9.969 -0.2311  0.3204 -0.1463
  461TMC3    C3 6861   3.046   0.104   9.918  0.1849  0.0891  0.4223
  461TMC3    C4 6862   3.223   0.229  10.082  0.3592 -0.5422 -0.1592
  461TMC3    C5 6863   3.121   0.297  10.026  0.4015  0.7086 -0.4067
  461TMC3    C6 6864   3.029   0.237   9.950  0.3717  0.1033 -0.5717
  461TMC3     C 6865   3.332   0.013  10.121  0.5428 -0.2289 -0.0960
  461TMC3     O 6866   3.381   4.643  10.053  0.3904 -0.0113 -0.6479
  461TMC3     H 6867   3.169   4.655   9.934 -4.4708 -0.3948 -0.2244
  461TMC3    H1 6868   3.294   0.277  10.148  0.4289 -1.2598  0.2912
  461TMC3    H2 6869   2.938   0.285   9.917 -1.3019 -1.0646  2.3870
  461TMC3    C7 6870   3.128   0.438  10.019  0.1928  0.0795 -0.0261
  461TMC3    C8 6871   2.971   0.049   9.811 -1.0880 -0.7726 -0.0821
  461TMC3    O1 6872   3.073   0.489   9.920  0.1280  0.2284  0.7821
  461TMC3    O2 6873   2.979   4.647   9.816 -0.0831  0.5269  0.5945
  462TMC3    C1 6874   3.150   0.301  17.199 -0.1284 -0.0366  0.6565
  462TMC3    C2 6875   3.277   0.296  17.154 -0.9481 -0.0973  0.2435
  462TMC3    C3 6876   3.376   0.258  17.249 -0.1979  0.0026  0.0177
  462TMC3    C4 6877   3.118   0.285  17.334 -0.2956  0.4021  0.2420
  462TMC3    C5 6878   3.216   0.238  17.415  0.0360 -0.5344 -0.4538
  462TMC3    C6 6879   3.351   0.239  17.380  0.7991  0.0282 -0.0799
  462TMC3     C 6880   3.051   0.369  17.118 -0.5703  0.1381  0.0002
  462TMC3     O 6881   3.058   0.352  16.996 -0.0518 -0.3598  0.2195
  462TMC3     H 6882   3.296   0.303  17.048 -1.1315 -0.6516  0.1780
  462TMC3    H1 6883   3.018   0.305  17.368 -1.9537 -0.3801 -4.1500
  462TMC3    H2 6884   3.422   0.187  17.443 -0.6107  0.2349  1.6980
  462TMC3    C7 6885   3.173   0.214  17.549  0.2836  0.0027  0.4699
  462TMC3    C8 6886   3.514   0.259  17.207  0.5027  0.2628  0.3219
  462TMC3    O1 6887   3.056   0.222  17.568  0.4929 -0.0750 -0.0188
  462TMC3    O2 6888   3.587   0.205  17.287 -0.1486  0.6226 -0.1306
  463MPD2     C 6889   3.396   0.569   2.448  0.2341 -0.1839  0.6249
  463MPD2    C1 6890   3.493   0.479   2.424 -0.2963 -0.6487  0.4642
  463MPD2    C2 6891   3.602   0.521   2.348 -0.3583  0.1200 -0.0897
  463MPD2    C3 6892   3.613   0.652   2.307 -0.1872  0.6471  0.0286
  463MPD2    C4 6893   3.507   0.734   2.335 -0.6175 -0.5010 -0.0839
  463MPD2    C5 6894   3.398   0.689   2.394  0.9630 -0.0615 -0.6122
  463MPD2     H 6895   3.676   0.445   2.322 -0.3938 -0.8974  2.8114
  463MPD2    H1 6896   3.506   0.836   2.298  0.0951  0.0352  1.3621
  463MPD2    H2 6897   3.307   0.541   2.503 -1.5696 -1.9504 -3.2130
  463MPD2    H3 6898   3.304   0.743   2.386 -0.9844 -2.8401  3.0574
  463MPD2     N 6899   3.728   0.707   2.238 -0.5064 -0.3168 -0.0700
  463MPD2    H5 6900   3.708   0.800   2.202 -1.6258  0.1380  1.7543
  463MPD2    N1 6901   3.502   0.349   2.479 -0.3582  0.1082  0.1248
  463MPD2    H7 6902   3.577   0.290   2.445 -0.0815  1.2412 -1.2449
  464TMC3    C1 6903   3.482   0.154   2.593  0.4847  0.8936 -0.5306
  464TMC3    C2 6904   3.599   0.140   2.512 -0.3716  0.1989 -0.1331
  464TMC3    C3 6905   3.611   0.037   2.426 -0.1366 -0.0840 -0.1854
  464TMC3    C4 6906   3.389   0.060   2.597  0.0123  0.5891  0.6764
  464TMC3    C5 6907   3.397   4.683   2.502 -0.3459 -0.2284 -0.3109
  464TMC3    C6 6908   3.508   4.663   2.413 -0.0257  0.0833 -0.3523
  464TMC3     C 6909   3.429   0.289   2.583  0.2714 -0.1534  0.4726
  464TMC3     O 6910   3.327   0.318   2.636 -0.6382 -0.4009  0.0435
  464TMC3     H 6911   3.691   0.193   2.536  0.0962 -0.4472 -0.5199
  464TMC3    H1 6912   3.293   0.088   2.638 -0.2413  1.4332 -0.5116
  464TMC3    H2 6913   3.507   4.586   2.337  0.5212  2.4052 -2.6745
  464TMC3    C7 6914   3.282   4.588   2.503 -0.5908 -0.5842  0.2574
  464TMC3    C8 6915   3.681   0.068   2.303  0.2170 -0.2688 -0.1360
  464TMC3    O1 6916   3.209   4.585   2.602 -0.5407 -0.9274  0.3163
  464TMC3    O2 6917   3.712   0.186   2.284 -0.1386 -0.6699  0.0042
  465MPD2     C 6918   0.849   3.886  17.499  0.8465 -0.8470  0.1137
  465MPD2    C1 6919   0.877   3.750  17.487  0.5885  0.5170 -0.3755
  465MPD2    C2 6920   0.835   3.680  17.371  0.0483 -0.1409 -0.1008
  465MPD2    C3 6921   0.770   3.753  17.273 -0.1593 -0.8452  0.1457
  465MPD2    C4 6922   0.741   3.885  17.294 -0.4569  0.0352 -0.1882
  465MPD2    C5 6923   0.781   3.951  17.400 -0.1878  0.1991  0.0840
  465MPD2     H 6924   0.861   3.575  17.364  1.3879  0.2081 -0.3463
  465MPD2    H1 6925   0.694   3.946  17.217 -0.4929  2.6290  1.8834
  465MPD2    H2 6926   0.874   3.946  17.585 -2.8464 -0.5854  0.9829
  465MPD2    H3 6927   0.758   4.056  17.408  1.5016  0.5573  0.3348
  465MPD2     N 6928   0.766   3.702  17.142  0.3822 -0.0263 -0.2657
  465MPD2    H5 6929   0.781   3.602  17.136 -2.8596 -0.4980 -0.7625
  465MPD2    N1 6930   0.951   3.684  17.589  0.2446 -0.2625  0.5207
  465MPD2    H7 6931   0.973   3.586  17.574  0.9262 -0.6216  3.8007
  466TMC3    C1 6932   0.653   3.542  16.777 -0.2472  0.0389  0.4912
  466TMC3    C2 6933   0.707   3.606  16.660  0.2449  0.0135  0.0637
  466TMC3    C3 6934   0.795   3.709  16.665 -0.1190  0.2941 -0.3290
  466TMC3    C4 6935   0.699   3.582  16.902 -0.5392  0.1218 -0.6005
  466TMC3    C5 6936   0.779   3.688  16.899 -0.1635 -0.7392  0.1550
  466TMC3    C6 6937   0.827   3.753  16.789 -0.5207 -0.0846  0.1059
  466TMC3     C 6938   0.541   3.451  16.777  0.8021  0.9231 -0.5237
  466TMC3     O 6939   0.475   3.438  16.879 -0.4772  0.2868 -0.3583
  466TMC3     H 6940   0.681   3.566  16.563  3.2687 -0.4595 -0.5574
  466TMC3    H1 6941   0.649   3.541  16.990  1.2920 -3.3771 -1.1721
  466TMC3    H2 6942   0.897   3.836  16.796  0.4574 -0.9808  0.9635
  466TMC3    C7 6943   0.766   3.770  17.020 -0.9594 -0.9611 -0.0999
  466TMC3    C8 6944   0.768   3.812  16.560  0.1780 -0.4050 -0.1674
  466TMC3    O1 6945   0.786   3.886  16.997 -0.0211  0.5865  0.1343
  466TMC3    O2 6946   0.768   3.784  16.438  0.0571  0.2921  0.0737
  467TMC3    C1 6947   0.863   2.120  13.465 -0.2070 -0.2716  0.3147
  467TMC3    C2 6948   0.862   2.146  13.327  0.6262  0.0019 -0.8706
  467TMC3    C3 6949   0.794   2.055  13.247  0.6217 -0.1089  0.4295
  467TMC3    C4 6950   0.808   2.004  13.513 -0.7172 -0.0928 -1.3318
  467TMC3    C5 6951   0.734   1.926  13.429  0.1153 -0.5795  0.2130
  467TMC3    C6 6952   0.720   1.952  13.292 -0.1589 -0.0450  0.1488
  467TMC3     C 6953   0.982   2.163  13.537  0.1638  0.1299 -0.0729
  467TMC3     O 6954   1.017   2.087  13.626 -0.7377 -0.2869 -0.2029
  467TMC3     H 6955   0.922   2.224  13.284 -0.5210  2.1352  1.4154
  467TMC3    H1 6956   0.827   1.967  13.613 -0.0506 -1.2619 -1.8952
  467TMC3    H2 6957   0.669   1.892  13.218  0.9101 -1.3171  0.4389
  467TMC3    C7 6958   0.743   1.787  13.460  0.1760 -0.0416 -0.1400
  467TMC3    C8 6959   0.841   2.044  13.107 -0.4857 -0.0640 -0.0682
  467TMC3    O1 6960   0.825   1.719  13.394 -0.5983 -0.4554  0.0603
  467TMC3    O2 6961   0.797   1.955  13.033  0.3683  0.1565  0.1199
  468MPD2     C 6962   4.662   4.701  11.389 -0.8125  0.1126 -0.1074
  468MPD2    C1 6963   0.078   4.691  11.365  0.0905  0.5081  0.3434
  468MPD2    C2 6964   0.128   4.594  11.279 -0.3167  0.7316 -0.2938
  468MPD2    C3 6965   0.031   4.503  11.231  0.5036 -0.8087  0.5503
  468MPD2    C4 6966   4.618   4.526  11.248 -0.2821  0.0259  0.4318
  468MPD2    C5 6967   4.574   4.626  11.320  0.6776 -0.6360  0.6464
  468MPD2     H 6968   0.234   4.572  11.277 -0.6436 -1.1421  2.9623
  468MPD2    H1 6969   4.544   4.458  11.205 -0.3947  0.2486  0.2750
  468MPD2    H2 6970   4.625   0.063  11.449  2.8433  0.0003  2.3231
  468MPD2    H3 6971   4.467   4.635  11.339  1.1236  2.1271  1.8062
  468MPD2     N 6972   0.059   4.386  11.172  0.3935 -0.2228 -0.1765
  468MPD2    H5 6973   4.704   4.318  11.170 -0.2453  0.5341 -2.4176
  468MPD2    N1 6974   0.168   0.046  11.431 -0.0600  0.4628  0.1293
  468MPD2    H7 6975   0.267   0.028  11.416 -0.4538 -1.0664 -0.5524
  469TMC3    C1 6976   0.243   0.190  11.595 -0.0828  0.3052  0.7057
  469TMC3    C2 6977   0.377   0.176  11.552 -0.1257 -0.0913 -0.0929
  469TMC3    C3 6978   0.479   0.236  11.616  0.3039  0.4210  0.3780
  469TMC3    C4 6979   0.220   0.259  11.713 -0.1992 -0.6930 -0.7424
  469TMC3    C5 6980   0.325   0.320  11.772 -1.3375  0.4942 -0.0328
  469TMC3    C6 6981   0.455   0.314  11.722 -0.3807  0.2261 -0.0937
  469TMC3     C 6982   0.134   0.129  11.533 -0.2253 -0.5495  0.6768
  469TMC3     O 6983   0.035   0.140  11.601 -0.2805  0.1036  0.1727
  469TMC3     H 6984   0.403   0.125  11.460 -0.9696 -3.2285  1.4001
  469TMC3    H1 6985   0.119   0.271  11.750 -1.0294  1.8398 -3.7900
  469TMC3    H2 6986   0.540   0.369  11.760 -1.1140 -0.0559  1.9809
  469TMC3    C7 6987   0.296   0.393  11.896 -0.1525 -0.1671 -0.9290
  469TMC3    C8 6988   0.616   0.191  11.593  0.6964 -0.4267 -0.0530
  469TMC3    O1 6989   0.180   0.383  11.942 -0.4584  0.1564 -0.3299
  469TMC3    O2 6990   0.624   0.108  11.507  0.3081 -0.1110  0.2423
  470TMC3    C1 6991   2.564   1.082   1.003 -0.1613 -0.3236 -0.6177
  470TMC3    C2 6992   2.626   1.188   1.057 -0.2319 -0.0172  0.2105
  470TMC3    C3 6993   2.549   1.253   1.157  0.1092  0.6750 -0.3611
  470TMC3    C4 6994   2.434   1.045   1.032  0.4725 -0.3095  0.6892
  470TMC3    C5 6995   2.371   1.100   1.137 -0.7352  0.9769  0.6095
  470TMC3    C6 6996   2.427   1.206   1.201  0.5283  0.3177 -0.2718
  470TMC3     C 6997   2.624   1.043   0.875 -0.4266 -0.5482 -0.3573
  470TMC3     O 6998   2.736   1.081   0.846 -0.3644  0.2015  0.1066
  470TMC3     H 6999   2.718   1.223   1.011 -0.7792  0.3212 -0.6285
  470TMC3    H1 7000   2.379   0.981   0.963  0.3808 -0.2818  0.7359
  470TMC3    H2 7001   2.373   1.259   1.279  1.5332 -0.1718  0.7602
  470TMC3    C7 7002   2.233   1.053   1.161  0.1064  0.3480  0.6328
  470TMC3    C8 7003   2.575   1.386   1.192  0.0914 -0.1429 -0.5223
  470TMC3    O1 7004   2.180   1.003   1.067  0.4604  0.2211 -0.1848
  470TMC3    O2 7005   2.479   1.451   1.229 -0.5973  0.5501  0.9234
  471MPD2     C 7006   2.917   2.671  16.609  0.3971  0.9212  0.7306
  471MPD2    C1 7007   2.833   2.559  16.618  0.5415  0.5276  0.3037
  471MPD2    C2 7008   2.802   2.512  16.751 -0.3648 -0.7820 -0.4482
  471MPD2    C3 7009   2.866   2.558  16.855  0.2154  0.1750 -0.2702
  471MPD2    C4 7010   2.936   2.677  16.842 -0.4445 -0.1077 -0.2101
  471MPD2    C5 7011   2.968   2.728  16.721  0.2510  0.3245  0.7378
  471MPD2     H 7012   2.747   2.419  16.755 -0.7000 -0.6502 -1.9005
  471MPD2    H1 7013   2.981   2.723  16.929  1.6962  1.9500 -2.4054
  471MPD2    H2 7014   2.955   2.716  16.518 -1.6705  0.4269 -0.3757
  471MPD2    H3 7015   3.040   2.809  16.715 -0.5956  0.9399 -0.8796
  471MPD2     N 7016   2.865   2.495  16.982  0.2353  0.9042  0.1851
  471MPD2    H5 7017   2.931   2.528  17.052  1.6444  1.5008 -1.4019
  471MPD2    N1 7018   2.794   2.474  16.503  0.0124  0.3846  0.7575
  471MPD2    H7 7019   2.748   2.386  16.526  1.5303 -0.3889  0.8386
  472TMC3    C1 7020   2.761   2.409  16.284  0.0291 -0.0231 -0.0979
  472TMC3    C2 7021   2.659   2.444  16.197 -0.1096  0.2420  0.1122
  472TMC3    C3 7022   2.603   2.346  16.120  0.0587 -0.0798 -0.4737
  472TMC3    C4 7023   2.798   2.279  16.302 -0.0295  0.5141 -0.0250
  472TMC3    C5 7024   2.742   2.180  16.223 -0.2852 -0.6569  0.1929
  472TMC3    C6 7025   2.653   2.215  16.124  0.1466  0.7287 -0.0018
  472TMC3     C 7026   2.808   2.514  16.373  0.4540 -0.6129 -0.2455
  472TMC3     O 7027   2.843   2.622  16.325 -0.3918 -0.1504 -0.2732
  472TMC3     H 7028   2.641   2.550  16.180  3.2053  0.2893 -3.2902
  472TMC3    H1 7029   2.867   2.261  16.384  0.1078 -1.0352 -0.4982
  472TMC3    H2 7030   2.610   2.146  16.052  2.3977 -0.1573 -0.4968
  472TMC3    C7 7031   2.729   2.050  16.282 -0.0911 -0.1947  0.9153
  472TMC3    C8 7032   2.481   2.363  16.057 -0.7898  0.4548  0.4471
  472TMC3    O1 7033   2.791   2.029  16.387  0.8623 -0.0370  0.5876
  472TMC3    O2 7034   2.457   2.461  15.990  0.1854  0.2584  0.1150
  473MPD2     C 7035   2.634   4.190  13.929 -0.6593 -0.1322 -0.8199
  473MPD2    C1 7036   2.705   4.255  13.829 -0.2245  0.5225  0.2985
  473MPD2    C2 7037   2.786   4.363  13.870  0.2916  0.0500  0.5647
  473MPD2    C3 7038   2.806   4.389  14.009 -0.2517 -1.3821 -0.1644
  473MPD2    C4 7039   2.743   4.310  14.102  0.5880 -0.2548 -0.3322
  473MPD2    C5 7040   2.649   4.214  14.062  0.0019 -0.4773  0.4568
  473MPD2     H 7041   2.841   4.414  13.791  1.1497 -0.4267  0.8493
  473MPD2    H1 7042   2.749   4.339  14.207 -1.2383 -0.8450 -0.0781
  473MPD2    H2 7043   2.577   4.103  13.899 -2.5299  0.9098 -0.3298
  473MPD2    H3 7044   2.592   4.153  14.130 -1.7696  0.1125 -0.5168
  473MPD2     N 7045   2.899   4.486  14.054 -0.4685  0.6527 -0.0255
  473MPD2    H5 7046   2.902   4.495  14.155  1.7840  0.8386 -0.1189
  473MPD2    N1 7047   2.690   4.237  13.692  0.3640 -0.9744 -0.4752
  473MPD2    H7 7048   2.749   4.294  13.632  0.1792 -1.4092 -1.0676
  474TMC3    C1 7049   3.053   4.662  14.051  0.1131  0.2033  0.6953
  474TMC3    C2 7050   3.048   0.072  14.030  0.1161  0.1790 -0.0730
  474TMC3    C3 7051   3.088   0.156  14.128 -0.3913  0.0061  0.3475
  474TMC3    C4 7052   3.091   4.609  14.167  0.6938  0.0091 -0.0728
  474TMC3    C5 7053   3.143   4.698  14.257 -0.0697 -0.1557 -0.2171
  474TMC3    C6 7054   3.138   0.113  14.250  0.1581 -0.2283  0.0474
  474TMC3     C 7055   2.966   4.576  13.969 -0.0371 -0.0955 -0.2987
  474TMC3     O 7056   2.949   4.596  13.849 -0.0537  0.3584  0.6442
  474TMC3     H 7057   3.009   0.112  13.937  0.1013 -1.2328 -0.6724
  474TMC3    H1 7058   3.110   4.506  14.193 -1.6963 -0.4429 -0.0798
  474TMC3    H2 7059   3.197   0.174  14.318 -0.8698  0.2974  0.4690
  474TMC3    C7 7060   3.205   4.637  14.375  0.2067  0.4851  0.5465
  474TMC3    C8 7061   3.090   0.299  14.103  0.2300  0.3140  0.3532
  474TMC3    O1 7062   3.269   4.532  14.357 -0.5088  0.2440  0.3969
  474TMC3    O2 7063   3.119   0.369  14.198 -0.3600 -0.0883 -0.2904
  475MPD2     C 7064   2.057   2.441  10.537  0.4102 -0.3966 -0.2789
  475MPD2    C1 7065   1.998   2.388  10.424 -0.9290  0.0084  0.5606
  475MPD2    C2 7066   1.864   2.399  10.401  0.7494 -0.4871 -0.0152
  475MPD2    C3 7067   1.788   2.466  10.499  0.2443  0.0421 -0.4059
  475MPD2    C4 7068   1.848   2.518  10.616  0.0843 -0.2626 -0.2130
  475MPD2    C5 7069   1.979   2.498  10.633  0.2688 -0.5113 -0.4139
  475MPD2     H 7070   1.822   2.353  10.313 -0.4626 -3.4492  2.1174
  475MPD2    H1 7071   1.787   2.548  10.700 -2.2784 -1.0623 -1.6408
  475MPD2    H2 7072   2.163   2.429  10.555 -0.2680 -2.6945  2.1487
  475MPD2    H3 7073   2.020   2.531  10.728 -0.9500  0.1274 -0.1028
  475MPD2     N 7074   1.656   2.479  10.471 -0.4148 -0.0272 -0.4241
  475MPD2    H5 7075   1.614   2.410  10.410  3.4211 -2.8899  0.1653
  475MPD2    N1 7076   2.085   2.330  10.327 -0.0636  0.4599 -0.2552
  475MPD2    H7 7077   2.184   2.349  10.333  0.1516 -0.8488  0.3386
  476TMC3    C1 7078   2.110   2.290  10.094  0.5914  0.5415  0.5468
  476TMC3    C2 7079   2.088   2.195   9.992  0.3373  0.2301  0.1912
  476TMC3    C3 7080   2.089   2.239   9.866  0.0760 -0.5769 -0.2769
  476TMC3    C4 7081   2.127   2.423  10.061  0.0792  0.3587 -0.0216
  476TMC3    C5 7082   2.116   2.465   9.930 -0.2726 -0.0999 -0.2400
  476TMC3    C6 7083   2.100   2.371   9.834  0.4859  0.0666  0.0563
  476TMC3     C 7084   2.043   2.252  10.224  0.1048  0.0247 -0.4618
  476TMC3     O 7085   1.935   2.191  10.219  0.0457  0.0102 -0.4714
  476TMC3     H 7086   2.072   2.093  10.024  1.3921 -0.8650 -2.7555
  476TMC3    H1 7087   2.140   2.493  10.144  1.4171  0.7306 -0.5338
  476TMC3    H2 7088   2.079   2.399   9.732  0.8614  1.7090  0.4270
  476TMC3    C7 7089   2.154   2.599   9.883  1.1400 -0.1153  0.7221
  476TMC3    C8 7090   2.057   2.148   9.762  0.3223 -0.0776 -0.0840
  476TMC3    O1 7091   2.177   2.609   9.765 -0.1242 -0.3825 -0.1753
  476TMC3    O2 7092   2.115   2.164   9.653 -0.7228  0.6026  0.2032
  477MPD2     C 7093   3.436   4.252  11.600  0.3949  0.7828 -0.0845
  477MPD2    C1 7094   3.360   4.137  11.602 -0.2062  0.3714  0.4786
  477MPD2    C2 7095   3.364   4.062  11.718 -0.0554 -0.0346  0.2217
  477MPD2    C3 7096   3.424   4.106  11.836  0.1024 -0.6399 -0.4676
  477MPD2    C4 7097   3.501   4.219  11.823 -0.2188  0.2844 -0.9311
  477MPD2    C5 7098   3.508   4.292  11.708 -0.1971 -0.2271 -0.6085
  477MPD2     H 7099   3.308   3.970  11.728  1.5353 -0.8808  1.3082
  477MPD2    H1 7100   3.545   4.259  11.914  0.5729 -0.6531 -0.9049
  477MPD2    H2 7101   3.427   4.313  11.511  2.4907  1.1623 -0.0319
  477MPD2    H3 7102   3.556   4.389  11.704 -0.5673  0.0505  1.5571
  477MPD2     N 7103   3.404   4.029  11.949  0.1413 -0.0178  0.0394
  477MPD2    H5 7104   3.365   3.937  11.931  1.5460 -0.4062 -0.9261
  477MPD2    N1 7105   3.276   4.101  11.488 -0.6005 -0.2945 -0.2294
  477MPD2    H7 7106   3.275   4.174  11.417 -1.0550  0.8962  0.9929
  478TMC3    C1 7107   3.098   4.001  11.374 -0.0103 -0.1865  0.2815
  478TMC3    C2 7108   2.960   4.006  11.395 -0.9369  0.3919 -0.4456
  478TMC3    C3 7109   2.875   4.010  11.287  0.0549  0.3702 -0.3526
  478TMC3    C4 7110   3.153   3.974  11.252 -0.0110 -0.3043  1.7335
  478TMC3    C5 7111   3.065   3.956  11.151  0.1410 -0.3908 -0.2223
  478TMC3    C6 7112   2.929   3.969  11.167 -0.2160 -0.9993 -0.0401
  478TMC3     C 7113   3.189   3.997  11.490  0.5552 -0.1207 -0.2362
  478TMC3     O 7114   3.146   3.927  11.582  0.0915 -0.4685 -0.2061
  478TMC3     H 7115   2.922   4.017  11.496 -1.8580  0.9718 -0.8490
  478TMC3    H1 7116   3.260   3.984  11.235 -0.1879  1.9498  1.8818
  478TMC3    H2 7117   2.863   3.956  11.082  1.0968 -0.7306 -1.1170
  478TMC3    C7 7118   3.110   3.971  11.018  0.3351 -0.8062 -0.1821
  478TMC3    C8 7119   2.743   4.058  11.304 -0.0999 -0.4050  0.7016
  478TMC3    O1 7120   3.216   3.918  10.986 -0.0617  0.3193 -0.2439
  478TMC3    O2 7121   2.647   3.994  11.270 -0.1961 -0.0466  0.9540
  479MPD2     C 7122   2.422   1.831  15.300  0.8392  0.4662 -0.0845
  479MPD2    C1 7123   2.363   1.772  15.404  0.3665  0.3675  0.2017
  479MPD2    C2 7124   2.423   1.790  15.528  0.0029  0.2398  0.3492
  479MPD2    C3 7125   2.528   1.876  15.545 -0.0955 -0.2387  0.1675
  479MPD2    C4 7126   2.586   1.937  15.434  0.8060 -0.4922 -0.2319
  479MPD2    C5 7127   2.530   1.910  15.314  0.3985 -0.2400  0.2866
  479MPD2     H 7128   2.382   1.735  15.613 -2.3295  2.4221  0.6467
  479MPD2    H1 7129   2.669   2.006  15.439 -2.0046  2.8925 -0.2256
  479MPD2    H2 7130   2.382   1.810  15.201  1.7344  2.6224 -0.9078
  479MPD2    H3 7131   2.562   1.970  15.230 -1.3324  0.8657  0.4264
  479MPD2     N 7132   2.577   1.918  15.670 -0.5101 -0.9424 -0.5895
  479MPD2    H5 7133   2.672   1.951  15.664 -0.6012 -0.7688 -1.0898
  479MPD2    N1 7134   2.240   1.716  15.379  0.2555  0.3471 -0.5510
  479MPD2    H7 7135   2.199   1.737  15.288 -0.7378  0.0146 -0.1839
  480TMC3    C1 7136   2.187   1.789  15.873 -0.4132 -0.6565 -0.1085
  480TMC3    C2 7137   2.100   1.849  15.788 -0.0133  0.2632 -0.1059
  480TMC3    C3 7138   2.149   1.951  15.708  0.3315  0.1358 -0.3041
  480TMC3    C4 7139   2.325   1.813  15.883  0.2205 -0.5215 -0.5498
  480TMC3    C5 7140   2.368   1.911  15.794  0.1382  0.2797 -0.4308
  480TMC3    C6 7141   2.285   1.983  15.709  0.0052  0.6068  0.1659
  480TMC3     C 7142   2.139   1.668  15.943 -0.4990  0.5657 -0.7811
  480TMC3     O 7143   2.231   1.594  15.979  0.6329 -0.0852 -0.0298
  480TMC3     H 7144   2.001   1.811  15.765 -0.4293  0.6031  1.1211
  480TMC3    H1 7145   2.392   1.743  15.933  1.6734  0.7645 -0.6844
  480TMC3    H2 7146   2.324   2.073  15.663 -0.7056  0.9869  0.2946
  480TMC3    C7 7147   2.513   1.916  15.790 -0.1775 -0.5179  0.1373
  480TMC3    C8 7148   2.071   1.984  15.593  0.3348  0.6393 -0.2859
  480TMC3    O1 7149   2.565   1.933  15.900 -0.3192  0.1056 -0.5698
  480TMC3    O2 7150   1.952   1.955  15.598  0.7878  0.6187 -0.2657
  481MPD2     C 7151   4.228   1.369  14.772 -0.5935  0.7635 -0.9147
  481MPD2    C1 7152   4.114   1.303  14.730  0.2496 -0.5517 -0.6139
  481MPD2    C2 7153   4.002   1.290  14.817  0.0438  0.4501  0.3285
  481MPD2    C3 7154   4.003   1.349  14.937  0.2592 -0.1307 -0.1326
  481MPD2    C4 7155   4.123   1.399  14.987 -0.1846 -0.5942 -0.0423
  481MPD2    C5 7156   4.228   1.419  14.903 -0.4613 -0.2844  0.0311
  481MPD2     H 7157   3.917   1.230  14.786 -0.6994  1.0072  1.2893
  481MPD2    H1 7158   4.133   1.446  15.084  0.0678  1.0171 -0.8528
  481MPD2    H2 7159   4.317   1.384  14.712  1.2029 -0.2585  1.4943
  481MPD2    H3 7160   4.314   1.465  14.950 -2.0218  1.7100  0.9144
  481MPD2     N 7161   3.887   1.366  15.013 -0.1136  0.3464  0.8626
  481MPD2    H5 7162   3.892   1.398  15.109 -0.4062  2.8718  0.0348
  481MPD2    N1 7163   4.122   1.244  14.605 -0.2608  0.2694  0.7133
  481MPD2    H7 7164   4.208   1.247  14.552  0.1801  0.7174  1.4383
  482TMC3    C1 7165   4.085   1.132  14.421 -0.8035  0.7191 -0.2385
  482TMC3    C2 7166   4.075   1.001  14.379  0.3847 -0.2495  0.5791
  482TMC3    C3 7167   4.088   0.980  14.243 -0.3874 -0.7821 -0.3609
  482TMC3    C4 7168   4.131   1.239  14.346  0.0146  0.1419 -0.3664
  482TMC3    C5 7169   4.140   1.211  14.212  0.4683  0.3482  1.0650
  482TMC3    C6 7170   4.125   1.084  14.162 -0.2476 -0.0423  0.2602
  482TMC3     C 7171   4.031   1.161  14.551  0.1243 -1.1819 -0.2367
  482TMC3     O 7172   3.944   1.088  14.600 -0.3293  0.0695 -0.5933
  482TMC3     H 7173   4.040   0.922  14.444 -0.8165  0.4249  0.7407
  482TMC3    H1 7174   4.135   1.340  14.385 -0.8860  0.6070 -1.4830
  482TMC3    H2 7175   4.144   1.073  14.056 -0.3953  2.1329  0.0043
  482TMC3    C7 7176   4.090   1.320  14.130 -0.4304  0.1815  0.7921
  482TMC3    C8 7177   4.074   0.847  14.190 -0.1489  0.2627 -0.6515
  482TMC3    O1 7178   4.109   1.431  14.181 -0.1098 -0.2055  1.0124
  482TMC3    O2 7179   3.988   0.774  14.234  0.4956  0.7763  0.1653
  483TMC3    C1 7180   1.954   0.296   1.214  0.6586  0.2025 -0.2635
  483TMC3    C2 7181   1.993   0.412   1.156 -0.2301  0.4291  0.1545
  483TMC3    C3 7182   2.118   0.464   1.189  0.7352 -0.0274  0.5303
  483TMC3    C4 7183   2.028   0.226   1.299 -0.5961 -0.2932  0.1921
  483TMC3    C5 7184   2.151   0.272   1.326  0.1492 -0.0569  0.3096
  483TMC3    C6 7185   2.203   0.389   1.266  0.1247  0.5723  0.6509
  483TMC3     C 7186   1.872   0.223   1.118  0.4460  0.2278  0.1599
  483TMC3     O 7187   1.776   0.279   1.071 -0.2178 -0.2352 -0.1797
  483TMC3     H 7188   1.924   0.463   1.090 -2.3740 -2.2406  0.3495
  483TMC3    H1 7189   1.988   0.133   1.338  0.0148 -0.6377 -0.0007
  483TMC3    H2 7190   2.294   0.435   1.303  2.5708 -2.0900 -2.1113
  483TMC3    C7 7191   2.231   0.210   1.433 -0.4241  0.9365  0.8356
  483TMC3    C8 7192   2.174   0.566   1.097  0.2052  0.5453 -0.1050
  483TMC3    O1 7193   2.350   0.223   1.422  0.0402  0.9351 -0.4367
  483TMC3    O2 7194   2.135   0.554   0.983 -0.7725 -0.2590  0.5632
  484MPD2     C 7195   4.573   3.200  12.469  0.0279  0.1352  0.0716
  484MPD2    C1 7196   4.652   3.099  12.513 -0.6539  0.0498 -0.4611
  484MPD2    C2 7197   0.069   3.119  12.522  0.6431  0.0360  0.8078
  484MPD2    C3 7198   0.123   3.239  12.468 -0.6066 -0.7259  0.1681
  484MPD2    C4 7199   0.042   3.330  12.415 -0.6613  0.2508 -0.0844
  484MPD2    C5 7200   4.627   3.314  12.415 -0.1552 -0.2217  0.3398
  484MPD2     H 7201   0.139   3.045  12.560  0.4559 -0.5333  0.0149
  484MPD2    H1 7202   0.083   3.418  12.365 -2.4269  0.5514 -1.0011
  484MPD2    H2 7203   4.466   3.186  12.464 -0.1805  1.1341  1.5688
  484MPD2    H3 7204   4.571   3.391  12.362 -3.2053 -1.5432  1.6421
  484MPD2     N 7205   0.267   3.262  12.461 -0.1355  0.1482 -0.2833
  484MPD2    H5 7206   0.292   3.341  12.402  1.4505 -1.6716 -2.0499
  484MPD2    N1 7207   4.584   2.988  12.566  0.0731  0.1786  0.2153
  484MPD2    H7 7208   4.483   2.990  12.566  0.0562 -0.5903  1.8656
  485TMC3    C1 7209   0.502   3.224  12.481 -0.5319  0.4275 -0.6501
  485TMC3    C2 7210   0.601   3.156  12.544 -0.3361  0.8515  0.0222
  485TMC3    C3 7211   0.732   3.189  12.504 -0.7060  0.3199  0.2539
  485TMC3    C4 7212   0.522   3.288  12.365 -0.2598 -0.1143 -0.3317
  485TMC3    C5 7213   0.652   3.316  12.326  0.5020 -0.2368  0.0050
  485TMC3    C6 7214   0.754   3.280  12.413 -0.0735 -0.0333  0.3774
  485TMC3     C 7215   0.367   3.192  12.528  0.8592  0.1490  0.0517
  485TMC3     O 7216   0.358   3.106  12.613 -0.1062 -0.0400  0.4163
  485TMC3     H 7217   0.580   3.107  12.638  2.9480 -0.1853  0.1986
  485TMC3    H1 7218   0.436   3.325  12.311  0.0415  0.1587 -0.6225
  485TMC3    H2 7219   0.855   3.312  12.392  0.0252 -1.2977 -1.1661
  485TMC3    C7 7220   0.675   3.314  12.188  0.5129  0.4534 -0.3143
  485TMC3    C8 7221   0.826   3.088  12.489 -0.6417 -0.2514 -0.2129
  485TMC3    O1 7222   0.589   3.337  12.111  0.2637 -0.2597  0.4597
  485TMC3    O2 7223   0.916   3.107  12.413  0.5408 -0.3755 -0.0589
  486MPD2     C 7224   1.847   1.613  12.835  0.3454  0.1923 -0.0760
  486MPD2    C1 7225   1.946   1.615  12.732 -0.4112 -0.6382  0.3855
  486MPD2    C2 7226   1.973   1.729  12.670  0.4051 -0.7251  0.6692
  486MPD2    C3 7227   1.923   1.848  12.721 -0.6383 -0.4131 -0.0412
  486MPD2    C4 7228   1.816   1.847  12.816 -0.0778 -0.6518  0.6036
  486MPD2    C5 7229   1.785   1.728  12.870 -0.6033 -1.1121  0.4299
  486MPD2     H 7230   2.036   1.739  12.583 -1.9362  1.7673 -0.7324
  486MPD2    H1 7231   1.759   1.932  12.850  0.7949  0.6444 -1.2331
  486MPD2    H2 7232   1.818   1.524  12.889 -0.1337  0.3440 -0.0846
  486MPD2    H3 7233   1.715   1.731  12.953  1.3750  1.1787  2.0279
  486MPD2     N 7234   1.979   1.970  12.671 -0.4590  0.4056 -0.5751
  486MPD2    H5 7235   2.054   1.960  12.603 -0.0742 -0.6334  0.0063
  486MPD2    N1 7236   2.023   1.494  12.713  0.2873 -0.2929  0.5871
  486MPD2    H7 7237   1.996   1.415  12.771 -1.1290  0.3784  0.8434
  487TMC3    C1 7238   2.199   1.362  12.640  0.0936  0.0982 -0.1860
  487TMC3    C2 7239   2.137   1.254  12.692 -0.0328 -0.7220 -0.5932
  487TMC3    C3 7240   2.199   1.129  12.679  0.1922 -0.3832 -0.1411
  487TMC3    C4 7241   2.308   1.354  12.564  0.5084 -0.3306 -0.0259
  487TMC3    C5 7242   2.365   1.226  12.541 -1.0835 -0.1487 -0.1727
  487TMC3    C6 7243   2.301   1.115  12.588  1.0620  0.1104  0.0937
  487TMC3     C 7244   2.139   1.493  12.641  0.5642 -0.4419 -0.1478
  487TMC3     O 7245   2.200   1.584  12.590 -0.0486  0.2038 -0.1646
  487TMC3     H 7246   2.051   1.271  12.756  1.3611  2.0839  0.5277
  487TMC3    H1 7247   2.357   1.442  12.524 -0.5762  0.8468  1.2427
  487TMC3    H2 7248   2.361   1.025  12.588 -0.4283 -0.8791  3.2643
  487TMC3    C7 7249   2.478   1.220  12.441 -0.0174 -1.3029 -0.1809
  487TMC3    C8 7250   2.166   1.012  12.753 -1.0715 -0.3284 -0.6128
  487TMC3    O1 7251   2.460   1.294  12.344 -0.3731  0.1875 -0.1278
  487TMC3    O2 7252   2.234   0.911  12.741 -0.6333  0.0557 -0.0452
  488MPD2     C 7253   1.664   3.853  16.965  0.9774  0.1210  0.8979
  488MPD2    C1 7254   1.771   3.884  17.039  0.9265 -0.0856 -0.3740
  488MPD2    C2 7255   1.786   3.827  17.159 -0.5511 -0.1505  0.0179
  488MPD2    C3 7256   1.702   3.726  17.198  0.2281  0.5766 -0.8357
  488MPD2    C4 7257   1.601   3.691  17.117 -0.0236 -0.0595  0.1321
  488MPD2    C5 7258   1.583   3.749  16.998  0.0095 -0.0146 -0.9117
  488MPD2     H 7259   1.863   3.861  17.228 -0.3027  1.2811 -0.9643
  488MPD2    H1 7260   1.537   3.604  17.122  0.3805 -0.3967 -0.4716
  488MPD2    H2 7261   1.650   3.895  16.866  2.3928  0.0355  0.6533
  488MPD2    H3 7262   1.510   3.713  16.927 -0.5176  1.4007 -1.0898
  488MPD2     N 7263   1.742   3.667  17.319  0.9830 -0.0042 -0.0771
  488MPD2    H5 7264   1.820   3.706  17.370 -0.2324  0.9429  1.0619
  488MPD2    N1 7265   1.871   3.974  16.996  0.2039 -0.2043 -0.5672
  488MPD2    H7 7266   1.939   4.007  17.064 -0.1908 -0.3913 -0.0918
  489TMC3    C1 7267   1.743   3.497  17.482  0.1595 -0.2209  0.4712
  489TMC3    C2 7268   1.883   3.513  17.487  0.3854 -0.3369 -0.4453
  489TMC3    C3 7269   1.956   3.400  17.521  0.2077 -0.1058  0.3871
  489TMC3    C4 7270   1.679   3.385  17.527  0.7157  0.1845  0.3310
  489TMC3    C5 7271   1.759   3.275  17.564  0.2568 -0.9887  0.3299
  489TMC3    C6 7272   1.892   3.284  17.563 -0.2465  0.1144  0.0902
  489TMC3     C 7273   1.675   3.560  17.368 -0.2842  0.0087  0.3922
  489TMC3     O 7274   1.566   3.514  17.334  0.0796  0.2519 -0.0878
  489TMC3     H 7275   1.939   3.598  17.450  0.0040 -0.9435 -2.3851
  489TMC3    H1 7276   1.571   3.368  17.524  0.9912 -1.1847 -2.0253
  489TMC3    H2 7277   1.949   3.206  17.611 -3.1344 -1.3150  1.2435
  489TMC3    C7 7278   1.691   3.175  17.640 -0.3823 -0.7216 -0.1548
  489TMC3    C8 7279   2.089   3.400  17.474 -0.7901 -0.8801 -0.9098
  489TMC3    O1 7280   1.568   3.186  17.653 -0.0041  0.6267  0.2576
  489TMC3    O2 7281   2.136   3.505  17.434  0.1133  0.1810  0.5556
  490MPD2     C 7282   2.694   3.044   0.485 -0.4710  0.0633 -0.1403
  490MPD2    C1 7283   2.789   2.973   0.413  0.2291 -0.3349 -0.7030
  490MPD2    C2 7284   2.926   3.021   0.405 -0.3396 -0.3056 -0.1975
  490MPD2    C3 7285   2.957   3.140   0.467  0.2437  0.6283  0.7405
  490MPD2    C4 7286   2.854   3.213   0.521 -0.2065 -0.4592 -0.9255
  490MPD2    C5 7287   2.728   3.167   0.542  0.1847  0.2779 -1.2070
  490MPD2     H 7288   3.001   2.969   0.346 -0.4423  1.6837 -2.0928
  490MPD2    H1 7289   2.872   3.307   0.572  0.0129 -1.4095  0.7240
  490MPD2    H2 7290   2.593   3.013   0.505  0.0548 -1.0132  0.8528
  490MPD2    H3 7291   2.657   3.224   0.601 -2.6282 -3.4106 -1.0706
  490MPD2     N 7292   3.083   3.206   0.459  0.1122  0.2144  0.1624
  490MPD2    H5 7293   3.086   3.302   0.491 -1.8294  0.6209 -0.9064
  490MPD2    N1 7294   2.759   2.853   0.337  0.4527  0.6079  0.1425
  490MPD2    H7 7295   2.833   2.794   0.299 -0.3672 -0.4456  0.1927
  491TMC3    C1 7296   2.643   2.671   0.271  0.1573 -0.0904  0.3141
  491TMC3    C2 7297   2.571   2.578   0.323  0.6926 -0.4828  0.5592
  491TMC3    C3 7298   2.575   2.452   0.271  0.8337  0.3895 -0.3877
  491TMC3    C4 7299   2.726   2.654   0.165  0.2415  0.6241  1.2551
  491TMC3    C5 7300   2.744   2.524   0.118  0.1723  0.5798  1.0480
  491TMC3    C6 7301   2.671   2.420   0.166 -0.0882 -0.0069  0.1309
  491TMC3     C 7302   2.638   2.795   0.345  0.1605 -1.2116  0.8841
  491TMC3     O 7303   2.534   2.825   0.397  0.2540 -0.6985  0.0175
  491TMC3     H 7304   2.531   2.588   0.424  5.2494  2.1629  2.0913
  491TMC3    H1 7305   2.754   2.738   0.104 -1.4118 -0.2991 -0.7721
  491TMC3    H2 7306   2.671   2.320   0.126 -0.6669 -0.7211  1.9150
  491TMC3    C7 7307   2.791   2.499  17.667 -0.1888  0.4671 -0.4311
  491TMC3    C8 7308   2.452   2.372   0.298  0.4215 -0.8776  1.0276
  491TMC3    O1 7309   2.732   2.412  17.603 -0.3442 -0.0375 -0.2252
  491TMC3    O2 7310   2.363   2.422   0.362  0.1268  0.4468 -0.1773
  492MPD2     C 7311   3.695   2.668  10.507  0.2768  0.0036 -0.5110
  492MPD2    C1 7312   3.577   2.589  10.508  0.6067 -0.1057  0.0803
  492MPD2    C2 7313   3.494   2.601  10.615  0.7301  0.1571 -0.7993
  492MPD2    C3 7314   3.519   2.672  10.731 -0.5932  0.8402  0.0157
  492MPD2    C4 7315   3.633   2.751  10.727 -0.6316  0.1650 -0.2512
  492MPD2    C5 7316   3.717   2.743  10.614  0.2120 -0.3363  0.0005
  492MPD2     H 7317   3.404   2.541  10.620  1.0329 -0.2305  0.0673
  492MPD2    H1 7318   3.654   2.810  10.816 -1.5629 -0.6710  0.5224
  492MPD2    H2 7319   3.766   2.679  10.426 -0.4806  2.0305 -0.8968
  492MPD2    H3 7320   3.816   2.783  10.630 -0.3982  0.8237  0.8304
  492MPD2     N 7321   3.446   2.665  10.852 -0.1418  0.0261 -0.5128
  492MPD2    H5 7322   3.473   2.718  10.935  0.1534 -0.2350 -0.4425
  492MPD2    N1 7323   3.552   2.500  10.405 -0.1350 -0.1178  0.0027
  492MPD2    H7 7324   3.609   2.499  10.321  0.0055 -0.4624  0.1014
  493TMC3    C1 7325   3.447   2.347  10.276 -0.4553  0.2028  0.8171
  493TMC3    C2 7326   3.454   2.430  10.168 -0.2352 -0.5950  0.5538
  493TMC3    C3 7327   3.400   2.386  10.052  0.4533 -0.4011  0.0482
  493TMC3    C4 7328   3.404   2.219  10.267 -0.3386  0.3583  0.0171
  493TMC3    C5 7329   3.356   2.178  10.147  0.1776 -0.6682 -0.3861
  493TMC3    C6 7330   3.352   2.263  10.041  0.0896  0.0838 -0.0028
  493TMC3     C 7331   3.462   2.397  10.412  0.2648  0.0183 -0.5260
  493TMC3     O 7332   3.401   2.346  10.504  0.2209 -0.1165  0.5116
  493TMC3     H 7333   3.483   2.534  10.183  2.1166 -1.0936 -0.5537
  493TMC3    H1 7334   3.405   2.157  10.356 -0.9008  0.0345 -0.2059
  493TMC3    H2 7335   3.312   2.234   9.944  0.0766 -0.6591  0.2234
  493TMC3    C7 7336   3.277   2.061  10.141  0.0641 -0.0724  0.5191
  493TMC3    C8 7337   3.335   2.480   9.962 -0.1375 -0.1332 -0.2326
  493TMC3    O1 7338   3.190   2.049  10.058 -0.4052 -0.1901  0.0631
  493TMC3    O2 7339   3.220   2.455   9.932 -0.0470  0.0132 -0.0580
  494TMC3    C1 7340   4.138   0.121   0.615  0.0814  0.3199 -0.7699
  494TMC3    C2 7341   4.209   4.718   0.623 -0.2026  0.3445 -0.0677
  494TMC3    C3 7342   4.260   4.670   0.504 -0.0640  0.4570 -0.0370
  494TMC3    C4 7343   4.128   0.187   0.488 -0.0399  0.2209 -0.3375
  494TMC3    C5 7344   4.182   0.136   0.372 -0.0936  0.2450  0.3561
  494TMC3    C6 7345   4.248   0.017   0.385  0.3636 -0.3727 -0.1319
  494TMC3     C 7346   4.075   0.175   0.729 -0.4455 -0.4031 -0.3087
  494TMC3     O 7347   4.083   0.113   0.834  0.1272 -0.8129  0.6014
  494TMC3     H 7348   4.221   4.664   0.716  2.2506 -1.8175 -1.6244
  494TMC3    H1 7349   4.064   0.275   0.486 -0.3080 -0.0095 -2.2579
  494TMC3    H2 7350   4.288   4.699   0.292 -1.8269  0.5424 -1.4781
  494TMC3    C7 7351   4.178   0.199   0.243  0.3610  0.3401 -0.5474
  494TMC3    C8 7352   4.312   4.537   0.505 -0.4048 -0.6077 -0.2447
  494TMC3    O1 7353   4.217   0.128   0.157 -0.4522 -0.4817  1.1456
  494TMC3    O2 7354   4.288   4.466   0.602 -0.4997  0.3909 -0.2807
  495TMC3    C1 7355   2.525   2.008  14.666 -0.1099 -0.4571  0.5416
  495TMC3    C2 7356   2.437   2.047  14.571  0.0419 -0.1232  0.0260
  495TMC3    C3 7357   2.319   2.108  14.612 -0.6771  0.5698 -0.3248
  495TMC3    C4 7358   2.510   2.041  14.803 -0.0410  0.3028  0.4058
  495TMC3    C5 7359   2.385   2.096  14.842  0.0649 -0.3562  0.8540
  495TMC3    C6 7360   2.292   2.128  14.749 -0.1840  0.3685 -0.2557
  495TMC3     C 7361   2.621   1.912  14.628 -0.2424 -0.2405 -0.2930
  495TMC3     O 7362   2.719   1.897  14.702  0.9812  0.8597  0.1488
  495TMC3     H 7363   2.449   2.034  14.464 -1.5581  2.0423 -0.4331
  495TMC3    H1 7364   2.585   2.011  14.875 -1.0094 -0.1301  1.2476
  495TMC3    H2 7365   2.192   2.162  14.775 -0.9267 -2.3135  0.3854
  495TMC3    C7 7366   2.352   2.101  14.984 -0.0292 -0.6730 -0.3918
  495TMC3    C8 7367   2.203   2.108  14.529 -0.0899  0.0481  0.3839
  495TMC3    O1 7368   2.427   2.124  15.080 -0.3007 -0.4634  0.0839
  495TMC3    O2 7369   2.087   2.108  14.571 -0.3239 -0.5485 -0.2039
  496MPD2     C 7370   4.412   2.014  15.074  0.3918  0.8327 -0.3064
  496MPD2    C1 7371   4.441   1.963  15.198  0.0635  0.1938 -0.6533
  496MPD2    C2 7372   4.358   1.996  15.302 -0.3931 -0.2084  0.0917
  496MPD2    C3 7373   4.253   2.085  15.277  0.1298  0.0024  0.9471
  496MPD2    C4 7374   4.238   2.141  15.152  0.0572 -0.1811 -0.6319
  496MPD2    C5 7375   4.316   2.107  15.049  0.3160 -0.7836 -0.0015
  496MPD2     H 7376   4.388   1.967  15.402 -1.2171 -2.5832 -0.3654
  496MPD2    H1 7377   4.163   2.217  15.130 -1.0073 -0.4422  2.0255
  496MPD2    H2 7378   4.471   1.977  14.991 -0.4016 -2.6949  0.7074
  496MPD2    H3 7379   4.293   2.151  14.952 -1.1839 -1.9148 -0.1562
  496MPD2     N 7380   4.164   2.122  15.382  0.0703  0.0794 -0.0543
  496MPD2    H5 7381   4.098   2.192  15.351  0.2013 -0.7489 -2.1895
  496MPD2    N1 7382   4.550   1.879  15.209 -1.0366  0.7455 -0.5568
  496MPD2    H7 7383   4.609   1.869  15.128  0.8547  0.4600  0.8683
  497TMC3    C1 7384   4.054   2.117  15.589  0.3321 -0.1029  0.1083
  497TMC3    C2 7385   3.943   2.171  15.529 -0.3498  0.3775 -1.0802
  497TMC3    C3 7386   3.856   2.222  15.615  0.4627 -0.0275 -0.1032
  497TMC3    C4 7387   4.075   2.109  15.727 -0.4103  0.3985 -0.1528
  497TMC3    C5 7388   3.976   2.155  15.810  0.4756 -0.5988 -0.1468
  497TMC3    C6 7389   3.871   2.219  15.751  0.3997 -0.0930 -0.5194
  497TMC3     C 7390   4.166   2.071  15.509 -0.7292  0.2207  0.1091
  497TMC3     O 7391   4.230   1.986  15.563 -0.0001 -0.2495 -0.0485
  497TMC3     H 7392   3.927   2.172  15.422  1.0085  1.7331 -1.2718
  497TMC3    H1 7393   4.147   2.035  15.759  0.2421  1.2942  0.4359
  497TMC3    H2 7394   3.808   2.282  15.812  1.1995 -0.0456  0.2698
  497TMC3    C7 7395   3.991   2.182  15.954  0.2753  0.2696  0.4715
  497TMC3    C8 7396   3.745   2.304  15.572 -0.1631  0.0871  1.2874
  497TMC3    O1 7397   3.903   2.249  16.007  0.6372  0.4806 -0.0522
  497TMC3    O2 7398   3.678   2.356  15.661  0.1766 -0.2245 -0.4304
  498MPD2     C 7399   1.054   1.405   9.272  0.2491 -0.1627 -0.6006
  498MPD2    C1 7400   1.122   1.478   9.370  0.3199 -0.5441 -0.0317
  498MPD2    C2 7401   1.075   1.481   9.504 -0.1836  0.6344  0.7949
  498MPD2    C3 7402   0.971   1.403   9.529 -0.0672 -0.0580 -0.0211
  498MPD2    C4 7403   0.907   1.332   9.436  0.3442 -0.2547  0.2248
  498MPD2    C5 7404   0.948   1.324   9.304 -0.5922 -0.3391  0.6471
  498MPD2     H 7405   1.122   1.535   9.585  2.1226 -0.0336 -0.0685
  498MPD2    H1 7406   0.824   1.266   9.457  0.6393 -0.2355  1.4639
  498MPD2    H2 7407   1.078   1.404   9.167 -0.1535 -1.4745 -0.6794
  498MPD2    H3 7408   0.903   1.260   9.229  0.2214  0.0535 -0.1649
  498MPD2     N 7409   0.935   1.383   9.670 -0.2975  0.1354  0.6822
  498MPD2    H5 7410   0.989   1.442   9.732 -0.2902  0.5057  0.3237
  498MPD2    N1 7411   1.236   1.557   9.335  0.0802  0.3423  0.2009
  498MPD2    H7 7412   1.282   1.604   9.412  0.1860  4.3244 -2.3328
  499TMC3    C1 7413   1.427   1.632   9.230  0.8210 -0.2909 -0.0255
  499TMC3    C2 7414   1.535   1.594   9.152  0.2074  0.1143  0.0612
  499TMC3    C3 7415   1.610   1.688   9.092 -0.3944 -0.7786 -0.0323
  499TMC3    C4 7416   1.409   1.768   9.263 -0.2671 -0.0645  0.1163
  499TMC3    C5 7417   1.496   1.858   9.203  0.2004 -0.2640  0.3792
  499TMC3    C6 7418   1.580   1.826   9.106  0.3569  1.0017 -0.5061
  499TMC3     C 7419   1.314   1.539   9.223 -0.1187  0.3062 -0.1219
  499TMC3     O 7420   1.307   1.470   9.123 -0.2826  0.2331 -0.4163
  499TMC3     H 7421   1.554   1.489   9.135  1.4351  0.4836 -0.8105
  499TMC3    H1 7422   1.340   1.794   9.343  0.5992  3.1351 -0.1666
  499TMC3    H2 7423   1.650   1.903   9.077  0.0297  0.8576 -1.6838
  499TMC3    C7 7424   1.484   1.999   9.229 -0.6464 -0.1341  0.9212
  499TMC3    C8 7425   1.711   1.646   9.002 -0.3606 -0.1659 -0.3599
  499TMC3    O1 7426   1.486   2.082   9.140 -0.7322  0.3412 -0.3387
  499TMC3    O2 7427   1.756   1.534   9.013  0.2522  0.1681  0.1411
  500MPD2     C 7428   2.222   3.572   9.665 -0.4359 -0.3704 -0.4353
  500MPD2    C1 7429   2.219   3.614   9.796  0.2266 -0.0602 -0.0897
  500MPD2    C2 7430   2.095   3.619   9.860 -0.2219  0.5521 -0.0797
  500MPD2    C3 7431   1.981   3.576   9.800 -0.2617 -0.0077 -1.1431
  500MPD2    C4 7432   1.987   3.526   9.673 -0.1889 -0.1042  0.1958
  500MPD2    C5 7433   2.106   3.515   9.609  0.3438 -1.1816  0.0707
  500MPD2     H 7434   2.093   3.663   9.959  2.1095 -1.9817  1.0869
  500MPD2    H1 7435   1.896   3.490   9.627  0.0577  0.4126 -0.7080
  500MPD2    H2 7436   2.311   3.576   9.603 -0.5740  0.3404 -0.5819
  500MPD2    H3 7437   2.108   3.484   9.505  0.5619  0.4851 -0.4259
  500MPD2     N 7438   1.845   3.582   9.851  0.1703  0.0828  0.3816
  500MPD2    H5 7439   1.776   3.517   9.814 -0.0227 -0.5219  1.7857
  500MPD2    N1 7440   2.335   3.671   9.861  0.3762  0.0394  0.2450
  500MPD2    H7 7441   2.314   3.734   9.938 -1.3961  1.5268 -1.4572
  501TMC3    C1 7442   2.557   3.695   9.934  0.1295  0.5487 -0.4672
  501TMC3    C2 7443   2.515   3.814   9.993 -0.4646 -0.1337 -0.4823
  501TMC3    C3 7444   2.565   3.833  10.123  0.2379 -0.2543 -0.0065
  501TMC3    C4 7445   2.641   3.598   9.997 -0.5588  0.0158  0.8852
  501TMC3    C5 7446   2.690   3.639  10.125  0.0453  0.3193 -0.5149
  501TMC3    C6 7447   2.662   3.758  10.184 -0.3378 -0.0537 -0.7378
  501TMC3     C 7448   2.465   3.644   9.834  0.3344  0.1812 -0.0894
  501TMC3     O 7449   2.514   3.550   9.773 -0.4819  0.6365 -0.2917
  501TMC3     H 7450   2.454   3.887   9.940  0.8284  1.5955  0.3977
  501TMC3    H1 7451   2.659   3.499   9.957 -1.5155  0.3887 -0.4680
  501TMC3    H2 7452   2.686   3.783  10.287  0.0091 -2.6092 -0.1953
  501TMC3    C7 7453   2.810   3.576  10.181  1.5149  0.1181 -0.1838
  501TMC3    C8 7454   2.559   3.966  10.174 -0.4256 -0.9366 -0.1553
  501TMC3    O1 7455   2.827   3.459  10.151  0.2445 -0.4097  0.5916
  501TMC3    O2 7456   2.665   4.006  10.220 -0.1671  0.2137 -0.3788
  502TMC3    C1 7457   1.900   2.712  15.105 -0.6828  0.4432  0.1745
  502TMC3    C2 7458   1.845   2.816  15.035  0.2533  0.1777  0.8035
  502TMC3    C3 7459   1.715   2.854  15.068  0.2812  0.4518  0.5318
  502TMC3    C4 7460   1.823   2.643  15.197 -0.3653 -0.4314 -0.2741
  502TMC3    C5 7461   1.694   2.676  15.214  0.5557  0.3950  0.0513
  502TMC3    C6 7462   1.638   2.781  15.151 -0.1006  0.4830 -0.3744
  502TMC3     C 7463   2.036   2.730  15.149 -0.6763 -0.2064  0.4183
  502TMC3     O 7464   2.106   2.783  15.066  0.2196 -0.0100  0.2767
  502TMC3     H 7465   1.906   2.885  14.977  2.0135 -0.5714  1.7449
  502TMC3    H1 7466   1.859   2.556  15.251 -0.8204  2.3607  4.5774
  502TMC3    H2 7467   1.535   2.804  15.176 -0.3182 -0.6568 -0.2187
  502TMC3    C7 7468   1.622   2.601  15.319 -1.0696 -0.2778  0.3923
  502TMC3    C8 7469   1.681   2.995  15.040 -0.4992 -0.3119 -0.1249
  502TMC3    O1 7470   1.694   2.573  15.417 -0.0067  0.8374 -0.5805
  502TMC3    O2 7471   1.736   3.047  14.942  0.4120  0.0265  0.6469
  503MPD2     C 7472   4.196   3.762  16.804 -0.2965  1.1460  0.1919
  503MPD2    C1 7473   4.196   3.752  16.944  0.3269 -0.4273  0.2626
  503MPD2    C2 7474   4.190   3.626  16.997 -0.1272  0.2360  0.0155
  503MPD2    C3 7475   4.203   3.515  16.920  0.3848 -0.1176 -1.4090
  503MPD2    C4 7476   4.205   3.530  16.778 -0.3514 -0.1474  0.2360
  503MPD2    C5 7477   4.198   3.652  16.724  0.2279 -0.5924  0.2852
  503MPD2     H 7478   4.193   3.617  17.105  1.8557  0.4092 -0.0222
  503MPD2    H1 7479   4.214   3.448  16.708  0.7068 -0.5102  0.8061
  503MPD2    H2 7480   4.184   3.857  16.752  1.1376  0.8763 -0.6125
  503MPD2    H3 7481   4.193   3.668  16.617  0.1266  2.4970  0.7579
  503MPD2     N 7482   4.211   3.392  16.982  0.1841  0.7109 -0.5626
  503MPD2    H5 7483   4.199   3.394  17.083 -0.3694  0.1593 -0.6214
  503MPD2    N1 7484   4.186   3.866  17.034 -0.0329  0.2254  0.5418
  503MPD2    H7 7485   4.176   3.844  17.132  0.1176  0.0888  0.5260
  504TMC3    C1 7486   4.267   3.162  17.020  0.3730 -0.3306  0.5895
  504TMC3    C2 7487   4.264   3.192  17.154 -0.2933 -0.5002 -0.7726
  504TMC3    C3 7488   4.315   3.102  17.236 -0.5347  0.2404 -0.0492
  504TMC3    C4 7489   4.353   3.060  16.982 -0.6136 -0.7950  0.1713
  504TMC3    C5 7490   4.422   2.981  17.075  0.3072  0.0329 -0.0705
  504TMC3    C6 7491   4.393   3.002  17.207  0.3179 -0.2247 -0.3783
  504TMC3     C 7492   4.259   3.271  16.921  0.1325 -0.3565  0.2377
  504TMC3     O 7493   4.297   3.245  16.808 -0.2889  0.4441 -0.2306
  504TMC3     H 7494   4.204   3.271  17.198  0.3640 -1.8114  2.4282
  504TMC3    H1 7495   4.376   3.051  16.877 -0.4485 -0.9609  0.2206
  504TMC3    H2 7496   4.456   2.940  17.270  1.8159  0.3252 -1.3357
  504TMC3    C7 7497   4.547   2.926  17.030  0.1054 -0.2212 -0.7224
  504TMC3    C8 7498   4.336   3.152  17.366 -0.0181 -0.1900  0.0296
  504TMC3    O1 7499   4.568   2.945  16.913  0.1555  0.2885  0.1104
  504TMC3    O2 7500   4.349   3.271  17.377  0.5397  0.2836 -0.4550
  505MPD2     C 7501   0.088   1.390  10.484  0.8872 -0.4962  0.3350
  505MPD2    C1 7502   0.142   1.404  10.607 -1.2051 -0.2173  0.5022
  505MPD2    C2 7503   0.207   1.521  10.635  0.0646 -0.3387 -0.1329
  505MPD2    C3 7504   0.202   1.630  10.545 -0.6642  0.0339 -0.1945
  505MPD2    C4 7505   0.153   1.614  10.417  0.1180  0.6555 -0.7254
  505MPD2    C5 7506   0.089   1.494  10.396 -0.6124 -0.3590  0.3581
  505MPD2     H 7507   0.269   1.533  10.723 -0.5813  1.7584  0.0494
  505MPD2    H1 7508   0.141   1.691  10.342 -0.1795  2.2476  0.9713
  505MPD2    H2 7509   0.043   1.294  10.464 -1.6573  0.5406  1.1668
  505MPD2    H3 7510   0.038   1.482  10.301  0.0184 -1.1849  0.1265
  505MPD2     N 7511   0.263   1.757  10.572  0.4703  0.3003  0.4386
  505MPD2    H5 7512   0.283   1.817  10.492 -0.5767 -1.3990 -1.0874
  505MPD2    N1 7513   0.138   1.292  10.692  0.4605 -0.0599 -0.7243
  505MPD2    H7 7514   0.111   1.199  10.662  0.2251 -0.7882  1.8168
  506TMC3    C1 7515   0.203   1.160  10.869  0.5852  0.5334 -0.0712
  506TMC3    C2 7516   0.283   1.081  10.792 -0.1428 -0.3372 -0.4898
  506TMC3    C3 7517   0.384   1.000  10.844 -0.0591  0.1094  0.0041
  506TMC3    C4 7518   0.236   1.163  11.002 -0.2921  0.0818 -0.5255
  506TMC3    C5 7519   0.351   1.107  11.053  0.0770 -0.2708 -0.1949
  506TMC3    C6 7520   0.412   1.009  10.977  0.0613  0.1644  0.4159
  506TMC3     C 7521   0.180   1.291  10.821 -0.0623  0.2953 -0.1665
  506TMC3     O 7522   0.214   1.381  10.901  0.1445 -0.0640  0.2714
  506TMC3     H 7523   0.271   1.090  10.685  0.6374 -0.8003 -0.6227
  506TMC3    H1 7524   0.175   1.223  11.069 -0.7244  0.0337 -0.8787
  506TMC3    H2 7525   0.504   0.959  11.005  0.4197 -0.4742 -1.9108
  506TMC3    C7 7526   0.418   1.202  11.141 -0.4862 -0.0392  0.6849
  506TMC3    C8 7527   0.470   0.919  10.768 -0.6743  0.5549  1.0837
  506TMC3    O1 7528   0.502   1.156  11.217  0.2549 -0.0678  0.3186
  506TMC3    O2 7529   0.519   0.819  10.819  0.3899  0.6606  0.1156
  507TMC3    C1 7530   4.320   2.516  15.109  0.3022 -0.4526 -0.1509
  507TMC3    C2 7531   4.270   2.489  14.985 -0.9472 -0.3577 -0.2336
  507TMC3    C3 7532   4.364   2.461  14.889  0.6143 -0.0622 -0.2399
  507TMC3    C4 7533   4.452   2.524  15.132 -0.5320  0.7794 -0.6568
  507TMC3    C5 7534   4.543   2.485  15.036 -0.7218 -0.3257  0.3115
  507TMC3    C6 7535   4.495   2.448  14.913 -0.7941  0.1487 -0.3487
  507TMC3     C 7536   4.228   2.518  15.214  0.3035  1.1182  0.5970
  507TMC3     O 7537   4.110   2.544  15.190  0.8573  0.4336  0.1085
  507TMC3     H 7538   4.166   2.484  14.953 -0.3949 -1.3475 -1.9022
  507TMC3    H1 7539   4.495   2.548  15.229  0.6197 -1.8308 -0.5067
  507TMC3    H2 7540   4.555   2.403  14.835 -0.9957 -0.1403 -0.3374
  507TMC3    C7 7541   4.651   2.572  15.009 -0.2730 -0.5678  0.5741
  507TMC3    C8 7542   4.328   2.516  14.756 -0.1704 -0.1414 -0.1036
  507TMC3    O1 7543   4.663   2.583  14.888  0.3312  0.6335  0.1531
  507TMC3    O2 7544   4.217   2.549  14.727  0.6345  0.0443  0.3479
  508MPD2     C 7545   1.510   0.156  15.830  0.1116  0.1301 -0.1155
  508MPD2    C1 7546   1.397   0.214  15.878 -0.3294 -0.1094  0.4308
  508MPD2    C2 7547   1.320   0.303  15.802 -0.0745 -1.7417 -0.4856
  508MPD2    C3 7548   1.361   0.331  15.671  0.3475  0.1733 -0.2527
  508MPD2    C4 7549   1.468   0.260  15.620  0.3417 -0.6385 -0.0872
  508MPD2    C5 7550   1.537   0.171  15.700  0.6210  0.0163  0.1866
  508MPD2     H 7551   1.229   0.353  15.836 -0.4406 -2.4372 -0.4412
  508MPD2    H1 7552   1.487   0.260  15.513  0.1903  1.0019 -0.1240
  508MPD2    H2 7553   1.564   0.080  15.884  1.9996  1.4679 -0.1150
  508MPD2    H3 7554   1.625   0.118  15.667  0.0712  0.1201 -1.4158
  508MPD2     N 7555   1.281   0.423  15.596  0.3769 -0.2148  1.0851
  508MPD2    H5 7556   1.206   0.473  15.643 -1.7021  0.7918 -3.2757
  508MPD2    N1 7557   1.361   0.178  16.009  0.5991 -0.1212 -0.5805
  508MPD2    H7 7558   1.428   0.118  16.057  0.6803 -0.5926 -1.2789
  509TMC3    C1 7559   1.061   0.726  15.414 -0.1513 -0.0034 -0.6087
  509TMC3    C2 7560   1.126   0.809  15.328  0.8406 -0.2454 -0.1152
  509TMC3    C3 7561   1.251   0.767  15.281 -0.0667 -0.9173  0.5052
  509TMC3    C4 7562   1.120   0.616  15.461 -0.1290  0.3477 -0.3447
  509TMC3    C5 7563   1.241   0.581  15.424 -0.4412 -0.0803 -0.6864
  509TMC3    C6 7564   1.311   0.648  15.332 -0.2942 -0.0341  0.5530
  509TMC3     C 7565   0.955   0.779  15.498  0.2553  0.9504  0.7966
  509TMC3     O 7566   0.963   0.748  15.618 -1.2947 -0.3736  0.1762
  509TMC3     H 7567   1.076   0.891  15.278  0.8768  0.7683  1.5184
  509TMC3    H1 7568   1.070   0.546  15.527  0.1295  0.5033  0.0143
  509TMC3    H2 7569   1.411   0.625  15.299 -0.9347 -1.7578 -0.1960
  509TMC3    C7 7570   1.304   0.462  15.462  0.2832 -0.2160 -0.3586
  509TMC3    C8 7571   1.343   0.866  15.250  0.5320  0.3910 -0.1575
  509TMC3    O1 7572   1.407   0.432  15.402 -0.3945 -0.2245  0.0349
  509TMC3    O2 7573   1.429   0.833  15.175  0.1742  0.6398 -0.7464
  510MPD2     C 7574   3.925   2.266  14.846  0.5565  0.1331  0.6194
  510MPD2    C1 7575   3.929   2.139  14.893 -0.3885 -0.4788  0.1833
  510MPD2    C2 7576   4.018   2.053  14.831 -1.3130 -0.0156  0.3644
  510MPD2    C3 7577   4.121   2.094  14.751 -0.1858 -0.4477 -0.2747
  510MPD2    C4 7578   4.118   2.219  14.707  0.3614 -0.1417 -0.0065
  510MPD2    C5 7579   4.019   2.306  14.751 -0.0696  0.3609 -0.3084
  510MPD2     H 7580   4.022   1.949  14.861  0.6656  0.3682  1.4467
  510MPD2    H1 7581   4.189   2.266  14.639 -2.4438  2.1057 -1.3886
  510MPD2    H2 7582   3.846   2.339  14.859 -0.3768 -0.9046  0.7421
  510MPD2    H3 7583   4.005   2.404  14.707 -1.1407  0.1278 -0.5012
  510MPD2     N 7584   4.222   2.005  14.714 -0.4851 -0.6648  0.0000
  510MPD2    H5 7585   4.223   1.916  14.763 -0.6455 -0.1301  0.9792
  510MPD2    N1 7586   3.830   2.082  14.980  0.5293  0.0843  0.1887
  510MPD2    H7 7587   3.834   1.981  14.989  2.0219  0.2232  1.0848
  511TMC3    C1 7588   3.621   2.065  15.103 -0.7737  0.4512 -0.3221
  511TMC3    C2 7589   3.570   2.096  15.226 -0.5838  0.6221 -0.1799
  511TMC3    C3 7590   3.490   2.001  15.282 -0.0615  0.0378  0.2145
  511TMC3    C4 7591   3.595   1.940  15.036  0.9081  0.6297  0.2341
  511TMC3    C5 7592   3.518   1.851  15.103 -0.7475 -0.3471  0.4647
  511TMC3    C6 7593   3.468   1.876  15.231  0.3567 -0.2959 -0.3330
  511TMC3     C 7594   3.734   2.157  15.049 -0.1365 -0.2332  0.1309
  511TMC3     O 7595   3.725   2.277  15.069 -0.0508 -0.2232  0.6322
  511TMC3     H 7596   3.592   2.189  15.277  2.2031 -0.3274  0.4077
  511TMC3    H1 7597   3.637   1.920  14.939  2.5375 -0.2912  1.1349
  511TMC3    H2 7598   3.403   1.802  15.277  1.2396 -0.5293  0.5245
  511TMC3    C7 7599   3.506   1.725  15.037 -0.4154 -0.3360  0.5160
  511TMC3    C8 7600   3.433   2.031  15.411  0.6705  0.0266 -0.0138
  511TMC3    O1 7601   3.590   1.697  14.958  0.2805 -0.2880  0.4193
  511TMC3    O2 7602   3.440   2.150  15.448 -0.3255 -0.2001  0.0041
  512TMC3    C1 7603   3.024   1.058  12.729 -0.5432 -0.9699  0.5419
  512TMC3    C2 7604   2.991   1.111  12.855 -0.0077  0.1458 -0.3492
  512TMC3    C3 7605   2.971   1.018  12.956 -0.3516  1.0256 -1.0074
  512TMC3    C4 7606   3.021   0.930  12.693 -0.5499 -0.7569  0.8581
  512TMC3    C5 7607   3.002   0.841  12.798 -0.0327  0.4589  0.1928
  512TMC3    C6 7608   2.989   0.881  12.927  0.2187  0.1581  1.1223
  512TMC3     C 7609   3.032   1.156  12.618  0.6901 -0.3400 -0.7420
  512TMC3     O 7610   2.987   1.268  12.632 -0.7464 -0.1692  0.5315
  512TMC3     H 7611   2.976   1.216  12.876  0.5593  0.2969 -0.6953
  512TMC3    H1 7612   3.052   0.887  12.599 -0.0368 -1.3200  1.2805
  512TMC3    H2 7613   2.976   0.816  13.013 -0.3780 -1.7441 -0.4192
  512TMC3    C7 7614   3.013   0.699  12.772 -0.7018 -0.4623  0.8019
  512TMC3    C8 7615   2.936   1.056  13.091 -0.5005  0.0406 -0.2815
  512TMC3    O1 7616   3.020   0.667  12.655  0.0812 -0.6251 -0.7270
  512TMC3    O2 7617   2.883   0.964  13.160 -0.1990  0.1942  0.4561
  513MPD2     C 7618   4.456   1.907  13.010  0.0952 -0.5371  0.0996
  513MPD2    C1 7619   4.410   1.779  13.016  0.2363 -0.2074 -0.5635
  513MPD2    C2 7620   4.350   1.739  13.137 -0.3104  0.2845  0.2024
  513MPD2    C3 7621   4.345   1.828  13.249  0.6058  0.2273  0.0470
  513MPD2    C4 7622   4.400   1.952  13.240 -0.9032  0.1843 -0.0290
  513MPD2    C5 7623   4.449   1.994  13.111 -0.1415  0.2111  0.3032
  513MPD2     H 7624   4.329   1.635  13.159  1.3558 -0.1399 -0.2033
  513MPD2    H1 7625   4.400   2.025  13.320 -0.8615  1.0069 -0.7709
  513MPD2    H2 7626   4.510   1.946  12.924  2.1787  0.6938  1.9606
  513MPD2    H3 7627   4.487   2.095  13.099 -1.5836  0.6345 -0.7183
  513MPD2     N 7628   4.296   1.773  13.368  0.1109 -0.2307  0.0572
  513MPD2    H5 7629   4.252   1.682  13.357 -3.5768  1.4006  1.4347
  513MPD2    N1 7630   4.431   1.698  12.901  0.4400 -0.1794 -0.4814
  513MPD2    H7 7631   4.485   1.752  12.834  0.0263 -0.0013 -0.6732
  514TMC3    C1 7632   4.431   1.507  12.765  0.1856  0.2292 -0.1719
  514TMC3    C2 7633   4.556   1.548  12.717  0.4797 -0.4718  0.0695
  514TMC3    C3 7634   4.647   1.447  12.697  0.6232  0.6653 -0.2995
  514TMC3    C4 7635   4.394   1.379  12.764 -0.6843 -0.8412 -0.4659
  514TMC3    C5 7636   4.492   1.283  12.766 -1.4169 -0.0545 -0.1428
  514TMC3    C6 7637   4.618   1.319  12.738 -0.5061  0.7897 -0.6068
  514TMC3     C 7638   4.374   1.575  12.875  0.1438  0.2910 -0.6344
  514TMC3     O 7639   4.289   1.516  12.942  0.1019 -0.0805 -0.3985
  514TMC3     H 7640   4.572   1.649  12.681  3.0230 -0.6012  0.8288
  514TMC3    H1 7641   4.292   1.355  12.791 -0.9380  1.1831  0.3894
  514TMC3    H2 7642   4.689   1.239  12.758 -0.6088  0.4016 -1.8027
  514TMC3    C7 7643   4.488   1.184  12.876  0.1490 -0.2080 -0.0373
  514TMC3    C8 7644   0.066   1.477  12.669 -0.0469 -0.0825 -0.4652
  514TMC3    O1 7645   4.560   1.089  12.876 -0.1117  0.0473  0.5134
  514TMC3    O2 7646   0.150   1.390  12.689 -0.6921 -0.4568 -0.1482
  515MPD2     C 7647   3.007   3.345  14.407  0.1126  0.0132 -0.3543
  515MPD2    C1 7648   2.948   3.289  14.519 -0.0327 -1.0119  0.0389
  515MPD2    C2 7649   2.952   3.366  14.630  0.8248  0.5523  0.4679
  515MPD2    C3 7650   2.992   3.499  14.628  0.3752  0.5589  0.8268
  515MPD2    C4 7651   3.054   3.549  14.515  0.5610 -0.4476 -0.2722
  515MPD2    C5 7652   3.052   3.478  14.402 -0.4801  0.3665  0.0500
  515MPD2     H 7653   2.914   3.325  14.724 -0.1888 -3.1148 -1.5341
  515MPD2    H1 7654   3.101   3.646  14.521  1.7551 -1.0074 -0.5408
  515MPD2    H2 7655   3.000   3.283  14.317  4.4059  2.0220 -2.0594
  515MPD2    H3 7656   3.065   3.524  14.305 -1.4936 -0.9736 -0.7164
  515MPD2     N 7657   2.987   3.585  14.745  0.5361  0.5216  0.1303
  515MPD2    H5 7658   3.022   3.678  14.725  0.8291  0.4536  0.3302
  515MPD2    N1 7659   2.903   3.154  14.510  0.7243  0.5813 -0.1153
  515MPD2    H7 7660   2.897   3.114  14.417  0.0207 -0.5142  0.3994
  516TMC3    C1 7661   2.815   2.936  14.580  0.4415  0.9420  0.3100
  516TMC3    C2 7662   2.767   2.905  14.450  0.1705  0.0535 -1.0231
  516TMC3    C3 7663   2.674   2.804  14.427 -0.1175 -0.2147 -0.1352
  516TMC3    C4 7664   2.772   2.861  14.681  0.1672  0.5779  0.3830
  516TMC3    C5 7665   2.687   2.749  14.656  1.1250 -1.2603  0.6035
  516TMC3    C6 7666   2.631   2.729  14.532  0.0427 -0.1024 -0.1614
  516TMC3     C 7667   2.871   3.068  14.619 -0.3887  0.3524 -0.4184
  516TMC3     O 7668   2.857   3.090  14.738 -0.0312 -0.0988  0.5019
  516TMC3     H 7669   2.795   2.964  14.363  1.0812  1.1225  0.0045
  516TMC3    H1 7670   2.805   2.880  14.782 -2.8256 -0.8057  1.6202
  516TMC3    H2 7671   2.582   2.637  14.504 -0.9029  0.3218  0.1037
  516TMC3    C7 7672   2.604   2.716  14.764  0.3254 -0.2858 -0.8419
  516TMC3    C8 7673   2.574   2.817  14.325  0.1231 -0.6499  0.0162
  516TMC3    O1 7674   2.644   2.729  14.873  0.1428 -0.6589  0.1360
  516TMC3    O2 7675   2.460   2.800  14.364  0.1292  0.2960  0.0077
  517MPD2     C 7676   2.065   4.591   0.542  0.5647 -0.0913  0.1711
  517MPD2    C1 7677   2.184   4.557   0.477  0.0933  0.3296 -0.5342
  517MPD2    C2 7678   2.294   4.633   0.501 -0.0348  0.6240 -0.6445
  517MPD2    C3 7679   2.297   0.009   0.599 -0.1936  0.4770 -0.1183
  517MPD2    C4 7680   2.179   0.037   0.667 -0.0053  0.0392  0.1872
  517MPD2    C5 7681   2.072   4.681   0.641  0.0014 -0.2953 -0.4046
  517MPD2     H 7682   2.369   4.613   0.425 -0.3466  0.2077 -0.8442
  517MPD2    H1 7683   2.166   0.118   0.737 -1.1774  0.2280 -0.2523
  517MPD2    H2 7684   1.976   4.533   0.523 -0.4117  1.1539  0.9238
  517MPD2    H3 7685   1.980   4.706   0.693  1.0267 -1.6090  2.0883
  517MPD2     N 7686   2.409   0.087   0.625  0.0851  0.1221 -0.3407
  517MPD2    H5 7687   2.410   0.155   0.700  1.0014 -0.8986  0.5834
  517MPD2    N1 7688   2.191   4.461   0.378  0.1044 -0.4422 -0.5711
  517MPD2    H7 7689   2.271   4.451   0.317  1.1857 -1.4165  1.0114
  518TMC3    C1 7690   2.113   4.329   0.213 -0.2844  0.1007 -0.8477
  518TMC3    C2 7691   2.098   4.193   0.198  0.0874 -0.0229  0.2005
  518TMC3    C3 7692   2.167   4.131   0.101  0.3487  0.9153 -0.3419
  518TMC3    C4 7693   2.199   4.400   0.129 -0.6459  0.4231  0.5458
  518TMC3    C5 7694   2.271   4.326   0.033 -0.0345 -0.0246  0.2725
  518TMC3    C6 7695   2.256   4.193   0.013 -0.7608 -0.4707 -0.2049
  518TMC3     C 7696   2.077   4.388   0.342  0.5177  1.1111 -0.5988
  518TMC3     O 7697   1.995   4.326   0.411 -0.1130  0.0238 -0.3519
  518TMC3     H 7698   2.024   4.145   0.260  1.7871 -0.0505  2.2100
  518TMC3    H1 7699   2.208   4.508   0.131 -0.8746  0.4393  0.7278
  518TMC3    H2 7700   2.299   4.132  17.620  1.1839 -0.2230  0.6608
  518TMC3    C7 7701   2.382   4.389  17.653 -0.3479  0.2175  0.1086
  518TMC3    C8 7702   2.163   3.984   0.093  0.2436  0.6389  0.2036
  518TMC3    O1 7703   2.374   4.511  17.646 -0.1124  0.4874  0.1106
  518TMC3    O2 7704   2.252   3.934   0.028  0.0697  0.1493  0.3103
  519MPD2     C 7705   3.968   3.145  14.346 -0.1553 -0.2488 -0.0764
  519MPD2    C1 7706   3.908   3.120  14.224 -0.5114 -0.0032 -0.0221
  519MPD2    C2 7707   3.894   2.990  14.185 -0.0760  0.2283 -0.8390
  519MPD2    C3 7708   3.960   2.884  14.259  0.2315 -0.1123 -0.3421
  519MPD2    C4 7709   4.037   2.916  14.368 -0.6401 -0.4866 -0.4630
  519MPD2    C5 7710   4.030   3.042  14.416 -0.0312  0.0071  0.1165
  519MPD2     H 7711   3.830   2.973  14.098 -0.8901  0.5775 -0.3077
  519MPD2    H1 7712   4.090   2.842  14.425 -1.2796 -1.3978 -1.0447
  519MPD2    H2 7713   3.971   3.244  14.391 -1.1800  0.1014 -0.7749
  519MPD2    H3 7714   4.079   3.059  14.511 -1.8717  1.3702  0.8196
  519MPD2     N 7715   3.961   2.748  14.210 -0.3659 -0.4337 -0.6747
  519MPD2    H5 7716   4.019   2.683  14.262 -0.6937 -0.5439 -0.4485
  519MPD2    N1 7717   3.841   3.212  14.154  0.3262 -0.1096  0.9207
  519MPD2    H7 7718   3.787   3.184  14.073  2.4394  0.4669 -0.6731
  520TMC3    C1 7719   3.957   2.592  14.039 -0.5265 -0.7433  0.1873
  520TMC3    C2 7720   3.894   2.535  13.934 -0.2407 -0.7042  0.3905
  520TMC3    C3 7721   3.960   2.451  13.851  0.1515 -0.5025 -0.0928
  520TMC3    C4 7722   4.092   2.560  14.071 -0.1453  0.0584 -0.3796
  520TMC3    C5 7723   4.155   2.469  13.990 -0.0281 -0.9932 -0.2162
  520TMC3    C6 7724   4.094   2.413  13.882  0.6754  0.0142 -0.3442
  520TMC3     C 7725   3.897   2.711  14.096  0.2563  0.3701  1.0677
  520TMC3     O 7726   3.803   2.763  14.040 -0.3812  0.5817  0.2748
  520TMC3     H 7727   3.789   2.561  13.925  0.2495  0.4479 -1.8833
  520TMC3    H1 7728   4.144   2.598  14.158  1.4710  0.2101 -1.4090
  520TMC3    H2 7729   4.155   2.362  13.808  0.6871 -1.1299  0.4514
  520TMC3    C7 7730   4.299   2.459  13.998 -0.0464 -0.5082 -0.1854
  520TMC3    C8 7731   3.918   2.437  13.711  0.1717 -0.1713  0.0334
  520TMC3    O1 7732   4.359   2.363  13.951  0.8105  0.0241 -0.3282
  520TMC3    O2 7733   3.978   2.363  13.638  0.4815 -0.1507  0.1849
  521MPD2     C 7734   0.105   1.290  17.331 -0.5438  0.7039  0.0083
  521MPD2    C1 7735   0.068   1.273  17.200 -0.2461 -0.0961  0.1567
  521MPD2    C2 7736   0.154   1.205  17.114 -0.9859  0.1266 -0.0587
  521MPD2    C3 7737   0.274   1.163  17.164 -0.6538  0.3491 -0.3454
  521MPD2    C4 7738   0.304   1.175  17.297 -0.7312  0.0147 -0.3245
  521MPD2    C5 7739   0.218   1.238  17.379 -0.9245  0.3706 -0.4004
  521MPD2     H 7740   0.134   1.181  17.010 -1.6569  2.0376 -0.3724
  521MPD2    H1 7741   0.395   1.149  17.350  0.4807  1.0504 -1.8691
  521MPD2    H2 7742   0.034   1.332  17.402  2.0938  3.1439  1.2180
  521MPD2    H3 7743   0.233   1.241  17.487 -0.2633  0.2446 -0.4908
  521MPD2     N 7744   0.358   1.099  17.071  0.4196 -0.4529  0.1302
  521MPD2    H5 7745   0.341   1.091  16.971 -1.0387 -0.6555  0.4008
  521MPD2    N1 7746   4.663   1.324  17.157  0.5237  0.2901  0.0115
  521MPD2    H7 7747   4.593   1.353  17.225  0.3851  0.1067 -0.0532
  522TMC3    C1 7748   0.541   0.967  17.003 -0.2504 -0.2557 -0.5480
  522TMC3    C2 7749   0.640   0.872  17.037  0.4649  0.1145 -0.1862
  522TMC3    C3 7750   0.694   0.815  16.927  0.9127 -0.7390 -0.0897
  522TMC3    C4 7751   0.519   1.016  16.878  0.3581 -1.0220 -0.0410
  522TMC3    C5 7752   0.585   0.961  16.771 -0.0070 -0.3262 -0.3992
  522TMC3    C6 7753   0.668   0.854  16.795 -1.1975  0.2114  0.1370
  522TMC3     C 7754   0.466   1.025  17.116 -0.2832  0.3187 -0.0330
  522TMC3     O 7755   0.510   1.005  17.225  0.0014  0.0869 -0.3866
  522TMC3     H 7756   0.649   0.840  17.140 -1.0078  3.3261  0.9499
  522TMC3    H1 7757   0.466   1.104  16.846  0.2381 -1.6530 -1.5622
  522TMC3    H2 7758   0.712   0.803  16.710 -1.8006  2.9852 -1.8401
  522TMC3    C7 7759   0.577   1.018  16.640 -0.0230 -0.2650 -0.4740
  522TMC3    C8 7760   0.755   0.688  16.956 -0.6762  0.2909 -0.0132
  522TMC3    O1 7761   0.670   0.995  16.567  0.2905  0.0365 -0.0723
  522TMC3    O2 7762   0.773   0.661  17.075  0.2803 -0.3383  0.1931
  523MPD2     C 7763   3.349   0.643  10.225 -0.0283 -0.4338 -0.4723
  523MPD2    C1 7764   3.244   0.624  10.139 -0.5878 -0.1314 -0.1081
  523MPD2    C2 7765   3.182   0.734  10.074  0.1695  0.4705  0.4703
  523MPD2    C3 7766   3.230   0.864  10.103  0.3221  0.0193  0.1656
  523MPD2    C4 7767   3.333   0.879  10.187 -0.2915  0.4329 -0.0904
  523MPD2    C5 7768   3.388   0.769  10.245 -0.1716 -0.6614 -0.1090
  523MPD2     H 7769   3.107   0.715   9.999  1.0353 -1.3507  0.0866
  523MPD2    H1 7770   3.369   0.979  10.206 -2.2936  0.8420  1.6562
  523MPD2    H2 7771   3.403   0.565  10.277 -0.5395 -0.2220  0.3601
  523MPD2    H3 7772   3.472   0.797  10.307 -0.5193 -2.0483  0.9878
  523MPD2     N 7773   3.161   0.985  10.059 -0.4577 -0.7911 -0.2064
  523MPD2    H5 7774   3.196   1.072  10.098  0.3481 -0.4197 -1.7603
  523MPD2    N1 7775   3.213   0.487  10.112  0.0227  0.6459 -0.1262
  523MPD2    H7 7776   3.259   0.422  10.175 -0.0938  0.5913 -0.0974
  524TMC3    C1 7777   3.011   1.130   9.930 -0.1431 -0.3002 -0.4012
  524TMC3    C2 7778   3.108   1.218   9.890  0.6018 -0.6073  0.2077
  524TMC3    C3 7779   3.076   1.306   9.792 -0.4659  0.1499 -0.1180
  524TMC3    C4 7780   2.884   1.134   9.881  0.4719  0.5986 -0.3849
  524TMC3    C5 7781   2.851   1.241   9.801  0.3286  0.0632 -0.0060
  524TMC3    C6 7782   2.942   1.329   9.754  0.5334 -0.1230 -0.4704
  524TMC3     C 7783   3.062   0.994   9.967  0.2542 -0.2495 -0.0142
  524TMC3     O 7784   3.007   0.906   9.903  0.0232  0.7222  0.5333
  524TMC3     H 7785   3.211   1.186   9.901  0.5173 -0.6528  0.8419
  524TMC3    H1 7786   2.812   1.055   9.901  0.4128  0.8296  0.2998
  524TMC3    H2 7787   2.912   1.396   9.675 -2.0021 -1.1079 -0.3306
  524TMC3    C7 7788   2.713   1.255   9.758 -0.0144  0.0061 -0.6523
  524TMC3    C8 7789   3.199   1.367   9.739 -0.0390 -0.5578  0.8823
  524TMC3    O1 7790   2.635   1.162   9.782 -0.3362  0.2088 -0.2495
  524TMC3    O2 7791   3.298   1.383   9.809  0.0555 -0.5799  0.2082
  525MPD2     C 7792   0.524   2.428  14.677  0.1260 -0.1960  0.5977
  525MPD2    C1 7793   0.657   2.416  14.725  0.2690 -0.1720  0.5048
  525MPD2    C2 7794   0.728   2.532  14.745  0.2023  0.5417  0.5586
  525MPD2    C3 7795   0.669   2.659  14.725  0.2124 -0.3836 -0.4756
  525MPD2    C4 7796   0.537   2.666  14.677 -0.3156  0.9804  0.8535
  525MPD2    C5 7797   0.463   2.551  14.653 -0.2721 -0.0837 -0.5602
  525MPD2     H 7798   0.826   2.512  14.785  0.0944 -0.2602  0.4272
  525MPD2    H1 7799   0.494   2.759  14.643 -0.5952  0.2131 -0.8934
  525MPD2    H2 7800   0.458   2.346  14.652 -1.9873  1.4500  0.8094
  525MPD2    H3 7801   0.360   2.546  14.617 -0.2253  3.3946 -1.1351
  525MPD2     N 7802   0.749   2.780  14.738  0.1033 -0.1841 -0.0494
  525MPD2    H5 7803   0.696   2.866  14.739  0.7876  0.2881 -2.7506
  525MPD2    N1 7804   0.710   2.295  14.767 -0.7415 -0.4528 -0.3902
  525MPD2    H7 7805   0.804   2.304  14.802 -0.7044 -0.0493 -0.5925
  526TMC3    C1 7806   0.714   2.103  14.907  0.0434  0.0102 -0.0025
  526TMC3    C2 7807   0.635   2.043  15.001 -0.2956 -0.2671  0.1721
  526TMC3    C3 7808   0.693   1.997  15.120  0.7858  0.0822  0.2282
  526TMC3    C4 7809   0.859   2.109  14.923 -0.2731 -0.4321 -0.3249
  526TMC3    C5 7810   0.901   2.057  15.045  0.1250 -1.0543 -0.6172
  526TMC3    C6 7811   0.825   2.003  15.141 -0.6494  0.2439  0.0316
  526TMC3     C 7812   0.639   2.184  14.810  0.6708  0.1773 -0.2447
  526TMC3     O 7813   0.521   2.154  14.783 -0.3163 -0.2182 -0.0288
  526TMC3     H 7814   0.528   2.046  14.984 -0.5370 -2.6796  1.2086
  526TMC3    H1 7815   0.918   2.160  14.848  0.1233 -0.2577  0.1106
  526TMC3    H2 7816   0.873   1.962  15.229  0.1757  0.9675 -0.0856
  526TMC3    C7 7817   1.044   2.074  15.073 -0.3728 -0.5412 -0.1389
  526TMC3    C8 7818   0.609   1.959  15.239 -0.0038 -0.7168 -0.1549
  526TMC3    O1 7819   1.095   2.044  15.179  0.1344 -0.6816  0.4323
  526TMC3    O2 7820   0.667   1.935  15.340 -0.7381 -0.0262  0.2655
  527MPD2     C 7821   3.944   0.379   1.902 -0.1471  0.0225  0.5252
  527MPD2    C1 7822   3.909   0.480   1.816 -0.3799  0.3486 -0.3712
  527MPD2    C2 7823   3.981   0.506   1.704 -0.3190 -0.0809  0.3082
  527MPD2    C3 7824   4.092   0.427   1.673  0.9512 -0.1216  0.5767
  527MPD2    C4 7825   4.134   0.332   1.761  0.4932  0.1928 -0.2070
  527MPD2    C5 7826   4.062   0.307   1.879  0.1059  1.0210 -0.6948
  527MPD2     H 7827   3.936   0.572   1.631  0.9508 -1.2923 -1.5558
  527MPD2    H1 7828   4.208   0.263   1.722 -0.5348 -0.4243 -1.0866
  527MPD2    H2 7829   3.884   0.354   1.989  1.4081 -2.5568  0.8713
  527MPD2    H3 7830   4.087   0.225   1.946  0.8172  0.2987 -1.8510
  527MPD2     N 7831   4.157   0.417   1.549 -0.0074 -0.4534 -0.0826
  527MPD2    H5 7832   4.234   0.352   1.537 -0.6224 -1.6291  2.3401
  527MPD2    N1 7833   3.788   0.547   1.831 -0.3474  0.1482 -0.0032
  527MPD2    H7 7834   3.775   0.642   1.797  3.2960  0.5354 -0.2445
  528TMC3    C1 7835   3.552   0.570   1.882 -0.7235 -0.4345 -0.0393
  528TMC3    C2 7836   3.562   0.701   1.926  0.0122 -0.6654 -0.0521
  528TMC3    C3 7837   3.451   0.762   1.969 -0.0244 -0.2371  0.1090
  528TMC3    C4 7838   3.428   0.510   1.871  0.4170  0.0995  0.3593
  528TMC3    C5 7839   3.314   0.577   1.917 -0.7217 -0.8257 -0.2978
  528TMC3    C6 7840   3.327   0.702   1.959 -0.3183  0.9681  0.2443
  528TMC3     C 7841   3.676   0.485   1.885  0.4142  0.2651 -0.2665
  528TMC3     O 7842   3.658   0.365   1.902  0.3614 -0.3624  0.4959
  528TMC3     H 7843   3.659   0.747   1.938  1.1505 -2.9254 -0.6527
  528TMC3    H1 7844   3.419   0.416   1.818 -0.0883 -0.4949  1.4912
  528TMC3    H2 7845   3.238   0.760   1.980 -1.6684 -1.5646  1.4844
  528TMC3    C7 7846   3.186   0.544   1.851  0.5380  0.2620  0.0362
  528TMC3    C8 7847   3.470   0.895   2.031 -0.6374 -0.3361  0.0301
  528TMC3    O1 7848   3.081   0.572   1.907 -1.4483  0.7078  0.3756
  528TMC3    O2 7849   3.585   0.939   2.039  0.2243  0.3458  0.4125
  529MPD2     C 7850   1.727   4.190   1.333 -0.0190  0.0685 -0.0534
  529MPD2    C1 7851   1.686   4.073   1.272 -0.0001 -0.3422 -0.0777
  529MPD2    C2 7852   1.639   4.082   1.147 -0.0621 -0.1117 -0.0504
  529MPD2    C3 7853   1.634   4.205   1.075  0.0728  0.0254  0.2238
  529MPD2    C4 7854   1.679   4.318   1.143  0.3696 -0.7406 -0.5332
  529MPD2    C5 7855   1.724   4.310   1.269  0.6847  0.0170 -0.1034
  529MPD2     H 7856   1.617   3.988   1.097  0.5668 -0.7732  0.9288
  529MPD2    H1 7857   1.678   4.419   1.104 -1.4883 -0.1359  1.0992
  529MPD2    H2 7858   1.767   4.182   1.433 -0.7887 -0.6230  0.2017
  529MPD2    H3 7859   1.759   4.399   1.320  0.5496 -0.9882  1.7617
  529MPD2     N 7860   1.572   4.215   0.943 -0.3453  0.8333  0.0853
  529MPD2    H5 7861   1.579   4.305   0.898  0.4229  0.1146 -1.2402
  529MPD2    N1 7862   1.686   3.946   1.333 -0.0828 -0.8660 -0.5965
  529MPD2    H7 7863   1.648   3.866   1.284  0.6672 -2.0673  0.7455
  530TMC3    C1 7864   1.694   3.778   1.501 -0.3626  0.3872  0.5157
  530TMC3    C2 7865   1.776   3.726   1.594  0.1460 -0.1777 -0.8186
  530TMC3    C3 7866   1.787   3.591   1.597  0.1891  0.2822 -0.2901
  530TMC3    C4 7867   1.615   3.696   1.424  0.1915  0.1413 -0.7181
  530TMC3    C5 7868   1.618   3.557   1.443 -0.2149  0.5131 -0.1548
  530TMC3    C6 7869   1.711   3.501   1.529  0.0234 -0.1149  0.1385
  530TMC3     C 7870   1.699   3.920   1.467 -0.0001 -0.8095 -1.5968
  530TMC3     O 7871   1.741   3.991   1.559 -0.6101  0.1096  0.1330
  530TMC3     H 7872   1.850   3.784   1.647  0.2571 -1.6149  0.5841
  530TMC3    H1 7873   1.543   3.742   1.358  0.5902  1.2493 -0.3864
  530TMC3    H2 7874   1.723   3.397   1.555 -2.0854 -1.0148 -2.4782
  530TMC3    C7 7875   1.578   3.484   1.326  0.1444 -0.1964  0.4763
  530TMC3    C8 7876   1.861   3.546   1.720 -0.9212 -0.0485  0.1290
  530TMC3    O1 7877   1.538   3.555   1.230 -0.2853  0.6886  0.4805
  530TMC3    O2 7878   1.863   3.623   1.813 -0.7961 -0.2543  0.1529
  531MPD2     C 7879   4.333   1.090  13.360  0.2630  0.0507  0.1502
  531MPD2    C1 7880   4.307   1.222  13.336 -0.2391  0.2618 -0.0685
  531MPD2    C2 7881   4.340   1.271  13.208 -0.0677 -0.2741 -0.3731
  531MPD2    C3 7882   4.388   1.191  13.110 -0.6409 -0.5344 -0.0924
  531MPD2    C4 7883   4.409   1.055  13.135 -0.0248  0.1049  0.2364
  531MPD2    C5 7884   4.372   1.005  13.257  0.4494 -0.2371 -0.0139
  531MPD2     H 7885   4.322   1.374  13.178 -2.5517 -0.8331 -0.7932
  531MPD2    H1 7886   4.446   0.985  13.061  0.2039  0.4210  0.0520
  531MPD2    H2 7887   4.314   1.056  13.461 -1.4500  0.9545  0.1370
  531MPD2    H3 7888   4.385   0.900  13.281 -1.7242 -0.3932  0.4621
  531MPD2     N 7889   4.423   1.246  12.977 -0.8467  1.1071 -0.1060
  531MPD2    H5 7890   4.366   1.327  12.954 -2.6201  0.3018  1.4123
  531MPD2    N1 7891   4.262   1.298  13.444  0.1703 -0.5247  0.5270
  531MPD2    H7 7892   4.240   1.245  13.528 -0.4333 -1.1768 -0.0415
  532TMC3    C1 7893   4.214   1.499  13.564  0.9015 -0.0154  0.3627
  532TMC3    C2 7894   4.183   1.630  13.543 -0.6211  0.1383 -0.1927
  532TMC3    C3 7895   4.275   1.724  13.587 -0.4106 -0.4450  0.2606
  532TMC3    C4 7896   4.323   1.461  13.637  0.1349 -0.1717 -0.1599
  532TMC3    C5 7897   4.406   1.558  13.683  0.3600 -0.5321 -0.2653
  532TMC3    C6 7898   4.390   1.691  13.649 -0.5064  0.3485  0.8054
  532TMC3     C 7899   4.217   1.429  13.430 -0.0847 -0.1192 -0.5975
  532TMC3     O 7900   4.207   1.497  13.325 -0.1137 -0.0993  0.0928
  532TMC3     H 7901   4.097   1.653  13.482 -0.6907 -0.9550 -0.5116
  532TMC3    H1 7902   4.336   1.358  13.667 -1.5144  0.5476  3.0136
  532TMC3    H2 7903   4.463   1.762  13.686  2.1607 -0.8125 -2.2273
  532TMC3    C7 7904   4.548   1.520  13.675  0.2170 -0.2072 -0.8329
  532TMC3    C8 7905   4.308   1.825  13.492 -0.2954 -0.0622  0.7439
  532TMC3    O1 7906   4.627   1.592  13.608  0.1531  0.6795  0.0742
  532TMC3    O2 7907   4.373   1.921  13.539 -0.6095 -0.3123  0.5380
  533TMC3    C1 7908   0.919   2.932  14.775 -0.1143  0.5399  0.0483
  533TMC3    C2 7909   1.018   2.979  14.695  0.8233  0.0864 -0.1894
  533TMC3    C3 7910   1.028   3.118  14.694  0.1353  0.1242  0.2326
  533TMC3    C4 7911   0.815   3.007  14.821 -0.4805  0.9454 -0.2946
  533TMC3    C5 7912   0.829   3.141  14.814 -0.2809  0.0555 -0.6987
  533TMC3    C6 7913   0.934   3.202  14.753 -0.1900 -0.0268 -0.6922
  533TMC3     C 7914   0.884   2.797  14.752  0.0425  0.1997  0.2941
  533TMC3     O 7915   0.969   2.710  14.740 -0.2996 -0.7072  0.0914
  533TMC3     H 7916   1.097   2.914  14.658 -1.1356 -1.2941 -1.9613
  533TMC3    H1 7917   0.732   2.963  14.873  0.4524  0.3339  0.6789
  533TMC3    H2 7918   0.941   3.310  14.755  1.0734 -0.1067 -0.8125
  533TMC3    C7 7919   0.768   3.208  14.932  0.2946 -0.1550 -0.2996
  533TMC3    C8 7920   1.149   3.178  14.644 -0.0698 -0.4543  0.3341
  533TMC3    O1 7921   0.714   3.317  14.918 -0.1942 -0.4041  0.1852
  533TMC3    O2 7922   1.192   3.273  14.712  0.3418 -0.4960 -0.1211
  534MPD2     C 7923   3.099   4.362   2.444 -0.9325  0.4349  0.2847
  534MPD2    C1 7924   3.182   4.421   2.349  0.6318 -0.2152 -0.0526
  534MPD2    C2 7925   3.195   4.358   2.225 -1.1662 -0.0969 -1.0043
  534MPD2    C3 7926   3.129   4.242   2.191  0.5798 -0.4368  0.1165
  534MPD2    C4 7927   3.030   4.202   2.276  0.1462  0.1172  0.0771
  534MPD2    C5 7928   3.018   4.260   2.398 -0.5022 -0.0936  0.0470
  534MPD2     H 7929   3.270   4.400   2.160  0.9420 -3.5671 -0.8483
  534MPD2    H1 7930   2.963   4.120   2.254 -0.4416  0.7446 -0.4399
  534MPD2    H2 7931   3.080   4.381   2.549 -1.5097  1.2907  0.0215
  534MPD2    H3 7932   2.953   4.208   2.468 -0.5433  0.7441  0.6343
  534MPD2     N 7933   3.119   4.186   2.065  0.3335 -0.0130  0.2636
  534MPD2    H5 7934   3.051   4.112   2.050 -2.1987  2.0051  1.6273
  534MPD2    N1 7935   3.269   4.526   2.381 -0.0200 -0.0262  0.2904
  534MPD2    H7 7936   3.339   4.554   2.312  1.6097 -0.5088  1.7421
  535TMC3    C1 7937   3.188   4.140   1.828  0.4748  0.0500 -0.4962
  535TMC3    C2 7938   3.146   4.005   1.831  0.2889  0.0254  0.1077
  535TMC3    C3 7939   3.173   3.929   1.719  0.0821 -0.1855  0.0897
  535TMC3    C4 7940   3.247   4.196   1.720 -0.4620  0.1558  0.7120
  535TMC3    C5 7941   3.282   4.112   1.616  0.2349 -0.1145 -0.4575
  535TMC3    C6 7942   3.240   3.980   1.609  0.0269  0.0880 -0.4021
  535TMC3     C 7943   3.199   4.220   1.958 -0.3778 -0.5330 -0.8810
  535TMC3     O 7944   3.288   4.305   1.953  0.2493 -0.5762  0.0353
  535TMC3     H 7945   3.099   3.961   1.919  0.5081 -0.5511 -0.0659
  535TMC3    H1 7946   3.304   4.287   1.735 -2.7782  1.3577  2.2241
  535TMC3    H2 7947   3.253   3.923   1.517  1.0074 -0.9781  0.3959
  535TMC3    C7 7948   3.343   4.162   1.499  0.4020  0.6931  0.8512
  535TMC3    C8 7949   3.101   3.810   1.698  0.5336  1.0231 -0.5640
  535TMC3    O1 7950   3.412   4.081   1.434 -0.0116  0.3666  0.7571
  535TMC3    O2 7951   3.071   3.775   1.586 -0.1844  0.1271 -0.1184
  536MPD2     C 7952   2.568   2.770  16.537 -0.3328  0.1147  0.5623
  536MPD2    C1 7953   2.470   2.679  16.556  0.4599 -0.8003 -0.2194
  536MPD2    C2 7954   2.397   2.641  16.442  0.4622 -0.7905  0.0132
  536MPD2    C3 7955   2.423   2.687  16.316 -0.5644  0.1348 -0.3583
  536MPD2    C4 7956   2.522   2.773  16.292  0.4857 -0.1278  0.3233
  536MPD2    C5 7957   2.592   2.819  16.406 -0.7055  0.3243  0.0570
  536MPD2     H 7958   2.319   2.568  16.459 -2.1241  2.5154  2.4835
  536MPD2    H1 7959   2.545   2.804  16.191  0.0820  3.1002  1.2192
  536MPD2    H2 7960   2.633   2.812  16.613 -0.5653  2.2389 -0.4092
  536MPD2    H3 7961   2.673   2.885  16.379 -2.6981  1.9231 -2.0255
  536MPD2     N 7962   2.342   2.651  16.209 -0.3900  0.6694 -0.0718
  536MPD2    H5 7963   2.350   2.711  16.127 -1.2394 -0.9159 -1.2940
  536MPD2    N1 7964   2.445   2.642  16.687 -0.2992  0.1098  0.1842
  536MPD2    H7 7965   2.510   2.683  16.752  1.2210 -0.3070 -1.0705
  537TMC3    C1 7966   2.323   2.578  16.881 -0.4559 -0.2007 -0.6080
  537TMC3    C2 7967   2.428   2.586  16.968 -0.5234 -0.2234  0.6734
  537TMC3    C3 7968   2.405   2.556  17.101  0.5477  0.7845  0.0688
  537TMC3    C4 7969   2.196   2.543  16.926 -0.0083  0.4613 -0.0934
  537TMC3    C5 7970   2.182   2.509  17.060 -0.5527  0.1739 -0.1172
  537TMC3    C6 7971   2.284   2.517  17.147 -0.0355 -0.6863  0.1557
  537TMC3     C 7972   2.334   2.576  16.734  0.3722 -0.4814 -0.5542
  537TMC3     O 7973   2.239   2.536  16.675 -0.2450 -1.0297 -0.1183
  537TMC3     H 7974   2.530   2.609  16.939 -0.7867  1.7819  1.3472
  537TMC3    H1 7975   2.108   2.550  16.863 -1.7870 -1.5623  2.1503
  537TMC3    H2 7976   2.279   2.506  17.255  1.4469 -1.4460  0.1338
  537TMC3    C7 7977   2.058   2.447  17.103 -0.6495 -0.4917 -0.8451
  537TMC3    C8 7978   2.517   2.549  17.197 -0.3466 -0.9100  0.3718
  537TMC3    O1 7979   1.951   2.451  17.040  0.0095 -0.3771  0.4267
  537TMC3    O2 7980   2.520   2.462  17.281 -0.5575 -0.8099 -0.5663
  538TMC3    C1 7981   3.672   0.190  10.728 -0.3245 -0.4975  0.3203
  538TMC3    C2 7982   3.760   0.139  10.642 -0.1740 -0.1223 -0.2863
  538TMC3    C3 7983   3.737   0.166  10.511 -1.0716  0.5559 -0.4532
  538TMC3    C4 7984   3.557   0.258  10.707 -0.0886 -0.0541 -0.1232
  538TMC3    C5 7985   3.539   0.277  10.572  0.0480 -0.2237 -0.1209
  538TMC3    C6 7986   3.626   0.234  10.471  0.2373  0.3433 -0.5639
  538TMC3     C 7987   3.693   0.176  10.869 -0.5088 -0.1255  0.6098
  538TMC3     O 7988   3.601   0.177  10.947  0.1722  0.1112  0.0409
  538TMC3     H 7989   3.852   0.085  10.663 -1.0950 -1.2106  0.9307
  538TMC3    H1 7990   3.504   0.311  10.785  2.2715 -0.0166  1.4687
  538TMC3    H2 7991   3.599   0.251  10.368 -1.3741  2.3091  0.1814
  538TMC3    C7 7992   3.436   0.374  10.538  0.2846  0.3937  0.2384
  538TMC3    C8 7993   3.844   0.149  10.421 -0.7809  0.1558  0.3057
  538TMC3    O1 7994   3.373   0.359  10.434 -0.0360  0.0513  0.1784
  538TMC3    O2 7995   3.897   0.038  10.409 -0.0309 -0.0366 -0.4239
  539MPD2     C 7996   2.511   4.247  11.343 -0.2913  0.2249  0.8973
  539MPD2    C1 7997   2.645   4.283  11.373  0.4370 -0.1430 -0.1601
  539MPD2    C2 7998   2.670   4.411  11.419 -0.3887  0.6949  0.0504
  539MPD2    C3 7999   2.565   4.502  11.423 -0.1086  0.1292 -0.2179
  539MPD2    C4 8000   2.438   4.464  11.396  0.1870 -0.4028  0.3420
  539MPD2    C5 8001   2.412   4.342  11.351 -0.0993  0.5311  0.7999
  539MPD2     H 8002   2.771   4.442  11.440 -0.7149 -1.2843  4.4428
  539MPD2    H1 8003   2.354   4.531  11.409 -0.3203 -0.6842 -1.5893
  539MPD2    H2 8004   2.483   4.153  11.297 -0.0431  0.1824  0.8331
  539MPD2    H3 8005   2.311   4.322  11.316  0.8726  1.8393 -2.7434
  539MPD2     N 8006   2.584   4.642  11.445  0.1932  0.6000 -0.0009
  539MPD2    H5 8007   2.499   4.697  11.435 -0.6915 -0.4708  1.6489
  539MPD2    N1 8008   2.752   4.187  11.362 -0.2750  0.5743 -0.0788
  539MPD2    H7 8009   2.838   4.216  11.407  0.2772  1.0136 -1.4093
  540TMC3    C1 8010   2.688   0.126  11.468  0.1679  0.4395 -1.1402
  540TMC3    C2 8011   2.796   0.190  11.407  0.6326 -0.1590 -0.4133
  540TMC3    C3 8012   2.814   0.323  11.424 -0.0567 -0.8635 -0.5479
  540TMC3    C4 8013   2.592   0.199  11.533  0.1687 -0.8293  0.9957
  540TMC3    C5 8014   2.608   0.337  11.538 -0.2476  0.5385 -0.8204
  540TMC3    C6 8015   2.720   0.398  11.487  0.3945  0.3252 -0.0736
  540TMC3     C 8016   2.708   4.706  11.474  0.1911  0.2467 -0.3513
  540TMC3     O 8017   2.816   4.658  11.507  0.2045  0.2215  0.3178
  540TMC3     H 8018   2.858   0.124  11.347  1.1896  0.3818 -0.4441
  540TMC3    H1 8019   2.508   0.144  11.574 -0.8652  1.8359  2.4267
  540TMC3    H2 8020   2.728   0.507  11.487 -0.2643  0.3691 -0.8121
  540TMC3    C7 8021   2.491   0.415  11.596 -0.4769 -0.2446  0.2089
  540TMC3    C8 8022   2.899   0.376  11.317  0.0362  0.1505 -0.0506
  540TMC3    O1 8023   2.395   0.348  11.637  0.1265  0.0097  0.1908
  540TMC3    O2 8024   2.983   0.458  11.346  0.0277 -0.3848 -0.4493
  541MPD2     C 8025   1.295   1.643  13.269 -0.5939  0.0621 -0.0425
  541MPD2    C1 8026   1.410   1.570  13.233  0.2277  0.5391 -0.4095
  541MPD2    C2 8027   1.458   1.575  13.103 -0.8311  1.0928  0.2507
  541MPD2    C3 8028   1.399   1.667  13.016 -0.3077 -0.1028  0.6156
  541MPD2    C4 8029   1.297   1.746  13.058  0.0569  0.1186  0.1217
  541MPD2    C5 8030   1.240   1.733  13.180 -0.3181 -0.3457 -0.2218
  541MPD2     H 8031   1.525   1.499  13.063  1.0603  3.3431 -0.8333
  541MPD2    H1 8032   1.239   1.810  12.993 -1.1598 -1.4635 -0.3397
  541MPD2    H2 8033   1.260   1.635  13.372  1.3084 -1.6570  0.4775
  541MPD2    H3 8034   1.155   1.795  13.208  1.0738  1.1819  0.6050
  541MPD2     N 8035   1.428   1.681  12.880  0.1973  0.4184  0.1473
  541MPD2    H5 8036   1.398   1.760  12.825 -0.3220 -0.6362 -1.0810
  541MPD2    N1 8037   1.458   1.471  13.326 -0.0270  0.1010  1.3157
  541MPD2    H7 8038   1.392   1.450  13.401  0.1445  0.7042  1.6351
  542TMC3    C1 8039   1.543   1.627  12.676  0.5431  0.0479  0.0977
  542TMC3    C2 8040   1.615   1.539  12.602  0.4551  0.8493  0.2190
  542TMC3    C3 8041   1.670   1.584  12.483  0.3660  0.4009 -0.6140
  542TMC3    C4 8042   1.536   1.762  12.641  0.3625 -0.5408 -0.9015
  542TMC3    C5 8043   1.592   1.807  12.523  0.1201 -0.1590 -0.8496
  542TMC3    C6 8044   1.649   1.713  12.436 -0.2896  0.1759 -0.3333
  542TMC3     C 8045   1.500   1.586  12.809  0.1037 -0.9830  0.1274
  542TMC3     O 8046   1.535   1.473  12.840  0.4172  0.3071  0.5037
  542TMC3     H 8047   1.615   1.435  12.630  1.3448  1.1252  1.2385
  542TMC3    H1 8048   1.503   1.834  12.714  0.8500 -0.8900 -0.3392
  542TMC3    H2 8049   1.702   1.735  12.344 -0.9324 -1.0865 -0.9998
  542TMC3    C7 8050   1.607   1.955  12.516 -0.3403  0.2555 -0.2034
  542TMC3    C8 8051   1.716   1.486  12.387 -0.3183 -0.0438  0.1465
  542TMC3    O1 8052   1.548   2.014  12.606  0.3827  0.5058 -0.1449
  542TMC3    O2 8053   1.714   1.522  12.271 -0.1091 -0.6411  0.2045
  543TMC3    C1 8054   0.451   3.035  17.020 -0.2889 -0.3336  0.2109
  543TMC3    C2 8055   0.513   2.929  17.075 -0.7289  0.3301  0.3092
  543TMC3    C3 8056   0.482   2.898  17.204 -0.2064  0.0632 -0.5207
  543TMC3    C4 8057   0.362   3.110  17.086 -0.5539  0.0871 -0.7125
  543TMC3    C5 8058   0.348   3.087  17.218 -0.4385 -0.4575 -0.7681
  543TMC3    C6 8059   0.395   2.974  17.277  0.2974 -0.4604 -0.4215
  543TMC3     C 8060   0.472   3.055  16.875 -0.9299  0.3661  0.2003
  543TMC3     O 8061   0.378   3.035  16.804  0.2422  0.2688  0.2431
  543TMC3     H 8062   0.580   2.864  17.021 -0.4470  1.0458 -0.2103
  543TMC3    H1 8063   0.325   3.193  17.027  2.3550  1.3660 -0.7041
  543TMC3    H2 8064   0.372   2.961  17.382  1.6744  0.6553  0.0160
  543TMC3    C7 8065   0.354   3.214  17.290 -0.6296  0.4517  0.1446
  543TMC3    C8 8066   0.543   2.782  17.260 -0.1475 -0.9780  0.2790
  543TMC3    O1 8067   0.395   3.215  17.405 -0.2316 -0.1722  1.0027
  543TMC3    O2 8068   0.648   2.741  17.207 -0.2234 -0.0118  0.0565
  544MPD2     C 8069   0.467   2.378  17.541 -0.6443  0.4178 -0.0026
  544MPD2    C1 8070   0.573   2.405  17.463 -0.2834  0.6166 -0.4607
  544MPD2    C2 8071   0.584   2.533  17.416  0.3390 -0.1745 -0.2640
  544MPD2    C3 8072   0.480   2.618  17.431  0.2047 -0.1740  0.2972
  544MPD2    C4 8073   0.378   2.592  17.520 -0.1718  0.2002 -0.3871
  544MPD2    C5 8074   0.374   2.472  17.579 -0.2842  0.5813 -0.1513
  544MPD2     H 8075   0.663   2.567  17.350  1.7168 -0.2016  1.3872
  544MPD2    H1 8076   0.297   2.663  17.533 -0.9519 -0.7359 -0.1502
  544MPD2    H2 8077   0.454   2.283  17.593  2.1374  0.8929  1.5382
  544MPD2    H3 8078   0.303   2.445  17.657  2.5729 -0.4254  2.1380
  544MPD2     N 8079   0.463   2.732  17.360 -0.1620 -0.2424  0.3187
  544MPD2    H5 8080   0.391   2.799  17.385 -1.9133 -2.5647  1.5513
  544MPD2    N1 8081   0.668   2.301  17.435  0.5855  0.0999  0.3754
  544MPD2    H7 8082   0.640   2.212  17.477  0.8612  0.4373  1.2735
  545TMC3    C1 8083   0.868   2.193  17.362  0.4127 -0.7416  0.0580
  545TMC3    C2 8084   0.979   2.203  17.290  0.2695  1.1225 -0.3878
  545TMC3    C3 8085   1.061   2.101  17.282 -1.0661  0.2878  0.4099
  545TMC3    C4 8086   0.836   2.083  17.435 -0.3413  0.0605  0.0562
  545TMC3    C5 8087   0.933   1.982  17.422 -0.8717  0.1273 -0.4319
  545TMC3    C6 8088   1.048   1.988  17.353 -0.0335  0.9287 -0.1791
  545TMC3     C 8089   0.782   2.312  17.357  0.7598  1.5029  0.1405
  545TMC3     O 8090   0.820   2.402  17.287  0.2929  0.4428 -0.4365
  545TMC3     H 8091   0.997   2.296  17.237  3.7713 -0.0908 -1.3254
  545TMC3    H1 8092   0.745   2.080  17.495 -1.2735 -0.4545 -1.3915
  545TMC3    H2 8093   1.106   1.897  17.348  0.3898  1.1294  1.0776
  545TMC3    C7 8094   0.914   1.869  17.504 -0.1014 -0.6224 -0.0255
  545TMC3    C8 8095   1.148   2.093  17.162 -0.4407  0.3168 -0.6313
  545TMC3    O1 8096   0.794   1.851  17.520 -0.1134 -0.0105 -0.3425
  545TMC3    O2 8097   1.228   1.999  17.161  0.4369 -0.3446  0.6350
  546MPD2     C 8098   2.307   2.536  17.523  0.0736 -0.3614  0.2431
  546MPD2    C1 8099   2.206   2.628  17.512 -0.0334 -0.2601 -0.2196
  546MPD2    C2 8100   2.231   2.759  17.556  0.2087 -0.8234  0.4315
  546MPD2    C3 8101   2.354   2.797  17.604 -0.0692 -0.3746 -0.2207
  546MPD2    C4 8102   2.454   2.702  17.601  0.7430  0.3208  0.6675
  546MPD2    C5 8103   2.428   2.576  17.565 -0.2123 -0.0671  0.1683
  546MPD2     H 8104   2.154   2.834  17.538  0.5503 -0.8316 -1.0311
  546MPD2    H1 8105   2.551   2.717  17.647  0.9462 -0.8019  0.6086
  546MPD2    H2 8106   2.294   2.435  17.485 -2.1833 -0.1499  0.4536
  546MPD2    H3 8107   2.509   2.504  17.570 -1.3170 -1.1105  2.6942
  546MPD2     N 8108   2.378   2.930  17.663  0.5808 -0.3548  0.2918
  546MPD2    H5 8109   2.293   2.979   0.001  0.7990 -0.6315  1.6145
  546MPD2    N1 8110   2.079   2.581  17.462 -0.0325  0.3979  0.2875
  546MPD2    H7 8111   2.064   2.482  17.444  1.3735  0.1140  0.6857
  547TMC3    C1 8112   1.847   2.584  17.425 -0.1409  1.0100  0.3464
  547TMC3    C2 8113   1.742   2.661  17.400  0.3302  0.0842 -0.0981
  547TMC3    C3 8114   1.623   2.631  17.458  0.3676  0.2375 -0.5413
  547TMC3    C4 8115   1.833   2.469  17.495 -0.5589 -0.1110  0.8110
  547TMC3    C5 8116   1.709   2.433  17.542 -1.3526 -0.7876  0.3392
  547TMC3    C6 8117   1.597   2.509  17.525 -0.3670 -0.0181 -0.1245
  547TMC3     C 8118   1.967   2.661  17.434  0.2440  0.3864 -0.1397
  547TMC3     O 8119   1.953   2.784  17.425  0.7730 -0.3821 -0.6454
  547TMC3     H 8120   1.742   2.745  17.331  2.4931 -0.9991 -1.4042
  547TMC3    H1 8121   1.919   2.415  17.534  0.6001  1.5504  0.5562
  547TMC3    H2 8122   1.503   2.483  17.572 -1.0548  3.2793  0.3431
  547TMC3    C7 8123   1.716   2.320  17.637  0.3528  0.5364 -0.4183
  547TMC3    C8 8124   1.507   2.703  17.421  0.3854  0.2239 -0.1506
  547TMC3    O1 8125   1.808   2.240  17.620 -0.3563  0.4824 -0.0973
  547TMC3    O2 8126   1.421   2.728  17.506 -0.0807 -0.0681 -0.4373
  548MPD2     C 8127   2.134   3.344  11.976 -0.3481 -0.3567  0.1107
  548MPD2    C1 8128   2.144   3.268  12.095 -0.1430 -0.1766 -0.4816
  548MPD2    C2 8129   2.228   3.159  12.082 -0.9175 -0.2750 -0.7810
  548MPD2    C3 8130   2.272   3.115  11.957 -0.4698  0.6578 -0.1707
  548MPD2    C4 8131   2.249   3.185  11.836  0.1028 -0.4838 -0.2041
  548MPD2    C5 8132   2.170   3.294  11.852 -0.3618 -1.0353 -0.2336
  548MPD2     H 8133   2.258   3.097  12.166 -0.6111 -1.4627 -1.7707
  548MPD2    H1 8134   2.296   3.161  11.741  0.6005 -0.5509  0.0556
  548MPD2    H2 8135   2.070   3.432  11.972 -2.6183 -2.0285  0.1857
  548MPD2    H3 8136   2.153   3.368  11.774 -0.3091 -1.2462 -0.4454
  548MPD2     N 8137   2.351   2.998  11.967  0.5754  0.5655  0.0078
  548MPD2    H5 8138   2.379   2.957  12.055  0.3226  2.3925  0.9371
  548MPD2    N1 8139   2.060   3.302  12.204  0.3249  1.4225  0.1424
  548MPD2    H7 8140   1.991   3.374  12.189 -1.7989 -1.0697 -2.0940
  549TMC3    C1 8141   1.964   3.262  12.416  0.0519  0.1772 -0.0542
  549TMC3    C2 8142   1.901   3.381  12.416 -0.0501 -0.5349  0.1802
  549TMC3    C3 8143   1.780   3.391  12.485  0.0706  0.3154  0.1741
  549TMC3    C4 8144   1.911   3.159  12.488 -0.2010 -0.4354 -0.2840
  549TMC3    C5 8145   1.798   3.176  12.556  0.3743 -0.1134  0.4330
  549TMC3    C6 8146   1.720   3.287  12.549 -0.2232 -0.0126  0.3852
  549TMC3     C 8147   2.061   3.227  12.321 -0.2641 -0.5813 -0.0170
  549TMC3     O 8148   2.115   3.115  12.341  0.4467  0.3858 -0.6321
  549TMC3     H 8149   1.944   3.461  12.357 -1.1514  0.8771  1.2809
  549TMC3    H1 8150   1.950   3.058  12.476  1.1388 -0.3107  3.0838
  549TMC3    H2 8151   1.625   3.302  12.599 -1.3786 -3.3757 -0.8161
  549TMC3    C7 8152   1.773   3.091  12.666  0.2363  0.0885  0.1994
  549TMC3    C8 8153   1.695   3.501  12.456  0.0760  0.5898 -0.4406
  549TMC3    O1 8154   1.714   3.139  12.761 -0.1593 -0.2319 -0.3098
  549TMC3    O2 8155   1.575   3.478  12.454 -0.4113 -0.0776 -0.0010
  550TMC3    C1 8156   0.593   1.139  12.442  0.1379  0.9228  0.1468
  550TMC3    C2 8157   0.554   1.180  12.568 -0.3421 -0.0614  0.8888
  550TMC3    C3 8158   0.629   1.278  12.624  0.7579 -0.1529 -0.0477
  550TMC3    C4 8159   0.714   1.180  12.396  0.8293 -0.1601 -0.3667
  550TMC3    C5 8160   0.792   1.270  12.461  0.3940 -0.0679  0.1959
  550TMC3    C6 8161   0.747   1.333  12.573  0.6185  0.8112 -0.0857
  550TMC3     C 8162   0.516   1.046  12.365 -0.0557 -0.2514 -0.1732
  550TMC3     O 8163   0.513   0.929  12.392  0.0441  0.1187  0.0002
  550TMC3     H 8164   0.453   1.162  12.604 -0.4491  0.9803  1.1069
  550TMC3    H1 8165   0.752   1.143  12.301  2.1420  0.9153 -0.2667
  550TMC3    H2 8166   0.805   1.411  12.622  3.0465 -0.5818 -0.7452
  550TMC3    C7 8167   0.861   1.366  12.367  0.5568  0.3708  0.1358
  550TMC3    C8 8168   0.562   1.345  12.734  0.2898 -0.2152  0.0926
  550TMC3    O1 8169   0.978   1.401  12.392  0.2088 -0.0802  0.2593
  550TMC3    O2 8170   0.440   1.369  12.737 -0.0611 -0.2542  0.3380
  551TMC3    C1 8171   3.224   3.843  13.231 -0.5454  0.0925 -0.2240
  551TMC3    C2 8172   3.318   3.878  13.141  0.3709  0.2595  0.3052
  551TMC3    C3 8173   3.399   3.991  13.165 -0.1709  0.2856  0.1018
  551TMC3    C4 8174   3.190   3.918  13.337  0.4071 -0.3032  0.2293
  551TMC3    C5 8175   3.254   4.036  13.352 -0.4722 -0.6632 -0.6587
  551TMC3    C6 8176   3.362   4.072  13.273  0.1321 -0.2031  0.3702
  551TMC3     C 8177   3.120   3.756  13.174 -0.6484 -0.9645  0.1040
  551TMC3     O 8178   3.121   3.741  13.053  0.0194  0.4252 -0.0640
  551TMC3     H 8179   3.346   3.817  13.055  0.8197  0.5285  0.2600
  551TMC3    H1 8180   3.109   3.890  13.403  0.0010  2.6739  0.9639
  551TMC3    H2 8181   3.420   4.158  13.307  0.5271 -0.2006 -0.3006
  551TMC3    C7 8182   3.226   4.120  13.469  0.1660  0.0373 -0.4234
  551TMC3    C8 8183   3.491   4.021  13.061  0.0984  0.2389 -0.3773
  551TMC3    O1 8184   3.162   4.064  13.555 -0.3245  0.0335  0.1238
  551TMC3    O2 8185   3.546   3.929  12.998 -0.3170  0.2351  0.5587
  552MPD2     C 8186   0.126   0.923  14.292  0.0846  0.1991 -0.1785
  552MPD2    C1 8187   0.244   0.892  14.225 -0.2496 -0.2917 -0.6386
  552MPD2    C2 8188   0.365   0.951  14.263 -0.1461 -0.1757 -0.7624
  552MPD2    C3 8189   0.372   1.024  14.373  0.1118 -0.2116 -0.3538
  552MPD2    C4 8190   0.260   1.054  14.453 -0.0010 -0.0188 -0.5221
  552MPD2    C5 8191   0.136   1.010  14.410  0.2213 -0.3667 -0.6593
  552MPD2     H 8192   0.447   0.939  14.193  0.0125  2.1033 -0.9481
  552MPD2    H1 8193   0.274   1.109  14.546 -1.1264 -0.6571  0.0192
  552MPD2    H2 8194   0.027   0.889  14.266  0.3670  1.1697 -2.5377
  552MPD2    H3 8195   0.050   1.039  14.468 -0.5225  1.8813 -2.8983
  552MPD2     N 8196   0.493   1.079  14.418 -0.0960 -0.5524 -0.0876
  552MPD2    H5 8197   0.503   1.115  14.512  0.2099  1.0019 -0.7245
  552MPD2    N1 8198   0.236   0.822  14.108  0.1738 -0.4244  0.0774
  552MPD2    H7 8199   0.324   0.806  14.060  0.0035  0.8128 -0.6278
  553TMC3    C1 8200   0.161   0.727  13.923  0.2464 -0.4495 -0.0762
  553TMC3    C2 8201   0.095   0.756  13.804 -0.0856  0.0609  0.5570
  553TMC3    C3 8202   0.148   0.709  13.690 -0.4799  0.1118  0.0345
  553TMC3    C4 8203   0.269   0.642  13.927  0.9341  0.0816 -0.7899
  553TMC3    C5 8204   0.313   0.590  13.809  0.3814 -0.8961  0.0430
  553TMC3    C6 8205   0.254   0.621  13.691 -0.4087 -0.5383  0.5584
  553TMC3     C 8206   0.127   0.801  14.031 -0.4676 -0.2579  0.0255
  553TMC3     O 8207   0.016   0.852  14.038  0.1027 -0.0217  0.2242
  553TMC3     H 8208   0.021   0.835  13.812 -1.5711 -1.2612 -0.1496
  553TMC3    H1 8209   0.324   0.624  14.019  1.5974 -0.0290 -1.2063
  553TMC3    H2 8210   0.289   0.569  13.603  1.6490  1.6694  0.0772
  553TMC3    C7 8211   0.439   0.510  13.800  0.3704 -0.2800 -0.0444
  553TMC3    C8 8212   0.142   0.782  13.569 -0.0291 -0.1993  0.0965
  553TMC3    O1 8213   0.451   0.433  13.706  0.0781  0.1364  0.5084
  553TMC3    O2 8214   0.237   0.784  13.497  0.0983 -0.0018 -0.3569
  554TMC3    C1 8215   2.058   0.095  11.612 -0.1268 -0.6717  0.8967
  554TMC3    C2 8216   1.952   0.027  11.561 -0.2012 -0.3349  0.2730
  554TMC3    C3 8217   1.898   0.073  11.441 -1.0502 -0.3387 -0.1946
  554TMC3    C4 8218   2.098   0.208  11.550 -0.3067  0.2319 -0.1151
  554TMC3    C5 8219   2.043   0.253  11.431 -0.4087 -0.9547 -0.2072
  554TMC3    C6 8220   1.943   0.181  11.376  0.9160  0.3045  0.4237
  554TMC3     C 8221   2.157   4.720  11.649  0.2947  0.2584  0.0385
  554TMC3     O 8222   2.149   4.611  11.589  0.2344  0.3042 -0.0615
  554TMC3     H 8223   1.924   4.654  11.608 -0.8963  1.9435  4.4970
  554TMC3    H1 8224   2.195   0.246  11.581  0.5858 -0.4784 -2.0680
  554TMC3    H2 8225   1.912   0.207  11.276  0.3727  0.9997  0.7802
  554TMC3    C7 8226   2.126   0.323  11.339  0.3689 -0.0820 -0.1312
  554TMC3    C8 8227   1.854   4.700  11.344 -0.5032 -0.2999  0.7527
  554TMC3    O1 8228   2.137   0.269  11.231 -0.6500  0.3814 -0.3400
  554TMC3    O2 8229   1.775   0.017  11.264  0.2043 -0.5286  0.3712
  555TMC3    C1 8230   1.242   4.188  14.899  0.6463  0.1728  0.0529
  555TMC3    C2 8231   1.269   4.294  14.975  0.2484 -0.4031 -0.7150
  555TMC3    C3 8232   1.261   4.275  15.111  0.6229 -0.1127 -0.0559
  555TMC3    C4 8233   1.213   4.070  14.954 -0.0964  0.1808  0.6071
  555TMC3    C5 8234   1.206   4.053  15.086  0.2530  0.6009 -0.5170
  555TMC3    C6 8235   1.226   4.158  15.169  0.3598 -0.1793  0.7043
  555TMC3     C 8236   1.281   4.194  14.753  0.0118 -0.0780  0.2453
  555TMC3     O 8237   1.335   4.097  14.702 -0.3173 -0.0501  0.2481
  555TMC3     H 8238   1.279   4.395  14.937  1.9034 -0.3645 -0.1448
  555TMC3    H1 8239   1.194   3.990  14.883  2.2697  1.1528 -1.1275
  555TMC3    H2 8240   1.197   4.142  15.272  0.8439 -1.8646  0.5671
  555TMC3    C7 8241   1.157   3.924  15.138 -0.2475  0.0665  0.0600
  555TMC3    C8 8242   1.289   4.387  15.196 -0.2370 -1.0632  0.1306
  555TMC3    O1 8243   1.119   3.927  15.255  0.2768 -0.1152  0.4075
  555TMC3    O2 8244   1.307   4.503  15.158  0.4973  0.2068  0.0353
  556MPD2     C 8245   4.057   1.564  10.400  0.3648  0.5384  0.1019
  556MPD2    C1 8246   4.097   1.440  10.446 -0.3847  0.1595  0.4625
  556MPD2    C2 8247   4.094   1.326  10.368  0.3125  0.6326  1.2783
  556MPD2    C3 8248   4.042   1.327  10.241  0.3477  0.5772 -0.2970
  556MPD2    C4 8249   3.996   1.454  10.193 -0.0376 -0.0888 -0.0334
  556MPD2    C5 8250   3.996   1.562  10.277 -0.3275 -0.6724 -0.5337
  556MPD2     H 8251   4.144   1.238  10.406  1.7810  0.0759 -1.8789
  556MPD2    H1 8252   3.954   1.457  10.093  1.8382 -0.6253 -0.8316
  556MPD2    H2 8253   4.056   1.654  10.461  2.9307 -0.1947  1.2025
  556MPD2    H3 8254   3.949   1.651  10.236 -0.9547 -1.1989 -0.9610
  556MPD2     N 8255   4.043   1.212  10.168 -0.2550 -0.0851 -0.5488
  556MPD2    H5 8256   4.085   1.131  10.212 -0.1659  0.5634  0.5660
  556MPD2    N1 8257   4.163   1.428  10.573  0.0312 -0.2914 -0.2607
  556MPD2    H7 8258   4.183   1.334  10.605 -0.1765 -0.6080 -1.0767
  557TMC3    C1 8259   4.007   1.061   9.995 -0.7770  1.0957 -0.2654
  557TMC3    C2 8260   3.990   1.041   9.859  0.2491  0.1371 -0.4095
  557TMC3    C3 8261   4.006   0.915   9.803  0.3817 -0.6872  0.2683
  557TMC3    C4 8262   4.037   0.960  10.079  0.7616 -0.2129 -0.5497
  557TMC3    C5 8263   4.053   0.837  10.026  0.7529 -0.6508 -0.2575
  557TMC3    C6 8264   4.044   0.819   9.891 -0.3288 -0.6681 -0.9742
  557TMC3     C 8265   4.008   1.198  10.035  0.7071 -0.4779  0.0029
  557TMC3     O 8266   3.972   1.280   9.956  0.6987 -0.1253 -0.1019
  557TMC3     H 8267   3.969   1.124   9.793  0.5505 -0.8041 -1.6958
  557TMC3    H1 8268   4.061   0.978  10.183  1.9735  1.9077 -1.2047
  557TMC3    H2 8269   4.037   0.725   9.837  1.4953 -1.3449 -0.0358
  557TMC3    C7 8270   4.044   0.721  10.122 -0.1429 -0.3937  0.1960
  557TMC3    C8 8271   3.884   0.872   9.734  0.2995  0.4664  0.8556
  557TMC3    O1 8272   4.026   0.745  10.244  0.1287  0.5254  0.9835
  557TMC3    O2 8273   3.779   0.912   9.782  0.2464  0.0099  0.1881
  558TMC3    C1 8274   1.687   3.597  10.025  0.4544 -0.1679 -0.1540
  558TMC3    C2 8275   1.683   3.568  10.164  0.3376  0.3400  0.6489
  558TMC3    C3 8276   1.574   3.502  10.208  0.0488 -0.3408  0.0540
  558TMC3    C4 8277   1.589   3.564   9.937 -0.2683 -0.2367 -0.0467
  558TMC3    C5 8278   1.487   3.494   9.995  0.7152  0.5391  0.0104
  558TMC3    C6 8279   1.480   3.460  10.125  0.1403  1.0298  0.0150
  558TMC3     C 8280   1.813   3.635   9.975 -0.1152 -0.2613  0.2837
  558TMC3     O 8281   1.891   3.683  10.059  0.0340 -0.5037 -0.0974
  558TMC3     H 8282   1.759   3.604  10.232  0.6374  1.2009 -0.1397
  558TMC3    H1 8283   1.586   3.596   9.833  1.2816 -1.0321 -0.3439
  558TMC3    H2 8284   1.396   3.405  10.166  0.2303  0.0547 -1.1003
  558TMC3    C7 8285   1.376   3.468   9.909  0.1211  0.7929  0.0527
  558TMC3    C8 8286   1.584   3.439  10.338  0.0137  0.1404 -0.2034
  558TMC3    O1 8287   1.269   3.456   9.969  0.3588 -0.5066  0.3567
  558TMC3    O2 8288   1.481   3.420  10.404  0.0757  0.3831  0.1862
  559MPD2     C 8289   1.623   4.119  10.164  0.2153 -0.1449  0.0448
  559MPD2    C1 8290   1.619   4.108  10.302 -0.5228 -0.1897 -1.0434
  559MPD2    C2 8291   1.743   4.109  10.371  0.6810  0.6582  0.0535
  559MPD2    C3 8292   1.854   4.155  10.308 -0.4765  0.0320  0.1048
  559MPD2    C4 8293   1.852   4.186  10.173  0.4513 -0.9654 -0.5590
  559MPD2    C5 8294   1.741   4.158  10.103  0.1163 -0.2176  0.3963
  559MPD2     H 8295   1.745   4.098  10.478  0.0546  1.5239  0.1596
  559MPD2    H1 8296   1.933   4.243  10.129 -0.6231  1.0007  0.0419
  559MPD2    H2 8297   1.534   4.117  10.101 -0.4660  1.8729  0.9607
  559MPD2    H3 8298   1.734   4.184   9.998  2.6702 -1.6060 -0.1130
  559MPD2     N 8299   1.964   4.190  10.390 -0.4070  0.2154  0.0772
  559MPD2    H5 8300   1.970   4.148  10.483  1.0765  2.9130  1.1905
  559MPD2    N1 8301   1.496   4.095  10.375 -0.3716 -0.7690 -0.0209
  559MPD2    H7 8302   1.505   4.092  10.476 -2.8472 -0.1730  0.2196
  560TMC3    C1 8303   2.179   4.266  10.442 -0.0060 -0.5932  0.4622
  560TMC3    C2 8304   2.227   4.141  10.451  0.2960 -0.6290 -0.4848
  560TMC3    C3 8305   2.323   4.112  10.539  0.5678  0.7579  0.0820
  560TMC3    C4 8306   2.235   4.368  10.512 -0.0989 -0.4113 -0.6480
  560TMC3    C5 8307   2.335   4.329  10.602  0.0909  0.6008  0.2067
  560TMC3    C6 8308   2.378   4.199  10.619  0.7346  0.2065  0.1498
  560TMC3     C 8309   2.061   4.282  10.361  0.4858 -0.3640  0.2183
  560TMC3     O 8310   2.062   4.372  10.277  0.6801  0.4854 -0.0872
  560TMC3     H 8311   2.177   4.062  10.395 -2.4263  0.7523 -0.0280
  560TMC3    H1 8312   2.201   4.471  10.502  0.1233 -0.3051 -0.3027
  560TMC3    H2 8313   2.461   4.170  10.682  0.2671 -1.6112 -0.0890
  560TMC3    C7 8314   2.373   4.424  10.709  0.0089 -1.3526  1.0447
  560TMC3    C8 8315   2.380   3.984  10.528 -0.1983 -0.2990  0.1216
  560TMC3    O1 8316   2.295   4.515  10.734 -0.0550  0.7010  0.6604
  560TMC3    O2 8317   2.311   3.893  10.477 -0.7325  0.1724 -0.5273
  561TMC3    C1 8318   4.182   3.309  11.464 -0.3942 -0.6078  0.2204
  561TMC3    C2 8319   4.071   3.282  11.539  0.5749  0.3319 -0.1517
  561TMC3    C3 8320   4.034   3.375  11.629 -0.3377  1.0325  0.6186
  561TMC3    C4 8321   4.262   3.423  11.473  0.0885 -0.0863 -0.0460
  561TMC3    C5 8322   4.207   3.519  11.552  0.2171  0.1612 -0.2101
  561TMC3    C6 8323   4.097   3.495  11.639 -0.0352 -0.1476  0.5365
  561TMC3     C 8324   4.231   3.200  11.391  0.0443 -0.8333 -0.2324
  561TMC3     O 8325   4.184   3.093  11.428  0.2937 -0.5980 -0.2553
  561TMC3     H 8326   4.008   3.195  11.522 -1.5077  1.9584 -0.6605
  561TMC3    H1 8327   4.361   3.434  11.431 -0.2605  2.3822 -0.2569
  561TMC3    H2 8328   4.070   3.575  11.707  0.3606 -0.7036  1.3514
  561TMC3    C7 8329   4.299   3.617  11.600  0.5157  0.0942  0.4693
  561TMC3    C8 8330   3.942   3.331  11.731 -0.5026 -0.1543  0.2891
  561TMC3    O1 8331   4.293   3.645  11.719 -0.2070  0.0450  0.4839
  561TMC3    O2 8332   3.923   3.207  11.727 -0.1188  0.0582  0.1489
  562TMC3    C1 8333   0.997   4.460  16.068 -0.2319  0.2958  0.1723
  562TMC3    C2 8334   0.963   4.579  16.011 -0.0755 -0.4631  0.2403
  562TMC3    C3 8335   0.958   4.587  15.876 -0.6317 -0.3803 -0.0498
  562TMC3    C4 8336   1.020   4.347  15.997 -0.0676 -0.5088  0.9530
  562TMC3    C5 8337   1.034   4.369  15.856  0.1705 -0.2531 -0.4829
  562TMC3    C6 8338   0.986   4.486  15.800  0.4623  0.4418 -0.1244
  562TMC3     C 8339   1.019   4.454  16.209  0.0402 -0.4422  0.3719
  562TMC3     O 8340   1.076   4.554  16.245 -0.3574  0.1615 -0.3992
  562TMC3     H 8341   0.958   4.673  16.066 -0.0355 -0.0381 -0.4852
  562TMC3    H1 8342   1.063   4.260  16.045 -0.7681 -1.0430  0.6244
  562TMC3    H2 8343   0.963   4.492  15.694  1.9682 -1.6424 -0.5662
  562TMC3    C7 8344   1.028   4.257  15.769 -0.2602  0.4475  0.0401
  562TMC3    C8 8345   0.905   4.707  15.822 -1.1017  0.2504  0.3101
  562TMC3    O1 8346   1.035   4.279  15.650 -0.1975 -0.0342 -0.0723
  562TMC3    O2 8347   0.845   0.052  15.910 -0.5146 -0.2515 -0.3437
  563MPD2     C 8348   2.972   1.191  15.698  0.4044  0.3273  0.4597
  563MPD2    C1 8349   2.972   1.326  15.715 -0.6122 -0.0679  0.2285
  563MPD2    C2 8350   3.088   1.399  15.728 -0.1347  0.0600  0.0353
  563MPD2    C3 8351   3.205   1.331  15.751  0.4945  0.4247 -0.0547
  563MPD2    C4 8352   3.202   1.191  15.724  0.2358  0.4408 -0.0609
  563MPD2    C5 8353   3.087   1.119  15.697 -0.3254  0.0747 -0.3889
  563MPD2     H 8354   3.089   1.507  15.730 -0.7081  0.1097 -1.6544
  563MPD2    H1 8355   3.287   1.133  15.760  1.1591  1.0408 -1.2763
  563MPD2    H2 8356   2.879   1.135  15.692  1.0321 -0.5756 -0.8117
  563MPD2    H3 8357   3.090   1.011  15.690 -1.3370  0.1417 -1.8828
  563MPD2     N 8358   3.303   1.412  15.812 -0.3770 -1.0039  0.3570
  563MPD2    H5 8359   3.283   1.506  15.847  0.7099 -0.6859  0.1139
  563MPD2    N1 8360   2.843   1.388  15.733  0.0932  0.0863  0.2503
  563MPD2    H7 8361   2.758   1.333  15.734  0.6272 -0.7167  1.1262
  564TMC3    C1 8362   2.714   1.543  15.847  0.0542 -0.4668 -0.9362
  564TMC3    C2 8363   2.605   1.466  15.825 -0.0996  0.0627 -0.7579
  564TMC3    C3 8364   2.522   1.434  15.929 -0.5507  0.7182 -0.0742
  564TMC3    C4 8365   2.737   1.597  15.969  0.1421 -0.2039 -0.2989
  564TMC3    C5 8366   2.663   1.560  16.075 -0.2596 -0.3542 -0.2618
  564TMC3    C6 8367   2.550   1.484  16.058  0.5872  0.4229  0.2199
  564TMC3     C 8368   2.824   1.522  15.755 -0.0447  0.3280  0.5816
  564TMC3     O 8369   2.894   1.624  15.731  0.5643  1.0928 -0.3122
  564TMC3     H 8370   2.573   1.426  15.729 -0.6141  1.1893 -1.0548
  564TMC3    H1 8371   2.830   1.654  15.965  1.3218 -2.0951 -0.0412
  564TMC3    H2 8372   2.499   1.446  16.146  1.0263 -2.3498 -0.7149
  564TMC3    C7 8373   2.755   1.498  16.170  0.4513 -0.0189  0.0782
  564TMC3    C8 8374   2.485   1.296  15.934 -0.6743 -0.7907 -0.5096
  564TMC3    O1 8375   2.841   1.571  16.217 -0.2413  0.0860 -0.0686
  564TMC3    O2 8376   2.467   1.250  16.046  0.0921  0.1592 -0.0595
  565TMC3    C1 8377   3.913   2.571   9.399 -0.3513  0.2842  0.5467
  565TMC3    C2 8378   3.943   2.470   9.484 -0.7191  0.4534 -0.3862
  565TMC3    C3 8379   3.868   2.355   9.484  0.3507  0.3922  0.1262
  565TMC3    C4 8380   3.801   2.555   9.320 -0.5231 -0.1342  0.5050
  565TMC3    C5 8381   3.714   2.449   9.330 -0.0692  0.0938 -1.0068
  565TMC3    C6 8382   3.761   2.337   9.395 -0.1361  0.2509  0.1512
  565TMC3     C 8383   3.985   2.694   9.380 -0.4138  0.1089  0.2715
  565TMC3     O 8384   3.962   2.747   9.270  0.1449  0.3155 -0.1613
  565TMC3     H 8385   4.029   2.477   9.549 -0.7388  4.5179 -0.7859
  565TMC3    H1 8386   3.772   2.630   9.247 -1.5355 -1.8163 -0.8187
  565TMC3    H2 8387   3.684   2.263   9.416 -1.6127  1.5053 -0.7877
  565TMC3    C7 8388   3.588   2.447   9.260 -0.1064  0.4895  0.3224
  565TMC3    C8 8389   3.920   2.244   9.565  0.6530  1.5371  0.2559
  565TMC3    O1 8390   3.536   2.561   9.252  0.1862 -0.7662 -0.3788
  565TMC3    O2 8391   3.987   2.275   9.661  0.6344 -0.2977  0.8751
  566MPD2     C 8392   0.396   4.419  14.469 -0.4567 -0.6949  0.7535
  566MPD2    C1 8393   0.503   4.385  14.376  0.0675 -0.0948 -0.5023
  566MPD2    C2 8394   0.479   4.343  14.250  0.1612  0.0945 -0.2893
  566MPD2    C3 8395   0.349   4.321  14.208 -0.2045 -0.2931  0.1204
  566MPD2    C4 8396   0.246   4.348  14.293  0.1660  0.5016  0.5293
  566MPD2    C5 8397   0.268   4.403  14.413 -0.7724 -0.5969  0.7645
  566MPD2     H 8398   0.558   4.309  14.184  0.7738  1.1644 -0.1143
  566MPD2    H1 8399   0.144   4.337  14.256 -0.7084 -0.0730  3.1483
  566MPD2    H2 8400   0.408   4.463  14.568  0.8507  4.0163 -1.4981
  566MPD2    H3 8401   0.188   4.428  14.482  0.1894 -1.7604  2.2823
  566MPD2     N 8402   0.316   4.257  14.089  0.2063 -0.6097  0.5086
  566MPD2    H5 8403   0.218   4.253  14.063 -0.5293  1.5443  2.9346
  566MPD2    N1 8404   0.644   4.387  14.400  0.0200  0.3467  0.2101
  566MPD2    H7 8405   0.696   4.373  14.314 -1.2393 -0.5492 -0.4103
  567TMC3    C1 8406   0.839   4.412  14.512  0.3189 -1.0016 -0.5538
  567TMC3    C2 8407   0.884   4.434  14.381 -0.8547  0.0424  0.6979
  567TMC3    C3 8408   0.952   4.342  14.304 -0.3206  0.0943 -0.0701
  567TMC3    C4 8409   0.871   4.288  14.557  0.2440  0.7251 -0.8353
  567TMC3    C5 8410   0.942   4.198  14.481 -0.0958 -0.3717 -0.7424
  567TMC3    C6 8411   0.995   4.226  14.361  0.6567  0.0437  0.4187
  567TMC3     C 8412   0.698   4.431  14.519  0.1546  0.1083 -0.4963
  567TMC3     O 8413   0.657   4.433  14.635  0.6381  0.1933  0.4235
  567TMC3     H 8414   0.842   4.517  14.326  0.4527  0.0105 -0.3412
  567TMC3    H1 8415   0.827   4.270  14.654  1.9013  5.0143  0.7299
  567TMC3    H2 8416   1.064   4.158  14.313  0.4050 -0.4191  0.7190
  567TMC3    C7 8417   0.969   4.064  14.526  0.3296  0.0925  0.6756
  567TMC3    C8 8418   0.967   4.351  14.160  1.0300 -0.2162  0.0654
  567TMC3    O1 8419   0.994   3.977  14.445  0.3997 -0.2040 -0.1992
  567TMC3    O2 8420   0.899   4.430  14.096 -0.3719  0.6307 -0.7526
  568MPD2     C 8421   3.377   0.367  16.253  0.5772  0.3141 -0.0948
  568MPD2    C1 8422   3.299   0.406  16.358 -0.1521 -0.4621 -0.7573
  568MPD2    C2 8423   3.180   0.462  16.338  0.1041  0.3525 -0.2551
  568MPD2    C3 8424   3.126   0.477  16.211 -1.0606  0.2612  0.5156
  568MPD2    C4 8425   3.205   0.440  16.102 -0.1605 -0.2478 -0.1083
  568MPD2    C5 8426   3.333   0.389  16.120 -0.3907 -0.1150 -0.1673
  568MPD2     H 8427   3.132   0.505  16.425 -1.3640  0.0989 -0.9510
  568MPD2    H1 8428   3.179   0.443  15.997 -0.6448 -1.1318 -0.0190
  568MPD2    H2 8429   3.472   0.318  16.271 -0.2040 -1.1892 -0.0700
  568MPD2    H3 8430   3.402   0.376  16.039  1.4578  0.8316  1.2622
  568MPD2     N 8431   2.996   0.531  16.202  0.3288 -0.3977 -0.7022
  568MPD2    H5 8432   2.954   0.557  16.291  1.2674 -0.3634 -0.2664
  568MPD2    N1 8433   3.349   0.370  16.485  0.2772 -0.6451 -0.3144
  568MPD2    H7 8434   3.436   0.318  16.484  2.3567  2.8174  0.6809
  569TMC3    C1 8435   2.798   0.617  16.102  0.1011 -0.2840  0.0380
  569TMC3    C2 8436   2.769   0.702  16.208  1.3096 -0.0471  0.3925
  569TMC3    C3 8437   2.644   0.713  16.261  0.1753  0.5889  0.8326
  569TMC3    C4 8438   2.697   0.563  16.031 -0.4570  0.6243  0.7097
  569TMC3    C5 8439   2.565   0.578  16.077 -0.1690  0.3275 -0.2481
  569TMC3    C6 8440   2.545   0.650  16.194 -0.1689 -0.4524 -0.2714
  569TMC3     C 8441   2.922   0.537  16.088  0.3902  0.4679  0.3417
  569TMC3     O 8442   2.946   0.503  15.974  0.5466  0.4130  0.7387
  569TMC3     H 8443   2.854   0.744  16.260  2.4761 -1.5363 -0.2924
  569TMC3    H1 8444   2.714   0.503  15.942  0.7657 -0.5511  1.7465
  569TMC3    H2 8445   2.444   0.658  16.232 -0.3363 -2.4779 -0.2778
  569TMC3    C7 8446   2.479   0.620  15.970  0.3799 -0.1585 -0.1801
  569TMC3    C8 8447   2.594   0.851  16.292  0.5081 -0.2686  0.2356
  569TMC3    O1 8448   2.490   0.551  15.870 -0.3578  0.0726  0.1140
  569TMC3    O2 8449   2.494   0.881  16.228  0.0807  0.1575 -0.3931
  570TMC3    C1 8450   2.006   4.102  16.849 -0.3497 -0.1558 -1.0140
  570TMC3    C2 8451   2.041   4.138  16.720 -0.0424  0.0363 -0.5049
  570TMC3    C3 8452   2.153   4.212  16.693 -0.2007  0.7707  0.5265
  570TMC3    C4 8453   2.072   4.166  16.952  1.1569 -0.1952 -0.5069
  570TMC3    C5 8454   2.192   4.229  16.925 -0.1941  0.5192 -0.2311
  570TMC3    C6 8455   2.236   4.257  16.798  0.3045 -0.8738  0.1506
  570TMC3     C 8456   1.888   4.015  16.867 -0.7655  0.1437  0.2654
  570TMC3     O 8457   1.844   3.979  16.758  0.2971  0.7644 -0.2215
  570TMC3     H 8458   1.964   4.133  16.644  0.0241 -0.1977 -0.5551
  570TMC3    H1 8459   2.046   4.152  17.056  1.5348  3.5965  0.1001
  570TMC3    H2 8460   2.336   4.289  16.774 -0.4664  0.3103 -1.5107
  570TMC3    C7 8461   2.290   4.235  17.023  0.3578  0.3552 -1.0467
  570TMC3    C8 8462   2.212   4.216  16.563  0.6084 -0.2736  0.1785
  570TMC3    O1 8463   2.282   4.162  17.120 -0.2622 -0.4278  0.0031
  570TMC3    O2 8464   2.299   4.297  16.537 -0.2480 -0.1470  0.0908
  571MPD2     C 8465   0.158   0.793  16.926  0.1590  0.3647 -0.3253
  571MPD2    C1 8466   0.227   0.746  17.030 -0.4216 -0.0019 -0.9086
  571MPD2    C2 8467   0.176   0.767  17.160  0.1327  0.0219  0.0097
  571MPD2    C3 8468   0.071   0.853  17.181  0.5126  0.4486  0.8242
  571MPD2    C4 8469   0.011   0.906  17.073  0.0455  0.1558  0.4973
  571MPD2    C5 8470   0.053   0.880  16.943 -0.9792 -0.1027 -0.3988
  571MPD2     H 8471   0.235   0.734  17.245 -0.5073  3.3115  1.7151
  571MPD2    H1 8472   4.649   0.975  17.084 -0.2809 -0.2086  0.3033
  571MPD2    H2 8473   0.185   0.767  16.825 -1.6075  4.2225 -1.7639
  571MPD2    H3 8474   4.706   0.915  16.865  0.2963  1.9216 -0.5988
  571MPD2     N 8475   0.026   0.898  17.305  0.3339 -0.2701  0.6955
  571MPD2    H5 8476   4.667   0.961  17.301  1.8397  1.5786 -0.1429
  571MPD2    N1 8477   0.330   0.649  16.993 -0.3000 -0.0341  0.0067
  571MPD2    H7 8478   0.350   0.640  16.894 -0.4839 -1.0840  0.0660
  572TMC3    C1 8479   4.719   0.901  17.544  0.5427  0.2717 -0.0508
  572TMC3    C2 8480   0.021   0.833  17.661 -0.1112  0.4230  0.2793
  572TMC3    C3 8481   0.021   0.902   0.093  0.0667 -0.1752 -0.7205
  572TMC3    C4 8482   4.706   1.037  17.544 -0.1708  0.0559  0.2116
  572TMC3    C5 8483   0.007   1.099  17.666  0.3034  0.0913 -0.3962
  572TMC3    C6 8484   0.012   1.031   0.097 -0.4964 -0.3110 -0.5923
  572TMC3     C 8485   0.070   0.853  17.427  0.0123  0.2060 -0.0479
  572TMC3     O 8486   0.151   0.765  17.462 -0.3029  0.5373  0.2420
  572TMC3     H 8487   0.024   0.725  17.658 -0.6865  0.4621 -1.6346
  572TMC3    H1 8488   4.712   1.096  17.453 -1.6329 -0.8469 -0.4673
  572TMC3    H2 8489   0.030   1.090   0.185  0.6382  1.0144 -1.7155
  572TMC3    C7 8490   0.015   1.244  17.673  0.6686 -0.6937  1.0836
  572TMC3    C8 8491   0.038   0.814   0.215 -0.7551 -0.9742  0.5123
  572TMC3    O1 8492   4.669   1.310  17.597 -0.5675 -0.7488 -0.1591
  572TMC3    O2 8493   0.062   0.693   0.201  0.1082  0.6186  0.1482
  573MPD2     C 8494   1.416   1.107   1.076 -0.2037  0.3776 -0.6871
  573MPD2    C1 8495   1.520   1.206   1.074  0.3522  0.4511 -0.2271
  573MPD2    C2 8496   1.541   1.278   0.956  0.2072 -0.0904  0.2746
  573MPD2    C3 8497   1.465   1.256   0.841 -0.1506 -0.1402  0.6990
  573MPD2    C4 8498   1.371   1.157   0.850 -0.4581  0.9212 -0.2518
  573MPD2    C5 8499   1.353   1.077   0.961  0.3148  0.4906  0.1832
  573MPD2     H 8500   1.625   1.346   0.952  0.6717 -0.7682 -1.6311
  573MPD2    H1 8501   1.310   1.121   0.768  1.0768 -0.2691 -0.8735
  573MPD2    H2 8502   1.399   1.046   1.164  1.2544 -1.2368 -1.5355
  573MPD2    H3 8503   1.266   1.012   0.958  1.5548 -1.2354  1.6329
  573MPD2     N 8504   1.487   1.322   0.718  0.2714  0.0838 -0.3887
  573MPD2    H5 8505   1.450   1.281   0.632  3.7801  1.0336 -2.3330
  573MPD2    N1 8506   1.586   1.232   1.197 -0.5137 -0.3903  0.9566
  573MPD2    H7 8507   1.549   1.200   1.285 -1.0572  2.0365  1.6133
  574TMC3    C1 8508   1.552   1.480   0.564  0.1834 -0.4334  0.5102
  574TMC3    C2 8509   1.428   1.471   0.510 -0.6479 -0.0492 -0.0440
  574TMC3    C3 8510   1.407   1.538   0.391  0.0942  0.0906 -0.2960
  574TMC3    C4 8511   1.657   1.552   0.511  0.1709 -0.0979 -0.1424
  574TMC3    C5 8512   1.628   1.622   0.403 -0.3810  0.1217 -0.1770
  574TMC3    C6 8513   1.503   1.630   0.341 -0.3202  0.5346  0.9627
  574TMC3     C 8514   1.568   1.429   0.702  0.6238  0.0177  0.5676
  574TMC3     O 8515   1.659   1.472   0.770  0.3636 -0.4977  0.1946
  574TMC3     H 8516   1.351   1.409   0.554 -1.5259  0.1483 -1.2843
  574TMC3    H1 8517   1.743   1.567   0.576 -0.1314  0.4253  0.1411
  574TMC3    H2 8518   1.493   1.659   0.237  0.3232 -1.7460  0.2657
  574TMC3    C7 8519   1.737   1.648   0.319 -0.4848  0.6265 -0.1801
  574TMC3    C8 8520   1.275   1.520   0.336  0.2240 -0.0102  0.0826
  574TMC3    O1 8521   1.710   1.717   0.221 -0.5287 -0.3893 -0.5982
  574TMC3    O2 8522   1.186   1.472   0.403 -0.2577 -0.3262  0.8628
  575TMC3    C1 8523   4.183   1.917  10.313  0.0444 -0.1303  0.0906
  575TMC3    C2 8524   4.255   1.800  10.329 -0.0573  0.5565  0.6361
  575TMC3    C3 8525   4.261   1.718  10.225 -0.8154  0.5586 -0.2774
  575TMC3    C4 8526   4.103   1.937  10.206  0.1720  0.4358  0.0105
  575TMC3    C5 8527   4.117   1.860  10.099  0.0347  0.6775  0.3027
  575TMC3    C6 8528   4.196   1.743  10.104 -0.0582  0.7785 -0.4001
  575TMC3     C 8529   4.160   2.007  10.425 -0.4312  0.9981  0.2649
  575TMC3     O 8530   4.122   2.118  10.397  0.8450  0.2499 -0.1594
  575TMC3     H 8531   4.316   1.785  10.417  1.2124  1.0591 -0.1564
  575TMC3    H1 8532   4.051   2.030  10.186  1.0043  0.9421  0.2149
  575TMC3    H2 8533   4.210   1.676  10.020  0.1230 -1.5536  1.4855
  575TMC3    C7 8534   4.080   1.921   9.971  0.4037  0.0973  0.3025
  575TMC3    C8 8535   4.351   1.603  10.240 -0.6146  0.4557  0.5714
  575TMC3    O1 8536   4.076   2.043   9.964  0.0832 -0.0970  0.2865
  575TMC3    O2 8537   4.449   1.623  10.312 -0.6974  0.2994 -0.3092
  576MPD2     C 8538   3.232   4.003  12.784  0.3983  0.2913 -0.6236
  576MPD2    C1 8539   3.311   4.090  12.706  0.1564 -0.5159  0.4799
  576MPD2    C2 8540   3.342   4.219  12.756  1.1891 -0.1774  0.1156
  576MPD2    C3 8541   3.296   4.256  12.883  0.6527 -0.1590 -0.7364
  576MPD2    C4 8542   3.214   4.167  12.952  0.3132  0.2284 -0.0324
  576MPD2    C5 8543   3.180   4.043  12.904 -0.3285 -0.0128 -0.4471
  576MPD2     H 8544   3.410   4.287  12.706 -0.5502  0.0788 -1.8654
  576MPD2    H1 8545   3.173   4.200  13.047  0.3565  1.3073 -0.3942
  576MPD2    H2 8546   3.204   3.903  12.753 -1.1518  0.5319 -0.0163
  576MPD2    H3 8547   3.128   3.974  12.971 -1.6356 -0.3470 -1.8007
  576MPD2     N 8548   3.323   4.386  12.928  0.5802  0.1162  0.1326
  576MPD2    H5 8549   3.343   4.464  12.867 -1.1631  1.1321  0.8510
  576MPD2    N1 8550   3.358   4.046  12.577 -0.3494 -0.0770  0.3916
  576MPD2    H7 8551   3.425   4.106  12.531  0.5049 -1.2302  0.1283
  577TMC3    C1 8552   3.402   3.914  12.394 -0.1225  0.5351  0.1391
  577TMC3    C2 8553   3.410   3.781  12.362  0.2734  0.9887 -0.4224
  577TMC3    C3 8554   3.423   3.743  12.235  0.2788 -0.5557  0.5754
  577TMC3    C4 8555   3.401   4.009  12.297  0.9333  1.0913  0.0425
  577TMC3    C5 8556   3.416   3.969  12.172  0.2347  0.4402 -0.2438
  577TMC3    C6 8557   3.428   3.838  12.136  0.4429  0.0704  0.6877
  577TMC3     C 8558   3.324   3.932  12.513  0.2246  0.7910  0.9219
  577TMC3     O 8559   3.239   3.853  12.544  0.2561 -0.5869  0.1156
  577TMC3     H 8560   3.414   3.706  12.440 -1.4771  1.8595  0.4994
  577TMC3    H1 8561   3.391   4.114  12.322  1.7093  1.2006 -0.1243
  577TMC3    H2 8562   3.424   3.803  12.033 -1.6591  0.1937  0.7328
  577TMC3    C7 8563   3.446   4.068  12.072 -0.2249 -0.2303  0.1425
  577TMC3    C8 8564   3.448   3.609  12.192  0.3628  0.3802 -0.4748
  577TMC3    O1 8565   3.476   4.178  12.109 -0.1724  0.4936  0.3825
  577TMC3    O2 8566   3.405   3.524  12.270 -0.5060  0.4941  0.0418
  578MPD2     C 8567   2.033   3.958   1.384  0.3107 -0.2077 -0.3662
  578MPD2    C1 8568   2.041   3.870   1.280 -0.0685 -0.4231  0.2161
  578MPD2    C2 8569   2.093   3.742   1.302 -0.4781  0.2814 -0.2812
  578MPD2    C3 8570   2.133   3.705   1.429  0.2085 -0.9014  0.9489
  578MPD2    C4 8571   2.121   3.802   1.528  0.5066  0.0656 -0.4242
  578MPD2    C5 8572   2.084   3.927   1.506  0.5314  0.5301 -0.1962
  578MPD2     H 8573   2.114   3.677   1.219 -0.2381  1.3097 -1.0326
  578MPD2    H1 8574   2.129   3.778   1.634  0.6995  0.7845 -0.2781
  578MPD2    H2 8575   1.983   4.054   1.391 -0.9210 -0.8749  0.0684
  578MPD2    H3 8576   2.082   3.990   1.595  0.8181  1.1638 -0.6386
  578MPD2     N 8577   2.180   3.578   1.454  0.3294  0.0111 -0.3560
  578MPD2    H5 8578   2.163   3.511   1.379 -0.0222  0.4169 -0.6364
  578MPD2    N1 8579   1.995   3.918   1.155  0.4687  0.5505 -0.4564
  578MPD2    H7 8580   1.975   4.018   1.155 -0.1195  0.4225  2.2630
  579TMC3    C1 8581   2.339   3.421   1.547 -0.1216 -0.1876 -0.3908
  579TMC3    C2 8582   2.468   3.424   1.588 -0.0754  0.8645  0.4513
  579TMC3    C3 8583   2.553   3.321   1.559  0.5802 -0.3646 -1.0638
  579TMC3    C4 8584   2.289   3.317   1.478  0.7862  0.3918  0.0392
  579TMC3    C5 8585   2.374   3.214   1.446  0.7282  0.0195 -0.1612
  579TMC3    C6 8586   2.502   3.210   1.500  1.1601 -0.0382 -0.3827
  579TMC3     C 8587   2.253   3.537   1.565 -0.2497  0.6550 -0.2277
  579TMC3     O 8588   2.292   3.614   1.653 -0.5575 -0.3891  0.1743
  579TMC3     H 8589   2.511   3.512   1.633  0.3215  1.2473 -0.6639
  579TMC3    H1 8590   2.184   3.313   1.451  0.8253  0.1296 -0.0721
  579TMC3    H2 8591   2.551   3.116   1.519  0.0776 -0.6806 -0.7527
  579TMC3    C7 8592   2.350   3.113   1.349  0.5629 -0.7247 -0.0474
  579TMC3    C8 8593   2.679   3.308   1.633 -0.2784 -0.4894 -0.0097
  579TMC3    O1 8594   2.431   3.025   1.345 -0.3925 -0.0176  0.0746
  579TMC3    O2 8595   2.699   3.194   1.676 -0.0247  0.1933  0.5881
  580TMC3    C1 8596   1.635   3.081  12.169 -0.4287 -1.0307  0.1093
  580TMC3    C2 8597   1.676   3.193  12.090 -0.0898  0.4039 -0.2825
  580TMC3    C3 8598   1.790   3.173  12.014 -1.2822 -0.3978  0.5893
  580TMC3    C4 8599   1.717   2.981  12.201  0.0123 -0.0036  0.8693
  580TMC3    C5 8600   1.838   2.968  12.141  0.1452  1.0123 -0.4224
  580TMC3    C6 8601   1.876   3.063  12.043 -0.2762  0.3866  0.4429
  580TMC3     C 8602   1.519   3.088  12.254  0.0157 -0.5433  0.2913
  580TMC3     O 8603   1.534   3.035  12.363  0.0146  0.3249 -0.1762
  580TMC3     H 8604   1.615   3.280  12.069 -0.5054 -0.2235 -1.6544
  580TMC3    H1 8605   1.693   2.906  12.275  0.5842 -0.8597  0.1786
  580TMC3    H2 8606   1.967   3.053  11.984 -0.2154  3.4588  0.0206
  580TMC3    C7 8607   1.924   2.856  12.184  0.0092 -0.2749  0.3603
  580TMC3    C8 8608   1.800   3.251  11.897  0.2049  0.9288 -0.9565
  580TMC3    O1 8609   1.901   2.816  12.295 -0.5919  0.4070  0.6177
  580TMC3    O2 8610   1.747   3.359  11.896  0.2181 -0.4819  0.2820
  581MPD2     C 8611   4.115   2.854  15.167 -0.1186  0.1162  0.1853
  581MPD2    C1 8612   3.986   2.910  15.193  0.2370 -0.4560 -0.1393
  581MPD2    C2 8613   3.910   2.953  15.092  0.3869  0.3527 -0.5846
  581MPD2    C3 8614   3.951   2.953  14.960  0.9528  1.1039 -0.2397
  581MPD2    C4 8615   4.076   2.903  14.934  0.9533  0.7514  0.3751
  581MPD2    C5 8616   4.150   2.859  15.036 -0.0510  0.5491 -0.4039
  581MPD2     H 8617   3.811   2.988  15.120  0.1122 -0.9496  0.0974
  581MPD2    H1 8618   4.106   2.905  14.830 -2.5848  1.5370 -0.6163
  581MPD2    H2 8619   4.172   2.810  15.248 -0.5880 -2.3054 -0.7929
  581MPD2    H3 8620   4.251   2.823  15.021  0.6733  1.5819  2.1456
  581MPD2     N 8621   3.861   2.991  14.857 -0.1044  0.4904 -0.1817
  581MPD2    H5 8622   3.779   3.047  14.877 -1.8721 -1.4321 -2.1331
  581MPD2    N1 8623   3.949   2.916  15.332 -0.4936 -0.6953 -0.0834
  581MPD2    H7 8624   4.015   2.882  15.402 -0.2708  0.0281  0.0493
  582TMC3    C1 8625   3.808   2.956  15.533  0.0123 -0.5528  0.5664
  582TMC3    C2 8626   3.890   3.003  15.636  0.5348  0.5372 -0.4578
  582TMC3    C3 8627   3.834   3.024  15.759  0.1951  0.2014  0.2447
  582TMC3    C4 8628   3.670   2.941  15.555 -0.4634 -0.7411  0.6280
  582TMC3    C5 8629   3.626   2.990  15.678  0.6764 -0.3105 -0.1896
  582TMC3    C6 8630   3.702   3.022  15.780  0.1420  0.2273  0.0731
  582TMC3     C 8631   3.831   2.970  15.386 -0.1074 -0.3001  0.2125
  582TMC3     O 8632   3.747   3.029  15.317  0.3611  0.5350 -0.4235
  582TMC3     H 8633   3.994   3.031  15.624  1.4445 -1.7093  2.3949
  582TMC3    H1 8634   3.605   2.923  15.470 -0.6072  1.8861  0.1528
  582TMC3    H2 8635   3.668   3.044  15.881 -0.3163 -0.7906  0.1467
  582TMC3    C7 8636   3.517   3.082  15.656  0.4389 -0.7242  0.3645
  582TMC3    C8 8637   3.889   3.120  15.848 -0.0985 -0.0482  0.0602
  582TMC3    O1 8638   3.436   3.063  15.564 -0.6358 -0.0110  0.3612
  582TMC3    O2 8639   3.829   3.226  15.877 -0.2003  0.1582 -0.0873
  583MPD2     C 8640   4.449   4.301  16.759 -0.8845  0.5867  0.0195
  583MPD2    C1 8641   4.431   4.419  16.697 -0.6851 -0.1992  0.1053
  583MPD2    C2 8642   4.368   4.524  16.748  0.0860 -0.0314  0.3437
  583MPD2    C3 8643   4.345   4.522  16.887 -0.0841  0.1384  0.5348
  583MPD2    C4 8644   4.370   4.408  16.959  0.1017 -0.5226  0.0864
  583MPD2    C5 8645   4.412   4.301  16.888  0.5466 -0.8427 -0.2056
  583MPD2     H 8646   4.358   4.616  16.691 -1.6598 -0.9028 -0.7700
  583MPD2    H1 8647   4.353   4.392  17.065  0.3449 -1.7381 -0.0558
  583MPD2    H2 8648   4.488   4.210  16.715 -2.7170 -0.1724 -0.0443
  583MPD2    H3 8649   4.423   4.209  16.945 -1.4460 -1.6506 -1.1397
  583MPD2     N 8650   4.292   4.637  16.949  0.8241  0.1712 -0.1671
  583MPD2    H5 8651   4.267   4.709  16.882 -1.5537 -1.5898 -1.1268
  583MPD2    N1 8652   4.467   4.437  16.559 -0.0554 -0.2298 -0.5821
  583MPD2    H7 8653   4.465   4.529  16.517 -0.7707  0.3528  0.7003
  584TMC3    C1 8654   4.240   0.066  17.125 -0.0282 -0.2784  0.1169
  584TMC3    C2 8655   4.210   0.157  17.028  0.1133  0.0519  0.5678
  584TMC3    C3 8656   4.232   0.295  17.048  0.6836 -0.6525 -0.1932
  584TMC3    C4 8657   4.296   0.112  17.239 -0.0423 -0.0288 -0.2825
  584TMC3    C5 8658   4.300   0.246  17.272  0.4312 -0.3896  0.8485
  584TMC3    C6 8659   4.275   0.344  17.175 -0.2054 -0.1776  0.4075
  584TMC3     C 8660   4.271   4.652  17.087  0.5356  0.2803  0.0094
  584TMC3     O 8661   4.291   4.569  17.180  0.6546 -0.0751  0.2742
  584TMC3     H 8662   4.157   0.130  16.937 -1.2244 -0.0511  1.3776
  584TMC3    H1 8663   4.340   0.042  17.308  0.7043 -0.3017 -1.0295
  584TMC3    H2 8664   4.305   0.446  17.192 -0.0694 -0.0557 -0.5507
  584TMC3    C7 8665   4.299   0.269  17.412 -0.2209 -0.9333 -0.5366
  584TMC3    C8 8666   4.215   0.378  16.935  0.0033 -0.6408  0.0594
  584TMC3    O1 8667   4.349   0.182  17.485 -0.4531 -0.0797  0.2400
  584TMC3    O2 8668   4.211   0.314  16.832 -0.2732 -0.0091 -0.1284
  585MPD2     C 8669   3.421   3.842   0.935  0.1105  0.4734  0.2129
  585MPD2    C1 8670   3.474   3.873   0.810  0.2216 -0.0360  0.5108
  585MPD2    C2 8671   3.461   3.787   0.706 -0.7536  0.3239 -0.6253
  585MPD2    C3 8672   3.397   3.664   0.738  0.1463 -0.2822 -0.6204
  585MPD2    C4 8673   3.340   3.634   0.859 -0.0535  0.1871 -0.2268
  585MPD2    C5 8674   3.348   3.728   0.959 -0.3796  0.0262 -0.1700
  585MPD2     H 8675   3.500   3.818   0.609  1.3875 -2.3019 -0.6410
  585MPD2    H1 8676   3.289   3.541   0.883 -2.1944  1.7814  1.3758
  585MPD2    H2 8677   3.435   3.905   1.023  0.8501 -1.7462  1.6864
  585MPD2    H3 8678   3.313   3.697   1.057  1.7822  0.9615  0.9220
  585MPD2     N 8679   3.390   3.560   0.641  0.0320 -0.2523 -0.4796
  585MPD2    H5 8680   3.360   3.465   0.662  0.5836 -0.5487 -1.0045
  585MPD2    N1 8681   3.521   4.004   0.800  0.5484  0.3520  0.0700
  585MPD2    H7 8682   3.511   4.054   0.887  1.9694  0.9611 -0.1139
  586TMC3    C1 8683   3.435   3.425   0.456  0.0860 -0.2912  0.3645
  586TMC3    C2 8684   3.530   3.393   0.365 -0.1363 -0.3307 -0.6473
  586TMC3    C3 8685   3.523   3.270   0.305 -0.6071 -0.4262  0.6977
  586TMC3    C4 8686   3.329   3.342   0.484 -0.6845 -0.1881 -0.1701
  586TMC3    C5 8687   3.319   3.226   0.413 -0.2169 -0.5488  0.6265
  586TMC3    C6 8688   3.427   3.183   0.338  0.3263 -0.1193  0.3996
  586TMC3     C 8689   3.439   3.559   0.508  0.8266 -0.1515 -0.4966
  586TMC3     O 8690   3.480   3.655   0.445 -0.3707  0.1491  0.0291
  586TMC3     H 8691   3.603   3.472   0.351 -1.1130  0.7700  0.4485
  586TMC3    H1 8692   3.246   3.361   0.551  0.4785 -1.3615  1.5741
  586TMC3    H2 8693   3.409   3.094   0.279 -2.3064 -0.6208  1.9447
  586TMC3    C7 8694   3.193   3.154   0.391  0.0286 -0.3125  0.1720
  586TMC3    C8 8695   3.626   3.224   0.211  0.1202  0.0061 -0.0743
  586TMC3    O1 8696   3.210   3.053   0.319  0.0589  0.1169 -0.1145
  586TMC3    O2 8697   3.632   3.106   0.199 -0.0663 -0.5374 -0.2741
  587TMC3    C1 8698   1.043   1.814  16.569  0.1526 -0.2074 -0.4094
  587TMC3    C2 8699   1.039   1.941  16.514  0.1942  0.4732 -0.1009
  587TMC3    C3 8700   1.151   2.000  16.474 -0.1257  0.2432  0.6008
  587TMC3    C4 8701   1.155   1.743  16.588  0.2647 -0.3603 -0.5927
  587TMC3    C5 8702   1.273   1.817  16.557  0.4136  0.6134 -0.7436
  587TMC3    C6 8703   1.272   1.938  16.490  0.4130 -0.9003  0.3653
  587TMC3     C 8704   0.922   1.754  16.618 -0.8598 -0.4780 -0.4236
  587TMC3     O 8705   0.939   1.664  16.700 -0.5654  0.0954 -0.7390
  587TMC3     H 8706   0.950   2.002  16.506  0.4295  0.7734 -0.4020
  587TMC3    H1 8707   1.161   1.652  16.646  0.9997 -1.2622 -2.0765
  587TMC3    H2 8708   1.367   1.983  16.460  0.7299 -1.7328  0.1069
  587TMC3    C7 8709   1.400   1.761  16.612 -0.5674  0.3160 -0.6506
  587TMC3    C8 8710   1.149   2.116  16.394  0.5399  0.3700  0.0750
  587TMC3    O1 8711   1.393   1.650  16.664 -0.2018 -0.3990 -0.4514
  587TMC3    O2 8712   1.237   2.124  16.309 -0.6220  0.7127 -0.5323
  588TMC3    C1 8713   3.342   4.395   9.490 -0.0955 -0.1903  0.4460
  588TMC3    C2 8714   3.313   4.261   9.476  0.8614 -0.5467  0.0150
  588TMC3    C3 8715   3.407   4.162   9.478 -0.0055  0.0993  0.6321
  588TMC3    C4 8716   3.469   4.442   9.519  0.0635 -0.2564  0.4847
  588TMC3    C5 8717   3.558   4.338   9.527  0.4499 -0.6197 -0.2562
  588TMC3    C6 8718   3.538   4.204   9.497 -0.5911  0.5800  0.7311
  588TMC3     C 8719   3.244   4.498   9.495 -0.1876 -0.0196  0.6902
  588TMC3     O 8720   3.144   4.492   9.430 -0.0014  0.4702 -0.5871
  588TMC3     H 8721   3.209   4.231   9.470  0.3774  0.9556  0.7324
  588TMC3    H1 8722   3.503   4.544   9.504 -2.1042  0.0711 -2.2163
  588TMC3    H2 8723   3.621   4.135   9.487  0.9141  2.5005 -0.0383
  588TMC3    C7 8724   3.704   4.368   9.547 -0.0247  0.9103 -0.2903
  588TMC3    C8 8725   3.367   4.028   9.425 -0.6522  0.5369  0.5066
  588TMC3    O1 8726   3.795   4.300   9.497 -0.6348  0.4540 -0.2970
  588TMC3    O2 8727   3.269   4.006   9.351  0.4588 -0.4090  0.1847
  589TMC3    C1 8728   2.291   2.180   1.354  0.2590 -0.3711 -0.2448
  589TMC3    C2 8729   2.357   2.235   1.459 -0.2674  0.4437 -0.2500
  589TMC3    C3 8730   2.489   2.202   1.482 -0.8966 -0.6682 -1.0337
  589TMC3    C4 8731   2.349   2.083   1.277 -0.1023  0.4391 -0.1447
  589TMC3    C5 8732   2.483   2.052   1.298 -0.0909  0.3444  0.4163
  589TMC3    C6 8733   2.551   2.106   1.409  0.4740 -0.3577 -0.1338
  589TMC3     C 8734   2.147   2.203   1.340  0.5981 -0.3474 -0.4622
  589TMC3     O 8735   2.084   2.119   1.275 -0.1966  0.4719 -0.2259
  589TMC3     H 8736   2.310   2.303   1.529 -0.6268 -0.9198  0.8084
  589TMC3    H1 8737   2.283   2.030   1.209  2.2055 -1.1374 -1.1392
  589TMC3    H2 8738   2.648   2.064   1.433  1.7601  2.8847  0.2745
  589TMC3    C7 8739   2.521   1.919   1.242  0.0567  0.1850 -0.1719
  589TMC3    C8 8740   2.562   2.312   1.539  0.0279  0.4343 -0.1264
  589TMC3    O1 8741   2.443   1.850   1.177 -0.3093  0.8089  0.1501
  589TMC3    O2 8742   2.500   2.418   1.557 -0.4592 -0.3288 -0.1045
  590MPD2     C 8743   1.748   0.338  16.694  0.0940  0.6600  0.1978
  590MPD2    C1 8744   1.719   0.320  16.562 -0.1642 -0.0043  0.4817
  590MPD2    C2 8745   1.800   0.394  16.472  0.4992 -0.1239 -0.1074
  590MPD2    C3 8746   1.898   0.481  16.521 -0.3036 -0.1345 -0.3683
  590MPD2    C4 8747   1.922   0.489  16.653 -0.7559  0.0739  0.1069
  590MPD2    C5 8748   1.843   0.422  16.740 -0.1310 -0.0416  0.0806
  590MPD2     H 8749   1.794   0.380  16.365  0.3503  0.6026 -0.1939
  590MPD2    H1 8750   2.005   0.550  16.687 -0.3123  0.0567 -0.9563
  590MPD2    H2 8751   1.684   0.289  16.767  0.3182 -0.9327 -0.6627
  590MPD2    H3 8752   1.863   0.434  16.846 -1.4314  0.5865  0.2537
  590MPD2     N 8753   1.953   0.568  16.419 -0.3607  0.2392  0.4155
  590MPD2    H5 8754   1.927   0.544  16.324  1.2594  0.2774 -0.0438
  590MPD2    N1 8755   1.608   0.236  16.527 -0.6046  0.3780 -0.0267
  590MPD2    H7 8756   1.549   0.211  16.605  0.5991  0.6160  0.9609
  591TMC3    C1 8757   2.020   0.769  16.314  0.1825 -1.2752  0.0754
  591TMC3    C2 8758   2.084   0.711  16.204 -0.4481 -0.3649 -0.2486
  591TMC3    C3 8759   2.077   0.778  16.082  0.4005  0.1875  0.9149
  591TMC3    C4 8760   1.965   0.895  16.304 -0.2734  1.0656 -0.0199
  591TMC3    C5 8761   1.979   0.963  16.185 -0.5513  0.0467 -0.2814
  591TMC3    C6 8762   2.048   0.910  16.081  0.5288  1.2351  0.0647
  591TMC3     C 8763   1.992   0.699  16.434  0.3578  0.0468  0.0354
  591TMC3     O 8764   1.989   0.764  16.538 -0.1884  0.1894 -0.1652
  591TMC3     H 8765   2.109   0.606  16.216 -0.8366 -0.6386 -1.7878
  591TMC3    H1 8766   1.908   0.944  16.382 -2.0550  0.3617 -0.8610
  591TMC3    H2 8767   2.029   0.971  15.994  1.6301  0.9748 -0.3664
  591TMC3    C7 8768   1.899   1.082  16.170 -0.6290  0.0594 -0.1241
  591TMC3    C8 8769   2.104   0.706  15.966 -0.6745  1.0316  0.1401
  591TMC3    O1 8770   1.794   1.079  16.233 -0.3905 -0.0825 -0.9141
  591TMC3    O2 8771   2.158   0.598  15.984  0.2232  0.1745 -0.2723
  592MPD2     C 8772   2.373   2.169  11.052 -0.5958 -0.3484  0.0898
  592MPD2    C1 8773   2.381   2.233  11.176  0.2611  0.5222 -0.3235
  592MPD2    C2 8774   2.347   2.161  11.293 -0.1383  0.2274  0.3108
  592MPD2    C3 8775   2.318   2.029  11.284  0.3900  0.5328 -0.9090
  592MPD2    C4 8776   2.330   1.968  11.160 -0.1683  0.0251  0.1719
  592MPD2    C5 8777   2.350   2.034  11.045 -0.0655  0.0843 -0.1988
  592MPD2     H 8778   2.342   2.213  11.387 -1.3390 -1.4981  1.1952
  592MPD2    H1 8779   2.321   1.861  11.145  2.2977 -0.0765 -0.5274
  592MPD2    H2 8780   2.401   2.222  10.962  0.0910 -1.7529 -0.5161
  592MPD2    H3 8781   2.353   1.987  10.948  0.6533  0.6381 -0.4500
  592MPD2     N 8782   2.277   1.963  11.398 -1.0395  0.8009 -0.0513
  592MPD2    H5 8783   2.277   2.017  11.484 -1.0582 -0.3366  0.6626
  592MPD2    N1 8784   2.415   2.374  11.168  0.6239 -0.2272 -0.4112
  592MPD2    H7 8785   2.431   2.417  11.077  0.9632  1.1274  0.2801
  593TMC3    C1 8786   2.483   2.586  11.239 -0.8256 -0.0042  0.3928
  593TMC3    C2 8787   2.445   2.690  11.323 -0.1114  0.2702  0.8398
  593TMC3    C3 8788   2.510   2.811  11.299  0.4575 -0.0650  0.8710
  593TMC3    C4 8789   2.560   2.603  11.131 -0.0941  0.5329 -0.2662
  593TMC3    C5 8790   2.612   2.732  11.105 -0.0865  0.7179  0.1883
  593TMC3    C6 8791   2.598   2.831  11.196 -0.9161  0.3139 -0.8616
  593TMC3     C 8792   2.436   2.459  11.276 -0.5257 -0.3554 -0.0286
  593TMC3     O 8793   2.383   2.450  11.381  0.0804 -0.5477 -0.2796
  593TMC3     H 8794   2.401   2.662  11.418  1.5953  0.5722  1.7345
  593TMC3    H1 8795   2.599   2.516  11.079  1.1255  0.9582 -0.0614
  593TMC3    H2 8796   2.640   2.931  11.184 -1.8467  0.7888 -0.1620
  593TMC3    C7 8797   2.725   2.742  11.012 -0.3237 -0.2322 -0.1044
  593TMC3    C8 8798   2.515   2.903  11.411  0.0500 -0.1051 -0.3268
  593TMC3    O1 8799   2.815   2.820  11.035 -0.0178 -1.0793  0.0948
  593TMC3    O2 8800   2.403   2.934  11.446  0.6433 -0.5409  0.3595
  594MPD2     C 8801   1.038   1.498  14.006 -0.4844 -0.3016  0.0650
  594MPD2    C1 8802   1.037   1.516  14.144  0.0391 -0.2382 -0.4992
  594MPD2    C2 8803   1.120   1.618  14.193 -0.4899  0.3036  0.3639
  594MPD2    C3 8804   1.185   1.704  14.106  0.1380 -0.4213 -0.5348
  594MPD2    C4 8805   1.157   1.691  13.967  0.4870  0.5080  0.2349
  594MPD2    C5 8806   1.091   1.582  13.921  0.4538 -0.0682 -0.4943
  594MPD2     H 8807   1.152   1.628  14.296  0.2126 -0.0300  0.1794
  594MPD2    H1 8808   1.189   1.769  13.899 -1.4389  0.4824 -0.6882
  594MPD2    H2 8809   0.977   1.419  13.963 -0.5033 -2.4464  4.0513
  594MPD2    H3 8810   1.085   1.563  13.815 -0.2243  1.5253 -0.7419
  594MPD2     N 8811   1.258   1.808  14.163  0.2820 -0.3436  0.8335
  594MPD2    H5 8812   1.247   1.811  14.264 -1.1779  0.3885  0.6512
  594MPD2    N1 8813   0.964   1.429  14.224 -0.0988 -0.1571  0.7978
  594MPD2    H7 8814   0.912   1.352  14.185  0.4182 -0.6350  1.0547
  595TMC3    C1 8815   1.602   2.104  14.247 -0.4850 -0.2925  0.2292
  595TMC3    C2 8816   1.543   2.017  14.160  0.0051  0.0019  0.3689
  595TMC3    C3 8817   1.411   1.996  14.176  0.4584  0.6095 -0.6750
  595TMC3    C4 8818   1.539   2.148  14.360  0.6279  0.5802 -0.7818
  595TMC3    C5 8819   1.405   2.125  14.373 -0.1543 -0.6342  0.5781
  595TMC3    C6 8820   1.340   2.053  14.277 -0.2717  0.2316 -0.3326
  595TMC3     C 8821   1.744   2.087  14.264  0.4222  0.0361 -0.2287
  595TMC3     O 8822   1.779   2.048  14.373 -0.3831 -0.4223 -0.8518
  595TMC3     H 8823   1.590   1.978  14.071  1.7072 -0.5638  1.5160
  595TMC3    H1 8824   1.590   2.202  14.438 -0.8952 -0.2721  0.7984
  595TMC3    H2 8825   1.236   2.028  14.297 -0.1534 -0.6349 -0.7931
  595TMC3    C7 8826   1.343   2.116  14.507 -0.7649 -0.2666 -0.3952
  595TMC3    C8 8827   1.355   1.888  14.102  0.9213  0.8616  0.2420
  595TMC3    O1 8828   1.225   2.091  14.507 -0.3814 -0.1934  0.2580
  595TMC3    O2 8829   1.415   1.860  13.998  0.3069 -0.1468  0.6329
  596MPD2     C 8830   0.525   4.542  16.642  0.4307 -0.5419 -0.4543
  596MPD2    C1 8831   0.463   4.631  16.558  0.0317 -0.0734  0.7231
  596MPD2    C2 8832   0.476   4.617  16.422 -0.3059  0.1013  0.8745
  596MPD2    C3 8833   0.559   4.517  16.375  0.3470  0.2870 -0.2516
  596MPD2    C4 8834   0.624   4.435  16.463  0.2173 -0.1061 -0.1453
  596MPD2    C5 8835   0.599   4.444  16.591 -0.2454  0.0288  0.2509
  596MPD2     H 8836   0.432   4.696  16.361  1.4265  0.0220 -0.4896
  596MPD2    H1 8837   0.689   4.361  16.418  2.8098  0.1861  3.1527
  596MPD2    H2 8838   0.514   4.547  16.750 -1.9421  1.6732 -0.8129
  596MPD2    H3 8839   0.671   4.402  16.660 -0.0408 -1.0457 -0.6218
  596MPD2     N 8840   0.579   4.503  16.237  0.1600 -0.4952  0.1461
  596MPD2    H5 8841   0.627   4.415  16.217  1.5673  0.2555  0.2559
  596MPD2    N1 8842   0.373   0.010  16.597  0.1704 -0.2985  0.5909
  596MPD2    H7 8843   0.344   0.078  16.527  0.3466  0.3379  1.1400
  597TMC3    C1 8844   0.269   0.165  16.757 -0.1413  0.2324  0.0263
  597TMC3    C2 8845   0.237   0.234  16.647  0.1307 -0.2747  0.6243
  597TMC3    C3 8846   0.176   0.358  16.673  0.4539 -0.4296 -0.3281
  597TMC3    C4 8847   0.223   0.190  16.882 -0.7393 -0.8493  0.5910
  597TMC3    C5 8848   0.158   0.310  16.901  0.3455 -0.0878  0.3942
  597TMC3    C6 8849   0.147   0.400  16.801 -0.3006  0.6569 -0.3768
  597TMC3     C 8850   0.343   0.044  16.730 -0.5872  0.3243 -0.2754
  597TMC3     O 8851   0.377   4.708  16.831  0.2460  0.8971  0.0530
  597TMC3     H 8852   0.259   0.205  16.545 -1.6079 -2.0391  0.7459
  597TMC3    H1 8853   0.218   0.111  16.956 -0.3027  0.0398  1.5792
  597TMC3    H2 8854   0.108   0.500  16.815 -0.4368  0.5278  0.1731
  597TMC3    C7 8855   0.115   0.340  17.036  0.6126 -0.3780 -0.4537
  597TMC3    C8 8856   0.177   0.464  16.580  0.6213  0.0795  0.0577
  597TMC3    O1 8857   0.165   0.277  17.126  0.5278  0.5302 -0.3826
  597TMC3    O2 8858   0.078   0.537  16.580  0.1301  0.0519  0.2910
  598TMC3    C1 8859   2.728   1.166  15.150  0.7147  0.6518 -0.9510
  598TMC3    C2 8860   2.604   1.163  15.090 -0.4297  0.0181  0.0136
  598TMC3    C3 8861   2.582   1.218  14.964  0.2293  0.5738 -0.0681
  598TMC3    C4 8862   2.837   1.220  15.088 -0.2025  0.5384 -0.4050
  598TMC3    C5 8863   2.811   1.277  14.966  0.5003 -0.0187  0.5350
  598TMC3    C6 8864   2.688   1.285  14.909  0.5225  0.4101 -0.3042
  598TMC3     C 8865   2.758   1.090  15.271 -0.0776 -0.4579  0.2352
  598TMC3     O 8866   2.830   1.146  15.351 -0.5390 -0.4787 -0.1407
  598TMC3     H 8867   2.520   1.132  15.151  0.1259 -0.5880  0.4732
  598TMC3    H1 8868   2.936   1.214  15.130  0.8119  3.3133 -2.3983
  598TMC3    H2 8869   2.679   1.327  14.809 -0.2053 -1.5629 -1.0578
  598TMC3    C7 8870   2.919   1.327  14.887 -0.5667  0.2839 -0.8996
  598TMC3    C8 8871   2.462   1.212  14.891 -0.3331  0.4795 -0.6872
  598TMC3    O1 8872   2.901   1.326  14.768 -0.2871  0.2429  0.6789
  598TMC3    O2 8873   2.448   1.279  14.790 -0.1901  0.5619 -0.4314
  599MPD2     C 8874   2.605   3.670  16.378 -0.1408 -0.0272 -0.0516
  599MPD2    C1 8875   2.653   3.559  16.307  0.1557  0.0424 -0.7237
  599MPD2    C2 8876   2.657   3.440  16.383 -0.9472 -0.2669  0.7623
  599MPD2    C3 8877   2.600   3.421  16.511 -0.0178  0.8356  0.6203
  599MPD2    C4 8878   2.540   3.531  16.563 -0.6277  0.8714 -0.0429
  599MPD2    C5 8879   2.551   3.659  16.508  0.7810  0.5093 -0.7233
  599MPD2     H 8880   2.720   3.365  16.336 -3.5980 -2.0122 -0.0184
  599MPD2    H1 8881   2.493   3.527  16.660 -0.5041  1.7896  0.0597
  599MPD2    H2 8882   2.610   3.772  16.343 -0.6985 -0.2195 -0.6950
  599MPD2    H3 8883   2.512   3.750  16.550 -1.5305 -0.3506 -1.0011
  599MPD2     N 8884   2.593   3.297  16.575  0.1961 -0.1702  0.6478
  599MPD2    H5 8885   2.526   3.300  16.651 -0.0291 -2.4552  0.5569
  599MPD2    N1 8886   2.715   3.584  16.176  0.4552  0.8371  0.7463
  599MPD2    H7 8887   2.700   3.671  16.125 -0.1106  1.1529  1.4600
  600TMC3    C1 8888   2.704   3.105  16.653 -0.6725  0.4784  0.5427
  600TMC3    C2 8889   2.602   3.064  16.736  0.4206  0.3225 -0.2082
  600TMC3    C3 8890   2.623   2.978  16.832 -0.4461  0.1568  0.8792
  600TMC3    C4 8891   2.830   3.070  16.684  0.2323  0.2708 -0.3180
  600TMC3    C5 8892   2.852   2.994  16.793  0.3972  0.2234  0.0413
  600TMC3    C6 8893   2.752   2.939  16.869  0.0330 -0.5307  0.0323
  600TMC3     C 8894   2.678   3.192  16.545  0.1658  0.2978 -0.6302
  600TMC3     O 8895   2.752   3.166  16.454  0.4334  0.6680  0.3243
  600TMC3     H 8896   2.502   3.100  16.715  0.2950  0.7706  1.1633
  600TMC3    H1 8897   2.904   3.103  16.612  0.1918  0.3998 -0.2996
  600TMC3    H2 8898   2.780   2.873  16.949 -0.2442 -0.0315  0.5391
  600TMC3    C7 8899   2.955   3.056  16.878  0.2482 -0.1042  0.1221
  600TMC3    C8 8900   2.513   2.942  16.918  0.6211  0.1565 -0.3196
  600TMC3    O1 8901   2.928   3.064  17.001  0.1868  0.4551  0.4525
  600TMC3    O2 8902   2.545   2.871  17.012  0.1294 -0.2600 -0.5489
  601MPD2     C 8903   0.357   1.613   0.080  0.4030  0.5670  0.2097
  601MPD2    C1 8904   0.251   1.609  17.672 -0.1775  0.0184  0.5248
  601MPD2    C2 8905   0.175   1.495  17.660 -0.9565  0.0034  0.0960
  601MPD2    C3 8906   0.198   1.393   0.064 -0.0447 -0.5510  0.1187
  601MPD2    C4 8907   0.301   1.396   0.152  0.1396  0.0077 -0.2959
  601MPD2    C5 8908   0.380   1.507   0.166 -0.4361 -0.9555  0.3185
  601MPD2     H 8909   0.091   1.487  17.592 -1.8323 -0.5946  1.2519
  601MPD2    H1 8910   0.320   1.316   0.223  1.3321 -0.0425 -0.6783
  601MPD2    H2 8911   0.427   1.695   0.089 -0.6442  1.3863  0.9563
  601MPD2    H3 8912   0.469   1.506   0.228 -0.8231 -0.5312  0.8788
  601MPD2     N 8913   0.124   1.275   0.062 -0.7374 -0.6175  0.0995
  601MPD2    H5 8914   0.174   1.200   0.110  1.0016  0.2280 -0.3874
  601MPD2    N1 8915   0.209   1.721  17.593  0.0522 -0.3783 -0.1761
  601MPD2    H7 8916   0.157   1.704  17.507  1.3507  1.5500 -1.3436
  602TMC3    C1 8917   0.232   1.930  17.477 -0.5035  0.3852 -0.0781
  602TMC3    C2 8918   0.324   2.009  17.426  0.4250 -0.4099  0.4323
  602TMC3    C3 8919   0.275   2.104  17.344  0.1881  0.6592  0.2150
  602TMC3    C4 8920   0.093   1.935  17.448 -0.0972 -0.5069  0.2801
  602TMC3    C5 8921   0.052   2.021  17.355 -0.3352 -0.2747  0.2086
  602TMC3    C6 8922   0.141   2.115  17.306 -0.0693  0.1728 -0.3069
  602TMC3     C 8923   0.273   1.843  17.589  0.2470  0.6639  0.1439
  602TMC3     O 8924   0.365   1.895  17.654  0.0367 -0.7529 -0.2123
  602TMC3     H 8925   0.430   2.002  17.451 -0.0977 -3.4804  1.7474
  602TMC3    H1 8926   0.022   1.862  17.485 -0.2449 -0.9598 -0.8875
  602TMC3    H2 8927   0.102   2.192  17.241 -1.2540 -0.1324  0.0353
  602TMC3    C7 8928   4.637   2.018  17.297 -0.4365  0.9237 -0.0732
  602TMC3    C8 8929   0.370   2.161  17.241  0.3161 -0.2580 -0.0283
  602TMC3    O1 8930   4.548   1.963  17.362  0.4867  0.2722 -0.3323
  602TMC3    O2 8931   0.482   2.109  17.223  0.1146 -0.2466  0.3012
  603TMC3    C1 8932   3.749   1.587  10.613 -0.5733  0.0757 -0.3270
  603TMC3    C2 8933   3.790   1.648  10.737  0.0305  0.1851 -0.0064
  603TMC3    C3 8934   3.787   1.781  10.746  0.5634  0.1857 -0.2534
  603TMC3    C4 8935   3.722   1.665  10.503 -0.1953 -0.0160 -0.2768
  603TMC3    C5 8936   3.757   1.798  10.512  0.0851 -0.2538  0.2456
  603TMC3    C6 8937   3.793   1.857  10.629  0.1269  0.0221  0.7211
  603TMC3     C 8938   3.695   1.446  10.615 -0.4275  0.6502 -0.1174
  603TMC3     O 8939   3.624   1.407  10.524 -0.4705 -0.7902  0.3837
  603TMC3     H 8940   3.798   1.587  10.826  1.4126 -2.7218 -2.0988
  603TMC3    H1 8941   3.705   1.611  10.410 -1.7593 -0.3275  0.2018
  603TMC3    H2 8942   3.821   1.961  10.642  2.2318 -0.8159  2.7495
  603TMC3    C7 8943   3.739   1.878  10.391  0.1608 -0.1290 -0.1209
  603TMC3    C8 8944   3.809   1.849  10.871 -0.0930  0.0214  0.6405
  603TMC3    O1 8945   3.779   1.994  10.395 -0.4112 -0.3054  0.1355
  603TMC3    O2 8946   3.862   1.775  10.955 -0.1757 -0.4275  0.0416
  604MPD2     C 8947   4.085   1.053  16.240 -0.6486  0.1922  0.0018
  604MPD2    C1 8948   3.964   1.060  16.159 -0.0987  0.2894 -0.5830
  604MPD2    C2 8949   3.964   1.013  16.031  0.0820  0.1201 -0.2032
  604MPD2    C3 8950   4.089   0.976  15.976 -0.4485 -0.8687  0.0262
  604MPD2    C4 8951   4.203   0.961  16.052  0.3819 -0.3173  0.3305
  604MPD2    C5 8952   4.206   1.011  16.179  0.3237 -0.3262 -0.2130
  604MPD2     H 8953   3.877   1.020  15.966  0.1170 -1.7491 -0.4538
  604MPD2    H1 8954   4.300   0.936  16.010  0.3453  1.8801 -1.0372
  604MPD2    H2 8955   4.094   1.092  16.341 -1.1856  0.2947  0.0086
  604MPD2    H3 8956   4.294   1.002  16.241 -0.1974  0.6499  0.6679
  604MPD2     N 8957   4.094   0.953  15.833 -0.4663 -0.1044  0.3715
  604MPD2    H5 8958   4.009   0.977  15.784 -0.2509  0.5694  0.3255
  604MPD2    N1 8959   3.845   1.126  16.209  0.3160 -0.1001  0.6225
  604MPD2    H7 8960   3.850   1.164  16.302  0.2984  0.8329  0.2425
  605TMC3    C1 8961   3.639   1.227  16.226 -0.2287 -0.3905  0.3141
  605TMC3    C2 8962   3.702   1.337  16.279 -0.2303  0.0507  0.3467
  605TMC3    C3 8963   3.622   1.437  16.317  0.1754  0.3794 -0.3989
  605TMC3    C4 8964   3.503   1.220  16.212 -0.3687 -0.9240 -0.6188
  605TMC3    C5 8965   3.422   1.321  16.264  0.7804 -0.4321  0.7621
  605TMC3    C6 8966   3.481   1.429  16.316 -0.3656  0.4889  1.1067
  605TMC3     C 8967   3.721   1.136  16.148  0.3026  0.2136 -0.2522
  605TMC3     O 8968   3.679   1.097  16.038  0.9629 -0.2688  0.1771
  605TMC3     H 8969   3.810   1.342  16.294  0.2692 -1.3715 -2.7469
  605TMC3    H1 8970   3.461   1.133  16.164 -4.5749 -0.2113  1.6987
  605TMC3    H2 8971   3.422   1.507  16.361 -2.6314 -0.3751 -0.3839
  605TMC3    C7 8972   3.274   1.326  16.261  0.1910 -0.0475 -0.0691
  605TMC3    C8 8973   3.688   1.558  16.373 -0.0826 -1.0880  0.6677
  605TMC3    O1 8974   3.216   1.413  16.320  0.3304 -0.1931  0.0936
  605TMC3    O2 8975   3.612   1.651  16.401  0.0521  0.2453  0.7141
  606TMC3    C1 8976   0.544   3.859   0.028  0.1586  0.3384 -0.2169
  606TMC3    C2 8977   0.637   3.874   0.124 -0.6611  0.1112 -0.4890
  606TMC3    C3 8978   0.652   3.778   0.217  0.6502 -0.2835  0.5803
  606TMC3    C4 8979   0.472   3.745   0.021 -0.5827 -0.3951 -0.0980
  606TMC3    C5 8980   0.491   3.650   0.117 -0.5084  0.0101 -0.4799
  606TMC3    C6 8981   0.584   3.667   0.213 -0.3196  0.5411  0.5380
  606TMC3     C 8982   0.510   3.972  17.630  0.1725  0.7778 -0.8572
  606TMC3     O 8983   0.594   4.061  17.624 -0.3713 -0.6362 -0.3530
  606TMC3     H 8984   0.689   3.969   0.128  0.5834 -0.6004  0.1864
  606TMC3    H1 8985   0.404   3.728  17.624 -2.4667  0.4406  1.2890
  606TMC3    H2 8986   0.610   3.583   0.276  0.6221  0.4801  0.0558
  606TMC3    C7 8987   0.406   3.529   0.119  0.4777  0.2384 -0.6798
  606TMC3    C8 8988   0.772   3.793   0.302  0.3206 -0.1036 -0.2974
  606TMC3    O1 8989   0.417   3.450   0.210 -0.1952 -0.2322  0.3974
  606TMC3    O2 8990   0.846   3.878   0.255  0.1486  0.2827  0.0309
  607MPD2     C 8991   2.750   2.303  11.274 -0.0110  0.4352  0.5952
  607MPD2    C1 8992   2.821   2.397  11.348  0.4334  0.1454  0.0247
  607MPD2    C2 8993   2.806   2.395  11.480  0.4756 -0.1926 -0.5779
  607MPD2    C3 8994   2.731   2.309  11.546 -0.0082 -0.1153  0.0278
  607MPD2    C4 8995   2.659   2.214  11.479 -0.0779  0.0470  0.0501
  607MPD2    C5 8996   2.666   2.219  11.344  0.1664 -0.7855 -0.4389
  607MPD2     H 8997   2.871   2.467  11.530  0.3393  0.6385 -1.6051
  607MPD2    H1 8998   2.603   2.132  11.523 -0.1455  1.0024  1.7293
  607MPD2    H2 8999   2.760   2.295  11.166  1.0938  1.9224  0.5909
  607MPD2    H3 9000   2.608   2.146  11.289  2.2002 -0.3924 -3.1228
  607MPD2     N 9001   2.752   2.308  11.687 -0.2533  0.2302  0.2231
  607MPD2    H5 9002   2.813   2.376  11.731 -1.0839  2.1189 -1.5673
  607MPD2    N1 9003   2.922   2.476  11.288  0.1362 -0.1750 -0.2194
  607MPD2    H7 9004   2.962   2.542  11.353  1.2705  1.1799 -2.2940
  608TMC3    C1 9005   3.101   2.535  11.142 -0.2788 -0.7272  0.2453
  608TMC3    C2 9006   3.187   2.526  11.244  0.3789 -0.6537  0.3070
  608TMC3    C3 9007   3.321   2.562  11.225 -0.1100 -0.4441 -0.4824
  608TMC3    C4 9008   3.139   2.584  11.020 -0.3055  0.3228  0.4915
  608TMC3    C5 9009   3.269   2.615  11.000 -0.1646  0.0862 -0.0341
  608TMC3    C6 9010   3.360   2.614  11.106 -0.2667 -0.3015  0.5528
  608TMC3     C 9011   2.967   2.468  11.158 -0.0235  0.6459  0.2343
  608TMC3     O 9012   2.917   2.414  11.058 -0.3027  0.5086  0.0566
  608TMC3     H 9013   3.158   2.475  11.335 -2.0869 -0.1044 -0.1738
  608TMC3    H1 9014   3.067   2.565  10.941  0.6409  0.1604 -0.3334
  608TMC3    H2 9015   3.466   2.634  11.104 -0.2557 -0.5238 -0.8825
  608TMC3    C7 9016   3.322   2.597  10.868 -0.1408  0.1583  1.0146
  608TMC3    C8 9017   3.413   2.528  11.329  0.3887  0.0919 -0.2611
  608TMC3    O1 9018   3.248   2.548  10.782  0.3689  0.2912 -0.0691
  608TMC3    O2 9019   3.530   2.502  11.302 -0.5488 -0.1076  0.3942
  609TMC3    C1 9020   1.749   0.239   9.354 -0.0168 -0.7961  0.2152
  609TMC3    C2 9021   1.662   0.157   9.295 -0.9090  0.3229  0.0607
  609TMC3    C3 9022   1.696   0.023   9.279 -0.7095 -0.3720 -0.2655
  609TMC3    C4 9023   1.864   0.186   9.418  0.1440 -0.3787  0.1290
  609TMC3    C5 9024   1.896   0.063   9.394  0.3993  0.0902 -0.2733
  609TMC3    C6 9025   1.817   4.696   9.327 -0.2583  0.3446  0.6392
  609TMC3     C 9026   1.715   0.379   9.365  0.5740 -0.6383 -0.3356
  609TMC3     O 9027   1.616   0.424   9.302  0.3426  0.2492 -0.2179
  609TMC3     H 9028   1.576   0.199   9.245 -0.7278  0.7759  0.1331
  609TMC3    H1 9029   1.939   0.242   9.474  3.0250 -3.1138 -0.9885
  609TMC3    H2 9030   1.845   4.591   9.325 -1.5356  0.0098  0.4023
  609TMC3    C7 9031   2.013   0.016   9.461  0.4346  0.2346 -0.7192
  609TMC3    C8 9032   1.602   4.657   9.204  0.0835 -0.1527 -0.1100
  609TMC3    O1 9033   2.042   0.064   9.571  0.2315 -0.4810  0.8982
  609TMC3    O2 9034   1.499   4.711   9.163  0.7012  0.0528  0.1728
  610TMC3    C1 9035   3.423   1.938  12.445 -0.6137  0.7909 -0.3378
  610TMC3    C2 9036   3.516   1.906  12.354 -0.6014 -0.3615  0.2008
  610TMC3    C3 9037   3.589   1.790  12.381 -0.3758  0.4769  0.0035
  610TMC3    C4 9038   3.413   1.870  12.560 -0.2764 -0.4076 -0.2927
  610TMC3    C5 9039   3.497   1.764  12.584  0.1712 -1.0056 -0.6666
  610TMC3    C6 9040   3.585   1.724  12.493  0.6647 -0.2438  0.6198
  610TMC3     C 9041   3.313   2.023  12.409  0.4660  0.5671  0.0373
  610TMC3     O 9042   3.343   2.118  12.340 -0.2114  0.0810  0.1627
  610TMC3     H 9043   3.523   1.964  12.262  1.3351  0.8323  1.1011
  610TMC3    H1 9044   3.345   1.916  12.631  1.6821  1.1408  0.6048
  610TMC3    H2 9045   3.655   1.642  12.506  1.4397  0.6186  1.9001
  610TMC3    C7 9046   3.521   1.724  12.722  0.2206 -0.1235 -0.9412
  610TMC3    C8 9047   3.704   1.761  12.297  0.2207 -0.2662 -0.3470
  610TMC3    O1 9048   3.627   1.664  12.744 -0.0663 -0.1515 -0.2432
  610TMC3    O2 9049   3.719   1.644  12.258 -0.1851 -0.3235 -0.4896
  611MPD2     C 9050   2.770   1.366  10.215  0.0718 -0.4366 -0.4531
  611MPD2    C1 9051   2.683   1.450  10.142  0.2884  0.0172 -0.7016
  611MPD2    C2 9052   2.742   1.528  10.043 -0.2071  0.7089  0.3212
  611MPD2    C3 9053   2.877   1.534  10.034  0.2412  0.2628 -0.9324
  611MPD2    C4 9054   2.957   1.453  10.105 -0.2759  0.0426 -0.3731
  611MPD2    C5 9055   2.904   1.363  10.189  0.8196 -0.8353  0.0723
  611MPD2     H 9056   2.685   1.604   9.990  0.8885  2.5327  1.7576
  611MPD2    H1 9057   3.065   1.448  10.098 -0.1303  2.0214  0.6087
  611MPD2    H2 9058   2.734   1.289  10.283  1.5748 -1.0589 -0.3661
  611MPD2    H3 9059   2.965   1.294  10.247 -1.1323 -1.3403  1.5254
  611MPD2     N 9060   2.948   1.613   9.938  0.1016 -0.2747  0.0047
  611MPD2    H5 9061   3.049   1.604   9.939  0.0577 -0.5732  1.6010
  611MPD2    N1 9062   2.550   1.440  10.178  0.9287  0.3129  0.0510
  611MPD2    H7 9063   2.527   1.364  10.241 -1.0760  0.8357 -0.0280
  612TMC3    C1 9064   3.006   1.758   9.770 -0.2635 -0.7271 -0.4355
  612TMC3    C2 9065   3.127   1.784   9.824 -0.7789  0.1026  0.4149
  612TMC3    C3 9066   3.210   1.864   9.748  0.2507 -1.0723  0.4111
  612TMC3    C4 9067   2.968   1.795   9.646 -0.5365 -0.7807  0.8620
  612TMC3    C5 9068   3.051   1.873   9.578 -0.4266  0.0534 -0.3960
  612TMC3    C6 9069   3.176   1.902   9.620 -1.1957 -0.2316 -0.1580
  612TMC3     C 9070   2.896   1.692   9.842 -0.8905 -0.7984 -0.2250
  612TMC3     O 9071   2.780   1.690   9.794 -0.1675 -0.5117 -0.0421
  612TMC3     H 9072   3.139   1.759   9.929  1.5342 -0.0552  0.1094
  612TMC3    H1 9073   2.874   1.756   9.608 -1.4555  1.0031  1.3341
  612TMC3    H2 9074   3.237   1.961   9.552 -3.1470 -0.7939 -2.3946
  612TMC3    C7 9075   3.026   1.903   9.438 -0.2467  0.2790 -0.2954
  612TMC3    C8 9076   3.348   1.902   9.784 -0.5182 -0.3057  0.4042
  612TMC3    O1 9077   3.078   1.999   9.382 -0.3961  0.2201 -0.2047
  612TMC3    O2 9078   3.401   1.982   9.705 -0.1244  0.7268  0.0113
  613MPD2     C 9079   1.210   4.098  16.554 -0.1907  0.4267 -0.4141
  613MPD2    C1 9080   1.231   4.061  16.424 -0.5322 -0.2291 -0.5435
  613MPD2    C2 9081   1.190   3.945  16.372  0.1508 -0.7146  0.0708
  613MPD2    C3 9082   1.126   3.859  16.452 -0.1106  0.3095  0.1832
  613MPD2    C4 9083   1.103   3.884  16.585 -0.2836 -0.1935  0.7730
  613MPD2    C5 9084   1.148   4.005  16.638 -0.6309  0.1538  0.0386
  613MPD2     H 9085   1.215   3.922  16.269  0.4156  0.7806 -0.1978
  613MPD2    H1 9086   1.054   3.816  16.654 -1.4170  1.3955  1.5465
  613MPD2    H2 9087   1.242   4.195  16.591  0.1159  0.2784 -0.2830
  613MPD2    H3 9088   1.137   4.036  16.741 -1.0646  0.5654 -0.1289
  613MPD2     N 9089   1.083   3.736  16.394 -0.2686  0.3380 -0.7190
  613MPD2    H5 9090   1.049   3.671  16.465 -1.5573  0.6266 -1.0656
  613MPD2    N1 9091   1.304   4.149  16.334 -0.4897 -0.1034 -0.2262
  613MPD2    H7 9092   1.330   4.104  16.246 -0.8973 -0.3905 -0.1960
  614TMC3    C1 9093   1.442   4.322  16.258  0.0291  1.5080  0.1288
  614TMC3    C2 9094   1.535   4.228  16.240  0.2253 -0.1593 -0.4991
  614TMC3    C3 9095   1.568   4.206  16.108 -0.4215  0.2229 -0.6730
  614TMC3    C4 9096   1.388   4.393  16.155  0.6342  0.0795  0.5247
  614TMC3    C5 9097   1.427   4.374  16.026  1.0197  0.3271  0.1140
  614TMC3    C6 9098   1.527   4.280  16.003 -0.1007  0.1965  0.2458
  614TMC3     C 9099   1.343   4.286  16.352 -0.4731 -0.0764  0.4243
  614TMC3     O 9100   1.331   4.371  16.440  0.4673 -0.3961  0.3063
  614TMC3     H 9101   1.584   4.177  16.322 -0.7739 -0.9396 -0.3883
  614TMC3    H1 9102   1.296   4.446  16.179 -0.6160 -1.4727 -0.7905
  614TMC3    H2 9103   1.564   4.256  15.905  1.9273  1.7652  0.6355
  614TMC3    C7 9104   1.364   4.447  15.918  0.6586  0.6751  0.8190
  614TMC3    C8 9105   1.561   4.058  16.088 -0.5029 -0.0281  0.3633
  614TMC3    O1 9106   1.290   4.539  15.953  0.5972 -0.7815 -0.1869
  614TMC3    O2 9107   1.494   4.010  16.179  0.3954 -0.0700  0.2070
  615MPD2     C 9108   1.023   0.897  16.222 -0.3550  1.0111  0.8632
  615MPD2    C1 9109   0.904   0.961  16.208  0.1481  0.1206 -0.1338
  615MPD2    C2 9110   0.812   0.920  16.113 -0.2270  0.1655 -0.7855
  615MPD2    C3 9111   0.852   0.814  16.026  0.0526 -0.3585  0.2500
  615MPD2    C4 9112   0.973   0.748  16.043 -0.7463  0.1546  0.5174
  615MPD2    C5 9113   1.053   0.788  16.144 -0.1166 -0.3396  0.0444
  615MPD2     H 9114   0.727   0.986  16.099  0.4800  0.8845 -1.6953
  615MPD2    H1 9115   1.011   0.672  15.976 -3.0981  1.7542 -2.5948
  615MPD2    H2 9116   1.088   0.927  16.303  0.2989 -2.2031  1.5249
  615MPD2    H3 9117   1.146   0.737  16.165 -0.9128 -1.0532  1.7979
  615MPD2     N 9118   0.761   0.766  15.925  0.3964  0.0249  0.6933
  615MPD2    H5 9119   0.786   0.686  15.868 -1.3523 -0.6233  0.8292
  615MPD2    N1 9120   0.878   1.084  16.285 -0.3337 -0.2167 -0.2965
  615MPD2    H7 9121   0.791   1.135  16.275 -0.9777 -1.5339 -1.3675
  616TMC3    C1 9122   0.925   1.287  16.378  0.3575  0.2929 -0.1562
  616TMC3    C2 9123   0.952   1.395  16.294  0.4202 -0.0141  0.5528
  616TMC3    C3 9124   0.893   1.510  16.320  0.3877 -0.2824  0.2982
  616TMC3    C4 9125   0.817   1.289  16.464  0.6428  0.4260  0.4561
  616TMC3    C5 9126   0.758   1.412  16.482 -0.0657  0.2957  0.7686
  616TMC3    C6 9127   0.791   1.521  16.406  0.0477  0.4456  0.0906
  616TMC3     C 9128   0.981   1.157  16.338 -0.4251  0.1529  0.0848
  616TMC3     O 9129   1.104   1.138  16.332  0.0236  0.2252  0.1915
  616TMC3     H 9130   1.029   1.372  16.220 -1.5711  0.0726 -1.5396
  616TMC3    H1 9131   0.776   1.204  16.517 -1.9362  0.1675 -1.9604
  616TMC3    H2 9132   0.757   1.618  16.438 -0.5136  0.0446  0.7039
  616TMC3    C7 9133   0.631   1.425  16.543 -0.4308  0.1928  0.3330
  616TMC3    C8 9134   0.946   1.629  16.251 -0.7763 -0.8541 -0.2058
  616TMC3    O1 9135   0.556   1.492  16.479  0.2267 -0.0995 -0.3734
  616TMC3    O2 9136   0.876   1.727  16.268 -0.2453 -0.0078  0.0884
  617MPD2     C 9137   3.851   4.283  13.817 -0.3624 -0.5831 -0.6072
  617MPD2    C1 9138   3.834   4.179  13.904  0.0673 -0.0786  0.1516
  617MPD2    C2 9139   3.712   4.112  13.921 -0.4885  0.0981 -0.4415
  617MPD2    C3 9140   3.600   4.156  13.855 -0.4775 -0.0327  0.4606
  617MPD2    C4 9141   3.620   4.261  13.767  0.7147  0.4007 -1.3228
  617MPD2    C5 9142   3.743   4.324  13.746  0.6097 -0.0924 -0.6322
  617MPD2     H 9143   3.702   4.027  13.987  0.4626  0.9359  0.7779
  617MPD2    H1 9144   3.533   4.294  13.710 -1.1442 -1.1048  0.6409
  617MPD2    H2 9145   3.945   4.335  13.812  0.1768 -1.5527 -0.6647
  617MPD2    H3 9146   3.763   4.396  13.668  3.4176  1.5645  1.6052
  617MPD2     N 9147   3.476   4.099  13.857 -0.1072 -0.3896  0.4260
  617MPD2    H5 9148   3.406   4.147  13.801 -0.3908 -0.5999  0.6017
  617MPD2    N1 9149   3.953   4.136  13.962 -0.2693  0.8692  0.2335
  617MPD2    H7 9150   4.034   4.196  13.946 -1.1174  1.0859 -3.1719
  618TMC3    C1 9151   4.102   4.017  14.112  0.1980 -0.1226 -0.3912
  618TMC3    C2 9152   4.151   3.888  14.128 -0.3057 -0.0549 -0.1694
  618TMC3    C3 9153   4.270   3.869  14.195  0.3276 -0.1344 -1.0449
  618TMC3    C4 9154   4.186   4.123  14.142  0.3335 -0.1499  0.0528
  618TMC3    C5 9155   4.307   4.095  14.201 -0.4748  0.6670 -0.4538
  618TMC3    C6 9156   4.344   3.973  14.239 -0.0921 -0.2019  0.4761
  618TMC3     C 9157   3.970   4.030  14.048 -0.2344  0.3004 -0.0344
  618TMC3     O 9158   3.895   3.937  14.069  0.3218 -0.1729  0.4562
  618TMC3     H 9159   4.094   3.803  14.093  0.5301 -0.8023  0.2999
  618TMC3    H1 9160   4.165   4.229  14.134 -0.5404 -0.3400 -0.1374
  618TMC3    H2 9161   4.424   3.957  14.310  1.0106 -3.8765 -1.5770
  618TMC3    C7 9162   4.390   4.214  14.245 -0.3121  0.1354 -0.1886
  618TMC3    C8 9163   4.325   3.729  14.210  0.1721 -0.2492 -0.0234
  618TMC3    O1 9164   4.331   4.317  14.235 -0.5216  0.1639 -0.4238
  618TMC3    O2 9165   4.253   3.641  14.249  0.3542  0.4598 -0.2987
  619MPD2     C 9166   0.754   0.810  13.532  0.2871  0.4533 -0.2142
  619MPD2    C1 9167   0.648   0.838  13.445 -1.0136  0.9186 -0.0072
  619MPD2    C2 9168   0.559   0.741  13.408  0.4726 -0.2104 -0.2715
  619MPD2    C3 9169   0.576   0.613  13.449 -0.1680 -0.3278  0.0718
  619MPD2    C4 9170   0.695   0.581  13.519 -0.2977 -0.0146 -0.8337
  619MPD2    C5 9171   0.779   0.674  13.559 -0.4138 -0.4092 -0.2397
  619MPD2     H 9172   0.467   0.779  13.366 -0.1591  0.6442  1.8774
  619MPD2    H1 9173   0.719   0.477  13.540 -2.6490 -0.7669 -1.7796
  619MPD2    H2 9174   0.826   0.884  13.565  3.4521 -3.0021  0.6912
  619MPD2    H3 9175   0.859   0.631  13.619 -0.5474  0.9661  0.9214
  619MPD2     N 9176   0.494   0.501  13.403 -0.1175 -0.3316 -0.3689
  619MPD2    H5 9177   0.520   0.412  13.444 -1.3358 -0.5234 -0.0198
  619MPD2    N1 9178   0.618   0.961  13.393 -0.4917 -0.1672 -0.1703
  619MPD2    H7 9179   0.553   0.968  13.315  1.7965  1.0523 -1.9741
  620TMC3    C1 9180   0.599   1.184  13.386 -0.1310 -0.3720 -0.6580
  620TMC3    C2 9181   0.565   1.171  13.257 -0.2559  0.3462 -0.3995
  620TMC3    C3 9182   0.450   1.240  13.220  0.0739  0.1841 -0.6379
  620TMC3    C4 9183   0.536   1.265  13.473  0.6335  0.2460 -0.7090
  620TMC3    C5 9184   0.438   1.345  13.428  0.0069 -0.5789 -0.1862
  620TMC3    C6 9185   0.401   1.345  13.295  0.0299 -0.6128  0.8872
  620TMC3     C 9186   0.664   1.074  13.450  0.3854  0.1328  0.1871
  620TMC3     O 9187   0.713   1.087  13.568 -0.0988 -0.4534  0.1286
  620TMC3     H 9188   0.616   1.104  13.188 -2.9956 -1.7796 -0.3563
  620TMC3    H1 9189   0.562   1.259  13.578 -1.7429  0.6879 -0.0985
  620TMC3    H2 9190   0.322   1.411  13.260  0.2172  0.5392  2.6435
  620TMC3    C7 9191   0.315   1.369  13.512  0.0742 -0.0164 -0.0829
  620TMC3    C8 9192   0.349   1.135  13.214 -0.4565  0.7563 -0.8652
  620TMC3    O1 9193   0.258   1.475  13.483 -0.2774 -0.4110 -0.0761
  620TMC3    O2 9194   0.385   1.027  13.249  0.1507 -0.1269 -0.8089
  621MPD2     C 9195   1.075   0.275   9.965 -0.1024  0.2555  0.4402
  621MPD2    C1 9196   1.209   0.263  10.007  0.3682 -0.5124  0.8192
  621MPD2    C2 9197   1.299   0.363   9.979 -0.4550  0.8045 -0.3942
  621MPD2    C3 9198   1.269   0.465   9.893  0.0912  0.0043  0.3863
  621MPD2    C4 9199   1.134   0.478   9.854 -0.1267  0.0034 -0.5672
  621MPD2    C5 9200   1.040   0.389   9.895 -0.4864 -0.3075  0.1442
  621MPD2     H 9201   1.403   0.353  10.010 -0.2641  0.3427 -1.1773
  621MPD2    H1 9202   1.107   0.560   9.788  0.9507  1.6435  1.0245
  621MPD2    H2 9203   0.991   0.212   9.990  1.5137 -1.9106  0.3648
  621MPD2    H3 9204   0.936   0.405   9.869 -0.6635 -0.2326  0.8878
  621MPD2     N 9205   1.365   0.553   9.850  0.7594  0.8432  0.1088
  621MPD2    H5 9206   1.459   0.527   9.878  0.1716 -1.6056 -0.2215
  621MPD2    N1 9207   1.250   0.151  10.085  0.0844 -0.0367 -0.0553
  621MPD2    H7 9208   1.335   0.158  10.140  0.1448 -1.0032 -0.0294
  622TMC3    C1 9209   1.208   4.676  10.211  0.0038  0.2113 -0.1405
  622TMC3    C2 9210   1.202   0.026  10.328  0.5748 -0.4029 -0.3938
  622TMC3    C3 9211   1.123   4.700  10.436 -0.4834 -0.0931  0.2900
  622TMC3    C4 9212   1.144   4.559  10.204 -0.2206 -0.9133  0.0805
  622TMC3    C5 9213   1.062   4.513  10.306  1.0952 -0.2636 -0.2325
  622TMC3    C6 9214   1.057   4.577  10.423 -0.1218 -0.2360  0.1589
  622TMC3     C 9215   1.171   0.037  10.101 -0.0977 -0.7238  0.1647
  622TMC3     O 9216   1.076   4.718  10.033 -0.5648  0.2238  0.5671
  622TMC3     H 9217   1.264   0.114  10.342  2.8283 -2.2041  0.8690
  622TMC3    H1 9218   1.139   4.502  10.112  3.3180 -0.3063 -0.4686
  622TMC3    H2 9219   0.982   4.545  10.494  0.1632 -2.1240 -0.4012
  622TMC3    C7 9220   0.937   4.464  10.259 -0.0668 -0.2688 -0.2449
  622TMC3    C8 9221   1.037   0.070  10.505 -0.0414 -0.7304  0.1674
  622TMC3    O1 9222   0.867   4.413  10.342  0.2852  0.3399 -0.2301
  622TMC3    O2 9223   0.996   0.032  10.612  0.0172 -0.0506 -0.5164
  623MPD2     C 9224   4.117   1.421  15.746 -0.1621 -0.7578  0.3038
  623MPD2    C1 9225   4.061   1.457  15.865  0.1702 -0.2318 -0.9619
  623MPD2    C2 9226   4.144   1.485  15.972 -0.1879  0.9112  0.2123
  623MPD2    C3 9227   4.279   1.479  15.952 -0.1793 -0.1892 -0.6342
  623MPD2    C4 9228   4.330   1.424  15.837 -0.3364 -0.4058  0.4535
  623MPD2    C5 9229   4.246   1.387  15.735 -0.2344 -0.5068 -0.1751
  623MPD2     H 9230   4.100   1.519  16.064  0.5882  0.5863  0.7004
  623MPD2    H1 9231   4.437   1.422  15.818 -0.2016  1.4082  1.0943
  623MPD2    H2 9232   4.053   1.411  15.659 -2.2130  0.7803  1.6293
  623MPD2    H3 9233   4.276   1.364  15.633 -0.2749  0.2239 -0.3527
  623MPD2     N 9234   4.362   1.515  16.063  0.1922 -0.3421  0.2296
  623MPD2    H5 9235   4.312   1.550  16.145 -0.9486 -1.1223 -0.1404
  623MPD2    N1 9236   3.921   1.478  15.871 -0.1778  0.6542  0.5231
  623MPD2    H7 9237   3.868   1.459  15.787 -0.4015  1.9890  0.3594
  624TMC3    C1 9238   4.661   1.458  16.380 -0.2236 -0.3527 -0.5300
  624TMC3    C2 9239   4.566   1.495  16.474 -0.7121  0.9227  0.0348
  624TMC3    C3 9240   4.456   1.564  16.427  0.0597 -0.5773 -0.1288
  624TMC3    C4 9241   4.655   1.493  16.246  0.3443  0.0154  0.2119
  624TMC3    C5 9242   4.537   1.553  16.204 -0.0820  1.1011  0.0431
  624TMC3    C6 9243   4.438   1.597  16.292  0.5472  0.9554  1.7412
  624TMC3     C 9244   0.052   1.385  16.432 -0.0166 -0.8632  0.4350
  624TMC3     O 9245   0.055   1.372  16.554  0.1305 -0.4660 -0.2705
  624TMC3     H 9246   4.581   1.467  16.578 -2.6414  0.6175  0.2436
  624TMC3    H1 9247   0.012   1.469  16.175  0.6251 -1.3906  1.0045
  624TMC3    H2 9248   4.355   1.653  16.251  1.8499  1.2156 -0.5517
  624TMC3    C7 9249   4.501   1.521  16.071  0.0383  0.1704  0.5581
  624TMC3    C8 9250   4.342   1.579  16.506 -0.7407  0.6602  0.1682
  624TMC3    O1 9251   4.588   1.511  15.988  0.3160 -0.1022 -0.0352
  624TMC3    O2 9252   4.298   1.485  16.570 -0.1844  0.1747  0.6271
  625MPD2     C 9253   4.601   2.007   0.461 -0.2513  0.1740  0.6314
  625MPD2    C1 9254   4.674   2.128   0.477  0.6807  0.4884 -0.1719
  625MPD2    C2 9255   0.074   2.120   0.546  0.3189  0.5058  0.0490
  625MPD2    C3 9256   0.120   1.998   0.585 -0.4401 -0.2877  0.0435
  625MPD2    C4 9257   0.045   1.882   0.580 -0.0171  0.6473  0.3714
  625MPD2    C5 9258   4.641   1.890   0.512 -0.0564  0.5263  0.4260
  625MPD2     H 9259   0.131   2.207   0.578  0.8640  1.0331 -2.3577
  625MPD2    H1 9260   0.083   1.794   0.630 -0.3438  0.8818  1.0442
  625MPD2    H2 9261   4.517   1.999   0.393  0.3597  0.5555 -0.1714
  625MPD2    H3 9262   4.591   1.803   0.471 -1.0953  0.9382  0.8410
  625MPD2     N 9263   0.245   2.009   0.643 -0.8327 -0.1183 -0.1680
  625MPD2    H5 9264   0.283   2.103   0.637  1.8455 -1.2034 -0.5263
  625MPD2    N1 9265   4.632   2.258   0.439  0.0775  0.8070  0.2822
  625MPD2    H7 9266   4.688   2.333   0.478  0.0790  1.7286 -1.5214
  626TMC3    C1 9267   4.487   2.426   0.387  0.0809  0.0870 -0.0132
  626TMC3    C2 9268   4.467   2.514   0.283  0.0525  0.3567  1.1666
  626TMC3    C3 9269   4.457   2.653   0.311  0.0764 -0.7205  0.5300
  626TMC3    C4 9270   4.495   2.477   0.518 -0.0984  0.4835  0.1277
  626TMC3    C5 9271   4.487   2.609   0.542  0.2499  0.1408 -0.3397
  626TMC3    C6 9272   4.465   2.707   0.440 -0.0200  0.2012  0.1856
  626TMC3     C 9273   4.518   2.284   0.372 -0.3335 -0.0556 -0.2262
  626TMC3     O 9274   4.445   2.198   0.318  0.0337  0.2092  0.0303
  626TMC3     H 9275   4.454   2.471   0.184  0.7747  0.3036  1.0946
  626TMC3    H1 9276   4.509   2.405   0.598  2.0098 -1.1701 -1.7186
  626TMC3    H2 9277   4.458   2.814   0.459 -1.5837 -0.0307  0.9927
  626TMC3    C7 9278   4.450   2.648   0.683  0.4665  0.6369 -0.2302
  626TMC3    C8 9279   4.421   2.739   0.198 -0.1004 -0.5850 -0.0210
  626TMC3    O1 9280   4.506   2.583   0.767  0.1280  0.3291 -0.1631
  626TMC3    O2 9281   4.363   2.689   0.103  0.1096  0.0318 -0.4246
  627MPD2     C 9282   3.399   2.790  14.165  0.2687  0.1114 -0.3490
  627MPD2    C1 9283   3.455   2.750  14.288  0.2292 -0.1868  0.1550
  627MPD2    C2 9284   3.405   2.634  14.342  1.4225  0.4364  0.0427
  627MPD2    C3 9285   3.311   2.555  14.279  0.3437  0.1420 -0.1360
  627MPD2    C4 9286   3.253   2.599  14.159 -0.0682  0.0234 -0.0845
  627MPD2    C5 9287   3.296   2.717  14.112  0.2078  0.1631  0.1932
  627MPD2     H 9288   3.441   2.600  14.438  0.9277 -1.3470 -0.4147
  627MPD2    H1 9289   3.184   2.545  14.094 -0.7939  1.3234 -0.4019
  627MPD2    H2 9290   3.430   2.874  14.104 -2.9451  2.3335  1.0638
  627MPD2    H3 9291   3.262   2.744  14.013  0.5804  1.3150  0.3759
  627MPD2     N 9292   3.272   2.433  14.342  0.2650 -0.3360  0.4687
  627MPD2    H5 9293   3.337   2.408  14.416 -0.2096  0.0648  1.0119
  627MPD2    N1 9294   3.556   2.824  14.360 -0.5068 -0.7491  0.8057
  627MPD2    H7 9295   3.584   2.785  14.449  3.2431  0.7985  0.3083
  628TMC3    C1 9296   3.654   3.027  14.430  0.8243  0.0356 -0.1129
  628TMC3    C2 9297   3.728   2.951  14.524  0.3955 -0.0771 -0.0283
  628TMC3    C3 9298   3.761   3.015  14.639 -0.0035 -0.0506 -0.5180
  628TMC3    C4 9299   3.600   3.148  14.463 -0.3067 -0.4503 -0.6096
  628TMC3    C5 9300   3.643   3.204  14.576 -0.2725  0.7379 -0.6532
  628TMC3    C6 9301   3.712   3.138  14.670 -0.2473 -1.0432  0.0506
  628TMC3     C 9302   3.595   2.949  14.319  0.2480  0.2757 -0.6611
  628TMC3     O 9303   3.548   3.015  14.226  0.0617  0.3368  0.0356
  628TMC3     H 9304   3.775   2.856  14.504  1.5342 -0.0389  2.4917
  628TMC3    H1 9305   3.538   3.200  14.390 -1.4298  0.2697  0.8586
  628TMC3    H2 9306   3.753   3.202  14.747 -0.0205 -1.9541  0.6754
  628TMC3    C7 9307   3.675   3.343  14.544  0.0306  0.2078 -1.4470
  628TMC3    C8 9308   3.867   2.953  14.723  0.7316 -0.4008  0.3851
  628TMC3    O1 9309   3.787   3.380  14.582 -0.7350 -0.3768 -0.3110
  628TMC3    O2 9310   3.950   2.880  14.672  0.1957 -0.3998 -0.8739
  629MPD2     C 9311   1.347   1.915  16.105 -0.0434  0.7227 -0.0508
  629MPD2    C1 9312   1.389   1.791  16.154 -0.2341  0.3843  0.6496
  629MPD2    C2 9313   1.295   1.698  16.187  0.0674  0.6766  0.2335
  629MPD2    C3 9314   1.160   1.725  16.183  0.2537  1.0512 -0.7644
  629MPD2    C4 9315   1.119   1.847  16.128  0.7193  0.1354  1.0831
  629MPD2    C5 9316   1.210   1.936  16.087  0.1196  0.0178  1.1588
  629MPD2     H 9317   1.324   1.609  16.241  0.8321 -0.9492 -2.8956
  629MPD2    H1 9318   1.014   1.872  16.126 -0.1991 -3.7336 -1.1936
  629MPD2    H2 9319   1.413   1.998  16.079  1.2890  0.1801  1.6139
  629MPD2    H3 9320   1.186   2.037  16.054 -0.0354 -1.2381 -2.6338
  629MPD2     N 9321   1.079   1.625  16.231 -0.0046  0.1976 -0.1533
  629MPD2    H5 9322   1.123   1.535  16.246  1.2642  0.9020  0.3329
  629MPD2    N1 9323   1.533   1.784  16.180  0.5336 -0.0827 -0.5843
  629MPD2    H7 9324   1.588   1.868  16.166  0.4279  0.2862  1.1911
  630TMC3    C1 9325   1.735   1.711  16.290 -0.3912  1.1126  0.2577
  630TMC3    C2 9326   1.830   1.770  16.211  0.4581  0.0720 -0.4848
  630TMC3    C3 9327   1.961   1.774  16.257  0.6085  0.2461 -0.4101
  630TMC3    C4 9328   1.773   1.637  16.398 -0.3091  0.5410  0.2723
  630TMC3    C5 9329   1.902   1.634  16.437  0.0349 -0.3855 -0.0996
  630TMC3    C6 9330   1.993   1.714  16.376  0.1587 -0.3839 -0.3426
  630TMC3     C 9331   1.602   1.674  16.241 -0.6112 -0.0895  0.3485
  630TMC3     O 9332   1.551   1.569  16.272 -0.4829 -0.2668 -0.9518
  630TMC3     H 9333   1.802   1.823  16.121 -1.1181 -0.1534 -0.1230
  630TMC3    H1 9334   1.702   1.619  16.478  0.8213  0.8267  1.3276
  630TMC3    H2 9335   2.095   1.702  16.412  0.6576  1.7142 -1.0558
  630TMC3    C7 9336   1.944   1.564  16.563  0.0915 -0.4187 -0.0121
  630TMC3    C8 9337   2.052   1.887  16.233 -0.1379 -1.0242 -0.0560
  630TMC3    O1 9338   2.046   1.604  16.626  0.0946  0.3559 -0.4514
  630TMC3    O2 9339   2.147   1.902  16.307  0.8230  0.3263  0.0709
  631MPD2     C 9340   4.610   1.193  15.640  0.5254 -0.5285 -0.1510
  631MPD2    C1 9341   4.705   1.205  15.538  0.2706  0.7626 -0.6014
  631MPD2    C2 9342   0.074   1.101  15.532  0.1520 -0.1664  0.2671
  631MPD2    C3 9343   0.079   0.992  15.616 -0.9482  0.4436 -0.6501
  631MPD2    C4 9344   4.701   0.988  15.710 -0.0422  0.0918  0.3678
  631MPD2    C5 9345   4.612   1.089  15.726  0.2169 -0.5366 -0.0788
  631MPD2     H 9346   0.159   1.116  15.465  0.3463 -0.8979  0.3495
  631MPD2    H1 9347   4.690   0.904  15.777 -1.7164 -0.2568 -0.3389
  631MPD2    H2 9348   4.536   1.268  15.665 -1.0349 -2.2174  0.3651
  631MPD2    H3 9349   4.546   1.089  15.812  0.4771  2.2729  0.1186
  631MPD2     N 9350   0.182   0.892  15.601 -0.0022  0.0782 -0.3403
  631MPD2    H5 9351   0.238   0.905  15.517 -1.4148 -3.8889 -1.8951
  631MPD2    N1 9352   4.704   1.326  15.463 -0.1598 -0.3038  0.0060
  631MPD2    H7 9353   4.622   1.386  15.469  1.1983  1.5796 -0.2683
  632TMC3    C1 9354   0.079   1.505  15.329 -0.1265 -0.0202 -0.2126
  632TMC3    C2 9355   4.710   1.602  15.371  0.8435 -0.1256  0.0668
  632TMC3    C3 9356   4.685   1.700  15.279  0.0705  0.2157  0.6043
  632TMC3    C4 9357   0.148   1.506  15.209  0.3975 -0.3127  0.0764
  632TMC3    C5 9358   0.120   1.613  15.129 -0.0822 -0.1709  0.3409
  632TMC3    C6 9359   0.036   1.713  15.165  0.3751 -0.3244  0.1550
  632TMC3     C 9360   0.088   1.375  15.387  0.1871  0.3145  0.0867
  632TMC3     O 9361   0.198   1.328  15.375  0.2610  0.0224  0.7908
  632TMC3     H 9362   4.657   1.592  15.465 -0.0684  0.6559 -0.3639
  632TMC3    H1 9363   0.212   1.424  15.179 -0.4159 -0.5184 -1.0788
  632TMC3    H2 9364   0.025   1.801  15.103  2.7984 -0.6685 -0.7739
  632TMC3    C7 9365   0.175   1.601  14.991 -0.4875  0.0476 -0.5591
  632TMC3    C8 9366   4.582   1.796  15.316 -0.6685 -0.4107  0.4999
  632TMC3    O1 9367   0.132   1.686  14.912 -0.5066 -0.0519 -0.7634
  632TMC3    O2 9368   4.509   1.778  15.411 -0.4220 -0.9771 -0.2435
  633MPD2     C 9369   4.512   4.087  17.275 -0.5117  0.0964 -0.7877
  633MPD2    C1 9370   4.571   4.041  17.158 -0.0632  0.2167  0.4410
  633MPD2    C2 9371   4.551   3.912  17.123 -0.6187 -0.1143 -0.2421
  633MPD2    C3 9372   4.482   3.826  17.201 -0.8540  0.7864 -0.0398
  633MPD2    C4 9373   4.431   3.864  17.321 -0.5255  0.2102  0.8855
  633MPD2    C5 9374   4.455   3.990  17.367 -0.2356 -0.2202 -0.0122
  633MPD2     H 9375   4.597   3.882  17.029  0.5383 -1.3529  0.7141
  633MPD2    H1 9376   4.375   3.795  17.383 -0.8886  0.5132  0.8924
  633MPD2    H2 9377   4.508   4.189  17.312 -0.7954 -0.1005 -0.2772
  633MPD2    H3 9378   4.414   4.026  17.461 -0.1617 -2.4751  0.8634
  633MPD2     N 9379   4.461   3.686  17.173  0.0326  0.2442 -0.2370
  633MPD2    H5 9380   4.416   3.627  17.242  0.6762  0.6148  0.5027
  633MPD2    N1 9381   4.646   4.116  17.064  0.7529 -0.1548 -0.0572
  633MPD2    H7 9382   4.692   4.065  16.989 -0.9303 -1.3135 -0.3042
  634TMC3    C1 9383   0.021   4.317  16.957  0.2352 -0.8259 -0.0904
  634TMC3    C2 9384   0.124   4.243  16.906  0.5438 -0.1881  0.4288
  634TMC3    C3 9385   0.185   4.291  16.796  0.0288 -0.2428  0.6248
  634TMC3    C4 9386   4.711   4.439  16.910  0.4672 -0.1288 -0.5913
  634TMC3    C5 9387   0.059   4.493  16.796  0.4132  0.0828 -0.6570
  634TMC3    C6 9388   0.153   4.413  16.735  0.2528 -0.4604  0.3155
  634TMC3     C 9389   4.661   4.256  17.068 -1.2202 -0.0879  0.1918
  634TMC3     O 9390   4.613   4.337  17.146 -0.3479 -0.0282  0.4307
  634TMC3     H 9391   0.145   4.147  16.951  1.8695  0.4538  1.2090
  634TMC3    H1 9392   4.630   4.499  16.950 -1.4174 -3.6868  0.9273
  634TMC3    H2 9393   0.210   4.451  16.651  1.8569 -2.2565  0.6018
  634TMC3    C7 9394   0.022   4.615  16.730  0.9735 -0.9123 -0.7480
  634TMC3    C8 9395   0.295   4.207  16.757  0.6339 -0.1854 -0.0743
  634TMC3    O1 9396   0.049   4.620  16.615 -0.3247 -0.0285  0.2109
  634TMC3    O2 9397   0.354   4.147  16.845 -0.0403 -0.0909 -0.1153
  635TMC3    C1 9398   0.448   0.436  17.044  0.9011 -0.0524  0.7740
  635TMC3    C2 9399   0.503   0.433  16.915  0.4404  0.5348 -0.0831
  635TMC3    C3 9400   0.565   0.312  16.882  0.1705  0.6552  0.1396
  635TMC3    C4 9401   0.462   0.330  17.135  0.1210  0.5374  0.2297
  635TMC3    C5 9402   0.511   0.212  17.077  0.0080 -0.2676 -0.1610
  635TMC3    C6 9403   0.578   0.199  16.957 -0.4899 -0.2250  0.2333
  635TMC3     C 9404   0.374   0.560  17.088 -0.7011 -0.8287  0.4014
  635TMC3     O 9405   0.387   0.569  17.210  0.7145 -0.0897  0.3099
  635TMC3     H 9406   0.504   0.522  16.854  0.8645  0.3506 -0.3513
  635TMC3    H1 9407   0.423   0.336  17.236  0.6088  0.1829  0.4399
  635TMC3    H2 9408   0.606   0.104  16.913  2.0361  1.0651 -0.9085
  635TMC3    C7 9409   0.492   0.088  17.155 -0.1242 -0.2982 -0.5418
  635TMC3    C8 9410   0.607   0.307  16.746 -0.9021 -0.0206 -0.2986
  635TMC3    O1 9411   0.577   0.004  17.144  0.1193 -0.5304  0.2719
  635TMC3    O2 9412   0.568   0.400  16.676  0.0872  0.4182  0.4677
  636MPD2     C 9413   1.040   3.975  15.644  0.3720 -0.7891 -0.2672
  636MPD2    C1 9414   1.031   4.007  15.781  0.8089 -0.5935 -0.2903
  636MPD2    C2 9415   1.023   3.895  15.865 -0.1716  0.0357  0.6802
  636MPD2    C3 9416   1.035   3.767  15.813 -0.6293  0.1500 -0.2044
  636MPD2    C4 9417   1.073   3.736  15.682  0.3095  0.0237 -0.6188
  636MPD2    C5 9418   1.063   3.847  15.601  0.2062  0.5862 -0.0853
  636MPD2     H 9419   1.021   3.918  15.971 -0.9475  1.4033  0.3682
  636MPD2    H1 9420   1.104   3.642  15.636  0.6440 -1.1612  2.0254
  636MPD2    H2 9421   1.038   4.054  15.570  0.6301 -0.3488  0.1956
  636MPD2    H3 9422   1.073   3.826  15.495  2.2121  2.6626 -0.3008
  636MPD2     N 9423   1.045   3.672  15.920 -0.0585  0.0236  0.5222
  636MPD2    H5 9424   1.028   3.707  16.014  1.8827  1.3904  0.3841
  636MPD2    N1 9425   1.023   4.139  15.840  0.2992 -0.1105 -0.4082
  636MPD2    H7 9426   1.015   4.132  15.941 -0.3904 -0.9537 -0.5254
  637TMC3    C1 9427   1.097   3.478  16.035 -0.5041 -0.4913  0.5568
  637TMC3    C2 9428   1.026   3.535  16.133  0.3903  0.4863 -0.7246
  637TMC3    C3 9429   1.087   3.558  16.251 -0.4717  0.4301  0.0219
  637TMC3    C4 9430   1.230   3.454  16.050 -0.1673 -0.6153 -0.1403
  637TMC3    C5 9431   1.284   3.485  16.169 -0.0088  0.4978 -0.0288
  637TMC3    C6 9432   1.213   3.518  16.276 -0.3502  0.8839  0.0091
  637TMC3     C 9433   1.062   3.536  15.910 -0.5753  0.0151 -0.4534
  637TMC3     O 9434   1.096   3.475  15.810 -0.3719  0.4323  0.2360
  637TMC3     H 9435   0.919   3.552  16.120  0.5994  1.0355 -1.7129
  637TMC3    H1 9436   1.292   3.424  15.967  3.1194  0.6578  1.8433
  637TMC3    H2 9437   1.265   3.549  16.366  0.7407 -1.3285  0.1552
  637TMC3    C7 9438   1.405   3.560  16.163 -0.4377 -0.1954  0.2258
  637TMC3    C8 9439   1.073   3.705  16.263  0.6490 -0.7418  0.0471
  637TMC3    O1 9440   1.429   3.641  16.249 -0.3773  0.1247  0.3057
  637TMC3    O2 9441   1.039   3.777  16.172  0.3214 -0.1211  0.2937
  638MPD2     C 9442   0.604   3.206  15.180 -0.2578 -0.3948 -0.2827
  638MPD2    C1 9443   0.683   3.106  15.135 -0.2439  0.2067  0.2463
  638MPD2    C2 9444   0.688   2.983  15.203 -0.7081  0.1919  0.4559
  638MPD2    C3 9445   0.612   2.962  15.315 -0.4268 -1.1676 -1.1254
  638MPD2    C4 9446   0.525   3.056  15.354 -0.6865  0.1969  0.8008
  638MPD2    C5 9447   0.519   3.180  15.283 -0.1432  0.2168  0.3632
  638MPD2     H 9448   0.752   2.906  15.162 -1.2185 -1.3850  2.6720
  638MPD2    H1 9449   0.465   3.040  15.443 -1.1322 -1.6605  0.1609
  638MPD2    H2 9450   0.605   3.305  15.135  0.1160  0.2000  1.0268
  638MPD2    H3 9451   0.443   3.254  15.308  0.8943  0.5711  2.4859
  638MPD2     N 9452   0.609   2.832  15.376  0.3039 -0.2442 -0.0065
  638MPD2    H5 9453   0.539   2.808  15.446  2.4385 -1.2276  1.7927
  638MPD2    N1 9454   0.769   3.115  15.031 -0.2142 -0.4416 -0.6652
  638MPD2    H7 9455   0.838   3.041  15.021 -0.4579 -0.8967  1.1453
  639TMC3    C1 9456   0.702   2.615  15.417  0.3198  0.2450  0.1201
  639TMC3    C2 9457   0.594   2.544  15.373  0.2729 -0.0942 -0.5138
  639TMC3    C3 9458   0.593   2.412  15.359 -0.4331 -0.4841  0.4427
  639TMC3    C4 9459   0.814   2.559  15.467  0.6608  0.4400 -0.4467
  639TMC3    C5 9460   0.813   2.424  15.452 -0.2776  0.1853 -0.9669
  639TMC3    C6 9461   0.709   2.349  15.396 -0.1756 -0.3922  0.0194
  639TMC3     C 9462   0.718   2.756  15.369  0.0256  0.4795 -0.6264
  639TMC3     O 9463   0.832   2.799  15.356 -0.1105  0.3595 -0.0003
  639TMC3     H 9464   0.516   2.603  15.327 -0.1677 -0.5748 -0.3791
  639TMC3    H1 9465   0.902   2.610  15.503 -0.6093  3.5409 -1.7362
  639TMC3    H2 9466   0.724   2.244  15.373 -0.8406 -0.6042  0.5363
  639TMC3    C7 9467   0.945   2.357  15.464  0.0871 -0.4458  0.0707
  639TMC3    C8 9468   0.526   2.376  15.239 -0.3950  0.3024  0.0596
  639TMC3    O1 9469   0.948   2.262  15.541 -0.3445 -0.2268  0.1246
  639TMC3    O2 9470   0.587   2.323  15.148 -0.1284  0.2022 -0.2814
  640MPD2     C 9471   2.265   0.869   9.273 -0.2367  0.4877  0.1568
  640MPD2    C1 9472   2.356   0.972   9.309  0.0047 -0.3646  0.5649
  640MPD2    C2 9473   2.310   1.105   9.288  0.0372 -0.7830 -0.5860
  640MPD2    C3 9474   2.182   1.125   9.237  0.0634  0.3057 -0.9023
  640MPD2    C4 9475   2.097   1.019   9.204 -0.2946  0.9658 -0.0136
  640MPD2    C5 9476   2.140   0.893   9.229  0.4606 -0.0159 -0.3034
  640MPD2     H 9477   2.367   1.194   9.313 -0.5704 -0.7423  0.6223
  640MPD2    H1 9478   2.000   1.029   9.157 -0.6528 -2.2395 -0.0095
  640MPD2    H2 9479   2.299   0.768   9.289 -2.5810 -0.3477 -0.2742
  640MPD2    H3 9480   2.086   0.804   9.197 -1.1810  0.4886  1.0533
  640MPD2     N 9481   2.143   1.255   9.194 -0.0425  0.0614 -0.0921
  640MPD2    H5 9482   2.046   1.272   9.169 -0.4263 -1.8857  0.0604
  640MPD2    N1 9483   2.463   0.944   9.394  0.3359  0.5228 -0.2813
  640MPD2    H7 9484   2.490   0.848   9.415  1.0338  0.7913  0.0551
  641TMC3    C1 9485   2.665   0.968   9.494  0.0013 -0.6043  0.3489
  641TMC3    C2 9486   2.634   0.875   9.586  0.6461 -0.2595 -0.3678
  641TMC3    C3 9487   2.732   0.822   9.672  0.0405 -0.0643 -0.6111
  641TMC3    C4 9488   2.793   1.014   9.485  0.5696  0.5925  1.2537
  641TMC3    C5 9489   2.892   0.948   9.560  1.4629 -0.1839 -0.4151
  641TMC3    C6 9490   2.867   0.857   9.656  0.3979 -0.2243 -0.2855
  641TMC3     C 9491   2.564   1.037   9.423 -0.4214  0.0821 -0.4737
  641TMC3     O 9492   2.588   1.148   9.375  0.0180  0.5487  0.1906
  641TMC3     H 9493   2.533   0.837   9.589  0.6194 -0.0750  1.1448
  641TMC3    H1 9494   2.819   1.087   9.409  3.3347 -1.0581  0.6149
  641TMC3    H2 9495   2.944   0.803   9.709 -0.3729 -1.6524 -0.6172
  641TMC3    C7 9496   3.018   1.017   9.558  0.2822  0.2609  0.5896
  641TMC3    C8 9497   2.697   0.724   9.773 -0.4264 -0.0812  0.0737
  641TMC3    O1 9498   3.018   1.121   9.497 -0.3009  0.5078  0.4200
  641TMC3    O2 9499   2.601   0.649   9.744  0.3853 -0.2943 -0.7102
  642TMC3    C1 9500   2.488   2.823  11.904 -0.5067  0.0480 -0.0527
  642TMC3    C2 9501   2.588   2.855  12.004  0.1899 -0.1649  0.5099
  642TMC3    C3 9502   2.654   2.749  12.060  0.0041 -0.3637 -0.4043
  642TMC3    C4 9503   2.465   2.690  11.863 -0.3745  0.3389  0.1747
  642TMC3    C5 9504   2.538   2.594  11.930 -0.2930  0.5465  0.9565
  642TMC3    C6 9505   2.622   2.619  12.029  0.1872 -0.7996 -0.4299
  642TMC3     C 9506   2.393   2.922  11.859 -0.2164 -0.0973  0.5149
  642TMC3     O 9507   2.341   2.902  11.747  0.6160 -0.7579 -0.5993
  642TMC3     H 9508   2.619   2.957  12.027 -0.6099  0.4256 -0.9805
  642TMC3    H1 9509   2.378   2.664  11.803  0.4736  2.4047 -1.9341
  642TMC3    H2 9510   2.678   2.538  12.075  1.8828 -0.8474 -2.5442
  642TMC3    C7 9511   2.479   2.461  11.918 -0.3273 -0.5140  0.4936
  642TMC3    C8 9512   2.760   2.760  12.161 -0.8336 -0.1397  0.4846
  642TMC3    O1 9513   2.455   2.425  11.806  0.1669  0.2817 -0.1649
  642TMC3    O2 9514   2.840   2.668  12.172 -1.1143 -0.0978  0.4716
  643TMC3    C1 9515   1.069   2.247   0.714 -0.0613  0.0332 -1.0141
  643TMC3    C2 9516   0.946   2.302   0.685 -0.1806 -0.5155  0.6713
  643TMC3    C3 9517   0.915   2.340   0.557  0.1103 -0.7126  0.2506
  643TMC3    C4 9518   1.164   2.228   0.619  0.1302 -0.1199 -0.5337
  643TMC3    C5 9519   1.139   2.272   0.495  0.1321  0.2926 -0.1062
  643TMC3    C6 9520   1.017   2.330   0.466  0.6598 -0.4876  0.4559
  643TMC3     C 9521   1.097   2.202   0.847  0.3014 -0.3214  0.4097
  643TMC3     O 9522   0.997   2.178   0.915  0.1407 -0.3836  0.5238
  643TMC3     H 9523   0.876   2.323   0.766 -0.8121 -2.4859  0.6517
  643TMC3    H1 9524   1.258   2.180   0.642 -0.0275 -0.1291  0.1179
  643TMC3    H2 9525   1.000   2.371   0.366 -0.6811 -0.0038  0.8858
  643TMC3    C7 9526   1.246   2.273   0.396 -0.2582  0.1695 -0.3619
  643TMC3    C8 9527   0.843   2.456   0.545 -0.0558 -0.3357  0.2581
  643TMC3    O1 9528   1.223   2.342   0.299 -0.4565 -0.1217  0.1536
  643TMC3    O2 9529   0.729   2.477   0.581 -0.4122 -0.0477 -0.0357
  644MPD2     C 9530   1.897   2.263   9.436 -0.1115 -0.2216 -0.7414
  644MPD2    C1 9531   1.993   2.276   9.335 -0.3834 -0.0989 -0.1250
  644MPD2    C2 9532   1.964   2.344   9.222 -0.5444  0.2766  0.1286
  644MPD2    C3 9533   1.849   2.413   9.211  1.0399  0.5482 -0.6595
  644MPD2    C4 9534   1.750   2.399   9.302  0.0337 -0.0823 -0.3326
  644MPD2    C5 9535   1.775   2.322   9.418  0.5334  0.3471 -0.5215
  644MPD2     H 9536   2.037   2.372   9.148  0.4918  0.5836  1.2603
  644MPD2    H1 9537   1.649   2.440   9.305 -0.7392 -2.1025  1.3007
  644MPD2    H2 9538   1.922   2.196   9.518 -2.6855  0.6779  0.7905
  644MPD2    H3 9539   1.695   2.316   9.490 -0.1409 -1.1896 -1.4020
  644MPD2     N 9540   1.826   2.490   9.095 -0.1472 -0.1561  0.6622
  644MPD2    H5 9541   1.899   2.492   9.024  0.3878 -0.2779  1.2034
  644MPD2    N1 9542   2.115   2.218   9.365  0.2257  0.2762  0.3009
  644MPD2    H7 9543   2.122   2.159   9.448  2.0770  0.9873  0.6527
  645TMC3    C1 9544   1.741   2.668   8.979  0.1536 -0.0840 -0.5662
  645TMC3    C2 9545   1.752   2.605   8.854 -1.0236 -0.3208  0.5876
  645TMC3    C3 9546   1.707   2.674   8.747 -0.2813 -0.1198  0.1032
  645TMC3    C4 9547   1.685   2.786   8.990  0.6603  0.3069 -0.3096
  645TMC3    C5 9548   1.640   2.853   8.882 -0.2337 -0.4623 -0.1019
  645TMC3    C6 9549   1.645   2.797   8.754  0.4203 -0.5950  0.8121
  645TMC3     C 9550   1.730   2.589   9.099 -0.7172 -0.5147 -0.8649
  645TMC3     O 9551   1.660   2.638   9.190 -0.4045  0.1116 -0.0295
  645TMC3     H 9552   1.807   2.513   8.842 -0.7763 -0.2557  1.2346
  645TMC3    H1 9553   1.683   2.833   9.088 -0.7134  0.7547 -0.5552
  645TMC3    H2 9554   1.628   2.858   8.666 -0.3624 -2.2725 -0.1806
  645TMC3    C7 9555   1.591   2.986   8.895  0.3360  0.1570 -0.0250
  645TMC3    C8 9556   1.685   2.586   8.630 -0.5205  0.9265  0.2276
  645TMC3    O1 9557   1.552   3.021   9.006  0.4801 -0.4291  0.4673
  645TMC3    O2 9558   1.703   2.465   8.642 -0.6170 -0.7735  0.1150
  646MPD2     C 9559   0.782   1.672  14.567  0.4798 -0.0259  0.0099
  646MPD2    C1 9560   0.720   1.726  14.682 -0.0226 -0.0541 -0.5022
  646MPD2    C2 9561   0.616   1.819  14.670 -0.7590 -0.8054 -0.0341
  646MPD2    C3 9562   0.582   1.866  14.545 -0.2415  0.5901 -0.4685
  646MPD2    C4 9563   0.633   1.804  14.427 -0.0008 -0.2273  0.2930
  646MPD2    C5 9564   0.729   1.700  14.443  0.7880  0.1257 -0.3768
  646MPD2     H 9565   0.577   1.867  14.759  0.5541 -1.6299  0.9999
  646MPD2    H1 9566   0.600   1.833  14.328  3.3983 -0.0584 -0.8036
  646MPD2    H2 9567   0.861   1.599  14.570  0.5166 -0.0234 -1.2479
  646MPD2    H3 9568   0.772   1.670  14.348  1.2062  1.7439 -0.7110
  646MPD2     N 9569   0.488   1.974  14.544 -0.0260  0.5448 -0.4494
  646MPD2    H5 9570   0.448   1.994  14.635  1.3400 -0.0526  0.2869
  646MPD2    N1 9571   0.773   1.678  14.804  0.0181 -0.2139  0.6572
  646MPD2    H7 9572   0.854   1.616  14.805  0.1029 -0.1035  0.6275
  647TMC3    C1 9573   0.806   1.631  15.025 -0.3518 -0.0432  0.0580
  647TMC3    C2 9574   0.751   1.553  15.117  0.7664  0.0246 -0.1670
  647TMC3    C3 9575   0.815   1.524  15.234 -0.3570 -0.2682 -0.1529
  647TMC3    C4 9576   0.931   1.683  15.034 -0.1023  0.3022  0.0136
  647TMC3    C5 9577   1.000   1.655  15.151  0.5661 -0.5390  0.3003
  647TMC3    C6 9578   0.942   1.576  15.253 -0.0422  0.2378  0.7726
  647TMC3     C 9579   0.714   1.680  14.925  0.6440  0.0497 -0.2132
  647TMC3     O 9580   0.597   1.694  14.952  0.4179  0.9574 -0.5971
  647TMC3     H 9581   0.657   1.503  15.095  0.1796  0.5508  1.1489
  647TMC3    H1 9582   0.961   1.761  14.965 -2.5242  1.2208 -0.0199
  647TMC3    H2 9583   1.005   1.541  15.334  0.9043  1.0582  0.3951
  647TMC3    C7 9584   1.142   1.685  15.167  0.2097 -0.1800  0.0810
  647TMC3    C8 9585   0.785   1.391  15.281  0.2564 -0.0831  0.0264
  647TMC3    O1 9586   1.186   1.679  15.285  0.1871 -0.2599 -0.2905
  647TMC3    O2 9587   0.735   1.312  15.206  0.3832 -0.0790  0.0683
  648TMC3    C1 9588   0.563   4.519  16.009 -0.4954 -0.0870  0.1143
  648TMC3    C2 9589   0.657   4.420  15.996  0.1998 -0.5733  0.0276
  648TMC3    C3 9590   0.632   4.313  15.916 -0.3944  0.1060 -0.4491
  648TMC3    C4 9591   0.446   4.522  15.940 -0.2265 -0.0374 -0.3283
  648TMC3    C5 9592   0.419   4.411  15.857 -0.0422 -0.2737 -0.2138
  648TMC3    C6 9593   0.513   4.309  15.845  0.4345  0.2189  0.6320
  648TMC3     C 9594   0.554   4.589  16.134  0.0833  0.0140 -0.3968
  648TMC3     O 9595   0.500   4.699  16.142 -0.2760 -0.4187 -0.3920
  648TMC3     H 9596   0.749   4.430  16.054 -0.2578 -0.1669  0.6911
  648TMC3    H1 9597   0.375   4.600  15.965  0.2565  0.1436  0.4670
  648TMC3    H2 9598   0.480   4.212  15.808  0.4678  1.0130 -1.4745
  648TMC3    C7 9599   0.283   4.386  15.811  0.1590 -0.3223  1.2871
  648TMC3    C8 9600   0.683   4.189  15.975 -0.5071 -0.2724 -0.0692
  648TMC3    O1 9601   0.246   4.272  15.793  0.0710  0.5121  0.2071
  648TMC3    O2 9602   0.748   4.208  16.081 -0.8389  1.2260  0.2367
  649TMC3    C1 9603   3.988   0.647  12.713  0.6372  0.7515  0.0843
  649TMC3    C2 9604   4.105   0.638  12.643  0.1290  0.1957 -0.0174
  649TMC3    C3 9605   4.190   0.536  12.683 -0.3443  0.0966 -0.3819
  649TMC3    C4 9606   3.954   0.564  12.812 -0.1483  0.1385 -0.0500
  649TMC3    C5 9607   4.041   0.463  12.846  0.3515  0.3428 -0.0272
  649TMC3    C6 9608   4.157   0.450  12.782  0.5367 -0.6729  0.6986
  649TMC3     C 9609   3.891   0.756  12.686  0.6085 -0.0982 -0.0906
  649TMC3     O 9610   3.789   0.760  12.749  0.0884  0.4880  0.5023
  649TMC3     H 9611   4.126   0.711  12.566  1.8370 -1.8595 -1.4969
  649TMC3    H1 9612   3.856   0.560  12.858  0.1488  0.4532  0.6076
  649TMC3    H2 9613   4.225   0.373  12.816  1.2441 -0.3701 -0.0386
  649TMC3    C7 9614   4.005   0.367  12.949 -0.1413  0.3499 -0.2355
  649TMC3    C8 9615   4.337   0.564  12.670 -0.3211  0.5403 -0.1626
  649TMC3    O1 9616   3.923   0.406  13.029 -0.8945  0.1811 -0.0681
  649TMC3    O2 9617   4.401   0.513  12.759  0.3629  0.0444  0.1410
  650TMC3    C1 9618   2.038   2.196  12.674 -0.1222 -0.2110 -1.0582
  650TMC3    C2 9619   2.080   2.303  12.747 -0.8697 -0.2867  0.0050
  650TMC3    C3 9620   2.173   2.393  12.693  0.0763  0.2644  0.2083
  650TMC3    C4 9621   2.079   2.175  12.543 -0.2460  0.2350 -0.1652
  650TMC3    C5 9622   2.183   2.253  12.504  0.6231  0.5294 -0.0837
  650TMC3    C6 9623   2.232   2.360  12.573 -0.1091 -0.3210  0.3619
  650TMC3     C 9624   1.963   2.087  12.736  0.4531  0.2007  0.5049
  650TMC3     O 9625   1.900   2.114  12.834 -0.1764 -0.0342 -0.1311
  650TMC3     H 9626   2.042   2.324  12.846  1.4561  1.7717  0.4675
  650TMC3    H1 9627   2.020   2.110  12.479 -0.6417 -0.7895  1.2587
  650TMC3    H2 9628   2.321   2.415  12.544 -0.1652 -1.2350 -1.5288
  650TMC3    C7 9629   2.186   2.279  12.362 -0.6332  0.7154 -0.2570
  650TMC3    C8 9630   2.124   2.523  12.688 -0.5678  0.5609  0.5336
  650TMC3    O1 9631   2.149   2.189  12.289  0.5015  0.5682  0.2695
  650TMC3    O2 9632   2.132   2.577  12.579 -0.1776  0.5366 -0.5297
  651MPD2     C 9633   0.456   3.981  10.598 -0.0493 -0.3802 -0.4342
  651MPD2    C1 9634   0.514   4.058  10.697  0.0577 -0.1371 -0.3454
  651MPD2    C2 9635   0.646   4.113  10.681 -0.0617 -0.5837  0.1285
  651MPD2    C3 9636   0.709   4.103  10.561 -0.5165 -0.3682  0.5162
  651MPD2    C4 9637   0.648   4.015  10.470  0.1544 -0.5550  0.2040
  651MPD2    C5 9638   0.521   3.965  10.483  0.1444 -0.3647 -0.3752
  651MPD2     H 9639   0.702   4.153  10.765 -1.7988 -0.4845  1.2472
  651MPD2    H1 9640   0.698   3.983  10.379 -0.8376 -1.0608 -0.1584
  651MPD2    H2 9641   0.358   3.934  10.607 -0.6602  0.7740 -1.0347
  651MPD2    H3 9642   0.478   3.893  10.414 -0.7132  0.9473 -1.2063
  651MPD2     N 9643   0.841   4.154  10.549  0.5757  0.1218  0.5378
  651MPD2    H5 9644   0.875   4.204  10.630  2.2153  1.2688 -0.8528
  651MPD2    N1 9645   0.449   4.073  10.820  0.5926  0.1642 -0.7875
  651MPD2    H7 9646   0.482   4.147  10.881  3.1445 -2.5991  1.1914
  652TMC3    C1 9647   1.278   4.147  10.415  0.2659  0.2098  0.0557
  652TMC3    C2 9648   1.151   4.101  10.403 -0.2077  0.0406 -0.1763
  652TMC3    C3 9649   1.054   4.178  10.458  0.0688 -0.2104  0.2442
  652TMC3    C4 9650   1.316   4.243  10.503  0.3066 -0.3027  0.0097
  652TMC3    C5 9651   1.216   4.312  10.556  0.4032 -0.4461 -0.1860
  652TMC3    C6 9652   1.085   4.277  10.543  0.7144 -0.1397  0.1213
  652TMC3     C 9653   1.372   4.102  10.319 -0.4692 -0.1142 -0.8038
  652TMC3     O 9654   1.332   4.114  10.203 -0.5546 -0.3564  0.8476
  652TMC3     H 9655   1.122   4.027  10.329 -3.4353 -0.9456  2.0545
  652TMC3    H1 9656   1.419   4.270  10.520  0.6101 -1.8608  0.5763
  652TMC3    H2 9657   1.004   4.340  10.576 -0.6564 -1.2016 -1.2081
  652TMC3    C7 9658   1.243   4.407  10.656  0.1670  0.3192  0.4759
  652TMC3    C8 9659   0.916   4.139  10.435 -0.0882  0.2547 -0.4988
  652TMC3    O1 9660   1.147   4.434  10.729  0.4871 -0.5739  0.4494
  652TMC3    O2 9661   0.889   4.079  10.329 -0.2283  0.3260 -0.3231
  653MPD2     C 9662   4.509   4.480   0.016 -0.1494  0.4203 -0.2098
  653MPD2    C1 9663   4.446   4.574  17.635 -0.5203  1.0368 -0.3839
  653MPD2    C2 9664   4.368   4.543  17.528  0.2172  0.1488  0.0395
  653MPD2    C3 9665   4.339   4.410  17.489  0.9797  0.5641 -0.8069
  653MPD2    C4 9666   4.413   4.318  17.554  0.1933 -0.5521  0.4601
  653MPD2    C5 9667   4.499   4.351  17.659  0.1810  0.7139 -0.2029
  653MPD2     H 9668   4.318   4.620  17.471 -0.4240 -1.5483 -1.6866
  653MPD2    H1 9669   4.412   4.212  17.531  0.5783 -0.9837  2.4444
  653MPD2    H2 9670   4.571   4.495   0.103  0.2588  1.2000 -0.6402
  653MPD2    H3 9671   4.544   4.262   0.016  0.3884  2.6896  3.7131
  653MPD2     N 9672   4.243   4.370  17.395 -0.1956  0.0731  0.9685
  653MPD2    H5 9673   4.205   4.445  17.338  0.5143 -0.3250 -0.0158
  653MPD2    N1 9674   4.456   4.710  17.678 -0.5455  0.1170 -0.3755
  653MPD2    H7 9675   4.422   0.062  17.615  0.3761  2.1020  1.4070
  654TMC3    C1 9676   4.129   4.217  17.265  0.2293 -0.0325 -0.5129
  654TMC3    C2 9677   4.070   4.323  17.205  0.1059  0.0949 -0.0767
  654TMC3    C3 9678   4.044   4.306  17.071  0.0065 -0.4792 -0.0567
  654TMC3    C4 9679   4.150   4.095  17.202 -0.5904  0.5675  0.1344
  654TMC3    C5 9680   4.121   4.084  17.066 -0.3707 -0.1184  0.1928
  654TMC3    C6 9681   4.080   4.191  17.002 -0.3873 -0.1182 -0.0099
  654TMC3     C 9682   4.197   4.240  17.383 -0.6991  0.4905  0.2931
  654TMC3     O 9683   4.211   4.145  17.461  0.2019 -0.6351 -0.1439
  654TMC3     H 9684   4.076   4.423  17.247  1.6054 -0.2102  0.4440
  654TMC3    H1 9685   4.209   4.020  17.253  1.4257  2.2159  0.2642
  654TMC3    H2 9686   4.042   4.177  16.902  1.7494 -0.1576 -0.8314
  654TMC3    C7 9687   4.194   3.992  16.987  0.0587 -0.3260 -0.3444
  654TMC3    C8 9688   3.994   4.418  16.999  0.6474  0.7085  0.5750
  654TMC3    O1 9689   4.239   4.031  16.881 -1.1754 -0.1158 -0.4298
  654TMC3    O2 9690   3.938   4.506  17.068 -0.1890 -0.0308 -0.3299
  655MPD2     C 9691   0.842   4.590  15.384 -0.4661 -0.5110 -0.3915
  655MPD2    C1 9692   0.722   4.550  15.438 -0.1392 -0.1177  0.2936
  655MPD2    C2 9693   0.704   4.415  15.473 -0.2520 -0.6383 -0.5185
  655MPD2    C3 9694   0.800   4.329  15.431 -0.1638  0.3944  0.1718
  655MPD2    C4 9695   0.911   4.368  15.355  0.9088 -0.0938  0.2716
  655MPD2    C5 9696   0.930   4.498  15.326 -0.1037  0.0679 -0.0341
  655MPD2     H 9697   0.610   4.395  15.524  0.7321 -1.8565  0.8007
  655MPD2    H1 9698   0.979   4.296  15.312 -0.3901  0.4171 -2.6425
  655MPD2    H2 9699   0.857   4.695  15.360 -0.2151 -0.6706 -0.9329
  655MPD2    H3 9700   1.014   4.534  15.266 -0.2364 -0.0287 -0.2750
  655MPD2     N 9701   0.796   4.189  15.454  0.2148  0.0119  0.1833
  655MPD2    H5 9702   0.855   4.131  15.395  1.0637 -2.9128  3.8745
  655MPD2    N1 9703   0.626   4.636  15.483  0.7981  0.3508 -0.1528
  655MPD2    H7 9704   0.546   4.588  15.523  0.5123  0.4676 -0.5791
  656TMC3    C1 9705   0.496   0.122  15.490 -0.9622 -0.3147 -0.3360
  656TMC3    C2 9706   0.468   0.101  15.623  0.4999  0.2831 -1.1429
  656TMC3    C3 9707   0.397   0.199  15.682 -0.1772 -0.6283  0.0667
  656TMC3    C4 9708   0.455   0.230  15.423  0.4883  0.1136  0.0515
  656TMC3    C5 9709   0.381   0.328  15.485 -0.5732 -0.2364  0.2420
  656TMC3    C6 9710   0.347   0.313  15.614  0.0277 -1.5802 -0.3389
  656TMC3     C 9711   0.613   0.048  15.437 -0.0343  0.4180  0.1956
  656TMC3     O 9712   0.669   0.099  15.339  0.1698 -0.3445 -0.4447
  656TMC3     H 9713   0.498   0.008  15.671 -0.4389  1.0765  0.9511
  656TMC3    H1 9714   0.488   0.257  15.323  1.9929  0.5819  0.6741
  656TMC3    H2 9715   0.316   0.397  15.674  2.6234 -0.4149 -0.6125
  656TMC3    C7 9716   0.339   0.456  15.416  0.3073 -0.2995 -0.6163
  656TMC3    C8 9717   0.313   0.155  15.792 -0.5575 -0.1677  0.1174
  656TMC3    O1 9718   0.395   0.475  15.307 -1.3463  0.1208 -0.1017
  656TMC3    O2 9719   0.279   0.036  15.788  0.2795 -0.0920  0.1605
  657TMC3    C1 9720   4.238   3.897  14.940  0.1177 -0.1621  0.9081
  657TMC3    C2 9721   4.175   3.798  15.015 -0.0289  0.7194 -0.0768
  657TMC3    C3 9722   4.044   3.817  15.050 -0.1695  0.1118 -0.4310
  657TMC3    C4 9723   4.169   4.006  14.898  0.2035  0.2490 -0.4078
  657TMC3    C5 9724   4.037   4.011  14.929 -1.0123 -0.0009 -0.0536
  657TMC3    C6 9725   3.967   3.924  15.004 -0.2202 -0.8191 -1.2544
  657TMC3     C 9726   4.376   3.892  14.922  0.7922  0.6349  0.6312
  657TMC3     O 9727   4.424   3.993  14.865  0.8192 -0.3419 -0.1819
  657TMC3     H 9728   4.233   3.721  15.065  1.5487  1.7189 -0.3422
  657TMC3    H1 9729   4.217   4.062  14.819 -0.5454 -0.1028 -1.1066
  657TMC3    H2 9730   3.866   3.943  15.040  0.3579  1.6435 -0.9216
  657TMC3    C7 9731   3.955   4.096  14.847  0.3569 -0.5530 -1.2729
  657TMC3    C8 9732   3.996   3.731  15.157  0.8080 -0.3904  0.1485
  657TMC3    O1 9733   3.844   4.053  14.812  0.3120  0.9035  0.3112
  657TMC3    O2 9734   4.082   3.665  15.215 -0.2200 -0.5014 -0.8151
  658MPD2     C 9735   0.891   3.691  14.879 -0.0372  0.9845 -0.0433
  658MPD2    C1 9736   0.855   3.813  14.930 -0.1535  0.2947  0.6240
  658MPD2    C2 9737   0.864   3.922  14.852  0.1169 -0.3403  0.0132
  658MPD2    C3 9738   0.912   3.922  14.725  0.1856 -0.5306 -0.1915
  658MPD2    C4 9739   0.954   3.802  14.679  0.0353 -0.3330  0.3082
  658MPD2    C5 9740   0.945   3.689  14.755 -0.9760 -0.0614 -0.5336
  658MPD2     H 9741   0.825   4.017  14.888 -0.7933 -1.3375  1.6764
  658MPD2    H1 9742   0.997   3.784  14.581  1.4346 -0.1253  0.8919
  658MPD2    H2 9743   0.900   3.602  14.940 -1.2916  0.6669 -0.3301
  658MPD2    H3 9744   0.990   3.596  14.721  1.8071  0.7701  0.8746
  658MPD2     N 9745   0.913   4.044  14.651  0.0154  0.7500 -0.4309
  658MPD2    H5 9746   0.868   4.128  14.683 -0.3380  0.5525 -0.4166
  658MPD2    N1 9747   0.792   3.817  15.056 -0.3316  0.3787 -0.1006
  658MPD2    H7 9748   0.765   3.730  15.100 -0.0950  0.4912  0.2712
  659TMC3    C1 9749   0.728   3.911  15.253  0.0054  0.4635 -0.5308
  659TMC3    C2 9750   0.779   3.951  15.377 -0.2197 -0.0645  0.2739
  659TMC3    C3 9751   0.706   3.976  15.486 -0.2417  0.0469 -0.9701
  659TMC3    C4 9752   0.598   3.890  15.237 -0.7467 -0.0732  0.7301
  659TMC3    C5 9753   0.525   3.920  15.349 -0.2883 -0.3543  0.9559
  659TMC3    C6 9754   0.578   3.943  15.473  0.0601  0.7812 -0.8797
  659TMC3     C 9755   0.804   3.928  15.130 -0.1008 -0.1449 -0.3466
  659TMC3     O 9756   0.858   4.036  15.112  0.0133  0.2949  0.4809
  659TMC3     H 9757   0.888   3.957  15.376 -0.2299  0.0845 -0.2274
  659TMC3    H1 9758   0.559   3.860  15.140  1.7047  0.2748 -0.3590
  659TMC3    H2 9759   0.503   3.949  15.551  0.1078  0.3809 -0.8029
  659TMC3    C7 9760   0.386   3.967  15.324  0.8969  0.2411 -0.4334
  659TMC3    C8 9761   0.702   4.121  15.525  0.7925  0.0297 -0.1582
  659TMC3    O1 9762   0.314   3.951  15.422 -0.6020  0.3087 -0.5318
  659TMC3    O2 9763   0.610   4.160  15.597 -0.2167  0.4792  0.0357
  660MPD2     C 9764   3.742   2.866  12.266 -0.0165 -0.3181  0.3488
  660MPD2    C1 9765   3.604   2.896  12.280  0.4937 -0.4540 -0.9259
  660MPD2    C2 9766   3.546   2.882  12.405  0.2839  0.1915 -0.8009
  660MPD2    C3 9767   3.610   2.836  12.518 -0.6937  0.2575 -0.7087
  660MPD2    C4 9768   3.740   2.794  12.495 -0.2929  0.2076  0.1876
  660MPD2    C5 9769   3.804   2.807  12.377 -0.5612 -0.5933 -0.5098
  660MPD2     H 9770   3.439   2.902  12.408 -0.1477 -1.6611 -3.1737
  660MPD2    H1 9771   3.798   2.754  12.578 -2.1176 -0.3058  1.2303
  660MPD2    H2 9772   3.807   2.862  12.180  3.2589 -0.2963  2.8048
  660MPD2    H3 9773   3.909   2.781  12.370 -0.1958  0.7261 -0.0909
  660MPD2     N 9774   3.556   2.823  12.653 -0.9639 -0.3113 -0.1202
  660MPD2    H5 9775   3.614   2.799  12.733 -0.0192  0.8337 -0.4705
  660MPD2    N1 9776   3.537   2.942  12.163  0.1764 -0.4135 -0.0967
  660MPD2    H7 9777   3.588   2.926  12.076 -2.2495 -0.4282 -1.5238
  661TMC3    C1 9778   3.364   3.044  12.021  0.3712 -0.7554 -0.2810
  661TMC3    C2 9779   3.447   3.101  11.926 -0.2983  0.3793 -0.3530
  661TMC3    C3 9780   3.383   3.133  11.810 -0.5584  0.1882  1.2286
  661TMC3    C4 9781   3.226   3.041  12.008 -0.3800 -0.8016  0.1615
  661TMC3    C5 9782   3.175   3.078  11.885 -0.4432  0.3430 -0.0766
  661TMC3    C6 9783   3.255   3.108  11.776 -0.3116 -0.6661 -0.1057
  661TMC3     C 9784   3.408   2.998  12.156 -0.3151 -0.4317  0.4168
  661TMC3     O 9785   3.337   3.023  12.249 -0.6078 -0.2110 -0.0880
  661TMC3     H 9786   3.555   3.108  11.940 -0.2836 -0.2117 -0.1610
  661TMC3    H1 9787   3.161   3.001  12.085 -0.1128 -1.2710  0.1432
  661TMC3    H2 9788   3.212   3.150  11.685  2.5822  4.6556  0.9528
  661TMC3    C7 9789   3.031   3.081  11.877 -0.4478  0.3148 -0.3361
  661TMC3    C8 9790   3.466   3.195  11.705 -0.1367 -0.3575 -0.0652
  661TMC3    O1 9791   2.969   3.088  11.983  0.3603 -0.2209  0.2646
  661TMC3    O2 9792   3.511   3.121  11.618 -0.1198  0.4263  0.0499
  662MPD2     C 9793   3.966   3.274  17.512 -0.0998  0.3559  0.5287
  662MPD2    C1 9794   3.904   3.166  17.565  0.1717 -0.1066 -0.3945
  662MPD2    C2 9795   3.813   3.183  17.662  0.4706 -0.7167 -0.8956
  662MPD2    C3 9796   3.797   3.304   0.041 -0.0381  0.6864 -0.1322
  662MPD2    C4 9797   3.869   3.410  17.675 -0.2789  0.3318  0.1279
  662MPD2    C5 9798   3.946   3.401  17.562 -0.4500 -0.1641 -0.1708
  662MPD2     H 9799   3.752   3.096  17.683 -1.1316  0.8826  1.0443
  662MPD2    H1 9800   3.860   3.511   0.028 -1.8253  0.7240 -1.2529
  662MPD2    H2 9801   4.031   3.270  17.425 -2.1568  2.6935 -1.1069
  662MPD2    H3 9802   3.993   3.489  17.520 -0.7165  0.5106  0.9631
  662MPD2     N 9803   3.700   3.322   0.147  0.0893 -0.0271  0.6237
  662MPD2    H5 9804   3.670   3.416   0.171  1.8448  0.7248 -0.1657
  662MPD2    N1 9805   3.920   3.030  17.521 -0.1084  0.3553 -0.1252
  662MPD2    H7 9806   3.894   2.962  17.591 -1.7410  2.2756  1.1195
  663TMC3    C1 9807   3.962   2.853  17.390  0.5500  0.1138  0.0079
  663TMC3    C2 9808   3.919   2.781  17.501 -0.1019 -0.0342  0.3181
  663TMC3    C3 9809   3.977   2.656  17.515  1.2468  0.0407  0.6667
  663TMC3    C4 9810   4.033   2.801  17.285  0.4969 -0.1153  0.5537
  663TMC3    C5 9811   4.061   2.669  17.292 -0.0427 -0.2470 -0.3555
  663TMC3    C6 9812   4.036   2.594  17.405 -0.2597 -0.9023  0.0990
  663TMC3     C 9813   3.968   2.996  17.401  0.6051  0.3397  0.1395
  663TMC3     O 9814   3.993   3.068  17.307 -0.1460 -0.6842 -0.3055
  663TMC3     H 9815   3.826   2.803  17.552  0.6881  2.0991  0.8780
  663TMC3    H1 9816   4.070   2.877  17.216  0.2653 -0.7213 -0.2305
  663TMC3    H2 9817   4.083   2.498  17.421  1.1515 -0.1113  0.8243
  663TMC3    C7 9818   4.049   2.593  17.176 -0.5948  0.0763 -0.3385
  663TMC3    C8 9819   3.871   2.563  17.555  0.0722  0.5309  0.5231
  663TMC3    O1 9820   4.080   2.646  17.067  0.2860 -0.3707 -0.0288
  663TMC3    O2 9821   3.858   2.463  17.483  0.4196 -0.2075  0.8251
  664MPD2     C 9822   1.600   1.431  17.665 -0.4394 -0.1406 -0.2638
  664MPD2    C1 9823   1.726   1.385  17.658 -0.5271 -0.0169  0.5177
  664MPD2    C2 9824   1.777   1.302   0.064  0.4910 -0.0194  0.1108
  664MPD2    C3 9825   1.699   1.248   0.163  0.4351  0.4815  0.3618
  664MPD2    C4 9826   1.567   1.296   0.173 -0.4897  0.1418 -0.1750
  664MPD2    C5 9827   1.517   1.377   0.079  0.5308  0.7955  0.2386
  664MPD2     H 9828   1.875   1.260   0.045 -0.7256 -2.6345 -0.3113
  664MPD2    H1 9829   1.507   1.257   0.254 -1.8519  1.0438 -0.7426
  664MPD2    H2 9830   1.561   1.511  17.603 -0.3304  0.2158  0.1205
  664MPD2    H3 9831   1.415   1.409   0.099 -0.0336 -1.4074  0.9325
  664MPD2     N 9832   1.770   1.164   0.249  0.2546 -0.2714 -0.4643
  664MPD2    H5 9833   1.867   1.153   0.222 -0.2942 -3.5602 -1.1727
  664MPD2    N1 9834   1.816   1.434  17.560 -0.2306  0.1799  0.0846
  664MPD2    H7 9835   1.890   1.372  17.529 -0.2884 -0.5874  1.4847
  665TMC3    C1 9836   1.780   1.028   0.446  0.3381  0.5711  0.0367
  665TMC3    C2 9837   1.711   0.965   0.546  0.3760  0.1067 -0.5111
  665TMC3    C3 9838   1.765   0.958   0.670 -0.3446 -0.0399 -0.1096
  665TMC3    C4 9839   1.899   1.083   0.474 -0.0119 -0.0316 -0.1703
  665TMC3    C5 9840   1.962   1.064   0.592 -0.1003 -0.4865 -0.1002
  665TMC3    C6 9841   1.896   1.003   0.695  0.3264  0.1800  0.6645
  665TMC3     C 9842   1.701   1.088   0.339  0.2455  0.5981  0.2445
  665TMC3     O 9843   1.584   1.052   0.327 -0.2322 -0.1348 -0.0188
  665TMC3     H 9844   1.614   0.921   0.525  0.2586 -0.4848  1.3327
  665TMC3    H1 9845   1.949   1.144   0.400 -0.0428 -0.8174 -0.8415
  665TMC3    H2 9846   1.945   0.995   0.792 -0.9262 -1.5169  1.1782
  665TMC3    C7 9847   2.091   1.127   0.610 -0.3381  0.5411  0.0651
  665TMC3    C8 9848   1.676   0.902   0.769  0.0330  0.3472  0.1110
  665TMC3    O1 9849   2.161   1.143   0.512  0.2873 -0.4346 -0.3957
  665TMC3    O2 9850   1.560   0.897   0.738 -0.0860 -0.0747  0.1772
  666TMC3    C1 9851   1.469   0.745   9.771 -0.0725 -0.2144 -0.0858
  666TMC3    C2 9852   1.579   0.660   9.765 -0.0004  0.3561 -0.5201
  666TMC3    C3 9853   1.694   0.710   9.831  0.3853 -0.5256  0.4692
  666TMC3    C4 9854   1.465   0.874   9.819 -0.0377  0.6238  0.2317
  666TMC3    C5 9855   1.577   0.913   9.889  0.0843 -0.1498  0.1800
  666TMC3    C6 9856   1.686   0.833   9.901 -0.4167  0.5656 -0.7066
  666TMC3     C 9857   1.344   0.674   9.790 -0.3428  0.1563  0.1413
  666TMC3     O 9858   1.241   0.740   9.786 -0.4300 -0.6238 -0.3001
  666TMC3     H 9859   1.574   0.557   9.733  1.8145 -0.4380  1.8069
  666TMC3    H1 9860   1.376   0.937   9.814 -1.3194 -1.1568  0.6294
  666TMC3    H2 9861   1.756   0.853   9.981  2.2833 -2.0084 -2.4025
  666TMC3    C7 9862   1.584   1.038   9.955  0.2341 -0.6778  1.1068
  666TMC3    C8 9863   1.780   0.611   9.888 -0.0551 -0.4531 -0.0918
  666TMC3    O1 9864   1.475   1.085   9.989 -0.0856 -0.1150 -0.3196
  666TMC3    O2 9865   1.752   0.492   9.878 -0.0338 -0.3762 -0.5982
  667MPD2     C 9866   2.186   1.613  14.551 -0.2182 -0.0752 -0.3264
  667MPD2    C1 9867   2.273   1.522  14.600  0.3179 -0.4526  0.7689
  667MPD2    C2 9868   2.270   1.396  14.546 -0.0835  0.1227 -0.3423
  667MPD2    C3 9869   2.177   1.357  14.456  0.1911 -0.8598 -0.6455
  667MPD2    C4 9870   2.089   1.452  14.402 -0.4080 -0.0520 -0.4369
  667MPD2    C5 9871   2.096   1.582  14.453 -0.5763  0.4072 -0.2712
  667MPD2     H 9872   2.334   1.316  14.583  0.8797  1.1040  0.1060
  667MPD2    H1 9873   2.009   1.428  14.333 -1.0892 -2.2114  1.0747
  667MPD2    H2 9874   2.177   1.715  14.588  0.1820 -1.3454  3.1898
  667MPD2    H3 9875   2.024   1.656  14.422  0.0014 -0.0549 -2.7467
  667MPD2     N 9876   2.156   1.225  14.431  0.3700  0.3893  0.5657
  667MPD2    H5 9877   2.065   1.193  14.400  0.2408  0.8360  0.4770
  667MPD2    N1 9878   2.370   1.547  14.706 -0.2087  0.0428  0.4323
  667MPD2    H7 9879   2.420   1.466  14.742  0.0704 -0.3017 -0.7189
  668TMC3    C1 9880   2.456   1.631  14.904 -0.0657  0.5369  0.2938
  668TMC3    C2 9881   2.568   1.691  14.932  0.0844 -0.2820 -0.2334
  668TMC3    C3 9882   2.629   1.662  15.049  0.0937 -0.2749 -0.0871
  668TMC3    C4 9883   2.397   1.545  14.982  0.5431  0.3268  0.1595
  668TMC3    C5 9884   2.456   1.518  15.103 -0.0948 -0.9026 -0.2083
  668TMC3    C6 9885   2.574   1.581  15.145  0.4749  0.0139 -0.6902
  668TMC3     C 9886   2.384   1.660  14.781 -0.5873 -0.3503 -0.0813
  668TMC3     O 9887   2.345   1.774  14.767  0.1059  0.3859  0.2311
  668TMC3     H 9888   2.593   1.775  14.868 -0.6397  0.8744  1.0137
  668TMC3    H1 9889   2.304   1.499  14.951 -1.1520  3.4813  0.6016
  668TMC3    H2 9890   2.626   1.553  15.235 -0.7804 -2.4734 -0.7277
  668TMC3    C7 9891   2.396   1.426  15.201  0.0793 -0.1192  0.7523
  668TMC3    C8 9892   2.766   1.710  15.073  0.1645 -1.0778  0.1675
  668TMC3    O1 9893   2.462   1.390  15.298 -0.0540 -0.9871 -0.1743
  668TMC3    O2 9894   2.797   1.722  15.187  0.5741 -0.7152  0.0891
  669TMC3    C1 9895   0.872   1.153  14.592 -0.2139  0.3795 -0.8619
  669TMC3    C2 9896   0.769   1.089  14.530  0.5539  0.0418 -0.8994
  669TMC3    C3 9897   0.731   1.141  14.406 -0.0785 -0.3811  0.9138
  669TMC3    C4 9898   0.946   1.250  14.532 -0.8511  0.1169  0.6021
  669TMC3    C5 9899   0.900   1.295  14.409 -0.4822  0.4138  0.1623
  669TMC3    C6 9900   0.794   1.239  14.346 -0.2169  0.1359 -1.0409
  669TMC3     C 9901   0.942   1.071  14.689 -0.3788  0.0758  0.7579
  669TMC3     O 9902   0.880   0.982  14.748 -0.5181  0.6002  0.1979
  669TMC3     H 9903   0.715   1.005  14.573 -0.2297  1.1610  0.3085
  669TMC3    H1 9904   1.020   1.306  14.588  0.0769  1.0740 -1.5765
  669TMC3    H2 9905   0.749   1.279  14.255  0.4073  1.0489 -0.9539
  669TMC3    C7 9906   0.967   1.422  14.361  1.4743 -0.5488  0.4262
  669TMC3    C8 9907   0.607   1.087  14.339 -0.0750 -0.1439  0.5608
  669TMC3    O1 9908   1.036   1.485  14.444 -0.0020  0.1174  0.6733
  669TMC3    O2 9909   0.621   1.091  14.216  0.4586  0.2965  0.5421
  670MPD2     C 9910   3.964   3.797  13.509  0.1783  0.0475 -1.1819
  670MPD2    C1 9911   4.035   3.770  13.629  0.4920 -0.0038 -0.2902
  670MPD2    C2 9912   3.966   3.741  13.745  0.1587  0.4933 -0.0126
  670MPD2    C3 9913   3.833   3.734  13.750  0.2581  0.6004  0.2770
  670MPD2    C4 9914   3.760   3.764  13.638 -0.1239 -0.3306  0.5851
  670MPD2    C5 9915   3.824   3.784  13.522 -0.1026  0.3414 -0.1471
  670MPD2     H 9916   4.024   3.725  13.836  0.5095 -2.4150 -0.7557
  670MPD2    H1 9917   3.653   3.763  13.622  0.0165 -1.3894 -0.3226
  670MPD2    H2 9918   4.007   3.820  13.413 -0.0678  0.7516 -1.1249
  670MPD2    H3 9919   3.763   3.780  13.433  0.6371  0.0110 -0.6357
  670MPD2     N 9920   3.780   3.699  13.871 -0.1657  0.1803  0.3510
  670MPD2    H5 9921   3.844   3.680  13.946 -1.1103  0.4857  1.2376
  670MPD2    N1 9922   4.175   3.762  13.633  0.2556 -0.1181 -0.0852
  670MPD2    H7 9923   4.213   3.760  13.727  1.8849 -0.6976 -0.7628
  671TMC3    C1 9924   3.629   3.593  14.006 -0.3440  0.7791  0.7827
  671TMC3    C2 9925   3.737   3.544  14.071 -0.0276 -0.7057 -0.2145
  671TMC3    C3 9926   3.722   3.411  14.118  0.4852 -0.9723  0.3779
  671TMC3    C4 9927   3.512   3.520  14.006  0.6596  0.3695 -0.5982
  671TMC3    C5 9928   3.499   3.399  14.069 -0.1991 -0.5174 -0.2477
  671TMC3    C6 9929   3.606   3.337  14.121 -0.1863 -0.1757 -0.0066
  671TMC3     C 9930   3.646   3.669  13.889 -0.9975 -1.2239  0.2065
  671TMC3     O 9931   3.549   3.672  13.812  0.2503  0.1490 -0.4973
  671TMC3     H 9932   3.822   3.602  14.105 -0.9028  1.1426 -1.2059
  671TMC3    H1 9933   3.426   3.549  13.947  0.2278 -2.4153 -1.2987
  671TMC3    H2 9934   3.600   3.240  14.167 -0.8046  0.2108  0.7230
  671TMC3    C7 9935   3.398   3.307  14.018  0.0685  0.3449  0.4360
  671TMC3    C8 9936   3.836   3.351  14.178 -0.2810 -0.2944  1.0763
  671TMC3    O1 9937   3.439   3.200  13.964 -0.0422 -0.7784 -0.1962
  671TMC3    O2 9938   3.930   3.417  14.223  0.3778  0.1690  0.7457
  672MPD2     C 9939   4.133   3.598   1.037  0.1578 -0.7915 -0.0837
  672MPD2    C1 9940   4.195   3.707   0.968 -0.9421 -0.2212  0.3490
  672MPD2    C2 9941   4.248   3.808   1.044 -0.0038  0.4376  0.0126
  672MPD2    C3 9942   4.259   3.794   1.185 -0.3957  0.4809 -0.2844
  672MPD2    C4 9943   4.201   3.688   1.245 -0.0853 -0.5865 -0.0693
  672MPD2    C5 9944   4.136   3.594   1.170  0.5372 -0.4152  0.1932
  672MPD2     H 9945   4.298   3.885   0.987  2.2335 -1.2161 -0.2374
  672MPD2    H1 9946   4.199   3.673   1.352  2.5891 -2.3785 -0.2664
  672MPD2    H2 9947   4.079   3.524   0.979 -3.6550  2.0794 -0.2334
  672MPD2    H3 9948   4.091   3.509   1.221  0.4445 -1.4018 -1.5464
  672MPD2     N 9949   4.319   3.893   1.264  0.3594 -0.0893  0.1330
  672MPD2    H5 9950   4.335   3.872   1.362 -2.7648 -1.1912  0.3806
  672MPD2    N1 9951   4.195   3.724   0.827  0.0012 -0.4281 -0.0777
  672MPD2    H7 9952   4.246   3.804   0.793 -1.2078  0.2490 -0.3163
  673TMC3    C1 9953   4.211   3.670   0.607 -0.2722  0.3650 -0.1253
  673TMC3    C2 9954   4.279   3.578   0.525  0.6131 -0.0071 -0.3462
  673TMC3    C3 9955   4.345   3.624   0.420 -0.3475  1.0201 -0.2344
  673TMC3    C4 9956   4.210   3.804   0.584 -0.0571  0.1695  0.4082
  673TMC3    C5 9957   4.285   3.849   0.480 -0.6130 -0.0048  0.3536
  673TMC3    C6 9958   4.357   3.761   0.394 -0.6593 -0.3307  0.1302
  673TMC3     C 9959   4.167   3.624   0.735 -0.5395 -0.8110  0.4614
  673TMC3     O 9960   4.157   3.506   0.758  0.1055 -0.2524 -0.3890
  673TMC3     H 9961   4.278   3.474   0.555  0.4856 -0.7468 -2.9598
  673TMC3    H1 9962   4.154   3.874   0.645 -2.4170 -0.5244 -0.9449
  673TMC3    H2 9963   4.410   3.795   0.306  0.9955  0.9259  1.6214
  673TMC3    C7 9964   4.315   3.990   0.466 -0.1936 -0.6422 -0.0466
  673TMC3    C8 9965   4.458   3.532   0.383  0.1523  0.4395  0.2091
  673TMC3    O1 9966   4.240   4.068   0.526 -0.5796 -0.0431  0.3710
  673TMC3    O2 9967   4.506   3.560   0.271  0.2479 -0.1403 -0.1588
  674MPD2     C 9968   4.144   4.405   0.145 -0.3018  0.2278 -0.2342
  674MPD2    C1 9969   4.111   4.275   0.181  0.0964  0.0838  0.0844
  674MPD2    C2 9970   4.028   4.255   0.293  0.7427 -0.6313 -0.0707
  674MPD2    C3 9971   3.991   4.362   0.363  0.2798 -0.2199 -0.2101
  674MPD2    C4 9972   4.007   4.490   0.320 -0.1371  0.3863  0.2556
  674MPD2    C5 9973   4.088   4.509   0.213  0.3606  0.0437 -0.6157
  674MPD2     H 9974   4.009   4.158   0.337  0.6464 -0.7221 -0.3139
  674MPD2    H1 9975   3.970   4.577   0.373 -1.4813  1.2541 -2.1163
  674MPD2    H2 9976   4.211   4.433   0.064  0.1613  0.0451  0.0863
  674MPD2    H3 9977   4.097   4.605   0.164 -2.2472  1.4234  1.5946
  674MPD2     N 9978   3.934   4.337   0.491 -0.0726  0.1692 -0.1894
  674MPD2    H5 9979   3.917   4.243   0.524  3.6605  0.0697  1.4356
  674MPD2    N1 9980   4.173   4.166   0.117 -0.2267  0.4119  0.7175
  674MPD2    H7 9981   4.243   4.177   0.044 -1.7457  2.0195 -0.4876
  675TMC3    C1 9982   4.215   3.947   0.055 -0.2920  0.2374  0.3411
  675TMC3    C2 9983   4.176   3.812   0.055  0.0618  0.0602 -0.3005
  675TMC3    C3 9984   4.268   3.712   0.047 -0.2738  0.0888 -0.3742
  675TMC3    C4 9985   4.348   3.972   0.057 -0.0772 -0.0094  0.1137
  675TMC3    C5 9986   4.438   3.863   0.047  0.5838  0.0678 -0.0634
  675TMC3    C6 9987   4.403   3.736   0.037  0.0826  0.2999  0.0263
  675TMC3     C 9988   4.141   4.032   0.139  0.0687 -0.2061  0.4044
  675TMC3     O 9989   4.044   3.985   0.199  0.2434 -0.4340  0.1232
  675TMC3     H 9990   4.069   3.797   0.042 -0.5011  1.1848  2.9618
  675TMC3    H1 9991   4.392   4.071   0.059  1.3194 -0.6396  0.7409
  675TMC3    H2 9992   4.467   3.649   0.044 -0.1110  0.3338  2.2489
  675TMC3    C7 9993   4.580   3.891   0.073  0.6771  0.4319  0.1796
  675TMC3    C8 9994   4.220   3.578   0.056  0.0181  0.0352  0.2316
  675TMC3    O1 9995   4.621   3.999   0.030  0.2172 -0.6389  0.1262
  675TMC3    O2 9996   4.284   3.499  17.673 -0.0382  0.1230  0.9063
  676MPD2     C 9997   1.856   1.570  10.913  0.4549 -0.1040  0.6750
  676MPD2    C1 9998   1.808   1.510  11.029 -0.5168  0.6600 -0.6213
  676MPD2    C2 9999   1.813   1.371  11.049 -0.3914  0.6777 -0.0937
  676MPD2    C310000   1.877   1.297  10.954  0.1600 -0.2121 -0.4431
  676MPD2    C410001   1.929   1.356  10.843  0.6352 -0.5118 -0.5145
  676MPD2    C510002   1.914   1.489  10.817 -0.7892 -0.2857  0.3213
  676MPD2     H10003   1.780   1.326  11.142  0.3216  0.7790  0.2079
  676MPD2    H110004   1.985   1.299  10.770 -1.6751 -1.2664 -1.6843
  676MPD2    H210005   1.845   1.677  10.900  0.9662 -0.1500 -0.1669
  676MPD2    H310006   1.952   1.541  10.729 -1.1791  0.5928  0.6689
  676MPD2     N10007   1.882   1.151  10.952 -0.5368 -0.5113  0.5690
  676MPD2    H510008   1.931   1.113  10.872  0.3245  1.1655  0.2925
  676MPD2    N110009   1.759   1.587  11.143  0.0695 -0.3310  0.5642
  676MPD2    H710010   1.734   1.533  11.225  3.1455  1.5539  2.7680
  677TMC3    C110011   1.700   1.776  11.258 -0.0121 -1.0501 -0.3786
  677TMC3    C210012   1.581   1.717  11.286 -0.4762 -0.5171 -0.0201
  677TMC3    C310013   1.500   1.785  11.378  0.3026  0.2255 -0.0177
  677TMC3    C410014   1.738   1.891  11.320  0.5380  0.1773  0.5480
  677TMC3    C510015   1.658   1.952  11.409 -0.9566  0.0060 -0.4033
  677TMC3    C610016   1.538   1.904  11.443 -0.1437  0.3327  0.0569
  677TMC3     C10017   1.781   1.722  11.156  0.7336 -0.0195  0.5728
  677TMC3     O10018   1.837   1.806  11.088  0.5453  0.2152  0.3001
  677TMC3     H10019   1.551   1.621  11.245  2.2060 -1.2759 -0.2007
  677TMC3    H110020   1.835   1.935  11.299 -0.1145  0.7492 -1.2451
  677TMC3    H210021   1.474   1.951  11.517 -0.0528 -0.7972  0.8487
  677TMC3    C710022   1.692   2.069  11.484  0.2756 -0.3131  0.0172
  677TMC3    C810023   1.374   1.720  11.420  0.0128  0.2687  0.1070
  677TMC3    O110024   1.622   2.099  11.583  0.6868 -0.2398  0.5367
  677TMC3    O210025   1.304   1.690  11.324 -0.3154 -0.0414 -0.5093
  678MPD2     C10026   2.944   2.526   1.783  0.3754 -0.5215 -0.5831
  678MPD2    C110027   2.999   2.459   1.677  0.0758  0.3693 -0.3025
  678MPD2    C210028   2.915   2.373   1.608  0.1664 -0.2593 -0.3977
  678MPD2    C310029   2.779   2.378   1.632 -0.1182  0.0491  0.5839
  678MPD2    C410030   2.725   2.457   1.737  0.4953  0.6473 -0.1574
  678MPD2    C510031   2.814   2.531   1.812 -0.4944  0.2651 -0.1458
  678MPD2     H10032   2.949   2.319   1.520 -2.7069  1.8044 -2.8013
  678MPD2    H110033   2.619   2.458   1.760  0.4807  2.2695 -0.2780
  678MPD2    H210034   3.001   2.607   1.827 -0.5401  0.3923 -1.0691
  678MPD2    H310035   2.781   2.596   1.892 -0.0337 -0.0628  0.3139
  678MPD2     N10036   2.695   2.294   1.556 -0.0288 -0.2428 -0.2403
  678MPD2    H510037   2.743   2.225   1.498  0.3629 -0.6093  0.5135
  678MPD2    N110038   3.133   2.463   1.633  0.3030 -0.1454  0.4814
  678MPD2    H710039   3.161   2.401   1.557 -0.2385  1.2315 -0.8393
  679TMC3    C110040   3.524   2.449   1.527  0.2810 -0.4395  0.0526
  679TMC3    C210041   3.399   2.446   1.577  1.6092 -0.4260 -0.4896
  679TMC3    C310042   3.334   2.564   1.586 -0.0997  0.3553 -0.6105
  679TMC3    C410043   3.585   2.560   1.487 -0.7832 -0.2333 -0.6997
  679TMC3    C510044   3.514   2.682   1.497  0.5603 -0.3491  0.0247
  679TMC3    C610045   3.388   2.689   1.560 -0.5780 -0.4212  0.4456
  679TMC3     C10046   3.594   2.323   1.512 -0.2386 -0.0192 -0.5322
  679TMC3     O10047   3.710   2.329   1.476  0.4168  0.2723 -0.0086
  679TMC3     H10048   3.349   2.360   1.621 -1.5421  0.4926 -2.2915
  679TMC3    H110049   3.677   2.563   1.430  1.1572 -0.3176  2.4435
  679TMC3    H210050   3.323   2.775   1.561  0.8718  0.6457  3.4127
  679TMC3    C710051   3.510   2.767   1.383  1.3056  0.0679  0.1805
  679TMC3    C810052   3.214   2.564   1.661  0.0930 -1.0924  0.2952
  679TMC3    O110053   3.407   2.805   1.331 -0.0714  0.1264  0.4339
  679TMC3    O210054   3.201   2.659   1.740  0.2944  0.1617 -0.5178
  680MPD2     C10055   4.279   0.479  13.873  0.0913  0.6917 -0.3960
  680MPD2    C110056   4.152   0.499  13.922  0.0707 -1.0044 -0.7746
  680MPD2    C210057   4.124   0.602  14.014 -0.1522  0.9322  0.3858
  680MPD2    C310058   4.216   0.701  14.028  0.4609 -0.0520 -0.1095
  680MPD2    C410059   4.344   0.682  13.975 -0.2565 -0.3685 -0.3882
  680MPD2    C510060   4.375   0.573  13.904  0.1414  0.1224  0.0113
  680MPD2     H10061   4.020   0.623  14.035 -0.2665 -0.3587  1.1032
  680MPD2    H110062   4.410   0.767  13.989 -1.1510  0.5866 -1.9996
  680MPD2    H210063   4.311   0.398  13.809 -0.8429 -0.6741  0.8988
  680MPD2    H310064   4.474   0.557  13.864  0.0341 -1.6195  0.4482
  680MPD2     N10065   4.185   0.816  14.110 -0.9987 -0.1756  0.0357
  680MPD2    H510066   4.258   0.887  14.104 -0.3448 -0.6819  1.9794
  680MPD2    N110067   4.053   0.415  13.872  0.1481 -0.5574 -0.1974
  680MPD2    H710068   3.968   0.407  13.928 -0.2796 -0.5891 -0.8393
  681TMC3    C110069   3.961   0.237  13.747  0.1932  0.2385 -0.5105
  681TMC3    C210070   3.907   0.182  13.858  0.0008  0.2186  0.0730
  681TMC3    C310071   3.829   0.068  13.830  0.2586 -0.7486  0.2507
  681TMC3    C410072   3.937   0.197  13.620  0.0607 -0.4643 -0.0223
  681TMC3    C510073   3.868   0.076  13.607 -0.3185 -0.2593 -0.5000
  681TMC3    C610074   3.807   0.012  13.710  0.2025  0.1462  0.1538
  681TMC3     C10075   4.067   0.338  13.762  0.4422  0.0999  0.5062
  681TMC3     O10076   4.141   0.349  13.665  0.1789  0.3976  0.2464
  681TMC3     H10077   3.945   0.206  13.956  0.2237  0.5514 -0.0977
  681TMC3    H110078   3.982   0.246  13.535  0.0516  0.0387  0.2649
  681TMC3    H210079   3.747   4.643  13.696 -0.1052  0.4825 -0.7233
  681TMC3    C710080   3.873   0.004  13.474  0.3502  0.3592  0.1148
  681TMC3    C810081   3.757   0.015  13.944  0.0649  0.1276  0.2409
  681TMC3    O110082   3.864   4.600  13.469 -0.0756  0.0502  0.0177
  681TMC3    O210083   3.677   4.646  13.919 -0.7403 -0.4663  0.6467
  682MPD2     C10084   1.417   2.199  10.678 -0.0486 -0.1460 -0.0501
  682MPD2    C110085   1.292   2.134  10.658  0.8672 -0.3243  0.2480
  682MPD2    C210086   1.186   2.170  10.740  0.4158 -0.8274 -0.2533
  682MPD2    C310087   1.203   2.263  10.844  0.3293  0.6259  0.5759
  682MPD2    C410088   1.323   2.326  10.854  0.3925  0.2542 -0.6411
  682MPD2    C510089   1.432   2.302  10.767  0.3673 -0.8889  0.1813
  682MPD2     H10090   1.091   2.120  10.728 -0.8568  1.4295  0.5276
  682MPD2    H110091   1.337   2.404  10.928  1.8737 -1.4874  0.9101
  682MPD2    H210092   1.505   2.177  10.618  1.1116 -1.0973  2.0001
  682MPD2    H310093   1.528   2.352  10.769 -0.4624  0.6945  0.3455
  682MPD2     N10094   1.107   2.289  10.936 -0.2920  0.3670  0.6546
  682MPD2    H510095   1.136   2.335  11.022  1.9624  1.0092 -0.4647
  682MPD2    N110096   1.272   2.021  10.576  0.0510  0.7428  0.3227
  682MPD2    H710097   1.183   1.973  10.584  0.0981  0.7270  0.7470
  683TMC3    C110098   0.884   2.227  11.274  0.0339  0.1176 -0.3217
  683TMC3    C210099   0.749   2.208  11.265  0.4601  0.7846  0.7142
  683TMC3    C310100   0.691   2.227  11.139  0.2908 -0.2153  0.4106
  683TMC3    C410101   0.953   2.269  11.170  0.0421  0.5062  0.3846
  683TMC3    C510102   0.893   2.280  11.045  0.0681  0.2743 -0.3332
  683TMC3    C610103   0.762   2.265  11.033  0.2727  0.1334  0.8730
  683TMC3     C10104   0.937   2.260  11.408  0.1012 -0.1580  0.1231
  683TMC3     O10105   1.032   2.338  11.410  0.5227 -0.0896 -0.3109
  683TMC3     H10106   0.683   2.177  11.346 -1.3126  0.5547 -0.8293
  683TMC3    H110107   1.061   2.257  11.169 -0.0882 -0.6187 -0.1168
  683TMC3    H210108   0.722   2.254  10.933  0.4318 -0.7538  0.9085
  683TMC3    C710109   0.975   2.264  10.920  0.4950  0.0651  0.4260
  683TMC3    C810110   0.561   2.165  11.113 -0.2326  0.1656 -0.0598
  683TMC3    O110111   0.914   2.233  10.819  0.1132  0.3403  0.0137
  683TMC3    O210112   0.505   2.203  11.012 -0.2775 -0.4157 -0.4577
  684MPD2     C10113   3.397   1.911  16.365 -0.1178 -0.6939  0.3802
  684MPD2    C110114   3.473   1.958  16.261 -0.0345  0.1661  0.4855
  684MPD2    C210115   3.522   2.089  16.261 -0.2894  0.4800  0.5387
  684MPD2    C310116   3.487   2.174  16.360  0.1459  0.2351  0.6023
  684MPD2    C410117   3.410   2.125  16.461  0.2169  0.1533  0.1229
  684MPD2    C510118   3.367   1.993  16.467  0.3942  0.4956 -0.5899
  684MPD2     H10119   3.583   2.123  16.178 -0.0294  0.9083  0.9093
  684MPD2    H110120   3.376   2.183  16.546  0.6154 -0.9748  1.0498
  684MPD2    H210121   3.364   1.807  16.370 -0.3402 -0.5299  2.4212
  684MPD2    H310122   3.295   1.967  16.544  1.1282 -2.0654 -0.7507
  684MPD2     N10123   3.522   2.310  16.357  0.2651 -0.8092 -0.2067
  684MPD2    H510124   3.503   2.360  16.443  0.5656  0.2672 -0.7658
  684MPD2    N110125   3.520   1.872  16.162  0.4011  0.4721 -0.0040
  684MPD2    H710126   3.597   1.897  16.100 -0.8937  2.6588 -0.7463
  685TMC3    C110127   3.516   1.681  16.022  0.1701 -0.3957 -0.3430
  685TMC3    C210128   3.440   1.575  15.976 -0.5273  0.3354 -0.0693
  685TMC3    C310129   3.503   1.468  15.912 -0.5242  0.0190  0.0493
  685TMC3    C410130   3.651   1.681  16.000 -0.0162  0.0594  0.3033
  685TMC3    C510131   3.712   1.569  15.945  0.2380 -0.5410 -0.1187
  685TMC3    C610132   3.639   1.470  15.882  0.5657  0.0207  0.3636
  685TMC3     C10133   3.457   1.757  16.131 -0.9830 -0.6787 -0.6635
  685TMC3     O10134   3.355   1.713  16.173 -0.6417 -0.4194  0.0803
  685TMC3     H10135   3.334   1.577  16.000 -0.9900 -0.3747 -2.0429
  685TMC3    H110136   3.712   1.746  16.062  0.7911 -0.4856  0.0779
  685TMC3    H210137   3.679   1.380  15.836  0.0774 -0.4094  0.7807
  685TMC3    C710138   3.854   1.551  15.969  0.0845 -0.5679  0.2975
  685TMC3    C810139   3.423   1.364  15.838 -0.3240  0.3995  0.3106
  685TMC3    O110140   3.891   1.608  16.069  0.3587  0.1011 -0.2319
  685TMC3    O210141   3.469   1.253  15.809 -0.0306  0.2828  0.3720
  686MPD2     C10142   0.419   1.138  15.259  0.2118 -0.7092  0.6862
  686MPD2    C110143   0.466   1.107  15.386  0.7766  0.1363  0.1664
  686MPD2    C210144   0.541   0.993  15.410 -1.1228  0.0504  0.2364
  686MPD2    C310145   0.552   0.896  15.313  0.7739  0.1229  0.6011
  686MPD2    C410146   0.499   0.927  15.191  0.1970  0.0973  0.3369
  686MPD2    C510147   0.437   1.045  15.161  0.4493 -0.5527 -0.1330
  686MPD2     H10148   0.584   0.979  15.509 -1.1485  1.4072  0.4370
  686MPD2    H110149   0.496   0.852  15.112 -1.4617 -0.1880  0.6577
  686MPD2    H210150   0.354   1.223  15.245  1.9224  0.5888  0.5227
  686MPD2    H310151   0.394   1.059  15.063  0.6210  0.5057 -0.0551
  686MPD2     N10152   0.614   0.772  15.338 -0.7049 -0.3995 -0.3621
  686MPD2    H510153   0.620   0.719  15.251  1.0296 -1.2296  0.2740
  686MPD2    N110154   0.413   1.179  15.499 -0.5593 -0.0419 -0.0289
  686MPD2    H710155   0.332   1.238  15.481  0.0383  0.6959 -0.3122
  687TMC3    C110156   0.569   0.746  15.573 -0.3562 -0.3805 -0.2641
  687TMC3    C210157   0.435   0.781  15.575 -0.2256  1.3264  0.1423
  687TMC3    C310158   0.369   0.776  15.692 -0.1018 -0.1505 -0.4005
  687TMC3    C410159   0.632   0.704  15.685  0.0919  0.2305 -0.1891
  687TMC3    C510160   0.562   0.719  15.808 -0.0265  0.2552  0.3860
  687TMC3    C610161   0.430   0.747  15.813 -0.5349  0.0560 -0.2698
  687TMC3     C10162   0.633   0.701  15.452  0.3288  0.4681  0.1400
  687TMC3     O10163   0.712   0.606  15.448  0.1829  0.7455 -0.4751
  687TMC3     H10164   0.379   0.801  15.485  0.6124  0.0569 -0.6704
  687TMC3    H110165   0.736   0.674  15.685 -0.8117 -2.9033  1.0020
  687TMC3    H210166   0.389   0.743  15.913 -1.0796 -0.2359 -0.5085
  687TMC3    C710167   0.633   0.799  15.909 -0.2709  0.0793 -0.1581
  687TMC3    C810168   0.228   0.820  15.705 -0.3109 -1.0178  0.2666
  687TMC3    O110169   0.566   0.881  15.972  0.0592 -0.2471 -0.1154
  687TMC3    O210170   0.177   0.821  15.816  0.2959  0.2151 -0.4635
  688MPD2     C10171   4.524   0.614  17.360 -0.7554 -0.2429 -0.0733
  688MPD2    C110172   4.612   0.507  17.379 -0.4548 -0.4403 -0.0688
  688MPD2    C210173   4.689   0.450  17.277  0.3496 -0.0787 -0.5904
  688MPD2    C310174   4.682   0.500  17.150  0.5119  0.1236  0.3404
  688MPD2    C410175   4.589   0.608  17.126 -0.1417 -0.3152  0.0263
  688MPD2    C510176   4.524   0.665  17.233  0.3150  0.1665  0.2424
  688MPD2     H10177   0.036   0.368  17.300 -0.5741 -1.1185 -1.5520
  688MPD2    H110178   4.583   0.663  17.033 -0.8285  0.9856  0.8410
  688MPD2    H210179   4.447   0.655  17.425 -0.3986  0.7182 -0.2495
  688MPD2    H310180   4.466   0.754  17.210 -0.4380 -0.2577  0.5200
  688MPD2     N10181   0.022   0.444  17.038  0.0397  0.8875 -0.4484
  688MPD2    H510182   4.720   0.480  16.946  1.3686  0.2233 -1.0269
  688MPD2    N110183   4.617   0.439  17.505  0.1333  0.2611  0.2005
  688MPD2    H710184   4.665   0.349  17.502  0.8397  0.6398  0.2247
  689TMC3    C110185   4.574   0.385   0.049  0.2739 -0.1151 -0.4260
  689TMC3    C210186   4.552   0.442   0.167 -0.2093  0.0104  0.3934
  689TMC3    C310187   4.526   0.357   0.275 -0.0180  0.4409 -0.4664
  689TMC3    C410188   4.574   0.250   0.021 -0.0189 -0.9964 -0.4160
  689TMC3    C510189   4.540   0.176   0.125  0.3477 -0.4214  0.7792
  689TMC3    C610190   4.536   0.224   0.252  0.3698 -0.2114  0.3329
  689TMC3     C10191   4.569   0.488  17.627 -0.4044  0.1773 -0.2004
  689TMC3     O10192   4.534   0.598  17.652 -0.1968 -0.0043  0.2147
  689TMC3     H10193   4.559   0.550   0.175 -1.6341  0.1199  0.0869
  689TMC3    H110194   4.591   0.200  17.612  0.9096 -1.1109 -0.1906
  689TMC3    H210195   4.512   0.158   0.335  1.0223  1.4631  1.8597
  689TMC3    C710196   4.508   0.029   0.114  0.6650  0.2895  0.7569
  689TMC3    C810197   4.496   0.402   0.410  0.3416  0.2566 -0.6685
  689TMC3    O110198   4.527   4.691   0.220  0.6861 -0.0995 -0.3210
  689TMC3    O210199   4.512   0.327   0.507  0.7555  0.1537 -0.2718
  690MPD2     C10200   1.572   2.168  15.825 -0.3023  0.8076  0.4119
  690MPD2    C110201   1.586   2.113  15.700  0.4988 -0.4996 -0.2840
  690MPD2    C210202   1.692   2.152  15.628  0.2684  0.6621 -0.5070
  690MPD2    C310203   1.786   2.244  15.664  0.3278 -0.3072 -0.2264
  690MPD2    C410204   1.776   2.290  15.789  0.3317 -0.2620 -0.1515
  690MPD2    C510205   1.676   2.241  15.871  0.5673 -0.7684 -0.2728
  690MPD2     H10206   1.696   2.116  15.526 -1.7501  0.5685 -0.5561
  690MPD2    H110207   1.840   2.368  15.828  0.5058 -0.2808 -0.3954
  690MPD2    H210208   1.484   2.146  15.885 -0.9584  0.6414 -0.6129
  690MPD2    H310209   1.662   2.287  15.968  1.8125 -0.5599 -0.1914
  690MPD2     N10210   1.878   2.287  15.566 -0.0089 -0.9417 -0.0543
  690MPD2    H510211   1.897   2.232  15.483 -0.0896  0.4029 -0.9709
  690MPD2    N110212   1.507   2.014  15.650  0.2635 -0.4208 -0.3382
  690MPD2    H710213   1.545   1.968  15.568  2.5322  0.1475  0.3733
  691TMC3    C110214   1.323   1.860  15.659  0.3086  0.3546  0.9741
  691TMC3    C210215   1.216   1.822  15.736 -0.5427 -0.1101 -0.3182
  691TMC3    C310216   1.183   1.687  15.737 -0.1337  0.3787  0.3152
  691TMC3    C410217   1.384   1.765  15.576 -0.4057  0.0929  0.8513
  691TMC3    C510218   1.337   1.635  15.568  0.3546 -0.2984 -0.1496
  691TMC3    C610219   1.237   1.593  15.650 -0.2404 -0.3807 -0.0066
  691TMC3     C10220   1.383   1.987  15.693 -0.0486 -0.4541 -0.5557
  691TMC3     O10221   1.316   2.061  15.762  0.4632 -0.3198  0.3837
  691TMC3     H10222   1.176   1.880  15.819  0.5269  0.5796 -0.2840
  691TMC3    H110223   1.471   1.797  15.521  0.0532 -0.9370  0.9829
  691TMC3    H210224   1.202   1.490  15.656 -2.2448  0.2718 -0.7720
  691TMC3    C710225   1.412   1.547  15.481 -0.1640 -1.0795 -0.6361
  691TMC3    C810226   1.065   1.634  15.812 -0.2949  0.4170  0.0523
  691TMC3    O110227   1.504   1.597  15.422  0.2810  0.2497 -1.1358
  691TMC3    O210228   1.057   1.514  15.853  0.2651 -0.6459 -0.4035
  692TMC3    C110229   2.869   3.521  16.009  0.4897 -0.3118 -0.1190
  692TMC3    C210230   2.974   3.601  16.056  0.5702  0.0344  1.0266
  692TMC3    C310231   3.101   3.548  16.058  0.2025  0.2585  0.6002
  692TMC3    C410232   2.895   3.409  15.936  0.6711 -0.4341 -0.0171
  692TMC3    C510233   3.027   3.360  15.942  0.2143  0.0659  0.0272
  692TMC3    C610234   3.121   3.419  16.011 -1.0584  0.2178 -0.5591
  692TMC3     C10235   2.768   3.477  16.106  0.6704  0.7518  0.1220
  692TMC3     O10236   2.746   3.358  16.109  0.6472 -0.3989  0.2940
  692TMC3     H10237   2.949   3.675  16.131  0.2822 -0.5511  1.5085
  692TMC3    H110238   2.826   3.347  15.880 -1.9751  0.9876  1.6555
  692TMC3    H210239   3.222   3.403  15.977 -1.5270 -1.4244 -1.1677
  692TMC3    C710240   3.054   3.242  15.861  0.2639 -0.5958 -0.2406
  692TMC3    C810241   3.179   3.605  16.171 -0.1723  0.3782  0.2239
  692TMC3    O110242   2.998   3.230  15.756  0.2365 -0.4556  0.1707
  692TMC3    O210243   3.175   3.726  16.195  0.7544  0.2032 -0.0396
  693MPD2     C10244   3.137   0.759  10.727 -0.3119 -0.1711 -0.8916
  693MPD2    C110245   3.103   0.655  10.648 -0.0603 -0.3622  0.7260
  693MPD2    C210246   3.204   0.571  10.599  0.3131  0.0242 -0.7504
  693MPD2    C310247   3.331   0.576  10.649 -0.3724 -0.5282  0.3636
  693MPD2    C410248   3.362   0.677  10.735  0.4981  0.5794 -1.0964
  693MPD2    C510249   3.266   0.767  10.768  0.4085 -0.5549  0.6363
  693MPD2     H10250   3.174   0.480  10.548 -1.0679  1.3220 -2.2257
  693MPD2    H110251   3.460   0.698  10.776 -0.2462 -0.2230  1.1140
  693MPD2    H210252   3.055   0.816  10.769 -0.1354  0.0278 -0.8144
  693MPD2    H310253   3.286   0.845  10.841  1.5150 -1.0836  0.8812
  693MPD2     N10254   3.433   0.478  10.628  0.1489 -0.0404 -0.1919
  693MPD2    H510255   3.517   0.496  10.683  1.0062  0.7325 -1.7713
  693MPD2    N110256   2.972   0.627  10.632 -0.2511  0.2453  0.7562
  693MPD2    H710257   2.904   0.689  10.675 -0.0745  1.9734 -1.5096
  694TMC3    C110258   2.764   0.508  10.627  0.4078  0.3542 -0.1909
  694TMC3    C210259   2.666   0.440  10.553  0.5232  0.7265  0.0580
  694TMC3    C310260   2.540   0.432  10.599  0.0720  0.1219 -0.6686
  694TMC3    C410261   2.737   0.561  10.751 -0.0153 -0.1675 -0.2990
  694TMC3    C510262   2.614   0.532  10.801 -0.0666  0.2003 -0.2998
  694TMC3    C610263   2.513   0.472  10.731 -0.0785  0.5449  0.7164
  694TMC3     C10264   2.904   0.521  10.571  0.1261  0.2629  0.0152
  694TMC3     O10265   2.947   0.443  10.487  0.3026  0.4363 -0.8149
  694TMC3     H10266   2.702   0.393  10.463  2.4928  1.8791  0.2397
  694TMC3    H110267   2.816   0.603  10.812  0.5672 -0.6515 -0.7148
  694TMC3    H210268   2.420   0.450  10.782  0.5124  1.5586  2.2586
  694TMC3    C710269   2.594   0.564  10.942  0.5628  0.0067 -0.0370
  694TMC3    C810270   2.442   0.341  10.543 -0.6749 -0.4132  0.1036
  694TMC3    O110271   2.680   0.633  10.997 -0.1220  0.2179  1.0308
  694TMC3    O210272   2.364   0.299  10.626 -0.6533  0.1232 -0.5520
  695MPD2     C10273   3.741   2.415  13.472 -0.9257  0.2326  0.2981
  695MPD2    C110274   3.726   2.502  13.570  0.4854 -0.3270  0.3562
  695MPD2    C210275   3.620   2.597  13.564 -0.6150  0.1718  0.3318
  695MPD2    C310276   3.543   2.606  13.451  0.7099 -0.2517 -0.0392
  695MPD2    C410277   3.559   2.522  13.347 -0.3941 -0.3970  0.7714
  695MPD2    C510278   3.663   2.430  13.357 -0.1033 -0.4387  0.4275
  695MPD2     H10279   3.597   2.675  13.635 -0.2494 -0.5335  1.2180
  695MPD2    H110280   3.491   2.542  13.266 -0.0516 -0.5227  0.4534
  695MPD2    H210281   3.810   2.332  13.472  0.3848  1.3354  0.9355
  695MPD2    H310282   3.681   2.372  13.267  0.5518  1.5045 -0.6965
  695MPD2     N10283   3.437   2.702  13.451  0.0166 -0.4956  0.6552
  695MPD2    H510284   3.408   2.746  13.538  2.4484  0.6976  0.8553
  695MPD2    N110285   3.807   2.511  13.687 -0.1893 -0.2448  0.2925
  695MPD2    H710286   3.771   2.578  13.754 -1.2557 -0.1423 -0.3644
  696TMC3    C110287   3.276   2.850  13.386 -0.1662 -0.6255  0.2138
  696TMC3    C210288   3.224   2.858  13.514 -0.3238 -0.0535 -0.3504
  696TMC3    C310289   3.136   2.962  13.548 -0.6704 -0.4160 -0.5403
  696TMC3    C410290   3.231   2.934  13.287 -0.0809 -0.2812  0.6912
  696TMC3    C510291   3.152   3.040  13.323  0.1906 -0.2600 -0.1917
  696TMC3    C610292   3.100   3.056  13.451  0.2045 -0.7700 -0.0517
  696TMC3     C10293   3.376   2.750  13.340 -0.2427 -0.3436  0.0037
  696TMC3     O10294   3.397   2.733  13.222  0.5678  0.3151 -0.8283
  696TMC3     H10295   3.232   2.775  13.583  0.1426 -0.7900 -1.2817
  696TMC3    H110296   3.271   2.919  13.187 -2.9613 -1.2146 -0.3267
  696TMC3    H210297   3.020   3.127  13.469  0.6853 -0.0040 -0.9354
  696TMC3    C710298   3.216   3.163  13.276 -0.0466  0.2004  0.0642
  696TMC3    C810299   3.120   3.004  13.688 -0.4891 -0.2088  0.4814
  696TMC3    O110300   3.299   3.161  13.190 -0.3615 -0.5817 -0.1215
  696TMC3    O210301   3.202   2.960  13.770 -0.1353  0.2179  0.2356
  697MPD2     C10302   2.672   0.207  15.739 -0.2865 -0.0565 -0.8846
  697MPD2    C110303   2.719   0.099  15.670 -0.7542  0.0518 -0.2839
  697MPD2    C210304   2.804   0.118  15.564 -0.8915  0.0328  0.3705
  697MPD2    C310305   2.848   0.248  15.542 -0.1105 -0.1947  0.1874
  697MPD2    C410306   2.814   0.357  15.625  0.0496  0.0503 -0.3905
  697MPD2    C510307   2.721   0.336  15.720  0.3276  0.6631  0.4337
  697MPD2     H10308   2.848   0.032  15.514 -0.6560 -0.2071  0.9846
  697MPD2    H110309   2.856   0.457  15.620 -1.9864  0.8505 -1.6192
  697MPD2    H210310   2.588   0.206  15.808 -0.1321 -0.1497 -0.6992
  697MPD2    H310311   2.695   0.423  15.778  1.3437  1.4813 -0.3334
  697MPD2     N10312   2.952   0.258  15.445 -0.0065 -0.6773 -0.1171
  697MPD2    H510313   2.965   0.181  15.380 -0.2677 -1.6964  1.0472
  697MPD2    N110314   2.677   4.690  15.691 -0.3097 -0.3421 -0.3857
  697MPD2    H710315   2.715   4.617  15.633 -4.3579 -3.7460  1.2909
  698TMC3    C110316   3.102   0.358  15.285 -0.1043 -0.1720 -0.7659
  698TMC3    C210317   3.119   0.475  15.215 -0.7941 -0.3189 -0.6240
  698TMC3    C310318   3.187   0.467  15.097 -0.0553 -0.1939 -0.2527
  698TMC3    C410319   3.133   0.238  15.238 -0.3463 -0.6282 -0.9822
  698TMC3    C510320   3.199   0.235  15.120 -0.1185 -0.3437 -0.5080
  698TMC3    C610321   3.233   0.346  15.038 -0.3374  0.5357  0.3142
  698TMC3     C10322   3.012   0.372  15.406 -1.4833  0.7092  0.2286
  698TMC3     O10323   3.021   0.478  15.468 -0.0331 -0.4976  0.1635
  698TMC3     H10324   3.068   0.567  15.240  0.2278 -1.3237  5.3032
  698TMC3    H110325   3.124   0.153  15.306  0.6351 -0.4683 -0.6423
  698TMC3    H210326   3.284   0.344  14.942  0.3601  0.9032  0.6746
  698TMC3    C710327   3.216   0.105  15.064 -0.5450  0.2619 -0.0786
  698TMC3    C810328   3.191   0.585  15.014  0.3331 -0.5034 -0.6419
  698TMC3    O110329   3.242   0.012  15.138 -0.3056 -0.2667  0.1725
  698TMC3    O210330   3.228   0.554  14.902 -0.2753 -0.3023 -0.5591
  699TMC3    C110331   3.389   2.836  12.818 -0.3454 -0.1616  0.1755
  699TMC3    C210332   3.405   2.701  12.847 -0.0499  0.2644  0.9483
  699TMC3    C310333   3.299   2.646  12.914  0.5528  0.2184 -0.2273
  699TMC3    C410334   3.284   2.910  12.856  0.1913 -0.6626  0.6099
  699TMC3    C510335   3.179   2.850  12.927  0.6613 -0.0282 -0.3322
  699TMC3    C610336   3.182   2.714  12.951 -0.5953 -0.1042 -0.0549
  699TMC3     C10337   3.436   2.880  12.690 -0.2591  0.1419  0.9097
  699TMC3     O10338   3.359   2.949  12.626  0.2036  0.2579  0.2557
  699TMC3     H10339   3.484   2.642  12.800  0.6335  2.2553 -0.4030
  699TMC3    H110340   3.276   3.016  12.834 -0.9440 -1.1845 -1.5071
  699TMC3    H210341   3.094   2.663  12.989  0.5072 -2.4113 -0.5963
  699TMC3    C710342   3.079   2.938  12.984  0.2935  0.2203  0.2132
  699TMC3    C810343   3.289   2.502  12.942  0.3146 -0.1970 -0.1719
  699TMC3    O110344   3.076   3.056  12.953  0.0006 -0.1989  0.3743
  699TMC3    O210345   3.183   2.448  12.957 -0.0031  0.3272  0.2097
  700TMC3    C110346   2.394   0.454  17.018 -0.9419  0.0562  0.7774
  700TMC3    C210347   2.452   0.328  16.990 -0.0764  0.1564  0.0309
  700TMC3    C310348   2.532   0.272  17.086 -0.3342  0.2454  0.0603
  700TMC3    C410349   2.423   0.518  17.136 -0.1583  0.2452  0.6839
  700TMC3    C510350   2.499   0.458  17.231 -0.0888 -0.7792  0.5003
  700TMC3    C610351   2.560   0.331  17.207 -0.0573  0.4261 -0.4055
  700TMC3     C10352   2.327   0.514  16.905  1.2307 -0.8207 -0.0836
  700TMC3     O10353   2.296   0.439  16.813  0.2918  0.4692  0.0055
  700TMC3     H10354   2.426   0.279  16.897 -1.8097  2.5968 -0.7816
  700TMC3    H110355   2.382   0.617  17.150 -1.0771  0.2617 -2.0817
  700TMC3    H210356   2.617   0.281  17.285  0.7632  2.6337  0.4185
  700TMC3    C710357   2.545   0.538  17.340 -0.8417  1.2309  0.0181
  700TMC3    C810358   2.641   0.189  17.035 -0.1938 -0.4183 -0.1017
  700TMC3    O110359   2.525   0.658  17.325  0.0393 -0.6136 -0.5216
  700TMC3    O210360   2.659   0.185  16.914 -0.0683 -0.0037  0.6978
  701TMC3    C110361   2.324   3.700  15.503 -0.2829  0.4466  0.0049
  701TMC3    C210362   2.362   3.655  15.377  0.0669  0.0101  0.3035
  701TMC3    C310363   2.400   3.752  15.293  0.1904 -0.0652 -0.7925
  701TMC3    C410364   2.343   3.824  15.545 -0.4748 -0.6482  0.2785
  701TMC3    C510365   2.380   3.914  15.456  0.4494 -0.0625  0.4705
  701TMC3    C610366   2.410   3.877  15.329  0.0796 -0.3382  0.3610
  701TMC3     C10367   2.281   3.606  15.604  1.0753  0.4551 -0.3989
  701TMC3     O10368   2.229   3.657  15.703  0.2593  0.2572  0.1081
  701TMC3     H10369   2.343   3.558  15.333 -0.6879  0.2988 -0.0135
  701TMC3    H110370   2.306   3.843  15.645 -0.6013  0.0234  0.1013
  701TMC3    H210371   2.454   3.949  15.259  0.6610 -0.8004  0.2495
  701TMC3    C710372   2.352   4.057  15.471  0.0377 -0.4188  0.6131
  701TMC3    C810373   2.373   3.741  15.151  0.1405 -0.2225  0.1415
  701TMC3    O110374   2.372   4.141  15.382 -0.1528  0.0779  0.1892
  701TMC3    O210375   2.313   3.823  15.088  0.1289  0.1894 -0.4449
  702MPD2     C10376   1.978   0.795  10.402 -0.0337 -0.2598  0.9050
  702MPD2    C110377   2.021   0.868  10.507 -0.2422 -0.3532  0.1126
  702MPD2    C210378   2.089   0.981  10.478 -0.0385  0.3802 -0.3553
  702MPD2    C310379   2.105   1.028  10.346 -0.4292  0.4869  0.9163
  702MPD2    C410380   2.076   0.947  10.238 -0.3004  0.7106 -0.6377
  702MPD2    C510381   2.013   0.831  10.270 -0.7655  0.0778 -0.4979
  702MPD2     H10382   2.125   1.042  10.559  2.2233 -1.9925  0.4087
  702MPD2    H110383   2.104   0.967  10.135  1.0242 -2.5553 -0.9068
  702MPD2    H210384   1.923   0.702  10.406 -2.6533  1.2353 -0.3098
  702MPD2    H310385   1.980   0.776  10.184 -2.2069 -1.4798  1.0481
  702MPD2     N10386   2.152   1.158  10.321 -0.1212  0.2283  0.3334
  702MPD2    H510387   2.177   1.174  10.224 -0.3792  0.3489  0.2861
  702MPD2    N110388   1.994   0.850  10.642 -0.0590 -0.4195  0.7246
  702MPD2    H710389   2.031   0.925  10.700 -0.1194  1.2436 -1.3598
  703TMC3    C110390   2.165   1.391  10.357  0.2651  0.8076 -0.7009
  703TMC3    C210391   2.114   1.503  10.407 -1.0037  0.4137 -0.0831
  703TMC3    C310392   2.146   1.618  10.338  0.2937 -0.0863 -0.1651
  703TMC3    C410393   2.272   1.387  10.267  0.0873 -0.5733 -0.1109
  703TMC3    C510394   2.312   1.509  10.211 -0.1408 -0.4157 -0.4837
  703TMC3    C610395   2.237   1.623  10.234  0.7159 -0.1996 -0.1186
  703TMC3     C10396   2.113   1.265  10.402  0.2366  1.2608  0.5612
  703TMC3     O10397   2.047   1.260  10.508  0.5761 -0.0015 -0.3448
  703TMC3     H10398   2.041   1.488  10.486 -1.2961  1.0763 -0.2293
  703TMC3    H110399   2.326   1.294  10.250  0.5745 -0.0692 -1.2860
  703TMC3    H210400   2.251   1.716  10.181 -1.1544 -1.1455 -2.2878
  703TMC3    C710401   2.442   1.525  10.143 -0.1805 -0.5374  0.9618
  703TMC3    C810402   2.072   1.742  10.366  0.7137  0.5643  0.0588
  703TMC3    O110403   2.454   1.622  10.069  0.2312  0.3466 -0.0725
  703TMC3    O210404   2.095   1.847  10.307  0.3552  0.7240 -0.1409
  704TMC3    C110405   4.628   4.719  12.585 -0.1196 -0.4970  0.0962
  704TMC3    C210406   0.025   4.715  12.519  0.0077 -0.2320 -0.7755
  704TMC3    C310407   0.133   4.665  12.586 -0.3465  0.7500 -0.4653
  704TMC3    C410408   4.615   4.660  12.709 -0.1060 -0.0042  0.0936
  704TMC3    C510409   4.715   4.580  12.759 -0.6414  0.4009 -0.4713
  704TMC3    C610410   0.117   4.588  12.699  0.4469  0.1215  0.7233
  704TMC3     C10411   4.504   4.715  12.508  0.1917  1.1231  0.7161
  704TMC3     O10412   4.394   4.701  12.562 -0.1809 -0.7734 -0.7340
  704TMC3     H10413   0.039   0.061  12.434 -0.4398 -0.0806 -0.7320
  704TMC3    H110414   4.513   4.647  12.744  0.8144  0.5589  2.9298
  704TMC3    H210415   0.197   4.526  12.736  0.6279  1.8052  3.1394
  704TMC3    C710416   4.659   4.440  12.751 -0.7756  0.2251  0.1790
  704TMC3    C810417   0.236   4.612  12.489  0.2640  0.9262  0.1798
  704TMC3    O110418   4.712   4.372  12.663 -0.2045 -0.2706  0.1604
  704TMC3    O210419   0.196   4.612  12.372  0.2161  0.0962  0.6641
  705MPD2     C10420   3.811   3.851  17.016 -0.1300  0.4404  0.1804
  705MPD2    C110421   3.801   3.721  16.970  0.2823  0.1461  0.8291
  705MPD2    C210422   3.766   3.619  17.056 -0.4536  0.4224 -0.6603
  705MPD2    C310423   3.748   3.654  17.190 -0.5057  0.0912  0.9135
  705MPD2    C410424   3.766   3.779  17.245  0.1965 -0.2007 -1.0157
  705MPD2    C510425   3.801   3.878  17.150  0.1433 -0.1235 -0.5784
  705MPD2     H10426   3.747   3.521  17.014 -3.5949  0.7220  0.0704
  705MPD2    H110427   3.761   3.806  17.350 -1.0991 -2.6817 -0.4227
  705MPD2    H210428   3.828   3.935  16.950  1.3536 -1.0667 -1.3515
  705MPD2    H310429   3.807   3.983  17.177  0.6068 -0.0713 -0.8793
  705MPD2     N10430   3.702   3.557  17.284  0.3615 -0.3205  1.0315
  705MPD2    H510431   3.697   3.594  17.379  0.1927  1.5936  0.2606
  705MPD2    N110432   3.815   3.681  16.835 -0.0024 -0.7654 -0.0863
  705MPD2    H710433   3.780   3.588  16.812  1.9426 -1.7089  0.7880
  706TMC3    C110434   3.877   3.523  16.456 -0.0550  0.2046  0.0371
  706TMC3    C210435   3.836   3.597  16.350  0.8614 -0.2523  0.4583
  706TMC3    C310436   3.800   3.723  16.375 -0.2526 -0.5026  0.5312
  706TMC3    C410437   3.885   3.568  16.587 -0.5601 -0.2709 -0.1600
  706TMC3    C510438   3.856   3.701  16.600 -0.6942 -0.3882 -0.2116
  706TMC3    C610439   3.823   3.778  16.499  0.0171  0.3109  0.0234
  706TMC3     C10440   3.939   3.396  16.428 -0.2402  0.4674  0.1917
  706TMC3     O10441   3.999   3.336  16.520 -0.2409 -0.3567 -0.3276
  706TMC3     H10442   3.833   3.555  16.251  1.6591 -0.1122  0.3700
  706TMC3    H110443   3.899   3.503  16.672  0.1642  0.9935  0.7069
  706TMC3    H210444   3.787   3.879  16.515 -1.5767 -0.2527 -0.0019
  706TMC3    C710445   3.859   3.768  16.731 -0.3820 -0.0085  0.1225
  706TMC3    C810446   3.703   3.783  16.293 -0.5075  0.1924 -0.9331
  706TMC3    O110447   3.855   3.892  16.722 -0.2605  0.2630 -0.7187
  706TMC3    O210448   3.657   3.716  16.203  0.1628  0.1775 -0.2604
  707TMC3    C110449   0.789   1.779   1.188 -0.4693  0.1057 -0.2404
  707TMC3    C210450   0.774   1.661   1.110 -0.5557 -0.3359  0.0177
  707TMC3    C310451   0.651   1.636   1.064  0.0833  0.4725 -0.4513
  707TMC3    C410452   0.687   1.865   1.217 -0.1472 -0.3592  0.0752
  707TMC3    C510453   0.566   1.831   1.156  0.5792  0.5963 -0.1360
  707TMC3    C610454   0.544   1.714   1.087  0.0770  0.3674  0.8688
  707TMC3     C10455   0.914   1.786   1.260  0.8671  0.1904  0.1563
  707TMC3     O10456   1.000   1.711   1.215  0.1672 -0.3661 -0.0975
  707TMC3     H10457   0.861   1.605   1.078 -1.0582  0.8944 -3.4618
  707TMC3    H110458   0.710   1.964   1.255 -3.4964 -0.0512  1.3546
  707TMC3    H210459   0.446   1.675   1.060 -0.1583  0.7299  1.1954
  707TMC3    C710460   0.466   1.933   1.170  0.5670  0.2799 -0.3968
  707TMC3    C810461   0.638   1.524   0.977  0.2157  0.0282 -0.1906
  707TMC3    O110462   0.509   2.045   1.190  0.3510 -0.1611  0.1374
  707TMC3    O210463   0.564   1.530   0.882 -0.2147  0.4582 -0.0067
  708MPD2     C10464   2.701   0.799  13.730  0.5132 -0.2312 -0.5200
  708MPD2    C110465   2.606   0.882  13.672  0.2228 -0.1341 -0.0655
  708MPD2    C210466   2.530   0.962  13.763 -0.2851  0.2490  0.2590
  708MPD2    C310467   2.544   0.951  13.898 -0.0029 -0.0771 -0.2499
  708MPD2    C410468   2.640   0.869  13.953  0.0677 -0.2703  0.0645
  708MPD2    C510469   2.710   0.792  13.867  0.3893  0.5396 -0.2948
  708MPD2     H10470   2.455   1.029  13.722  0.9673  2.2356  1.2610
  708MPD2    H110471   2.683   0.874  14.053 -1.2006 -0.5513  0.6303
  708MPD2    H210472   2.757   0.721  13.679  0.2787 -1.1979  0.6895
  708MPD2    H310473   2.792   0.729  13.902 -0.2608 -0.4501 -0.5630
  708MPD2     N10474   2.459   1.018  13.988  0.4394 -0.5099  0.1094
  708MPD2    H510475   2.470   0.999  14.087 -0.9328 -0.0884  0.3489
  708MPD2    N110476   2.585   0.877  13.536  0.4511  0.1493 -0.4400
  708MPD2    H710477   2.653   0.816  13.492  1.1757  1.2728 -0.8674
  709TMC3    C110478   2.468   0.903  13.332  0.1448  0.3980  0.0670
  709TMC3    C210479   2.565   0.928  13.243  0.2069  0.0742  0.5932
  709TMC3    C310480   2.532   0.994  13.131 -0.3233  0.2510 -0.2847
  709TMC3    C410481   2.341   0.948  13.307  0.5477 -0.5593 -0.4109
  709TMC3    C510482   2.322   1.038  13.206 -0.8279  0.5947 -0.4145
  709TMC3    C610483   2.409   1.048  13.103 -0.7351  0.3950 -0.1276
  709TMC3     C10484   2.496   0.950  13.465  0.4275  0.4568  0.5679
  709TMC3     O10485   2.416   1.027  13.514 -0.2084 -0.0475  0.5375
  709TMC3     H10486   2.668   0.899  13.257  0.3849  0.3376 -0.1801
  709TMC3    H110487   2.269   0.925  13.385  0.1510  2.2310  0.0479
  709TMC3    H210488   2.374   1.095  13.012 -1.8243  0.3635  0.2766
  709TMC3    C710489   2.223   1.137  13.236  0.2307 -0.2820  0.3927
  709TMC3    C810490   2.588   0.933  13.015 -0.3380  0.0538  0.8524
  709TMC3    O110491   2.175   1.204  13.146 -0.4615 -0.3728  0.3596
  709TMC3    O210492   2.638   0.821  13.024  0.1958 -0.4011 -0.1611
  710TMC3    C110493   3.220   2.775   0.586  0.0861 -0.2898  0.0057
  710TMC3    C210494   3.305   2.721   0.493 -0.2365  0.3369  0.5961
  710TMC3    C310495   3.434   2.746   0.514  0.0707 -0.5117 -0.1398
  710TMC3    C410496   3.260   2.837   0.700 -0.4313  0.0892  0.0532
  710TMC3    C510497   3.395   2.872   0.715  0.4025  0.2852 -0.1625
  710TMC3    C610498   3.485   2.815   0.619 -0.2601  0.3249 -0.2318
  710TMC3     C10499   3.078   2.727   0.572 -0.0051  0.2919 -0.2838
  710TMC3     O10500   3.050   2.629   0.510  0.5283  0.7285 -0.0844
  710TMC3     H10501   3.252   2.700   0.401  0.4757 -3.4705  1.0729
  710TMC3    H110502   3.192   2.862   0.780  3.1467  0.9168  2.8278
  710TMC3    H210503   3.593   2.805   0.628  0.1798  3.7306 -1.8105
  710TMC3    C710504   3.445   2.856   0.851 -0.7243 -0.1836 -0.2090
  710TMC3    C810505   3.529   2.710   0.410 -0.1567  0.6459 -0.4617
  710TMC3    O110506   3.363   2.817   0.934 -0.3367  0.2109  0.4177
  710TMC3    O210507   3.637   2.774   0.404 -0.2020  0.0429 -0.1965
  711TMC3    C110508   2.934   3.655  14.969  0.1661  0.1732 -0.6040
  711TMC3    C210509   2.832   3.647  15.063  0.9158 -0.4221  0.8256
  711TMC3    C310510   2.839   3.712  15.184 -0.8634  0.3449 -0.0462
  711TMC3    C410511   3.045   3.734  14.990 -0.1719  0.0574 -0.4567
  711TMC3    C510512   3.051   3.795  15.112  0.3437  0.7044  0.0156
  711TMC3    C610513   2.954   3.788  15.210  0.2196 -0.0720 -0.2162
  711TMC3     C10514   2.939   3.548  14.866  0.0606 -0.2904  1.0073
  711TMC3     O10515   2.910   3.437  14.905 -0.2590 -0.3314  0.2110
  711TMC3     H10516   2.756   3.571  15.046  1.0880 -0.7684  1.6033
  711TMC3    H110517   3.135   3.716  14.932 -0.3370  2.3951 -1.4546
  711TMC3    H210518   2.975   3.815  15.313  1.1983 -1.0827 -0.1501
  711TMC3    C710519   3.187   3.802  15.168  1.1098  0.2979 -0.7237
  711TMC3    C810520   2.743   3.665  15.289 -0.3430 -0.2262  0.8980
  711TMC3    O110521   3.204   3.765  15.283 -1.0189 -0.2330 -0.3551
  711TMC3    O210522   2.661   3.578  15.257 -0.6711 -0.8031 -0.6743
  712MPD2     C10523   0.239   4.542  13.868  0.8790  0.0168 -0.3952
  712MPD2    C110524   0.120   4.567  13.808  0.0286  0.1823  0.2347
  712MPD2    C210525   0.117   4.656  13.706  0.3324  0.1877 -0.5934
  712MPD2    C310526   0.231   0.009  13.673 -0.4191  0.2684 -0.0394
  712MPD2    C410527   0.352   4.710  13.739  0.1327 -0.3206  0.6196
  712MPD2    C510528   0.351   4.608  13.828 -0.0208 -0.8680  0.2806
  712MPD2     H10529   0.019   4.681  13.668  0.1345 -0.4187 -0.4782
  712MPD2    H110530   0.439   0.049  13.715 -0.7171  0.7464  0.2161
  712MPD2    H210531   0.258   4.476  13.953  0.3156 -0.0121 -0.2921
  712MPD2    H310532   0.441   4.597  13.887 -0.0018 -0.8789  0.2500
  712MPD2     N10533   0.229   0.117  13.581 -0.3584  0.0617 -0.2763
  712MPD2    H510534   0.317   0.164  13.562 -0.9771  1.2763 -0.1523
  712MPD2    N110535   0.006   4.492  13.828  0.4082 -0.1212  0.1572
  712MPD2    H710536   4.649   4.516  13.768 -0.4642 -3.0380  0.1007
  713TMC3    C110537   0.131   0.288  13.452  0.4938 -0.5836 -0.3642
  713TMC3    C210538   0.256   0.335  13.423 -0.2067  0.9594  0.1926
  713TMC3    C310539   0.266   0.436  13.333  0.8408 -0.1499  0.4473
  713TMC3    C410540   0.025   0.347  13.397 -0.7751  0.2611  0.7264
  713TMC3    C510541   0.036   0.447  13.306 -0.1137 -0.2725  0.4729
  713TMC3    C610542   0.160   0.496  13.271 -0.2406 -0.3253  0.3661
  713TMC3     C10543   0.115   0.168  13.524 -0.1278 -0.4384 -0.5375
  713TMC3     O10544   0.000   0.130  13.534 -0.2392  0.0093 -0.0580
  713TMC3     H10545   0.347   0.298  13.469 -0.9404 -0.9849  0.0544
  713TMC3    H110546   4.649   0.301  13.418 -1.8631  1.3190 -1.8946
  713TMC3    H210547   0.169   0.570  13.192  0.7145  0.7798  1.5024
  713TMC3    C710548   4.649   0.502  13.226 -0.0546 -0.0326  0.3551
  713TMC3    C810549   0.388   0.515  13.314 -0.0612  0.0876  0.2228
  713TMC3    O110550   4.677   0.558  13.120  0.1605  0.0864  0.5035
  713TMC3    O210551   0.381   0.611  13.240  0.6148  0.4901 -0.1227
  714MPD2     C10552   2.219   3.251   1.937 -0.2665 -0.2193 -0.3413
  714MPD2    C110553   2.176   3.186   1.826  0.3126  0.3338 -0.1477
  714MPD2    C210554   2.077   3.239   1.749  0.3071 -0.0778 -0.5518
  714MPD2    C310555   2.014   3.358   1.781  0.2246  0.1126 -0.8038
  714MPD2    C410556   2.058   3.423   1.898 -0.6651  0.3915 -0.4827
  714MPD2    C510557   2.157   3.367   1.970 -0.6194 -0.5796  0.1020
  714MPD2     H10558   2.048   3.198   1.652 -0.4799 -2.5180  0.7206
  714MPD2    H110559   2.016   3.516   1.936 -2.1105 -1.0439  1.4232
  714MPD2    H210560   2.294   3.207   2.002 -1.4208 -0.0508  1.0897
  714MPD2    H310561   2.196   3.407   2.063  1.6443 -0.9489 -0.6881
  714MPD2     N10562   1.924   3.425   1.696 -0.4538  0.1406  0.4362
  714MPD2    H510563   1.917   3.387   1.602 -2.2841  2.5370 -0.3797
  714MPD2    N110564   2.253   3.069   1.789  0.3577 -0.4995 -0.2842
  714MPD2    H710565   2.346   3.057   1.827 -1.2295  0.8383  3.9562
  715TMC3    C110566   2.303   2.868   1.666 -0.3941 -0.1784  0.5966
  715TMC3    C210567   2.276   2.800   1.554  0.3164  0.3473 -0.2880
  715TMC3    C310568   2.380   2.747   1.487 -0.3795  0.4665  0.5845
  715TMC3    C410569   2.425   2.867   1.722 -0.3708  0.8245 -0.2394
  715TMC3    C510570   2.527   2.814   1.653 -0.1052 -0.2324 -0.6371
  715TMC3    C610571   2.508   2.749   1.535  0.2310 -0.1520  0.1763
  715TMC3     C10572   2.211   2.982   1.698  0.2034 -0.3057  0.1610
  715TMC3     O10573   2.110   2.990   1.625  0.0872 -0.8276  0.6013
  715TMC3     H10574   2.180   2.795   1.504 -0.5755 -0.9574  1.5581
  715TMC3    H110575   2.451   2.928   1.808 -1.0172  1.6167 -0.6060
  715TMC3    H210576   2.588   2.698   1.483 -0.7022 -1.3059 -0.1232
  715TMC3    C710577   2.665   2.841   1.693  0.0751  0.7463 -0.2981
  715TMC3    C810578   2.343   2.655   1.381 -1.1043  0.1849  0.9163
  715TMC3    O110579   2.750   2.841   1.605  0.1128  0.2628  0.3858
  715TMC3    O210580   2.234   2.603   1.386 -0.1211 -0.0903 -0.4503
  716MPD2     C10581   2.869   0.656  10.084 -0.6641 -0.4040  0.2870
  716MPD2    C110582   2.791   0.624   9.980 -0.4532  0.3015  0.2685
  716MPD2    C210583   2.731   0.499   9.961 -0.2324 -0.1146  0.0275
  716MPD2    C310584   2.750   0.404  10.057 -0.5341 -0.6979  1.0485
  716MPD2    C410585   2.828   0.443  10.170 -0.2981  0.8420 -0.1039
  716MPD2    C510586   2.889   0.565  10.183  0.4466 -0.1461  0.0838
  716MPD2     H10587   2.687   0.478   9.864 -1.4332 -1.3886  0.8513
  716MPD2    H110588   2.846   0.373  10.251  0.5700  0.5077 -0.5782
  716MPD2    H210589   2.921   0.751  10.098 -0.7578 -0.1440 -1.1314
  716MPD2    H310590   2.950   0.588  10.269 -0.1351  1.9144 -0.0673
  716MPD2     N10591   2.701   0.274  10.030  0.5666 -1.2982 -0.3383
  716MPD2    H510592   2.627   0.265   9.960  0.4841  0.9391 -0.5423
  716MPD2    N110593   2.793   0.713   9.871  0.2252 -0.4264 -0.0503
  716MPD2    H710594   2.867   0.783   9.876  0.4248 -0.6011 -0.5975
  717TMC3    C110595   2.693   0.040  10.026  0.3612 -0.0070  0.3611
  717TMC3    C210596   2.584   0.040   9.939  1.0294  0.1539 -0.3095
  717TMC3    C310597   2.555   4.644   9.873  0.1135 -0.2965 -0.2163
  717TMC3    C410598   2.776   4.656  10.049  0.6411 -0.0260  0.0466
  717TMC3    C510599   2.735   4.539   9.989  0.1876 -0.2579 -0.3515
  717TMC3    C610600   2.633   4.535   9.898  0.0405  0.5784  0.6003
  717TMC3     C10601   2.731   0.163  10.097 -0.5787 -0.0888 -0.2640
  717TMC3     O10602   2.811   0.159  10.186  0.2574 -0.5420 -1.1975
  717TMC3     H10603   2.530   0.128   9.906 -0.4832 -0.6417  0.0334
  717TMC3    H110604   2.834   4.649  10.140  0.5707 -1.7678 -0.0363
  717TMC3    H210605   2.600   4.437   9.865 -0.0360  1.0829 -0.8367
  717TMC3    C710606   2.800   4.408  10.031  0.4754 -0.5305 -0.0341
  717TMC3    C810607   2.458   4.647   9.769  0.2425 -0.6798 -0.0885
  717TMC3    O110608   2.867   4.408  10.134 -0.3310  0.2229 -0.1852
  717TMC3    O210609   2.383   0.024   9.771  0.4684  0.1782 -0.3237
  718MPD2     C10610   2.066   0.136  13.437  0.2021 -0.0430  0.1436
  718MPD2    C110611   2.030   0.146  13.304 -0.3661 -0.1605  0.0928
  718MPD2    C210612   1.931   0.060  13.261 -0.1764 -0.3799 -0.1139
  718MPD2    C310613   1.863   4.699  13.347  0.0579  0.0473 -0.0519
  718MPD2    C410614   1.879   4.700  13.481  0.4728  0.0767  0.2451
  718MPD2    C510615   1.984   0.062  13.524 -0.3897 -0.6177  0.4326
  718MPD2     H10616   1.916   0.052  13.154  1.7864  0.5741 -0.4764
  718MPD2    H110617   1.820   4.641  13.551 -0.4980 -0.2980 -0.8960
  718MPD2    H210618   2.148   0.199  13.468  0.1554 -0.8843  1.9648
  718MPD2    H310619   2.010   0.057  13.629 -1.4658  4.0609  0.8996
  718MPD2     N10620   1.764   4.620  13.283 -0.2610 -0.2907  0.2249
  718MPD2    H510621   1.756   4.636  13.183  2.2657 -0.3304  0.0264
  718MPD2    N110622   2.111   0.219  13.213  0.1882  0.0226  0.1598
  718MPD2    H710623   2.195   0.262  13.250 -2.7343  2.2388  4.1197
  719TMC3    C110624   2.198   0.298  13.011  0.1383  0.9768 -0.5523
  719TMC3    C210625   2.243   0.188  12.938 -0.6212  0.3690 -0.7799
  719TMC3    C310626   2.268   0.200  12.808 -0.4205 -0.2792 -0.2949
  719TMC3    C410627   2.187   0.420  12.945  0.3436 -0.1281 -0.3714
  719TMC3    C510628   2.210   0.427  12.806  0.3495  0.0857 -0.4551
  719TMC3    C610629   2.256   0.317  12.738 -0.2691  0.3016 -0.0816
  719TMC3     C10630   2.083   0.257  13.087 -0.2163  0.4464 -0.3797
  719TMC3     O10631   1.990   0.215  13.022  0.7988  0.0512  0.3272
  719TMC3     H10632   2.275   0.102  12.996 -0.3473  1.3797  0.5605
  719TMC3    H110633   2.152   0.500  13.010 -0.0904  0.5295 -1.4042
  719TMC3    H210634   2.270   0.317  12.631  2.1942 -0.0549  0.2381
  719TMC3    C710635   2.151   0.534  12.723  0.0135  0.3682  0.3416
  719TMC3    C810636   2.227   0.084  12.729 -0.1401  0.6951  0.7904
  719TMC3    O110637   2.194   0.548  12.607 -0.4691 -0.4153  0.3295
  719TMC3    O210638   2.295   0.067  12.630  0.0955  0.6974 -0.0096
  720MPD2     C10639   4.181   1.821  14.040 -0.3821 -0.5995  0.6824
  720MPD2    C110640   4.279   1.870  13.954  0.0005  0.4940  0.1621
  720MPD2    C210641   4.410   1.820  13.969  0.1916  0.3341 -0.2605
  720MPD2    C310642   4.451   1.734  14.069  0.6479  0.7177  0.5229
  720MPD2    C410643   4.354   1.709  14.169  0.2320 -0.0570  0.5050
  720MPD2    C510644   4.219   1.744  14.151 -0.0887  0.3779 -0.0871
  720MPD2     H10645   4.481   1.841  13.889  0.2726 -1.2434 -0.6129
  720MPD2    H110646   4.375   1.665  14.266  0.8489 -1.0082 -0.0612
  720MPD2    H210647   4.085   1.871  14.052  1.9596  4.0949 -0.4644
  720MPD2    H310648   4.148   1.732  14.231  0.4070 -1.2594  0.1090
  720MPD2     N10649   4.589   1.699  14.079  0.5698 -0.5192  0.1417
  720MPD2    H510650   4.656   1.730  14.009 -1.7666  2.4803 -0.7670
  720MPD2    N110651   4.254   1.964  13.852 -0.5430  0.0682 -0.0846
  720MPD2    H710652   4.327   2.010  13.799  0.5497  0.7176  1.9824
  721TMC3    C110653   0.057   1.601  14.170  0.1941  0.5784 -0.4379
  721TMC3    C210654   0.117   1.534  14.275 -0.6809  0.5375  0.5514
  721TMC3    C310655   0.236   1.471  14.252  0.1410 -0.2794  0.3535
  721TMC3    C410656   0.117   1.602  14.048 -0.2816 -0.1848 -0.1069
  721TMC3    C510657   0.237   1.543  14.027 -0.5576  1.2743 -0.1020
  721TMC3    C610658   0.292   1.470  14.122  0.7731  0.0371 -0.4847
  721TMC3     C10659   4.641   1.635  14.190  0.5674 -0.1907 -0.5516
  721TMC3     O10660   4.585   1.609  14.294  0.2150 -0.4593  0.3943
  721TMC3     H10661   0.060   1.517  14.366 -0.4888 -3.5074 -0.0785
  721TMC3    H110662   0.084   1.661  13.964  1.9240  1.0514 -0.0882
  721TMC3    H210663   0.383   1.417  14.099 -0.1043 -1.0420 -1.4622
  721TMC3    C710664   0.312   1.568  13.899  0.3385 -0.8650  0.4352
  721TMC3    C810665   0.332   1.457  14.359 -0.6722  0.2076 -0.1695
  721TMC3    O110666   0.257   1.648  13.827  0.4845 -0.6307 -0.1788
  721TMC3    O210667   0.442   1.415  14.320 -0.3876  0.1186 -0.1695
  722MPD2     C10668   3.540   0.327  13.795 -0.1084 -0.2290 -0.6841
  722MPD2    C110669   3.525   0.386  13.675  0.3276  0.3205 -0.7341
  722MPD2    C210670   3.416   0.351  13.591  0.5163  0.1668 -0.1834
  722MPD2    C310671   3.333   0.247  13.637 -0.2593  0.1035 -0.5762
  722MPD2    C410672   3.362   0.184  13.759 -0.2411 -0.1921 -0.2520
  722MPD2    C510673   3.456   0.230  13.843  0.4512  0.2716 -0.1997
  722MPD2     H10674   3.382   0.403  13.502  1.2992 -0.7811 -1.0385
  722MPD2    H110675   3.320   0.090  13.792 -1.2596  0.1231 -0.6663
  722MPD2    H210676   3.623   0.351  13.860 -0.6345 -3.7220  1.3055
  722MPD2    H310677   3.455   0.191  13.944 -0.7417 -0.5339 -0.5235
  722MPD2     N10678   3.236   0.193  13.547  0.0895 -0.1989 -0.0859
  722MPD2    H510679   3.240   0.219  13.449  2.2383  0.2075  0.1104
  722MPD2    N110680   3.616   0.490  13.632  0.1526  0.1741 -0.4066
  722MPD2    H710681   3.607   0.533  13.541 -1.6265  0.6032 -0.0130
  723TMC3    C110682   3.072   0.035  13.490  1.3929  0.0190 -0.7605
  723TMC3    C210683   3.008   4.639  13.527 -0.0307 -0.6521  0.0089
  723TMC3    C310684   2.920   4.579  13.441 -0.2547  0.2446  0.4929
  723TMC3    C410685   3.030   0.102  13.375  0.2024  0.5281 -0.0602
  723TMC3    C510686   2.934   0.045  13.294 -0.4598  0.3219  0.1533
  723TMC3    C610687   2.887   4.644  13.326 -1.0098  0.8317 -0.1940
  723TMC3     C10688   3.143   0.103  13.595 -0.1473  0.1798  0.0719
  723TMC3     O10689   3.110   0.065  13.710 -0.4821  0.2965  0.4023
  723TMC3     H10690   3.038   4.580  13.613  3.5886  1.3272  0.0916
  723TMC3    H110691   3.069   0.199  13.346 -1.3275  0.9689 -0.6501
  723TMC3    H210692   2.812   4.600  13.261 -1.1371 -1.5047  1.5766
  723TMC3    C710693   2.933   0.078  13.148 -0.4481  0.2699 -0.6589
  723TMC3    C810694   2.931   4.434  13.434  0.1366  0.4268  0.2469
  723TMC3    O110695   2.950   4.702  13.075 -0.4644  0.2930  0.3442
  723TMC3    O210696   2.936   4.376  13.538  0.1204  0.4700 -0.2113
  724TMC3    C110697   3.680   2.909   9.498 -0.7145 -0.1228 -0.1763
  724TMC3    C210698   3.774   3.012   9.504 -0.8859 -0.5047  0.2967
  724TMC3    C310699   3.776   3.100   9.403  0.9067 -0.5294 -0.0231
  724TMC3    C410700   3.628   2.871   9.376 -0.5147 -0.1536 -0.4788
  724TMC3    C510701   3.648   2.959   9.273 -0.1885  0.6452 -0.1896
  724TMC3    C610702   3.716   3.079   9.284 -0.9935 -0.3431 -0.3680
  724TMC3     C10703   3.700   2.803   9.603 -0.1490  0.3342 -0.6199
  724TMC3     O10704   3.774   2.832   9.692 -0.2795 -0.2615  0.8991
  724TMC3     H10705   3.806   3.033   9.606 -0.2299  1.1536 -0.2495
  724TMC3    H110706   3.597   2.768   9.362 -0.4114 -0.4414  1.3760
  724TMC3    H210707   3.720   3.141   9.196 -2.0680  1.3328  0.7719
  724TMC3    C710708   3.564   2.945   9.151 -0.5967 -0.8449 -0.1597
  724TMC3    C810709   3.813   3.239   9.441  0.2286  0.2905  0.0602
  724TMC3    O110710   3.579   3.032   9.068  0.6872 -0.0170 -0.3116
  724TMC3    O210711   3.788   3.316   9.344  0.1719  0.2492 -0.0747
  725TMC3    C110712   0.412   2.107  13.039  0.4349 -0.4509 -0.9081
  725TMC3    C210713   0.370   2.143  12.921  0.1643  0.1600 -0.3357
  725TMC3    C310714   0.317   2.050  12.839  0.2203  0.4312 -0.0642
  725TMC3    C410715   0.400   1.979  13.085 -0.7733 -0.1027 -0.3685
  725TMC3    C510716   0.329   1.890  13.006 -0.2562 -0.2805  0.2762
  725TMC3    C610717   0.293   1.925  12.880 -0.4350  0.1301  0.0533
  725TMC3     C10718   0.489   2.203  13.109 -0.2811  1.2203 -0.3017
  725TMC3     O10719   0.574   2.246  13.042  0.0173  0.3595  0.3615
  725TMC3     H10720   0.387   2.247  12.894  1.5568 -0.0855 -0.4069
  725TMC3    H110721   0.447   1.953  13.179  0.0009  1.0267 -0.4383
  725TMC3    H210722   0.249   1.851  12.813 -1.5555  0.2168  0.6800
  725TMC3    C710723   0.340   1.748  13.029 -0.5782  0.5776 -0.6099
  725TMC3    C810724   0.276   2.081  12.706  0.4056  0.7091  0.1472
  725TMC3    O110725   0.281   1.670  12.961  0.2251  0.0047 -0.3203
  725TMC3    O210726   0.173   2.026  12.668  0.6259  0.2301 -0.0350
  726MPD2     C10727   3.423   3.000  10.203 -0.2313  0.5409 -0.3471
  726MPD2    C110728   3.327   3.076  10.134  0.3141  0.2344 -0.6429
  726MPD2    C210729   3.200   3.019  10.119 -0.5806  0.2234  0.0309
  726MPD2    C310730   3.172   2.897  10.164 -0.1765 -0.9088 -0.1254
  726MPD2    C410731   3.273   2.826  10.233 -0.3724  0.6643 -0.0596
  726MPD2    C510732   3.394   2.881  10.259 -0.5006  0.4084 -0.5575
  726MPD2     H10733   3.116   3.072  10.074  1.4025  1.5404 -2.1008
  726MPD2    H110734   3.254   2.724  10.263 -1.2224  0.4588 -1.3290
  726MPD2    H210735   3.524   3.037  10.217  0.6707 -1.3845 -1.7676
  726MPD2    H310736   3.467   2.820  10.312 -0.1573  0.2805 -1.1681
  726MPD2     N10737   3.035   2.841  10.163  0.4994  0.5795 -0.2357
  726MPD2    H510738   3.012   2.756  10.213 -0.2098  1.6306  1.2476
  726MPD2    N110739   3.339   3.206  10.095 -0.1199 -0.3628 -0.4717
  726MPD2    H710740   3.263   3.255  10.048  0.3006  1.7746  1.1112
  727TMC3    C110741   3.416   3.422  10.115 -0.2763  0.0836  0.0765
  727TMC3    C210742   3.493   3.512  10.192  0.2648 -0.4831 -0.0425
  727TMC3    C310743   3.481   3.643  10.164 -0.2738  0.1053  0.2517
  727TMC3    C410744   3.335   3.466  10.009 -0.2907 -0.3402  0.2669
  727TMC3    C510745   3.328   3.602  10.004 -0.5392  0.7507 -0.0195
  727TMC3    C610746   3.390   3.693  10.079  0.1522  0.3192  0.7064
  727TMC3     C10747   3.445   3.283  10.140 -0.3855 -1.0827  0.3455
  727TMC3     O10748   3.544   3.261  10.212 -0.7482  0.2302  0.2314
  727TMC3     H10749   3.564   3.478  10.266 -0.4813 -0.9818  0.4514
  727TMC3    H110750   3.280   3.393   9.951  0.3434 -1.7787  1.4536
  727TMC3    H210751   3.381   3.800  10.066 -2.8582 -0.1287 -0.9241
  727TMC3    C710752   3.257   3.656   9.892  0.0501  0.3772  0.6359
  727TMC3    C810753   3.550   3.726  10.262 -0.8227  0.4026  0.0498
  727TMC3    O110754   3.279   3.773   9.862  0.5616  0.0238  0.3177
  727TMC3    O210755   3.601   3.661  10.356 -0.0848 -0.4257 -0.9213
  728TMC3    C110756   2.075   2.382  15.497  0.1475  0.5677  0.1379
  728TMC3    C210757   2.200   2.410  15.550  0.3466  0.2511  0.6611
  728TMC3    C310758   2.310   2.397  15.468 -0.2100  0.4068 -0.3772
  728TMC3    C410759   2.057   2.371  15.362  0.4989 -0.4220 -0.6218
  728TMC3    C510760   2.168   2.373  15.288  0.1668 -0.2116 -0.6517
  728TMC3    C610761   2.295   2.373  15.338  0.5114  0.3884  0.3022
  728TMC3     C10762   1.964   2.396  15.582  0.3469 -0.1273 -0.7554
  728TMC3     O10763   1.951   2.497  15.653 -0.3396 -0.2231  0.3415
  728TMC3     H10764   2.199   2.419  15.658  0.6071 -0.4775  0.7219
  728TMC3    H110765   1.960   2.371  15.313  0.8775 -0.9794 -1.3733
  728TMC3    H210766   2.372   2.332  15.274 -0.3299 -2.1592  0.9125
  728TMC3    C710767   2.147   2.393  15.145  0.1711 -0.5830  0.1691
  728TMC3    C810768   2.430   2.353  15.541 -0.5185 -0.1917 -0.8435
  728TMC3    O110769   2.028   2.377  15.109  0.0521  0.0007  0.3665
  728TMC3    O210770   2.403   2.328  15.658 -0.2858  1.0974 -0.5851
  729MPD2     C10771   0.344   3.383  16.473  0.0478  0.0758 -0.1054
  729MPD2    C110772   0.370   3.379  16.610  0.5165  0.3391  0.0858
  729MPD2    C210773   0.260   3.344  16.693 -0.1912  0.2344  0.8411
  729MPD2    C310774   0.131   3.335  16.650  0.5214 -0.4597  0.2033
  729MPD2    C410775   0.115   3.338  16.511  0.0888 -0.6946 -0.2942
  729MPD2    C510776   0.215   3.363  16.424  0.1418 -0.0554  0.1596
  729MPD2     H10777   0.286   3.339  16.798 -2.1878  2.3342  1.4276
  729MPD2    H110778   0.014   3.328  16.472 -0.1541 -0.6052  0.3152
  729MPD2    H210779   0.422   3.410  16.402  0.0220  1.6045  0.4514
  729MPD2    H310780   0.191   3.380  16.320 -2.8253 -2.4626  0.4500
  729MPD2     N10781   0.023   3.316  16.743  0.1013 -0.2809 -0.3406
  729MPD2    H510782   4.650   3.322  16.706  0.6209 -0.1445 -1.6466
  729MPD2    N110783   0.500   3.428  16.650 -0.2034  0.1589  0.6042
  729MPD2    H710784   0.563   3.459  16.577  0.5893  1.3457  1.8063
  730TMC3    C110785   4.635   3.309  16.954  0.0866  0.0899  0.4632
  730TMC3    C210786   4.654   3.250  17.079 -0.6370 -0.1745 -0.2123
  730TMC3    C310787   4.617   3.300  17.193  0.8175 -0.4789 -0.2041
  730TMC3    C410788   4.584   3.431  16.947  0.3627  0.2013  0.8361
  730TMC3    C510789   4.554   3.490  17.066 -0.1525 -0.0298 -0.9430
  730TMC3    C610790   4.570   3.432  17.193  0.2493  0.4183 -0.2636
  730TMC3     C10791   0.034   3.293  16.878 -0.4509 -0.0827 -0.5341
  730TMC3     O10792   0.129   3.279  16.954 -0.7006  0.0443 -0.2182
  730TMC3     H10793   4.705   3.155  17.086 -2.7183 -1.2065  0.9990
  730TMC3    H110794   4.598   3.494  16.860 -1.8793 -0.9164 -0.3331
  730TMC3    H210795   4.554   3.482  17.287 -1.7415  1.1366 -0.9866
  730TMC3    C710796   4.519   3.631  17.062  0.2538 -0.2773  0.2169
  730TMC3    C810797   4.680   3.246  17.311  0.9177  0.3235 -0.2644
  730TMC3    O110798   4.541   3.685  16.956  0.4770  0.5955 -0.9754
  730TMC3    O210799   4.699   3.121  17.322 -0.0727 -0.3890  0.3855
  731MPD2     C10800   0.444   1.740  12.446 -0.3318 -0.0178 -0.5137
  731MPD2    C110801   0.326   1.783  12.385 -0.2880 -0.9196 -0.1243
  731MPD2    C210802   0.208   1.730  12.433  0.0809 -0.6780  0.1582
  731MPD2    C310803   0.203   1.644  12.538 -0.0085 -0.4858 -0.3375
  731MPD2    C410804   0.317   1.613  12.603 -0.3493  0.2086  0.0272
  731MPD2    C510805   0.433   1.656  12.553 -0.6573 -0.7460 -0.4313
  731MPD2     H10806   0.113   1.744  12.382 -0.2922 -3.0181  0.2155
  731MPD2    H110807   0.317   1.554  12.694 -1.3440  1.5098  0.8730
  731MPD2    H210808   0.539   1.776  12.409 -1.3648  0.7135 -2.4326
  731MPD2    H310809   0.523   1.613  12.596 -0.8193 -0.9994 -0.3489
  731MPD2     N10810   0.080   1.591  12.595  0.4572 -1.0682 -0.8453
  731MPD2    H510811   4.715   1.642  12.577 -0.9952 -2.1918  2.9889
  731MPD2    N110812   0.336   1.850  12.260 -0.2278  0.9507  0.2942
  731MPD2    H710813   0.433   1.874  12.245  0.0980  0.2602  1.2431
  732TMC3    C110814   0.302   1.891  12.024  0.0373  0.0741 -0.6391
  732TMC3    C210815   0.213   1.877  11.933 -0.2691 -0.6928  0.0544
  732TMC3    C310816   0.258   1.840  11.811  0.4451 -0.4033 -0.1831
  732TMC3    C410817   0.436   1.877  12.004  0.4199 -0.1667 -0.5450
  732TMC3    C510818   0.477   1.854  11.877 -0.1551 -0.0646  0.1585
  732TMC3    C610819   0.387   1.836  11.768  0.2643 -0.9151  0.3365
  732TMC3     C10820   0.247   1.857  12.155 -0.1605  0.4826 -0.6136
  732TMC3     O10821   0.127   1.834  12.156  0.3807 -0.3537  0.4279
  732TMC3     H10822   0.115   1.918  11.953  0.6238  0.8132  1.3105
  732TMC3    H110823   0.506   1.884  12.086  1.4914  1.9412 -1.6396
  732TMC3    H210824   0.413   1.800  11.670 -0.9630  0.5333 -0.5108
  732TMC3    C710825   0.607   1.797  11.861 -0.6841 -0.4148  0.0736
  732TMC3    C810826   0.164   1.760  11.739 -0.2718 -0.4132 -0.0168
  732TMC3    O110827   0.683   1.817  11.766  0.2100 -0.5195  0.4903
  732TMC3    O210828   0.167   1.755  11.618  0.7656 -0.2457 -0.6534
  733TMC3    C110829   1.438   4.323  13.193  1.1968  0.3655  0.0933
  733TMC3    C210830   1.501   4.391  13.289 -0.6637 -0.4423  0.1699
  733TMC3    C310831   1.627   4.430  13.256 -0.4703 -0.1411 -0.2904
  733TMC3    C410832   1.493   4.315  13.061 -0.7378  0.2281  0.0165
  733TMC3    C510833   1.619   4.352  13.038 -0.5393 -0.2698  0.0984
  733TMC3    C610834   1.683   4.417  13.133 -0.2112  0.8065 -0.5542
  733TMC3     C10835   1.298   4.300  13.204  0.4098 -0.7437  0.3057
  733TMC3     O10836   1.236   4.306  13.098  0.1104  0.0633 -0.3833
  733TMC3     H10837   1.452   4.411  13.383  0.4713  2.9004  0.0430
  733TMC3    H110838   1.432   4.270  12.984  0.0868 -2.3884  0.8991
  733TMC3    H210839   1.789   4.439  13.125  0.5009 -2.0176  1.1100
  733TMC3    C710840   1.678   4.361  12.906  0.0239 -0.2519  0.8322
  733TMC3    C810841   1.687   4.525  13.344 -1.1284 -0.3042  0.2385
  733TMC3    O110842   1.666   4.268  12.828 -0.8781  0.1049  0.1113
  733TMC3    O210843   1.675   4.502  13.462 -0.9419 -0.1798 -0.2052
  734MPD2     C10844   3.451   2.329  11.802  0.3562  0.0391 -0.9453
  734MPD2    C110845   3.316   2.370  11.783 -0.5019 -0.1467 -0.6000
  734MPD2    C210846   3.296   2.440  11.666  0.0766  0.2114  0.4141
  734MPD2    C310847   3.390   2.471  11.571  0.3857 -0.5924  0.3554
  734MPD2    C410848   3.517   2.424  11.589  0.1674 -0.6243  0.0470
  734MPD2    C510849   3.549   2.350  11.705 -0.2549  0.2252 -0.1704
  734MPD2     H10850   3.192   2.465  11.647  0.3108  1.2283  0.4517
  734MPD2    H110851   3.597   2.437  11.516  0.3380 -0.8767  0.1898
  734MPD2    H210852   3.477   2.266  11.886  0.3164  2.8119  1.1347
  734MPD2    H310853   3.652   2.318  11.721 -1.0179 -3.1302 -1.9822
  734MPD2     N10854   3.349   2.522  11.451 -0.2658  0.1257  0.6687
  734MPD2    H510855   3.257   2.564  11.447  1.2809  3.1654 -3.4375
  734MPD2    N110856   3.210   2.336  11.874 -0.5419 -0.2116  0.2056
  734MPD2    H710857   3.244   2.298  11.962  1.1881  0.7412 -0.0530
  735TMC3    C110858   2.985   2.333  11.968  0.2371  0.9782 -0.0236
  735TMC3    C210859   2.857   2.338  11.911  0.8690  0.2234  0.9680
  735TMC3    C310860   2.774   2.226  11.903  0.1444  0.6011  0.2449
  735TMC3    C410861   3.018   2.221  12.038  0.7241  0.5976  0.2530
  735TMC3    C510862   2.941   2.108  12.035 -0.6293  0.0945 -0.1092
  735TMC3    C610863   2.823   2.108  11.960  0.3672  1.0119 -0.2453
  735TMC3     C10864   3.078   2.374  11.863  0.1664 -0.4464  0.2385
  735TMC3     O10865   3.015   2.405  11.762 -0.1745 -0.4942  0.3223
  735TMC3     H10866   2.826   2.440  11.895 -1.1742 -0.6445 -0.6214
  735TMC3    H110867   3.113   2.219  12.090  0.7428 -0.7463  0.1745
  735TMC3    H210868   2.764   2.017  11.959 -0.3929  1.4555  5.1094
  735TMC3    C710869   2.997   1.976  12.059  0.9043 -0.5335  0.4803
  735TMC3    C810870   2.710   2.210  11.775 -0.1223 -0.3233  0.5025
  735TMC3    O110871   2.920   1.880  12.069  0.1313  0.6409  0.2412
  735TMC3    O210872   2.646   2.108  11.750 -0.2937 -0.3958 -0.4806
  736MPD2     C10873   3.198   1.767  12.146  0.7326 -0.1502 -0.3436
  736MPD2    C110874   3.231   1.882  12.078 -0.5616  0.4866  0.0646
  736MPD2    C210875   3.362   1.902  12.026 -0.6069 -0.4137  0.5315
  736MPD2    C310876   3.446   1.796  12.028 -0.1145  0.3544  0.0547
  736MPD2    C410877   3.408   1.678  12.086  0.3426  0.2227 -0.8326
  736MPD2    C510878   3.293   1.668  12.159  0.3197  0.1253 -0.0904
  736MPD2     H10879   3.389   2.000  11.990 -1.1532 -0.4908 -0.0801
  736MPD2    H110880   3.483   1.600  12.073  0.4568  0.3392 -0.8659
  736MPD2    H210881   3.108   1.758  12.206 -0.2984  0.2660 -1.8383
  736MPD2    H310882   3.262   1.572  12.199  0.3515  1.0997  2.2848
  736MPD2     N10883   3.577   1.798  11.967  0.5002  0.7177 -0.2311
  736MPD2    H510884   3.624   1.709  11.968 -0.5582  0.1478 -2.1100
  736MPD2    N110885   3.131   1.983  12.058 -0.7342  0.0094  0.2029
  736MPD2    H710886   3.162   2.074  12.025  0.3380 -0.5520 -0.3492
  737TMC3    C110887   3.742   1.875  11.823  0.5549  0.2378 -0.1724
  737TMC3    C210888   3.755   1.970  11.723 -0.2216 -0.1038 -0.3247
  737TMC3    C310889   3.763   1.936  11.593 -0.3426  0.8680 -0.6108
  737TMC3    C410890   3.769   1.745  11.794  0.6443  0.1514 -0.3956
  737TMC3    C510891   3.780   1.715  11.662  0.3679  0.0821 -0.4844
  737TMC3    C610892   3.781   1.808  11.558  0.0928  0.0918 -0.1860
  737TMC3     C10893   3.632   1.908  11.918 -0.4095 -0.1737  0.0886
  737TMC3     O10894   3.608   2.026  11.941 -0.9902  0.2825 -0.3994
  737TMC3     H10895   3.731   2.072  11.752  0.3039 -0.7086  2.2557
  737TMC3    H110896   3.757   1.663  11.864  1.8361  0.0290 -0.3288
  737TMC3    H210897   3.768   1.777  11.455 -1.6941  0.2647 -0.0077
  737TMC3    C710898   3.833   1.583  11.634  0.4402  0.1594  0.1076
  737TMC3    C810899   3.743   2.042  11.494  0.1421  0.0343  0.0473
  737TMC3    O110900   3.823   1.493  11.721  0.3157  0.1276 -0.0831
  737TMC3    O210901   3.707   2.149  11.526  0.5365 -0.4213  0.0027
  738MPD2     C10902   3.139   0.824  14.878  0.4204  0.0843 -0.8285
  738MPD2    C110903   3.192   0.821  15.006  0.2310  0.3438  0.6380
  738MPD2    C210904   3.251   0.934  15.055 -0.3315  0.5041  0.3861
  738MPD2    C310905   3.264   1.051  14.974 -0.4557  0.0107  0.4378
  738MPD2    C410906   3.211   1.050  14.845  0.2709  0.5032 -0.6867
  738MPD2    C510907   3.158   0.936  14.807 -0.0646 -0.8852  0.0028
  738MPD2     H10908   3.302   0.934  15.151  0.2565  0.0163  0.0725
  738MPD2    H110909   3.229   1.138  14.785 -0.8459  0.8865 -0.4647
  738MPD2    H210910   3.082   0.744  14.833  2.1172 -0.9894 -1.1022
  738MPD2    H310911   3.123   0.929  14.705  1.2827 -1.8791 -0.3941
  738MPD2     N10912   3.322   1.166  15.021  0.3755  0.0326  0.4170
  738MPD2    H510913   3.340   1.228  14.942 -0.3521  0.2908  0.4514
  738MPD2    N110914   3.196   0.702  15.080  0.7925  0.0662 -0.4372
  738MPD2    H710915   3.222   0.712  15.177  1.5316 -0.3327 -0.5979
  739TMC3    C110916   3.461   1.303  15.147  0.0041 -0.4327 -0.2379
  739TMC3    C210917   3.554   1.288  15.049 -0.2060  0.1157 -0.5913
  739TMC3    C310918   3.657   1.373  15.063 -0.2608  0.0008  0.1679
  739TMC3    C410919   3.463   1.386  15.259  0.0315 -0.5342  0.0104
  739TMC3    C510920   3.571   1.473  15.255 -0.9483  0.3703  0.5172
  739TMC3    C610921   3.672   1.462  15.167  0.4752 -0.5231  0.0975
  739TMC3     C10922   3.365   1.200  15.151 -0.3718 -0.3288 -0.4146
  739TMC3     O10923   3.333   1.155  15.255  1.4609  0.2323 -0.0855
  739TMC3     H10924   3.540   1.225  14.962  3.5370  0.2842 -1.2815
  739TMC3    H110925   3.378   1.385  15.327 -1.0005  1.7495 -1.2240
  739TMC3    H210926   3.746   1.541  15.171 -0.9528  0.8088  0.3812
  739TMC3    C710927   3.584   1.560  15.369 -0.2575 -0.2150  0.0477
  739TMC3    C810928   3.766   1.357  14.957 -0.7556  0.4456 -0.3771
  739TMC3    O110929   3.484   1.624  15.393  0.2420 -0.0531 -0.3030
  739TMC3    O210930   3.726   1.355  14.840 -0.5330 -0.7886  0.1231
  740TMC3    C110931   4.440   1.941  14.644  0.5191 -0.1192  0.4825
  740TMC3    C210932   4.420   1.834  14.731 -0.2894 -0.3948 -0.1740
  740TMC3    C310933   4.511   1.727  14.726 -0.5784  0.2438  0.9697
  740TMC3    C410934   4.536   1.936  14.549 -0.0226  0.6348  0.0644
  740TMC3    C510935   4.624   1.831  14.548 -0.8310  0.3362 -0.5693
  740TMC3    C610936   4.622   1.737  14.647  0.5362  0.2928 -0.0830
  740TMC3     C10937   4.332   2.045  14.641 -0.2236 -0.0428 -0.4151
  740TMC3     O10938   4.360   2.139  14.569  0.0342 -0.0222 -0.1060
  740TMC3     H10939   4.348   1.830  14.812 -0.3422 -2.2596 -0.3148
  740TMC3    H110940   4.553   2.020  14.482 -0.4008  1.3470  0.8613
  740TMC3    H210941   4.708   1.674  14.668  0.4356  0.9260  2.1890
  740TMC3    C710942   0.035   1.846  14.478  0.0922 -0.3096  0.2630
  740TMC3    C810943   4.510   1.642  14.845  0.6985  0.5656 -0.1482
  740TMC3    O110944   0.126   1.774  14.525 -0.4201  0.0812  0.0551
  740TMC3    O210945   4.424   1.663  14.933 -0.1109  0.4589 -0.0466
  741TMC3    C110946   3.782   1.792  14.471 -0.0406  0.6342 -0.4227
  741TMC3    C210947   3.680   1.703  14.469 -0.2780  0.0175  0.3185
  741TMC3    C310948   3.669   1.618  14.574  0.6284 -0.2543 -0.0061
  741TMC3    C410949   3.861   1.800  14.576  0.2833 -0.8137 -0.5925
  741TMC3    C510950   3.849   1.711  14.682  0.2308  0.1761 -0.0583
  741TMC3    C610951   3.747   1.619  14.680 -0.2256  0.2227  0.2705
  741TMC3     C10952   3.810   1.876  14.355  0.9999 -0.1169  0.3927
  741TMC3     O10953   3.885   1.971  14.370 -0.0785 -0.4296  0.8373
  741TMC3     H10954   3.611   1.703  14.385  0.8209 -0.1873 -0.5815
  741TMC3    H110955   3.956   1.850  14.558  0.3542 -0.2689  1.2885
  741TMC3    H210956   3.737   1.556  14.768 -1.8719 -1.0011 -0.7912
  741TMC3    C710957   3.951   1.713  14.784  0.6902  0.6479 -0.0908
  741TMC3    C810958   3.579   1.504  14.539 -0.3467 -0.5874  0.4611
  741TMC3    O110959   4.068   1.734  14.746  0.1894 -0.1063  0.4354
  741TMC3    O210960   3.482   1.534  14.468  0.1487  0.1600 -0.2787
  742TMC3    C110961   3.178   4.409  15.425  0.2235  0.2293 -0.2499
  742TMC3    C210962   3.139   4.411  15.295 -0.0419  0.0528 -0.1688
  742TMC3    C310963   3.227   4.346  15.209 -0.6342  0.2506 -0.2736
  742TMC3    C410964   3.305   4.378  15.462 -0.0430 -0.1841 -0.2173
  742TMC3    C510965   3.393   4.338  15.365 -0.6779  0.5338 -0.1164
  742TMC3    C610966   3.357   4.328  15.235 -0.4635  0.3072 -0.2096
  742TMC3     C10967   3.082   4.463  15.519 -0.7830  0.2341  0.0326
  742TMC3     O10968   3.025   4.557  15.475  0.4636  0.1080  0.1274
  742TMC3     H10969   3.032   4.409  15.276 -0.2914 -0.4543  1.2876
  742TMC3    H110970   3.347   4.397  15.561 -0.7060  0.3745 -0.0478
  742TMC3    H210971   3.426   4.297  15.157 -0.3669 -1.3339  0.5252
  742TMC3    C710972   3.531   4.315  15.401 -0.6401  0.8592 -0.0124
  742TMC3    C810973   3.202   4.336  15.066  0.1739  0.8339 -0.8693
  742TMC3    O110974   3.608   4.322  15.307  0.2710 -0.3024  0.6412
  742TMC3    O210975   3.278   4.274  14.994  0.5490 -0.4238 -0.4467
  743MPD2     C10976   1.092   0.935   1.895  0.4078  0.6183  0.2659
  743MPD2    C110977   1.171   0.943   1.783 -0.0333 -0.6594 -0.1455
  743MPD2    C210978   1.290   1.017   1.782 -0.1186  0.0078  0.4601
  743MPD2    C310979   1.334   1.084   1.894 -0.2069 -0.2004 -0.7690
  743MPD2    C410980   1.254   1.069   2.006  0.1329 -0.2515 -0.1219
  743MPD2    C510981   1.138   0.993   2.006 -0.0686  0.0288  0.0996
  743MPD2     H10982   1.363   1.008   1.702 -1.1452  2.9910 -0.8039
  743MPD2    H110983   1.266   1.123   2.100  2.7477 -1.6092  0.2959
  743MPD2    H210984   1.006   0.869   1.896  0.0931  1.0277  0.3772
  743MPD2    H310985   1.084   0.980   2.099  3.1719 -1.1205  1.8125
  743MPD2     N10986   1.464   1.133   1.891  0.2599 -0.3082 -0.3329
  743MPD2    H510987   1.514   1.125   1.803  1.1312 -2.3528  0.3637
  743MPD2    N110988   1.127   0.871   1.669  0.0900 -0.3065 -0.3545
  743MPD2    H710989   1.036   0.826   1.673 -0.4949  0.6946 -2.3129
  744TMC3    C110990   1.133   0.800   1.441 -0.2118  0.7135 -0.4242
  744TMC3    C210991   1.018   0.862   1.404  0.2880  0.5349  0.6042
  744TMC3    C310992   0.982   0.857   1.270  0.0421  0.5468 -0.0082
  744TMC3    C410993   1.216   0.744   1.351 -0.1761  0.2916  0.2156
  744TMC3    C510994   1.177   0.727   1.217 -0.0536 -0.7900  0.3543
  744TMC3    C610995   1.065   0.795   1.174  0.7240  0.3347  0.4399
  744TMC3     C10996   1.200   0.864   1.547  0.4970 -0.7149  0.4260
  744TMC3     O10997   1.308   0.916   1.517 -0.7649  0.3402  0.3224
  744TMC3     H10998   0.962   0.929   1.469 -2.2955 -0.3587 -0.6898
  744TMC3    H110999   1.314   0.714   1.385 -0.1244 -1.5067 -1.5331
  744TMC3    H211000   1.053   0.811   1.067  0.6823  1.2217  0.5742
  744TMC3    C711001   1.285   0.713   1.107  0.2386 -0.1352  0.0950
  744TMC3    C811002   0.908   0.971   1.227  0.0753 -0.1678 -0.3185
  744TMC3    O111003   1.278   0.766   1.000 -0.0410  0.1102 -0.2354
  744TMC3    O211004   0.900   1.075   1.291 -0.1197  0.3892  0.2001
  745TMC3    C111005   4.600   4.301  13.878 -0.6275  0.1164  0.3571
  745TMC3    C211006   4.488   4.340  13.936  0.3149  0.8358 -0.5332
  745TMC3    C311007   4.371   4.316  13.869  0.0819 -0.4558 -0.2642
  745TMC3    C411008   4.610   4.231  13.764 -0.2819  0.4321 -0.1724
  745TMC3    C511009   4.497   4.213  13.697  0.3486  0.5833 -0.0387
  745TMC3    C611010   4.376   4.248  13.746  0.1447  0.7008 -0.4831
  745TMC3     C11011   4.714   4.381  13.916  0.1004  0.0462  0.6784
  745TMC3     O11012   0.076   4.335  13.996  0.1459  0.5440  0.2286
  745TMC3     H11013   4.496   4.411  14.018 -0.2561  0.8587 -0.4971
  745TMC3    H111014   4.702   4.204  13.713  0.3917  0.9139  0.7892
  745TMC3    H211015   4.289   4.256  13.681  0.5564 -0.3323 -1.1558
  745TMC3    C711016   4.490   4.145  13.576  0.6258 -0.3538  0.4923
  745TMC3    C811017   4.262   4.408  13.898  0.5851  0.1896  0.0558
  745TMC3    O111018   4.387   4.089  13.545 -0.4233  0.0982 -0.0322
  745TMC3    O211019   4.149   4.365  13.916 -0.7949  0.1958  0.1484
  746TMC3    C111020   1.819   0.927  10.998 -0.1914  0.6300  0.7461
  746TMC3    C211021   1.890   0.899  10.885  0.4437 -0.1858  0.1830
  746TMC3    C311022   1.853   0.784  10.828 -0.4397 -0.2656  0.0386
  746TMC3    C411023   1.704   0.864  11.039  0.1651 -0.1710  0.3572
  746TMC3    C511024   1.671   0.752  10.979  0.7319  0.6613  0.0131
  746TMC3    C611025   1.748   0.707  10.869  0.4343  0.0557  0.3674
  746TMC3     C11026   1.832   1.064  11.047  0.2304 -0.2511  0.4387
  746TMC3     O11027   1.797   1.083  11.164  0.0946 -0.6630 -0.5212
  746TMC3     H11028   1.989   0.939  10.869 -0.0422  0.4736 -1.1374
  746TMC3    H111029   1.647   0.894  11.126 -0.5235 -1.1371  0.2410
  746TMC3    H211030   1.712   0.627  10.805 -1.2437 -0.0171  1.4080
  746TMC3    C711031   1.531   0.711  10.968  0.0572 -0.6927  0.1660
  746TMC3    C811032   1.904   0.756  10.696 -0.2057  0.8325 -0.2659
  746TMC3    O111033   1.483   0.683  10.859 -0.0413  0.0267 -0.1726
  746TMC3    O211034   1.839   0.671  10.635  0.2891 -0.5112  0.5825
  747TMC3    C111035   4.275   1.494  10.762 -0.5399 -0.6929  0.2461
  747TMC3    C211036   4.221   1.389  10.832  0.0674  0.3732 -0.0107
  747TMC3    C311037   4.265   1.373  10.958 -0.5126 -0.5453  0.1345
  747TMC3    C411038   4.363   1.586  10.815 -0.1766 -0.2392 -0.0345
  747TMC3    C511039   4.402   1.568  10.949  1.0900  0.3279  0.0403
  747TMC3    C611040   4.359   1.457  11.015 -0.5637  0.2820 -0.5965
  747TMC3     C11041   4.209   1.537  10.647 -0.5498 -0.5768  0.3223
  747TMC3     O11042   4.209   1.663  10.633 -0.0700  0.7585 -0.2330
  747TMC3     H11043   4.139   1.329  10.797 -0.3693 -0.0157  1.7012
  747TMC3    H111044   4.409   1.667  10.760  0.0357 -0.1927  0.2110
  747TMC3    H211045   4.412   1.437  11.108  0.4983  0.3369 -1.1848
  747TMC3    C711046   4.449   1.684  11.033  0.3077  0.5663  0.3318
  747TMC3    C811047   4.176   1.304  11.049  0.0711  0.1126  0.1089
  747TMC3    O111048   4.460   1.653  11.150  0.1054  0.5900 -0.0499
  747TMC3    O211049   4.128   1.203  11.010 -0.2818  0.0863 -0.3005
  748MPD2     C11050   0.538   2.270   1.910 -0.2399  0.5815  0.0077
  748MPD2    C111051   0.660   2.219   1.959  0.3229  0.1235 -0.5423
  748MPD2    C211052   0.773   2.204   1.879 -0.4037 -0.0668  0.3503
  748MPD2    C311053   0.764   2.227   1.746  0.1181 -0.6048  0.4239
  748MPD2    C411054   0.651   2.292   1.699  0.5138 -0.5665  0.5934
  748MPD2    C511055   0.537   2.313   1.783  0.3413  0.0795 -0.6516
  748MPD2     H11056   0.866   2.162   1.914  0.2342  3.2219  2.5508
  748MPD2    H111057   0.643   2.339   1.602  0.2222 -1.4840  0.1784
  748MPD2    H211058   0.451   2.290   1.973 -0.1922 -2.9850  1.2191
  748MPD2    H311059   0.447   2.358   1.742 -0.1467  0.8289  1.2660
  748MPD2     N11060   0.876   2.224   1.661 -0.0874 -0.2960  0.1256
  748MPD2    H511061   0.966   2.216   1.709  1.1584  1.5318 -1.8851
  748MPD2    N111062   0.660   2.183   2.096  0.0344 -0.0648 -0.1607
  748MPD2    H711063   0.582   2.224   2.146  0.8044  3.3044 -1.7516
  749TMC3    C111064   1.017   2.267   1.480 -0.2913 -0.3153 -0.2839
  749TMC3    C211065   1.112   2.201   1.546  0.2737 -0.0631  0.4575
  749TMC3    C311066   1.236   2.191   1.490 -0.2907 -0.6903 -0.2509
  749TMC3    C411067   1.036   2.309   1.352  0.0405  0.1347 -0.1714
  749TMC3    C511068   1.172   2.314   1.312 -0.2923 -0.8907  0.1657
  749TMC3    C611069   1.272   2.247   1.372  0.0187  0.0647  0.0559
  749TMC3     C11070   0.876   2.253   1.526  0.0652 -0.2415 -0.7099
  749TMC3     O11071   0.789   2.271   1.446 -0.4968  0.1594 -0.1053
  749TMC3     H11072   1.097   2.152   1.641 -0.5883 -0.9149 -0.1311
  749TMC3    H111073   0.954   2.367   1.310 -0.5742 -0.2861  0.4528
  749TMC3    H211074   1.368   2.247   1.322  0.0109  0.1603  0.0416
  749TMC3    C711075   1.201   2.396   1.196  1.2515  1.2043 -0.0838
  749TMC3    C811076   1.341   2.144   1.582  0.2864  0.1973  0.3282
  749TMC3    O111077   1.320   2.418   1.178 -0.3493  0.2732 -0.5994
  749TMC3    O211078   1.319   2.142   1.703 -0.3408 -0.0688 -0.0524
  750MPD2     C11079   1.833   2.968  10.951 -0.3305  0.4579  0.1956
  750MPD2    C111080   1.772   2.915  11.066 -0.3765  0.2863  0.2736
  750MPD2    C211081   1.778   2.777  11.075 -0.3077 -0.6238 -0.1832
  750MPD2    C311082   1.829   2.690  10.979  0.4305  0.7339 -0.3321
  750MPD2    C411083   1.888   2.748  10.868 -0.1094 -0.9817  0.4201
  750MPD2    C511084   1.887   2.887  10.861 -0.1725 -0.4427 -0.0598
  750MPD2     H11085   1.741   2.745  11.172 -0.4669  3.6345  1.1619
  750MPD2    H111086   1.947   2.687  10.800  0.2198 -1.1348  0.8400
  750MPD2    H211087   1.842   3.075  10.933  0.4838  0.2434 -0.6508
  750MPD2    H311088   1.934   2.935  10.776 -0.2415 -1.0357 -0.4252
  750MPD2     N11089   1.834   2.547  10.996 -0.1973 -0.4137 -0.2879
  750MPD2    H511090   1.878   2.495  10.920  0.4936  0.0775 -0.2241
  750MPD2    N111091   1.714   3.004  11.160 -0.3636  0.0715  0.6046
  750MPD2    H711092   1.730   3.102  11.140  1.6869 -0.4080 -0.1964
  751TMC3    C111093   1.770   2.339  11.068  0.0087 -0.5672 -0.1119
  751TMC3    C211094   1.662   2.263  11.104 -0.2245 -0.5616 -1.0757
  751TMC3    C311095   1.656   2.133  11.045 -0.2403  0.2629 -0.2997
  751TMC3    C411096   1.873   2.296  10.984 -0.5318  0.8137 -0.1568
  751TMC3    C511097   1.862   2.166  10.948  0.1862 -0.2076 -0.3950
  751TMC3    C611098   1.758   2.082  10.972  0.0138  0.1489  0.1968
  751TMC3     C11099   1.752   2.477  11.084  0.4049 -0.6385  0.3509
  751TMC3     O11100   1.684   2.516  11.179  0.5728 -0.3384  0.2651
  751TMC3     H11101   1.576   2.316  11.144 -0.4028 -2.4665  1.0443
  751TMC3    H111102   1.962   2.354  10.962 -0.5300  0.8899  0.0534
  751TMC3    H211103   1.751   1.985  10.924 -0.5290  1.3430 -2.1077
  751TMC3    C711104   1.976   2.114  10.876  0.5205  0.1765 -0.1207
  751TMC3    C811105   1.531   2.064  11.043  0.3171 -0.2465 -0.1638
  751TMC3    O111106   2.043   2.188  10.804  0.3897  0.1824 -0.8109
  751TMC3    O211107   1.514   1.989  10.947  0.0815 -0.0459  0.2042
  752TMC3    C111108   1.083   3.679   0.109 -1.0454  0.3022  0.4475
  752TMC3    C211109   1.020   3.565   0.155 -0.0246 -0.5303  0.6025
  752TMC3    C311110   1.037   3.521   0.286 -0.4569 -0.0084 -0.2623
  752TMC3    C411111   1.173   3.741   0.188  0.5249  0.3269  0.5009
  752TMC3    C511112   1.180   3.706   0.325  0.1880 -0.7828 -0.4556
  752TMC3    C611113   1.123   3.592   0.367 -0.4881 -0.2824 -0.5334
  752TMC3     C11114   1.035   3.751  17.676 -0.0010 -0.0703  0.0169
  752TMC3     O11115   1.069   3.866  17.662 -0.0275  0.2025 -0.1282
  752TMC3     H11116   0.937   3.525   0.098  0.2535 -0.6261  0.2659
  752TMC3    H111117   1.234   3.815   0.137  2.8613  0.2626  3.1488
  752TMC3    H211118   1.115   3.573   0.473  0.2431 -2.0241 -0.7734
  752TMC3    C711119   1.298   3.761   0.395 -0.7021  0.5002 -0.8162
  752TMC3    C811120   0.941   3.437   0.349  0.7571 -0.1954  0.3709
  752TMC3    O111121   1.348   3.697   0.488  0.5930 -0.0900 -0.3709
  752TMC3    O211122   0.830   3.424   0.295 -0.2073 -0.4106  0.8080
  753TMC3    C111123   2.557   4.290  13.308  0.3714 -0.1146 -0.3656
  753TMC3    C211124   2.607   4.279  13.435  0.3299  0.2719 -0.5297
  753TMC3    C311125   2.611   4.154  13.489  0.2441  0.3368  0.5044
  753TMC3    C411126   2.536   4.182  13.226 -0.4676 -0.0177 -0.4276
  753TMC3    C511127   2.547   4.055  13.283  0.2759 -0.2170  0.3020
  753TMC3    C611128   2.579   4.046  13.414 -0.3526  0.1274 -0.1255
  753TMC3     C11129   2.545   4.423  13.250  0.2386  0.8819  0.3537
  753TMC3     O11130   2.544   4.426  13.128 -0.2945 -0.0754  0.1559
  753TMC3     H11131   2.625   4.365  13.498 -1.3859  0.6479 -0.5616
  753TMC3    H111132   2.508   4.197  13.122 -0.0846  1.9383 -0.2378
  753TMC3    H211133   2.583   3.946  13.456 -2.0400 -0.1490 -0.6111
  753TMC3    C711134   2.553   3.946  13.187 -0.1121 -0.1802  0.0127
  753TMC3    C811135   2.617   4.138  13.631 -0.1789 -0.0631  0.5894
  753TMC3    O111136   2.562   3.978  13.070  0.0258  0.1306 -0.0713
  753TMC3    O211137   2.574   4.031  13.670 -0.5513 -0.3266  0.1439
  754MPD2     C11138   1.388   3.089  12.663 -0.2610  0.2912  0.3775
  754MPD2    C111139   1.381   2.952  12.669 -0.1129 -0.5314  0.2588
  754MPD2    C211140   1.278   2.902  12.745  0.3563 -1.1792 -0.4729
  754MPD2    C311141   1.188   2.985  12.809 -0.2993  0.1172  0.2860
  754MPD2    C411142   1.188   3.124  12.783  0.4758 -0.9097 -0.4782
  754MPD2    C511143   1.298   3.177  12.719  0.0521 -0.5674 -0.1405
  754MPD2     H11144   1.268   2.794  12.747 -2.0709 -0.8959  1.1873
  754MPD2    H111145   1.110   3.181  12.832  0.9237 -0.1701 -0.6255
  754MPD2    H211146   1.462   3.134  12.598 -1.4790  2.2205  0.3257
  754MPD2    H311147   1.311   3.283  12.701  0.6378 -0.9964 -2.2875
  754MPD2     N11148   1.101   2.937  12.903  0.0181  0.6146 -0.1353
  754MPD2    H511149   1.043   3.013  12.939 -2.3438 -1.6922  0.9514
  754MPD2    N111150   1.470   2.873  12.585  0.3962  0.1216  0.4136
  754MPD2    H711151   1.503   2.929  12.507 -1.7679 -1.0403 -1.3360
  755MPD2     C11152   0.532   3.436  13.298 -0.2346  0.0180  0.5079
  755MPD2    C111153   0.570   3.364  13.405  0.2272  0.6247  0.3798
  755MPD2    C211154   0.653   3.250  13.385  0.0333  0.2054  0.0809
  755MPD2    C311155   0.702   3.222  13.256 -0.3984 -1.0900 -0.2516
  755MPD2    C411156   0.657   3.299  13.149 -0.0266  0.4931  0.4501
  755MPD2    C511157   0.576   3.403  13.178 -0.3370 -0.0165 -0.2007
  755MPD2     H11158   0.693   3.203  13.474  1.8311  1.0107 -0.2920
  755MPD2    H111159   0.692   3.296  13.046  0.1659  1.7140  0.4694
  755MPD2    H211160   0.462   3.518  13.300  3.0248  2.7729  1.9705
  755MPD2    H311161   0.540   3.468  13.099 -3.2289  1.1877  2.0614
  755MPD2     N11162   0.789   3.114  13.229  0.0423  0.4975  0.0241
  755MPD2    H511163   0.812   3.099  13.131 -3.0325 -0.0041 -0.6385
  755MPD2    N111164   0.524   3.380  13.537  0.0863 -0.1420 -0.5762
  755MPD2    H711165   0.548   3.307  13.603 -0.6353  0.2942  0.1646
  756MPD2     C11166   1.196   3.380   9.708  0.0309  0.3059  0.2463
  756MPD2    C111167   1.327   3.364   9.695 -0.4194 -0.2058  0.6463
  756MPD2    C211168   1.375   3.279   9.599 -0.3053  0.4968 -0.2619
  756MPD2    C311169   1.291   3.210   9.512  0.2754  0.1944  0.0991
  756MPD2    C411170   1.156   3.235   9.522 -0.0782  0.3421  0.2124
  756MPD2    C511171   1.109   3.328   9.615 -0.6471 -0.4939 -0.2625
  756MPD2     H11172   1.483   3.269   9.601 -0.4775 -1.4267 -0.5553
  756MPD2    H111173   1.086   3.173   9.467  2.1388 -1.2924 -0.7470
  756MPD2    H211174   1.145   3.444   9.779 -0.3640  0.9820 -0.6545
  756MPD2    H311175   1.005   3.359   9.622 -0.1520  0.3251  3.2394
  756MPD2     N11176   1.349   3.122   9.421 -0.1235 -0.0651 -0.0190
  756MPD2    H511177   1.446   3.091   9.423 -0.0767  0.2004  1.5092
  756MPD2    N111178   1.412   3.430   9.781 -0.4206 -0.4410  0.5584
  756MPD2    H711179   1.509   3.416   9.756 -0.6436  2.3801 -1.8700
  757MPD2     C11180   1.486   2.141   9.563  0.5974 -0.3185  0.3229
  757MPD2    C111181   1.467   2.145   9.430  0.7214 -0.0710 -0.1478
  757MPD2    C211182   1.426   2.263   9.371  0.2053 -0.1509 -0.0463
  757MPD2    C311183   1.402   2.380   9.442  0.5701  0.0809  0.0785
  757MPD2    C411184   1.409   2.368   9.580 -0.3805 -0.1320  0.3270
  757MPD2    C511185   1.458   2.250   9.639  1.0009  0.6382  0.2242
  757MPD2     H11186   1.417   2.271   9.264 -0.3894  1.6510  0.1338
  757MPD2    H111187   1.380   2.445   9.651  1.1137 -0.7293  1.5803
  757MPD2    H211188   1.516   2.049   9.612 -0.7574 -0.3345  1.1518
  757MPD2    H311189   1.458   2.236   9.747 -0.2529 -1.4575 -0.0325
  757MPD2     N11190   1.394   2.501   9.372 -0.1207  0.3797 -0.6552
  757MPD2    H511191   1.417   2.491   9.274  1.6221 -0.5419 -0.1590
  757MPD2    N111192   1.482   2.021   9.364  0.2524 -0.3845  0.3419
  757MPD2    H711193   1.508   1.940   9.420  1.5898  0.5565  1.0860
  758MPD2     C11194   1.493   2.588  15.861 -0.7512  0.2953 -0.7890
  758MPD2    C111195   1.566   2.572  15.979  0.3740 -0.2132 -0.2913
  758MPD2    C211196   1.503   2.537  16.101 -0.1166 -0.0690 -0.4109
  758MPD2    C311197   1.365   2.539  16.105 -0.3708  0.1752 -0.1066
  758MPD2    C411198   1.290   2.566  15.991 -0.3419  0.6730  0.1179
  758MPD2    C511199   1.354   2.579  15.874 -0.2960 -0.4936 -0.0756
  758MPD2     H11200   1.565   2.518  16.188  1.0687 -2.7905 -1.8671
  758MPD2    H111201   1.182   2.563  15.990 -0.2425 -2.7341  0.1301
  758MPD2    H211202   1.528   2.586  15.759 -1.2115 -2.8038 -0.8842
  758MPD2    H311203   1.285   2.591  15.791 -2.4290 -0.4423  1.6999
  758MPD2     N11204   1.300   2.532  16.229 -0.4278 -0.0194 -0.1200
  758MPD2    H511205   1.205   2.566  16.218 -0.4800 -0.0660  0.1770
  758MPD2    N111206   1.707   2.570  15.963  0.3593 -0.1142 -0.0112
  758MPD2    H711207   1.749   2.595  15.874 -1.2000 -0.7591 -0.9151
  759MPD2     C11208   0.699   0.730   9.466 -0.6499 -0.8235 -0.1548
  759MPD2    C111209   0.734   0.741   9.599  0.2757 -0.3442  0.4298
  759MPD2    C211210   0.852   0.818   9.618 -0.2048 -0.9915 -0.1778
  759MPD2    C311211   0.934   0.873   9.515  0.8327 -0.6196  0.6081
  759MPD2    C411212   0.893   0.850   9.388  0.1039 -0.7705  0.3596
  759MPD2    C511213   0.781   0.778   9.364  0.3910 -0.1074  0.1806
  759MPD2     H11214   0.884   0.827   9.721 -1.0290 -0.9049  0.0739
  759MPD2    H111215   0.945   0.888   9.300  0.0599 -1.0152  0.2254
  759MPD2    H211216   0.612   0.675   9.430 -1.4002 -0.0176  0.4117
  759MPD2    H311217   0.746   0.759   9.263 -2.0513  1.2554  0.7768
  759MPD2     N11218   1.057   0.946   9.541 -0.0854  0.0004 -0.4245
  759MPD2    H511219   1.086   0.969   9.636  0.1507 -0.5658 -0.3571
  759MPD2    N111220   0.662   0.685   9.709 -0.2271  0.4448 -0.5412
  759MPD2    H711221   0.710   0.677   9.797 -1.0389  0.7509 -0.0657
  760MPD2     C11222   4.685   3.162  12.130  0.9046  0.3881 -0.4830
  760MPD2    C111223   0.082   3.225  12.112 -0.1035 -0.0770 -0.5111
  760MPD2    C211224   0.199   3.152  12.138 -0.2981 -0.9314  0.4495
  760MPD2    C311225   0.197   3.027  12.182 -0.5456 -0.1696  0.0376
  760MPD2    C411226   0.078   2.962  12.201  0.0644  0.3747 -0.3004
  760MPD2    C511227   4.686   3.027  12.167  0.7017  0.6012 -0.2786
  760MPD2     H11228   0.295   3.199  12.118 -0.9946  0.0202 -0.6445
  760MPD2    H111229   0.080   2.869  12.258  0.3357 -1.1030 -2.6940
  760MPD2    H211230   4.586   3.204  12.119  0.2673 -0.9365  0.1866
  760MPD2    H311231   4.590   2.978  12.182  0.1702  2.1762  1.4064
  760MPD2     N11232   0.315   2.961  12.226 -0.4794 -0.7060 -0.3247
  760MPD2    H511233   0.299   2.880  12.285  0.1156  0.2725  1.1764
  760MPD2    N111234   0.086   3.353  12.070  0.2831 -0.0029 -0.2492
  760MPD2    H711235   0.177   3.384  12.035  1.3301 -2.0602  0.6667
  761MPD2     C11236   1.058   1.968  11.195 -0.6507  0.1236 -0.0022
  761MPD2    C111237   1.122   1.958  11.078  0.7115 -0.5118  0.2510
  761MPD2    C211238   1.246   2.006  11.060 -0.9951  0.1586 -0.2352
  761MPD2    C311239   1.314   2.055  11.166  0.3462 -0.1601  0.4501
  761MPD2    C411240   1.258   2.056  11.289 -0.2971  0.1091 -0.6959
  761MPD2    C511241   1.128   2.018  11.306 -0.7970  0.2937  0.6002
  761MPD2     H11242   1.287   2.011  10.959  3.1784  0.4719  1.4673
  761MPD2    H111243   1.308   2.091  11.378 -0.3407 -2.4815  0.3309
  761MPD2    H211244   0.962   1.919  11.206  0.3133 -1.6990  0.3111
  761MPD2    H311245   1.085   2.017  11.405 -1.2512  0.3336  0.4021
  761MPD2     N11246   1.450   2.096  11.153  0.8059 -0.0759  0.5108
  761MPD2    H511247   1.486   2.148  11.232 -2.5721  1.3851  1.1111
  761MPD2    N111248   1.049   1.907  10.960  0.2289 -0.2752 -0.3080
  761MPD2    H711249   0.948   1.921  10.955  0.1366 -1.8662 -3.2238
  762MPD2     C11250   1.725   1.996  10.642 -0.0143 -0.6395 -0.0116
  762MPD2    C111251   1.696   1.863  10.645  0.2946 -0.3278  0.5899
  762MPD2    C211252   1.782   1.772  10.591  0.0992 -0.3002 -0.5956
  762MPD2    C311253   1.888   1.817  10.508  0.3517 -0.4108 -0.1991
  762MPD2    C411254   1.917   1.955  10.503 -0.2769 -0.5639 -0.8771
  762MPD2    C511255   1.825   2.042  10.557  0.0644 -0.0964  0.0442
  762MPD2     H11256   1.762   1.666  10.597 -0.2737 -0.1907  0.0068
  762MPD2    H111257   1.995   2.005  10.447 -0.0193 -1.3436 -1.2121
  762MPD2    H211258   1.656   2.063  10.693  0.3831  0.7899 -1.3461
  762MPD2    H311259   1.839   2.149  10.558  1.7362 -0.2754 -3.7993
  762MPD2     N11260   1.967   1.718  10.450  0.3934  0.3486  0.3331
  762MPD2    H511261   1.946   1.623  10.478  0.8432  0.5232  1.2528
  762MPD2    N111262   1.579   1.827  10.712  0.1786  0.4058 -1.3938
  762MPD2    H711263   1.522   1.903  10.748 -1.2435 -1.0580 -0.5803
  763MPD2     C11264   3.212   2.478  16.701  0.5312  0.0221  0.2983
  763MPD2    C111265   3.247   2.552  16.593 -0.1557 -0.1198 -0.2804
  763MPD2    C211266   3.301   2.675  16.625 -0.3725 -0.8497  0.5114
  763MPD2    C311267   3.312   2.729  16.757  0.2148 -0.3855  1.0259
  763MPD2    C411268   3.271   2.649  16.863  0.6065 -0.6136  0.0604
  763MPD2    C511269   3.235   2.519  16.831  0.1487  0.0730 -0.0528
  763MPD2     H11270   3.319   2.734  16.536  0.2127 -0.1813  1.0692
  763MPD2    H111271   3.277   2.690  16.963 -0.4104 -2.5351  0.9256
  763MPD2    H211272   3.161   2.382  16.694  1.7874 -0.6185 -0.1763
  763MPD2    H311273   3.201   2.463  16.917 -1.0677 -3.4344 -2.8592
  763MPD2     N11274   3.369   2.851  16.784  0.3532 -0.0886  0.5413
  763MPD2    H511275   3.353   2.886  16.878 -2.9497 -1.6837  0.5892
  763MPD2    N111276   3.210   2.517  16.457  0.4968  0.3801  0.0065
  763MPD2    H711277   3.240   2.588  16.390  2.3820 -0.4401 -0.0097
  764MPD2     C11278   1.204   0.140   0.302 -0.4690 -0.3051  0.4954
  764MPD2    C111279   1.165   0.018   0.243  0.6701 -0.8392 -1.4401
  764MPD2    C211280   1.204   4.617   0.306  0.0138 -0.1797 -0.7568
  764MPD2    C311281   1.277   4.607   0.419  1.1463  0.7081  0.3107
  764MPD2    C411282   1.315   0.009   0.477  0.2478 -0.0069  0.0231
  764MPD2    C511283   1.278   0.134   0.418 -0.1935 -0.6072  0.4280
  764MPD2     H11284   1.190   4.521   0.257 -0.4566 -0.3024 -0.3820
  764MPD2    H111285   1.373   0.018   0.568 -0.6194 -1.1910  0.6888
  764MPD2    H211286   1.169   0.236   0.266 -0.9641 -0.7426 -0.2052
  764MPD2    H311287   1.318   0.228   0.455 -0.6936 -1.2291  2.5496
  764MPD2     N11288   1.317   4.482   0.470  0.5064 -0.2296  0.3453
  764MPD2    H511289   1.265   4.400   0.443  3.3382 -2.2147  0.9778
  764MPD2    N111290   1.095   0.014   0.123  0.2624  0.1469 -0.1723
  764MPD2    H711291   1.051   4.645   0.104  2.3608 -0.0225 -4.1531
  765MPD2     C11292   0.599   1.734  16.008 -1.3400  0.1597 -0.1359
  765MPD2    C111293   0.661   1.852  15.987 -0.2541  0.2641  0.0779
  765MPD2    C211294   0.787   1.848  15.935 -0.6065 -0.1386  0.6597
  765MPD2    C311295   0.847   1.725  15.903 -0.2632  0.8899 -0.1116
  765MPD2    C411296   0.782   1.608  15.923 -0.2546 -0.1423  0.0123
  765MPD2    C511297   0.651   1.615  15.966  0.1141 -0.7882 -0.5027
  765MPD2     H11298   0.829   1.938  15.892 -0.8694 -1.0035 -1.3943
  765MPD2    H111299   0.827   1.510  15.915 -1.3172 -0.4719 -2.0760
  765MPD2    H211300   0.493   1.736  16.032 -1.1460 -0.7471  0.8053
  765MPD2    H311301   0.595   1.525  15.987 -0.9438  0.6567  2.9572
  765MPD2     N11302   0.971   1.738  15.835 -0.5691  0.2828 -0.4532
  765MPD2    H511303   1.003   1.827  15.799  0.2977  0.3276  0.4436
  765MPD2    N111304   0.584   1.978  16.002 -0.1808  0.6829 -0.2559
  765MPD2    H711305   0.483   1.972  16.011 -0.3277  2.6147 -0.6724
  766MPD2     C11306   0.190   2.091  15.499  0.4287  0.2167  0.0533
  766MPD2    C111307   0.324   2.102  15.521 -0.3867 -0.0870  0.1320
  766MPD2    C211308   0.419   2.060  15.434 -0.7760 -0.1897  0.2388
  766MPD2    C311309   0.382   2.005  15.316 -0.3682 -0.4289  0.1239
  766MPD2    C411310   0.247   2.009  15.284  0.1333 -0.0719  0.3182
  766MPD2    C511311   0.151   2.050  15.375  0.0441 -0.1700  0.2900
  766MPD2     H11312   0.526   2.074  15.446 -0.6927 -0.8885  0.3022
  766MPD2    H111313   0.219   1.956  15.193  3.1340  2.2725 -1.9788
  766MPD2    H211314   0.127   2.116  15.583  1.6609 -1.1412  1.4000
  766MPD2    H311315   0.045   2.053  15.352  0.0560  3.1479  0.6745
  766MPD2     N11316   0.477   1.966  15.219 -0.0827  0.1815 -0.6758
  766MPD2    H511317   0.445   1.947  15.124  0.1377 -1.4697 -0.4242
  766MPD2    N111318   0.366   2.160  15.641  0.2265  0.3150  0.3204
  766MPD2    H711319   0.464   2.150  15.665  0.5990 -1.3668 -1.9678
  767MPD2     C11320   0.161   2.353  15.234 -0.5302 -0.1031  0.5010
  767MPD2    C111321   0.285   2.355  15.182  0.5542 -0.3462  0.4751
  767MPD2    C211322   0.308   2.311  15.052 -0.1631  0.3867  0.2666
  767MPD2    C311323   0.203   2.266  14.973 -0.4348 -0.0139  0.1511
  767MPD2    C411324   0.076   2.252  15.039  0.1831 -0.1285  0.0877
  767MPD2    C511325   0.052   2.300  15.165 -0.3142 -0.0686 -0.7879
  767MPD2     H11326   0.409   2.312  15.012  0.5252 -0.1417  1.9879
  767MPD2    H111327   4.706   2.214  14.994 -0.4698 -0.5086  1.7420
  767MPD2    H211328   0.146   2.398  15.331  1.7059 -0.0714  0.8374
  767MPD2    H311329   4.673   2.296  15.207 -0.6244 -0.4457 -1.5612
  767MPD2     N11330   0.222   2.232  14.837 -0.2743 -0.4546  0.2826
  767MPD2    H511331   0.318   2.226  14.805 -0.1259  1.5772  0.3760
  767MPD2    N111332   0.390   2.394  15.265  0.0940 -0.3174  0.2462
  767MPD2    H711333   0.365   2.437  15.353 -0.8488  0.2293 -0.2831
  768MPD2     C11334   1.180   0.432  10.513  0.1254 -0.3298  0.7110
  768MPD2    C111335   1.130   0.464  10.632 -0.4661 -0.3770 -0.1516
  768MPD2    C211336   1.189   0.425  10.754  0.1368  0.0908  0.4683
  768MPD2    C311337   1.317   0.370  10.755 -0.0238 -0.4024  0.1282
  768MPD2    C411338   1.363   0.335  10.631  0.0199  0.5569  0.1451
  768MPD2    C511339   1.290   0.353  10.512 -0.2713  0.5217  0.0312
  768MPD2     H11340   1.144   0.448  10.850 -0.3305  1.7278 -0.1603
  768MPD2    H111341   1.465   0.300  10.625  0.2947  1.5239 -0.9679
  768MPD2    H211342   1.132   0.462  10.420 -0.6019 -0.5335  1.0180
  768MPD2    H311343   1.325   0.313  10.417 -2.3095 -0.7711 -0.1718
  768MPD2     N11344   1.396   0.348  10.872  0.1948  1.1013  0.0648
  768MPD2    H511345   1.488   0.312  10.846 -0.5237 -0.3893 -0.3906
  768MPD2    N111346   1.019   0.551  10.652  0.0986  0.3609  0.1376
  768MPD2    H711347   0.987   0.553  10.749  0.5211  0.2897  0.2752
  769MPD2     C11348   2.264   3.408  14.782  0.1813  0.4840 -0.1456
  769MPD2    C111349   2.209   3.528  14.810 -0.1631  0.1286  0.1155
  769MPD2    C211350   2.264   3.607  14.910 -0.2065 -0.1050  0.0758
  769MPD2    C311351   2.367   3.561  14.985  0.0182 -0.5545 -0.2919
  769MPD2    C411352   2.424   3.434  14.956  0.4336  0.0402 -0.3349
  769MPD2    C511353   2.363   3.360  14.859 -0.2157  0.5902 -0.1901
  769MPD2     H11354   2.216   3.702  14.932 -0.9363 -0.8637  1.7738
  769MPD2    H111355   2.506   3.384  15.007 -0.4081 -1.7204 -0.7158
  769MPD2    H211356   2.215   3.350  14.705 -1.9162  0.5585  1.1363
  769MPD2    H311357   2.401   3.261  14.837  0.4318  0.6985  0.4640
  769MPD2     N11358   2.421   3.625  15.101 -0.4560 -0.3211 -0.4762
  769MPD2    H511359   2.487   3.567  15.152  1.2864  0.1362 -2.1744
  769MPD2    N111360   2.087   3.560  14.748 -0.3907  0.8335 -0.0497
  769MPD2    H711361   2.059   3.491  14.679  0.8574 -1.0169  1.2762
  770MPD2     C11362   1.656   3.246  15.303 -0.6560  0.2826  0.3902
  770MPD2    C111363   1.645   3.194  15.168 -0.1065  0.3548 -0.0102
  770MPD2    C211364   1.629   3.290  15.065 -0.1521  0.0748 -0.5110
  770MPD2    C311365   1.625   3.427  15.101 -0.1243 -0.2630 -0.2113
  770MPD2    C411366   1.636   3.472  15.228 -0.6833 -0.0277 -0.0462
  770MPD2    C511367   1.645   3.386  15.332  0.3835 -0.8277 -0.4646
  770MPD2     H11368   1.618   3.248  14.966 -0.2386  0.1641 -0.5392
  770MPD2    H111369   1.639   3.577  15.256 -0.1438  0.0618 -0.4417
  770MPD2    H211370   1.659   3.182  15.390 -0.7171 -0.0356  0.1590
  770MPD2    H311371   1.658   3.411  15.437 -2.7363 -0.5412 -0.1331
  770MPD2     N11372   1.611   3.538  15.012 -0.8476  0.0959  0.3063
  770MPD2    H511373   1.619   3.634  15.043  1.4570 -0.4855  1.5046
  770MPD2    N111374   1.648   3.061  15.152 -0.0462  0.4554 -0.7697
  770MPD2    H711375   1.644   3.011  15.240  1.1967  0.3202 -0.7963
  771MPD2     C11376   2.825   1.401  13.458  0.0369 -0.0765 -0.5560
  771MPD2    C111377   2.881   1.469  13.354  0.6154 -0.5517  0.9402
  771MPD2    C211378   2.931   1.394  13.248 -0.0694  0.0684 -0.0516
  771MPD2    C311379   2.922   1.257  13.238 -0.8001 -0.4259  0.5062
  771MPD2    C411380   2.860   1.193  13.342 -0.1528  0.2513  0.1437
  771MPD2    C511381   2.814   1.259  13.450 -0.4647  0.3777 -0.7468
  771MPD2     H11382   2.980   1.445  13.166 -3.1958  0.6533 -1.5470
  771MPD2    H111383   2.850   1.086  13.353  0.4829  0.3012  1.2756
  771MPD2    H211384   2.800   1.450  13.551  0.5553  0.8267 -0.8918
  771MPD2    H311385   2.760   1.207  13.529 -0.6417  1.9060  0.1437
  771MPD2     N11386   2.967   1.193  13.120  0.8234 -0.5624  0.5022
  771MPD2    H511387   3.020   1.245  13.052  1.2508  0.4406  1.5930
  771MPD2    N111388   2.901   1.606  13.361  0.0908  0.7221 -0.7443
  771MPD2    H711389   2.958   1.640  13.284 -1.0230  0.7906 -1.5441
  772MPD2     C11390   2.447   2.257  13.324  0.7316  0.4756 -0.0641
  772MPD2    C111391   2.458   2.178  13.434  0.0640 -0.3511 -0.7992
  772MPD2    C211392   2.345   2.155  13.512 -0.3455 -0.4637  0.2265
  772MPD2    C311393   2.221   2.202  13.468 -0.3024 -0.0665 -0.0915
  772MPD2    C411394   2.216   2.290  13.366  0.3659 -0.0629 -0.5655
  772MPD2    C511395   2.330   2.319  13.293 -0.1714 -0.3688 -0.3027
  772MPD2     H11396   2.357   2.084  13.593  1.1085  0.7113  1.0536
  772MPD2    H111397   2.123   2.340  13.344 -0.2300 -0.5314  0.8833
  772MPD2    H211398   2.529   2.261  13.253  1.2368  4.5098  0.6989
  772MPD2    H311399   2.333   2.386  13.207 -0.5427  1.0370  0.7692
  772MPD2     N11400   2.100   2.187  13.538 -0.7601  0.3153 -0.4881
  772MPD2    H511401   2.018   2.225  13.493 -2.0075 -1.0721  0.6391
  772MPD2    N111402   2.579   2.119  13.466  0.1254  0.2213 -0.0697
  772MPD2    H711403   2.573   2.050  13.541 -1.3408  0.2102 -0.1878
  773MPD2     C11404   1.866   2.867   0.584  0.1487 -0.2104  0.0969
  773MPD2    C111405   1.750   2.823   0.515  0.5481  0.1244 -0.6773
  773MPD2    C211406   1.725   2.683   0.505  0.4546  0.0792  0.4051
  773MPD2    C311407   1.826   2.596   0.547 -0.0943 -0.2776 -0.0482
  773MPD2    C411408   1.951   2.640   0.590  0.9845 -0.6087 -0.7119
  773MPD2    C511409   1.962   2.774   0.611  0.2885 -0.2141  0.7497
  773MPD2     H11410   1.634   2.645   0.460  0.0726  0.3616  0.9481
  773MPD2    H111411   2.037   2.581   0.617 -0.1440 -2.6441 -1.6042
  773MPD2    H211412   1.877   2.972   0.607 -1.7218 -0.1401  0.6322
  773MPD2    H311413   2.051   2.815   0.657 -1.2214  2.8937  0.8753
  773MPD2     N11414   1.830   2.454   0.543 -0.3992 -0.8212 -0.2849
  773MPD2    H511415   1.917   2.404   0.554 -0.0890 -0.1106  0.4941
  773MPD2    N111416   1.657   2.914   0.470  0.1642  0.1831  0.2749
  773MPD2    H711417   1.568   2.880   0.435  0.7364 -2.2404  1.1533
  774MPD2     C11418   0.950   2.105  12.826 -0.2262  0.2254  0.1454
  774MPD2    C111419   0.994   2.162  12.943 -0.3878 -0.4976 -0.1294
  774MPD2    C211420   1.103   2.241  12.941  0.4560 -0.1775  0.3515
  774MPD2    C311421   1.160   2.278  12.824 -0.0793 -0.0203  0.1481
  774MPD2    C411422   1.108   2.230  12.708  0.3363 -0.2314  0.0334
  774MPD2    C511423   1.007   2.138  12.705  0.4143  0.5080  0.4590
  774MPD2     H11424   1.149   2.277  13.032 -0.6347  0.4993  0.6409
  774MPD2    H111425   1.148   2.262  12.612 -2.3582  2.3502 -0.2531
  774MPD2    H211426   0.867   2.034  12.823 -0.3442  0.3392  0.7472
  774MPD2    H311427   0.969   2.095  12.613  1.0689  2.1282 -0.5652
  774MPD2     N11428   1.278   2.350  12.813  0.8519 -0.6062 -0.6554
  774MPD2    H511429   1.300   2.367  12.715  2.9674 -0.5366 -0.1714
  774MPD2    N111430   0.938   2.138  13.070 -0.0933 -0.2455  0.8229
  774MPD2    H711431   0.997   2.178  13.143  0.9640  1.9156 -1.1954
  775MPD2     C11432   2.234   3.907  16.361 -0.8181 -0.7353 -0.0302
  775MPD2    C111433   2.231   4.043  16.375  0.5043 -0.1623  0.5785
  775MPD2    C211434   2.295   4.130  16.288 -0.2579 -0.8034 -0.9174
  775MPD2    C311435   2.364   4.076  16.177  0.2050  0.5472  0.2324
  775MPD2    C411436   2.374   3.942  16.170  0.2451  0.8011 -0.1381
  775MPD2    C511437   2.302   3.855  16.254  0.5718 -0.1758  0.3512
  775MPD2     H11438   2.280   4.237  16.300 -0.5140 -0.9574  0.0981
  775MPD2    H111439   2.433   3.908  16.085  0.5440  0.7494  0.0892
  775MPD2    H211440   2.185   3.842  16.433  0.3363  0.7551  2.1189
  775MPD2    H311441   2.317   3.748  16.248 -0.0093 -0.1595 -1.2586
  775MPD2     N11442   2.444   4.145  16.076 -0.0686  0.5617  0.3110
  775MPD2    H511443   2.492   4.090  16.006 -0.2302  1.2994 -0.3756
  775MPD2    N111444   2.170   4.094  16.494  0.1348 -0.7278  0.4585
  775MPD2    H711445   2.115   4.025  16.544  1.2766 -0.6280  1.8476
  776MPD2     C11446   1.506   3.548  10.975 -0.5602 -0.3707  0.7276
  776MPD2    C111447   1.512   3.560  11.114  0.3514 -0.2094 -0.1013
  776MPD2    C211448   1.521   3.683  11.168  0.5950  0.2804  0.0627
  776MPD2    C311449   1.508   3.796  11.093 -0.6359  0.1826 -1.0855
  776MPD2    C411450   1.484   3.791  10.957 -0.2324 -0.1928  0.4845
  776MPD2    C511451   1.476   3.662  10.901 -0.4270 -0.5271  0.1753
  776MPD2     H11452   1.543   3.697  11.274 -1.5585 -2.9749  0.9658
  776MPD2    H111453   1.472   3.868  10.881 -0.1854  0.1292  0.8016
  776MPD2    H211454   1.508   3.452  10.925 -0.2053 -0.9308  1.8141
  776MPD2    H311455   1.459   3.654  10.794 -0.7887 -1.2304  0.2795
  776MPD2     N11456   1.496   3.930  11.144 -0.0195 -0.1274 -0.1150
  776MPD2    H511457   1.471   4.011  11.088 -2.1148 -0.8580 -0.2110
  776MPD2    N111458   1.512   3.443  11.199  0.0351  0.3761  0.2466
  776MPD2    H711459   1.488   3.354  11.156  0.8834  0.3778 -0.2178
  777MPD2     C11460   2.411   1.409   0.888  0.3938  1.1456 -0.0413
  777MPD2    C111461   2.286   1.411   0.949 -0.3066 -0.5116  0.1284
  777MPD2    C211462   2.192   1.326   0.895 -0.9344 -0.0066 -0.6421
  777MPD2    C311463   2.213   1.252   0.775  0.7677  0.8503 -0.2868
  777MPD2    C411464   2.341   1.256   0.716 -0.1794 -0.7210  0.1633
  777MPD2    C511465   2.433   1.332   0.778 -0.1889 -0.1545 -0.4740
  777MPD2     H11466   2.095   1.313   0.942 -0.9583  2.4678 -0.0096
  777MPD2    H111467   2.375   1.198   0.631  1.7904  1.0663 -0.2388
  777MPD2    H211468   2.500   1.459   0.924  0.9594  0.8991 -1.1013
  777MPD2    H311469   2.534   1.328   0.738  0.0194 -3.7516  0.4090
  777MPD2     N11470   2.103   1.172   0.735 -0.1327 -0.1570 -0.0168
  777MPD2    H511471   2.016   1.182   0.787 -0.3070  1.5869 -0.6289
  777MPD2    N111472   2.258   1.495   1.060 -0.1002  0.1038  0.6070
  777MPD2    H711473   2.334   1.535   1.114  0.9914 -1.4940  0.2452
  778MPD2     C11474   3.039   1.831  15.043 -0.2166  0.1541  0.2357
  778MPD2    C111475   2.968   1.776  14.937  0.2509 -0.4282 -0.0392
  778MPD2    C211476   3.027   1.776  14.811  0.1710  0.0447  0.4156
  778MPD2    C311477   3.154   1.837  14.787  0.0765 -0.0337 -0.0993
  778MPD2    C411478   3.221   1.889  14.897  0.7903  0.4486  0.1207
  778MPD2    C511479   3.159   1.887  15.020  0.6452 -0.0689  0.5265
  778MPD2     H11480   2.978   1.733  14.725  1.7687 -0.2461 -0.3452
  778MPD2    H111481   3.304   1.957  14.883  0.4238  0.7829 -0.4294
  778MPD2    H211482   2.991   1.839  15.140 -0.3231  1.6011  0.0750
  778MPD2    H311483   3.193   1.940  15.108 -1.2256 -2.2978  2.5571
  778MPD2     N11484   3.220   1.837  14.655  0.1950  0.5143  0.4055
  778MPD2    H511485   3.165   1.813  14.573  1.2763  0.9257 -0.4546
  778MPD2    N111486   2.835   1.725  14.956  0.1973 -0.3761  0.4114
  778MPD2    H711487   2.785   1.693  14.874 -1.8177  2.0253  0.7263
  779MPD2     C11488   3.087   0.475  13.788 -0.8570  0.4677 -0.2870
  779MPD2    C111489   3.092   0.460  13.927 -0.1479  0.2756  0.4120
  779MPD2    C211490   3.066   0.571  14.002  0.4118 -0.0338  0.6773
  779MPD2    C311491   3.056   0.698  13.947 -0.5363 -0.1974 -0.3402
  779MPD2    C411492   3.061   0.707  13.808  0.2176  0.6418 -0.2556
  779MPD2    C511493   3.080   0.597  13.731 -0.5588 -0.2317 -0.3895
  779MPD2     H11494   3.069   0.558  14.110  0.0005 -2.9176  0.3246
  779MPD2    H111495   3.057   0.799  13.752 -0.9441  0.2113 -0.8801
  779MPD2    H211496   3.087   0.392  13.719 -0.3599  0.8152 -0.7059
  779MPD2    H311497   3.068   0.604  13.623  0.9668 -1.3959 -0.6320
  779MPD2     N11498   3.035   0.811  14.027  0.6194 -0.7345 -0.2013
  779MPD2    H511499   3.034   0.785  14.125 -0.7168 -0.7591 -0.2261
  779MPD2    N111500   3.100   0.332  13.972  0.1506 -0.1040 -0.0022
  779MPD2    H711501   3.118   0.264  13.898  1.3500  3.3491 -2.8610
  780MPD2     C11502   2.495   0.711   1.163 -0.3208  1.0390 -0.1559
  780MPD2    C111503   2.396   0.659   1.085  0.2110  0.1129  0.5386
  780MPD2    C211504   2.424   0.613   0.959 -0.2977 -0.4299  0.1141
  780MPD2    C311505   2.552   0.605   0.919 -0.0296 -0.5060  0.3960
  780MPD2    C411506   2.655   0.664   0.997  0.0742 -0.2848 -0.2399
  780MPD2    C511507   2.624   0.720   1.117  0.1485 -0.0802 -0.2073
  780MPD2     H11508   2.348   0.563   0.900  0.4985 -1.8170  0.2442
  780MPD2    H111509   2.753   0.671   0.949 -1.0236  1.0953 -2.3089
  780MPD2    H211510   2.474   0.744   1.265  0.8358  2.0342 -0.2384
  780MPD2    H311511   2.701   0.770   1.175 -0.8923  1.1644  0.1137
  780MPD2     N11512   2.577   0.526   0.800 -0.3547 -0.2078 -0.0195
  780MPD2    H511513   2.506   0.476   0.747  1.3979 -2.2422 -0.4625
  780MPD2    N111514   2.269   0.645   1.149  0.1943  0.2404 -0.5640
  780MPD2    H711515   2.275   0.656   1.250 -1.3711  0.2094 -0.4713
  781MPD2     C11516   4.705   2.601  12.179 -0.0888 -0.1221 -0.0809
  781MPD2    C111517   4.692   2.462  12.180  0.1555  0.4348 -0.7797
  781MPD2    C211518   4.713   2.394  12.064 -0.1606  0.8181  0.2361
  781MPD2    C311519   0.025   2.458  11.946 -0.3618 -0.3927  0.4537
  781MPD2    C411520   0.033   2.594  11.946 -0.5251 -0.2324 -0.0641
  781MPD2    C511521   0.007   2.671  12.061 -0.3315  0.2691 -0.7883
  781MPD2     H11522   4.712   2.287  12.083  0.3266  0.7754  0.0227
  781MPD2    H111523   0.061   2.639  11.851  0.2867 -0.7108 -0.0557
  781MPD2    H211524   4.667   2.653  12.266 -1.9812  0.1693 -1.0988
  781MPD2    H311525   4.718   2.778  12.044  1.1774  0.1329 -2.6301
  781MPD2     N11526   0.059   2.387  11.830  0.3256  0.2849  0.3413
  781MPD2    H511527   0.068   2.442  11.746  2.5939 -1.5170 -0.5856
  781MPD2    N111528   4.665   2.391  12.297  1.0284 -0.5421  0.1358
  781MPD2    H711529   4.635   2.297  12.275  0.3566 -0.1796 -0.5230
  782MPD2     C11530   2.451   2.165   9.801  0.8497 -0.1810 -0.0513
  782MPD2    C111531   2.433   2.186   9.932 -0.2758 -0.7056  0.0353
  782MPD2    C211532   2.439   2.310   9.986 -0.2349 -0.4302  0.4507
  782MPD2    C311533   2.478   2.416   9.912 -0.1176 -0.1635  0.6068
  782MPD2    C411534   2.498   2.399   9.775 -0.2155  0.0158 -0.2750
  782MPD2    C511535   2.482   2.273   9.725  0.2924  0.3725 -0.3748
  782MPD2     H11536   2.419   2.335  10.090 -0.8494  1.5903 -0.1521
  782MPD2    H111537   2.531   2.483   9.715  2.0329 -2.2165 -2.1313
  782MPD2    H211538   2.456   2.068   9.753  1.4781  0.9864 -2.3303
  782MPD2    H311539   2.497   2.261   9.618 -0.5948 -1.0965 -0.3243
  782MPD2     N11540   2.489   2.538   9.981 -0.7018 -0.2622 -0.5309
  782MPD2    H511541   2.478   2.537  10.082 -1.9081  0.0270 -0.6603
  782MPD2    N111542   2.418   2.068  10.008 -0.1146 -0.5394  0.2568
  782MPD2    H711543   2.434   1.976   9.969 -0.3194  0.0541 -1.2084
  783MPD2     C11544   2.116   1.774  10.905  0.3484  0.2026 -1.1584
  783MPD2    C111545   2.100   1.893  10.839  0.0313 -0.0751  0.2442
  783MPD2    C211546   2.173   1.924  10.730 -0.3246 -0.3285 -0.2391
  783MPD2    C311547   2.261   1.831  10.683  0.4074 -0.1958  0.1138
  783MPD2    C411548   2.279   1.705  10.743  0.3891 -0.6351  0.2346
  783MPD2    C511549   2.203   1.679  10.857 -0.3897 -0.0963  0.1428
  783MPD2     H11550   2.151   2.015  10.676  2.0830  0.1513 -0.4203
  783MPD2    H111551   2.348   1.627  10.713  3.8062  3.2668 -2.0651
  783MPD2    H211552   2.045   1.751  10.983  0.4753  1.1579 -0.7614
  783MPD2    H311553   2.217   1.583  10.905  2.3786 -0.0219 -0.5038
  783MPD2     N11554   2.341   1.859  10.571  0.3397 -0.3250  0.2305
  783MPD2    H511555   2.329   1.952  10.532 -2.5753 -0.8367 -0.0857
  783MPD2    N111556   2.003   1.979  10.901  0.1426 -0.6805 -0.3889
  783MPD2    H711557   1.947   1.944  10.978  0.0190  0.8621  0.2148
  784MPD2     C11558   0.134   3.238   0.521 -0.3910  0.8880 -0.1801
  784MPD2    C111559   0.051   3.250   0.629 -0.0532 -0.0662 -0.7211
  784MPD2    C211560   4.664   3.339   0.618  0.3280 -0.2937  0.5543
  784MPD2    C311561   4.632   3.391   0.495  0.1576 -0.0647  0.2883
  784MPD2    C411562   4.717   3.373   0.390  0.0353  0.2767 -0.4885
  784MPD2    C511563   0.104   3.296   0.404  0.2675 -0.0772  0.0910
  784MPD2     H11564   4.603   3.353   0.706  0.1637  0.7310  0.2879
  784MPD2    H111565   4.708   3.419   0.292  0.8449  2.9215  0.6742
  784MPD2    H211566   0.225   3.179   0.524 -0.5218  0.7202  0.5304
  784MPD2    H311567   0.164   3.280   0.315  0.1921  1.4774 -0.2339
  784MPD2     N11568   4.508   3.463   0.492 -0.0446  0.4671  0.6687
  784MPD2    H511569   4.452   3.475   0.576 -2.1711 -1.2087 -0.4937
  784MPD2    N111570   0.079   3.208   0.752 -0.9403 -0.7127  0.6957
  784MPD2    H711571   0.011   3.233   0.823 -0.4999 -1.2512  1.3140
  785MPD2     C11572   0.689   1.655  11.131  0.5737 -0.2565 -0.3618
  785MPD2    C111573   0.581   1.657  11.040 -0.4293 -0.2253  0.3184
  785MPD2    C211574   0.487   1.557  11.034  0.2161  0.5795 -0.1398
  785MPD2    C311575   0.503   1.441  11.110 -0.3438 -0.1830  0.0422
  785MPD2    C411576   0.611   1.437  11.200  0.2222 -0.2008 -0.1063
  785MPD2    C511577   0.704   1.536  11.205  0.2514  0.8473  0.5364
  785MPD2     H11578   0.405   1.552  10.963  0.6404 -0.5635 -0.5534
  785MPD2    H111579   0.640   1.349  11.256 -1.2021  1.3437  3.0122
  785MPD2    H211580   0.765   1.731  11.135  0.9414 -0.5764 -1.3679
  785MPD2    H311581   0.783   1.526  11.278  0.4748  0.0566  0.1873
  785MPD2     N11582   0.414   1.333  11.090 -0.6280  0.3945  0.2462
  785MPD2    H511583   0.361   1.348  11.005 -2.4223 -3.2110  0.7154
  785MPD2    N111584   0.562   1.766  10.952 -0.0853  0.1401 -0.0683
  785MPD2    H711585   0.482   1.764  10.889  2.0689  0.3725 -2.7977
  786MPD2     C11586   2.953   4.499  14.654  0.0526  0.0249  0.1418
  786MPD2    C111587   3.030   4.391  14.678 -0.6986 -0.2355 -0.1615
  786MPD2    C211588   3.082   4.358  14.799  0.6287  0.0518 -0.4520
  786MPD2    C311589   3.048   4.440  14.900 -0.5441 -0.4595 -0.7160
  786MPD2    C411590   2.943   4.529  14.887  0.1224 -0.3631 -0.2492
  786MPD2    C511591   2.900   4.561  14.762  0.8072  0.0153  0.0627
  786MPD2     H11592   3.166   4.290  14.803  1.9835  1.6091 -1.8895
  786MPD2    H111593   2.894   4.586  14.965  0.2309  0.4286 -0.7602
  786MPD2    H211594   2.903   4.527  14.561 -0.2504 -1.8358 -0.2448
  786MPD2    H311595   2.829   4.640  14.742 -0.3296 -0.3384  2.8034
  786MPD2     N11596   3.098   4.419  15.037 -0.1292  0.6875  0.1179
  786MPD2    H511597   3.051   4.472  15.109  0.1892  0.1295  0.7342
  786MPD2    N111598   3.085   4.315  14.573 -0.1711 -0.1276 -0.3514
  786MPD2    H711599   3.144   4.239  14.605  0.2117 -0.7183 -2.4926
  787MPD2     C11600   3.816   4.351  14.236 -0.0478  0.3168 -0.5269
  787MPD2    C111601   3.736   4.263  14.301  0.2694  0.2524  0.2253
  787MPD2    C211602   3.795   4.162  14.384  0.3111 -0.3122 -0.1094
  787MPD2    C311603   3.933   4.161  14.410  0.3588  0.1354  0.0290
  787MPD2    C411604   4.010   4.266  14.355  0.0453 -0.9350  0.2113
  787MPD2    C511605   3.951   4.351  14.264  0.2611 -0.6911 -0.5685
  787MPD2     H11606   3.735   4.085  14.431 -2.0829  0.9250 -1.1169
  787MPD2    H111607   4.117   4.268  14.369  0.1269 -1.2312 -0.3536
  787MPD2    H211608   3.775   4.418  14.161  0.0287 -0.8401 -1.6000
  787MPD2    H311609   4.019   4.422  14.217 -0.1212 -0.5605 -0.9254
  787MPD2     N11610   3.979   4.061  14.495 -0.0744  0.5015 -0.1832
  787MPD2    H511611   3.916   3.995  14.539 -1.3120  1.1989 -0.9280
  787MPD2    N111612   3.597   4.260  14.273  0.4180  0.6410  0.5069
  787MPD2    H711613   3.579   4.310  14.186 -1.3009 -1.2487 -0.2186
  788MPD2     C11614   0.545   2.583   0.877 -0.0550  0.4711 -0.1559
  788MPD2    C111615   0.483   2.503   0.784 -0.6722 -0.1804 -0.6428
  788MPD2    C211616   0.436   2.561   0.668  0.4141  0.9820  0.3167
  788MPD2    C311617   0.457   2.697   0.641  0.3297 -0.0258 -0.1399
  788MPD2    C411618   0.525   2.775   0.737  0.4250 -1.0084 -0.1204
  788MPD2    C511619   0.568   2.717   0.853 -0.3318 -0.2493  0.6856
  788MPD2     H11620   0.383   2.508   0.591 -2.3359  1.7623  1.6588
  788MPD2    H111621   0.531   2.883   0.725  0.2943 -0.9215  0.5738
  788MPD2    H211622   0.578   2.554   0.976 -3.2069 -0.9613  0.4616
  788MPD2    H311623   0.621   2.784   0.920  0.1547 -0.7333  0.7801
  788MPD2     N11624   0.423   2.759   0.524  0.2625 -0.4365 -0.2529
  788MPD2    H511625   0.462   2.852   0.515  0.2794 -0.7578 -3.6485
  788MPD2    N111626   0.490   2.363   0.782 -0.2500 -0.3471  0.2693
  788MPD2    H711627   0.464   2.304   0.703 -1.2666 -0.7467  0.8968
  789MPD2     C11628   1.055   2.337  16.208  0.1343 -0.5401 -0.3690
  789MPD2    C111629   0.994   2.299  16.328 -0.5622  0.2071 -1.4326
  789MPD2    C211630   0.882   2.380  16.372  0.1988  0.1464 -0.0139
  789MPD2    C311631   0.837   2.485  16.301 -0.4369 -0.1218 -0.1472
  789MPD2    C411632   0.889   2.507  16.177 -0.9405 -0.3072 -0.1101
  789MPD2    C511633   0.992   2.431  16.131  0.3640  0.6815 -0.1872
  789MPD2     H11634   0.845   2.358  16.471 -0.3231 -0.7660 -0.4089
  789MPD2    H111635   0.851   2.585  16.112  0.3328 -0.1368 -0.6499
  789MPD2    H211636   1.135   2.282  16.161  0.8490  0.7338 -0.6609
  789MPD2    H311637   1.031   2.439  16.030  1.4124  0.3833  0.1984
  789MPD2     N11638   0.734   2.575  16.337 -0.0489  0.0300  0.6061
  789MPD2    H511639   0.703   2.650  16.276  1.5043 -1.7269 -2.3233
  789MPD2    N111640   1.038   2.197  16.410 -0.1009  0.1756 -0.0326
  789MPD2    H711641   0.992   2.185  16.500  0.3757  0.0300  0.1921
  790MPD2     C11642   2.239   4.033  13.521 -0.3734 -1.1005  0.5027
  790MPD2    C111643   2.157   3.923  13.532 -0.2836  0.0147  0.3921
  790MPD2    C211644   2.106   3.868  13.419  0.2080 -0.4671  0.3088
  790MPD2    C311645   2.124   3.932  13.297  0.5293 -0.6293  0.2294
  790MPD2    C411646   2.213   4.045  13.295  0.4210 -0.1524 -0.5304
  790MPD2    C511647   2.251   4.102  13.407  0.6647  0.0637 -0.2341
  790MPD2     H11648   2.050   3.776  13.431  1.4775 -1.2755 -0.0218
  790MPD2    H111649   2.238   4.090  13.199 -0.0504  0.1500 -0.5133
  790MPD2    H211650   2.295   4.064  13.609 -0.7583 -1.5335  0.8997
  790MPD2    H311651   2.321   4.184  13.402  0.4436  0.3649  1.3903
  790MPD2     N11652   2.065   3.878  13.180 -0.3613 -1.0374 -0.1029
  790MPD2    H511653   2.098   3.917  13.092 -0.4298 -0.7751 -0.0120
  790MPD2    N111654   2.152   3.869  13.664 -0.0458  0.6035 -0.3916
  790MPD2    H711655   2.211   3.916  13.732 -0.1891 -2.8514  2.1489
  791MPD2     C11656   1.383   4.003  12.917 -0.3788  0.7215  0.3350
  791MPD2    C111657   1.437   3.897  12.841 -0.4666  0.2262  0.0858
  791MPD2    C211658   1.372   3.853  12.730 -1.2819 -0.0614  0.2624
  791MPD2    C311659   1.251   3.906  12.689  0.5839 -0.5718 -0.9395
  791MPD2    C411660   1.200   4.012  12.763 -0.2477 -0.9772  0.0958
  791MPD2    C511661   1.265   4.059  12.875  0.4742 -0.3522  0.3469
  791MPD2     H11662   1.405   3.770  12.668 -2.1885  0.6857 -1.2063
  791MPD2    H111663   1.115   4.072  12.733  1.3994  0.1918 -2.1808
  791MPD2    H211664   1.419   4.045  13.010 -1.9669  0.1103  1.2402
  791MPD2    H311665   1.221   4.143  12.928 -3.9027 -1.6903 -1.1493
  791MPD2     N11666   1.172   3.835  12.599  0.4721  0.1756  0.5728
  791MPD2    H511667   1.212   3.760  12.543  0.0767  1.9081 -2.0244
  791MPD2    N111668   1.547   3.828  12.903 -0.1108  0.2470  0.0200
  791MPD2    H711669   1.588   3.872  12.985  0.1297 -0.3532  0.2194
  792MPD2     C11670   2.743   3.907  10.541 -0.5407 -0.1894  0.7692
  792MPD2    C111671   2.606   3.882  10.541 -0.2527 -0.5627  0.2937
  792MPD2    C211672   2.566   3.745  10.545 -0.5266  0.3602  0.4700
  792MPD2    C311673   2.655   3.643  10.541 -0.2022 -0.2138  0.1630
  792MPD2    C411674   2.789   3.673  10.547 -0.2580 -0.0602  0.7363
  792MPD2    C511675   2.833   3.803  10.545  0.1487 -0.2468  0.5452
  792MPD2     H11676   2.460   3.725  10.555 -0.4978  0.4085  0.9017
  792MPD2    H111677   2.861   3.593  10.562 -0.4414 -0.0876  1.4642
  792MPD2    H211678   2.791   4.002  10.564  0.7331 -0.4173 -0.9638
  792MPD2    H311679   2.938   3.820  10.565  0.3893 -2.3474  1.0616
  792MPD2     N11680   2.619   3.506  10.561 -0.4132 -0.1100 -0.9668
  792MPD2    H511681   2.694   3.438  10.556 -0.6327 -0.4803  1.0735
  792MPD2    N111682   2.519   3.996  10.535 -0.0512  0.4902  0.2514
  792MPD2    H711683   2.564   4.087  10.538 -1.2269  1.1012 -0.6886
  793MPD2     C11684   1.691   3.345  10.601  0.2282  0.0774 -0.5084
  793MPD2    C111685   1.770   3.363  10.490 -0.2447 -0.2555 -0.1130
  793MPD2    C211686   1.894   3.316  10.491  0.3230 -0.5632  0.0474
  793MPD2    C311687   1.966   3.267  10.602  0.3185 -0.1937 -0.5269
  793MPD2    C411688   1.888   3.261  10.718  0.0510 -0.5055 -0.2039
  793MPD2    C511689   1.756   3.294  10.713 -0.8401 -0.2578 -0.4533
  793MPD2     H11690   1.934   3.310  10.390 -1.3885  2.1029 -0.7839
  793MPD2    H111691   1.934   3.225  10.809  1.5792  0.6484 -0.5233
  793MPD2    H211692   1.586   3.371  10.606  0.3088  0.2534  0.2503
  793MPD2    H311693   1.690   3.265  10.794  1.9966  1.6594  2.5635
  793MPD2     N11694   2.100   3.216  10.592 -0.1526  0.3467  0.5357
  793MPD2    H511695   2.144   3.225  10.501 -1.5393 -3.1239 -0.4927
  793MPD2    N111696   1.719   3.410  10.365 -0.8165  0.2149 -0.9610
  793MPD2    H711697   1.780   3.439  10.289 -1.0710  0.0122 -1.2456
  794MPD2     C11698   1.543   3.698   0.133 -0.0665 -0.2048  0.2274
  794MPD2    C111699   1.463   3.606   0.081  0.7844  0.1137 -0.3101
  794MPD2    C211700   1.407   3.617  17.641 -0.0752 -0.2197 -0.8293
  794MPD2    C311701   1.418   3.737  17.573 -0.3228  0.6548  0.8018
  794MPD2    C411702   1.495   3.831  17.625  0.5656  0.3736 -0.1702
  794MPD2    C511703   1.554   3.816   0.063  0.4086  0.2108  0.0939
  794MPD2     H11704   1.355   3.529  17.604 -1.3155  0.6738 -1.2315
  794MPD2    H111705   1.487   3.930  17.581  0.4457 -0.4145 -1.9395
  794MPD2    H211706   1.570   3.698   0.238  1.3198  0.5720 -0.1282
  794MPD2    H311707   1.602   3.899   0.113 -1.6131  1.8048 -0.5818
  794MPD2     N11708   1.345   3.765  17.458 -0.4963  0.3267 -0.3827
  794MPD2    H511709   1.351   3.856  17.416  1.5614  0.8899  1.1005
  794MPD2    N111710   1.452   3.478   0.144 -0.4226 -0.0817 -0.4957
  794MPD2    H711711   1.407   3.407   0.086  0.3348 -0.4303 -0.6585
  795MPD2     C11712   4.153   0.619  13.139  0.3715  0.5569  0.3559
  795MPD2    C111713   4.175   0.612  13.273  0.3065 -0.0216  0.4054
  795MPD2    C211714   4.301   0.580  13.318  0.2470 -0.0008 -0.3527
  795MPD2    C311715   4.410   0.558  13.237 -0.0970  0.3118 -0.2902
  795MPD2    C411716   4.390   0.563  13.101  0.3786 -0.4875 -0.2863
  795MPD2    C511717   4.260   0.601  13.057 -0.1886 -0.1596  0.0156
  795MPD2     H11718   4.315   0.566  13.425  1.4162 -0.1187 -0.5239
  795MPD2    H111719   4.463   0.548  13.022 -1.2087  0.6501 -1.9697
  795MPD2    H211720   4.060   0.650  13.093  1.2568  2.0026 -0.4551
  795MPD2    H311721   4.250   0.607  12.950  0.2172  0.3144  0.0030
  795MPD2     N11722   4.527   0.498  13.290 -0.0590  0.3363  0.2938
  795MPD2    H511723   4.527   0.481  13.390 -0.0801 -0.7663  0.0965
  795MPD2    N111724   4.076   0.648  13.368 -0.1658 -1.2871 -0.1127
  795MPD2    H711725   4.099   0.658  13.466 -2.4535  0.9304  0.2080
  796MPD2     C11726   3.285   2.784  15.770 -0.1298  0.3173 -1.0588
  796MPD2    C111727   3.337   2.851  15.884 -0.8287  0.1624  0.1490
  796MPD2    C211728   3.288   2.979  15.924  0.7151  0.9334  0.0090
  796MPD2    C311729   3.181   3.032  15.867 -0.0444 -0.1441 -0.0696
  796MPD2    C411730   3.121   2.965  15.769  0.2698  0.0088 -0.0187
  796MPD2    C511731   3.176   2.852  15.715  0.1592 -0.0889  0.4243
  796MPD2     H11732   3.343   3.032  16.001  1.2186  4.3905 -2.7108
  796MPD2    H111733   3.025   2.989  15.724  1.1379 -0.6948 -2.2505
  796MPD2    H211734   3.320   2.690  15.729  0.8078  1.1279 -2.1255
  796MPD2    H311735   3.122   2.803  15.634  0.9148 -0.3428  0.0670
  796MPD2     N11736   3.137   3.152  15.920  0.0198  0.3649 -0.3401
  796MPD2    H511737   3.179   3.180  16.008 -0.4231  2.5471 -0.8240
  796MPD2    N111738   3.442   2.779  15.955 -0.1957  0.1236  0.0407
  796MPD2    H711739   3.467   2.695  15.903 -0.1010  0.1708  0.0087
  797MPD2     C11740   4.396   2.054  17.125  0.1305 -0.5624 -0.0936
  797MPD2    C111741   4.521   2.093  17.092  0.2426 -0.6351  0.1016
  797MPD2    C211742   4.537   2.167  16.981  0.2741  0.1110  0.2326
  797MPD2    C311743   4.429   2.226  16.908  0.5098 -0.5742 -0.8735
  797MPD2    C411744   4.303   2.177  16.941 -0.6580 -0.6297 -0.2929
  797MPD2    C511745   4.285   2.090  17.049 -0.7767 -0.3161  0.1693
  797MPD2     H11746   4.638   2.187  16.949  0.5606 -1.5005  0.1646
  797MPD2    H111747   4.220   2.208  16.878 -0.5056 -1.2940 -0.8232
  797MPD2    H211748   4.378   1.973  17.195  1.6391 -0.2636  0.6436
  797MPD2    H311749   4.184   2.058  17.072 -0.1971 -2.5420 -0.4162
  797MPD2     N11750   4.446   2.321  16.809 -0.1906 -0.3154 -0.3698
  797MPD2    H511751   4.363   2.346  16.755  1.0717  0.4383 -1.9740
  797MPD2    N111752   4.636   2.072  17.171 -0.0280  0.0705 -0.3718
  797MPD2    H711753   0.001   2.105  17.128  0.4179  1.1684  1.3797
  798MPD2     C11754   0.401   2.313  16.750  0.5264 -0.1612  0.0536
  798MPD2    C111755   0.284   2.352  16.809  0.0860  0.0819  0.3799
  798MPD2    C211756   0.264   2.336  16.946  0.6742 -0.4464 -0.0995
  798MPD2    C311757   0.347   2.262  17.022  0.9424 -0.4541  0.3486
  798MPD2    C411758   0.465   2.219  16.964  0.0339 -0.1832  0.1905
  798MPD2    C511759   0.495   2.253  16.831 -0.7842  0.0271  0.6412
  798MPD2     H11760   0.168   2.368  16.985 -0.4265 -1.2964 -2.1235
  798MPD2    H111761   0.540   2.166  17.021 -0.2107  0.1270  0.8030
  798MPD2    H211762   0.418   2.314  16.643 -1.3042  0.8155 -0.2248
  798MPD2    H311763   0.589   2.219  16.787 -1.9631  0.0857 -1.9125
  798MPD2     N11764   0.309   2.242  17.152  0.3107  0.3051 -0.2352
  798MPD2    H511765   0.225   2.285  17.188  0.0660  0.9150 -1.5229
  798MPD2    N111766   0.180   2.410  16.739  0.7483 -0.6714 -0.0125
  798MPD2    H711767   0.110   2.446  16.804  1.7712  1.0355  0.1511
  799MPD2     C11768   3.701   3.615  14.431 -0.1290 -0.1696  0.6953
  799MPD2    C111769   3.582   3.540  14.429  0.2369  0.3602 -0.2114
  799MPD2    C211770   3.477   3.601  14.366 -0.1545 -0.5954  0.0049
  799MPD2    C311771   3.486   3.719  14.293 -0.4897 -0.2283 -0.5450
  799MPD2    C411772   3.600   3.795  14.294 -0.3366 -0.7295  0.4122
  799MPD2    C511773   3.704   3.737  14.364 -0.3248 -0.4448 -0.2374
  799MPD2     H11774   3.378   3.559  14.372 -0.1461 -0.7346 -0.7883
  799MPD2    H111775   3.622   3.881  14.233 -0.0930 -0.8715  0.2980
  799MPD2    H211776   3.799   3.589  14.470  1.1144  0.7297 -1.8392
  799MPD2    H311777   3.798   3.789  14.348 -0.0210 -0.9215 -0.0183
  799MPD2     N11778   3.386   3.773  14.214 -0.3813  0.1998  0.0963
  799MPD2    H511779   3.395   3.864  14.171 -0.9787  0.6345  0.9196
  799MPD2    N111780   3.572   3.411  14.478 -0.1543 -0.4895  0.2670
  799MPD2    H711781   3.479   3.374  14.465 -0.1051 -0.5336  0.0361
  800MPD2     C11782   4.147   0.132  14.131  0.0570 -0.7886  0.0699
  800MPD2    C111783   4.273   0.147  14.071  0.1154  0.2374  0.7034
  800MPD2    C211784   4.321   0.045  13.993  0.6084 -0.3267 -0.5458
  800MPD2    C311785   4.250   4.647  13.980  0.0890  0.7603  0.3215
  800MPD2    C411786   4.128   4.633  14.051 -0.0844  0.1906  0.2943
  800MPD2    C511787   4.071   0.015  14.118 -0.2833  0.3912  0.2616
  800MPD2     H11788   4.416   0.047  13.940 -0.3821 -0.1983 -2.2842
  800MPD2    H111789   4.063   4.547  14.039  3.5252 -2.6605  1.0088
  800MPD2    H211790   4.096   0.215  14.179  1.1470 -2.0895  3.4025
  800MPD2    H311791   3.984   4.717  14.178 -1.2733 -0.6500 -1.4983
  800MPD2     N11792   4.311   4.536  13.913  0.6097  0.4364  0.1586
  800MPD2    H511793   4.403   4.559  13.877  0.4455 -0.2528 -0.7112
  800MPD2    N111794   4.350   0.263  14.120  0.1048 -0.6119  0.4537
  800MPD2    H711795   4.295   0.324  14.179  1.5029  0.1269  0.9881
  801MPD2     C11796   4.317   0.871  14.566 -0.2834 -0.6393  0.5341
  801MPD2    C111797   4.284   0.740  14.526 -0.4493 -0.2385  0.4269
  801MPD2    C211798   4.177   0.674  14.580 -0.2094  1.2568 -0.2301
  801MPD2    C311799   4.104   0.744  14.682 -0.0347  0.4922  0.1625
  801MPD2    C411800   4.139   0.870  14.717 -0.3427 -0.3723  0.1632
  801MPD2    C511801   4.242   0.937  14.657  0.1594 -0.2576  0.3658
  801MPD2     H11802   4.145   0.574  14.553 -0.9282  1.4909 -0.2499
  801MPD2    H111803   4.091   0.930  14.793  0.4942  1.2459 -0.5854
  801MPD2    H211804   4.408   0.917  14.529 -0.3919  0.1536  1.2679
  801MPD2    H311805   4.269   1.039  14.684  2.1397 -1.3460  2.4727
  801MPD2     N11806   4.003   0.688  14.759  0.5859 -0.0607 -0.1595
  801MPD2    H511807   3.939   0.751  14.806 -0.5799 -0.0565 -1.7629
  801MPD2    N111808   4.364   0.663  14.431 -0.4944  0.0670  0.3886
  801MPD2    H711809   4.338   0.565  14.419 -2.5396  0.5936  0.5325
  802MPD2     C11810   3.729   0.230  17.039  0.2832 -0.7290 -0.4693
  802MPD2    C111811   3.650   0.331  17.014 -0.3841 -0.1131 -0.5933
  802MPD2    C211812   3.671   0.429  16.919  0.1307  0.6964  0.0811
  802MPD2    C311813   3.780   0.421  16.837 -0.4818 -0.3175 -0.1517
  802MPD2    C411814   3.872   0.326  16.868  0.1168  0.3831  0.7758
  802MPD2    C511815   3.842   0.232  16.965 -0.6262  0.3906  0.0316
  802MPD2     H11816   3.589   0.499  16.903  0.4237  0.7431 -1.2241
  802MPD2    H111817   3.969   0.314  16.821 -0.8777 -1.7606 -0.7163
  802MPD2    H211818   3.700   0.145  17.099  0.3551  1.3022  2.4329
  802MPD2    H311819   3.907   0.148  16.989 -0.7490  0.2316 -0.1886
  802MPD2     N11820   3.786   0.518  16.734  0.5428  0.1813  0.2634
  802MPD2    H511821   3.706   0.582  16.734  0.0433 -0.4647 -1.7991
  802MPD2    N111822   3.537   0.341  17.100 -0.5097 -0.4090 -0.1558
  802MPD2    H711823   3.463   0.406  17.076 -0.2341 -0.0125  0.0671
  803MPD2     C11824   0.012   4.197  11.862 -0.1094  0.2821 -0.1703
  803MPD2    C111825   0.091   4.122  11.944 -0.1484  0.3442 -0.1477
  803MPD2    C211826   0.044   4.046  12.046 -1.3804  0.4915  0.5403
  803MPD2    C311827   4.634   4.024  12.063  0.8576 -0.0910 -0.2349
  803MPD2    C411828   4.555   4.082  11.966 -0.1660  0.2379 -0.7695
  803MPD2    C511829   4.605   4.163  11.867  0.3645  0.3568  0.5180
  803MPD2     H11830   0.118   4.000  12.110 -0.9673  1.5624  0.8335
  803MPD2    H111831   4.448   4.064  11.977 -0.2865  0.3518 -1.7405
  803MPD2    H211832   0.049   4.267  11.788  1.1858 -0.3595 -0.1137
  803MPD2    H311833   4.531   4.214  11.805 -0.9695  1.8405  3.3247
  803MPD2     N11834   4.575   3.927  12.161  0.7461  0.1412  0.1026
  803MPD2    H511835   4.475   3.909  12.166  0.3720  2.5062  1.4014
  803MPD2    N111836   0.231   4.127  11.930 -0.2479  0.2675  0.1018
  803MPD2    H711837   0.284   4.115  12.016  0.4733 -2.2921 -0.6959
  804MPD2     C11838   4.233   0.594  16.736 -0.0897  0.4421 -0.1581
  804MPD2    C111839   4.260   0.612  16.875  0.4092 -0.1901  0.1572
  804MPD2    C211840   4.264   0.745  16.922 -0.4236  0.2224 -0.0954
  804MPD2    C311841   4.264   0.848  16.835  0.3477 -0.0757  0.0559
  804MPD2    C411842   4.247   0.829  16.697  0.0103 -0.4027  0.4933
  804MPD2    C511843   4.225   0.702  16.649 -0.0926  0.1358 -0.5308
  804MPD2     H11844   4.276   0.761  17.028  0.0249 -1.8563  0.1585
  804MPD2    H111845   4.225   0.906  16.624  1.2637 -2.0478 -1.6063
  804MPD2    H211846   4.202   0.497  16.699 -0.1236  0.6713 -0.7285
  804MPD2    H311847   4.188   0.679  16.549 -1.8702 -1.0732  0.4168
  804MPD2     N11848   4.282   0.979  16.883  0.3792  0.0546  0.1759
  804MPD2    H511849   4.254   0.997  16.979  1.4218  1.4807  0.2111
  804MPD2    N111850   4.253   0.504  16.963  0.0245  0.1446 -0.1802
  804MPD2    H711851   4.242   0.534  17.059 -0.0607  2.1294 -0.8073
  805MPD2     C11852   2.646   3.583  15.555 -0.1213 -0.3592  0.2125
  805MPD2    C111853   2.715   3.697  15.530 -0.4440  0.2883 -0.0778
  805MPD2    C211854   2.750   3.782  15.624  0.2050  0.7536 -0.2354
  805MPD2    C311855   2.706   3.766  15.750  0.1132 -0.1500 -0.3938
  805MPD2    C411856   2.633   3.656  15.780  0.1243  0.1641 -0.2766
  805MPD2    C511857   2.605   3.567  15.680  1.1841 -0.0975 -0.6971
  805MPD2     H11858   2.813   3.868  15.603 -0.9688  1.3984 -1.1593
  805MPD2    H111859   2.593   3.638  15.879 -0.5315 -0.1364 -0.6020
  805MPD2    H211860   2.609   3.513  15.481 -2.1537 -0.1339  1.0109
  805MPD2    H311861   2.552   3.476  15.707  2.2374 -1.1207 -2.0786
  805MPD2     N11862   2.757   3.861  15.843  0.5469  0.1640 -0.1955
  805MPD2    H511863   2.815   3.936  15.806 -0.2424  1.4521  1.1657
  805MPD2    N111864   2.758   3.735  15.403  0.7474  0.3377 -0.1289
  805MPD2    H711865   2.827   3.809  15.396  0.0102  1.0177 -0.2988
  806MPD2     C11866   4.061   3.191   0.346  0.8157 -0.5484  0.2167
  806MPD2    C111867   4.003   3.308   0.399 -0.0414  0.1131  0.1108
  806MPD2    C211868   4.021   3.429   0.333  0.4856  0.0630  0.2975
  806MPD2    C311869   4.096   3.434   0.211  0.1750  0.3689 -0.0212
  806MPD2    C411870   4.148   3.314   0.158 -0.1126  0.4398  0.4734
  806MPD2    C511871   4.130   3.201   0.229 -0.0520 -0.8156  0.5606
  806MPD2     H11872   3.984   3.527   0.360  1.7113  0.6607 -0.2183
  806MPD2    H111873   4.185   3.308   0.056  2.0900  0.6985  1.2521
  806MPD2    H211874   4.043   3.090   0.381  1.0056 -0.4160  0.7031
  806MPD2    H311875   4.165   3.109   0.183  1.6747 -0.0723  0.3773
  806MPD2     N11876   4.126   3.559   0.156  0.3426  0.2304  0.2848
  806MPD2    H511877   4.084   3.642   0.197 -1.1349  0.0728 -0.9430
  806MPD2    N111878   3.942   3.293   0.527  0.5548  0.4265 -0.2230
  806MPD2    H711879   3.964   3.200   0.562 -0.0886  0.3906  0.0901
  807MPD2     C11880   3.410   3.263   1.166 -0.2225 -0.5372  0.1457
  807MPD2    C111881   3.546   3.266   1.204  0.8655 -0.2520  0.0930
  807MPD2    C211882   3.572   3.229   1.333  0.0722 -0.4852  0.2203
  807MPD2    C311883   3.478   3.163   1.413  0.5478  0.5151 -0.3753
  807MPD2    C411884   3.348   3.148   1.369  0.6544 -0.1123  0.6707
  807MPD2    C511885   3.321   3.187   1.242  0.4034 -0.2406 -0.2680
  807MPD2     H11886   3.678   3.226   1.358 -0.1527  0.4309  1.2763
  807MPD2    H111887   3.270   3.090   1.417 -0.0013  0.9966  0.9598
  807MPD2    H211888   3.367   3.316   1.081 -0.2664 -0.9581 -0.0959
  807MPD2    H311889   3.221   3.179   1.200 -0.3554 -0.1545  1.5304
  807MPD2     N11890   3.521   3.112   1.541  0.1928  0.0278 -0.2930
  807MPD2    H511891   3.618   3.124   1.567  0.1505  1.1273 -0.6200
  807MPD2    N111892   3.646   3.330   1.132 -0.4964 -0.2249  0.0146
  807MPD2    H711893   3.738   3.331   1.174 -0.4579  0.5013 -0.0876
  808MPD2     C11894   4.170   4.110  10.217 -0.1169  0.3391  0.1556
  808MPD2    C111895   4.278   4.074  10.142  0.5590  0.7856 -0.7354
  808MPD2    C211896   4.360   4.166  10.084  0.1823  0.4959  0.9266
  808MPD2    C311897   4.318   4.301  10.092 -0.6739  0.8775 -0.1521
  808MPD2    C411898   4.205   4.336  10.166 -0.4738 -0.4878  0.4159
  808MPD2    C511899   4.135   4.242  10.234 -0.7498 -0.2965 -0.0031
  808MPD2     H11900   4.448   4.132  10.032 -1.1102  0.1086 -0.9949
  808MPD2    H111901   4.181   4.442  10.170  0.8410 -0.0721 -2.4398
  808MPD2    H211902   4.108   4.031  10.258  2.7331 -0.7049  2.4294
  808MPD2    H311903   4.046   4.281  10.283 -0.3631  1.7461 -0.9455
  808MPD2     N11904   4.393   4.406  10.036 -0.9725 -0.5754 -0.4671
  808MPD2    H511905   4.334   4.488  10.023  0.9555  0.3432 -3.2386
  808MPD2    N111906   4.319   3.943  10.121 -0.3037 -0.4326 -0.5533
  808MPD2    H711907   4.400   3.918  10.065 -1.2045 -1.7472 -1.2514
  809MPD2     C11908   0.228   0.047   9.190 -0.3775 -0.2328  0.4252
  809MPD2    C111909   0.272   0.009   9.315 -0.3691 -0.8630 -0.0093
  809MPD2    C211910   0.177   4.688   9.404 -0.1842 -0.2319  0.7429
  809MPD2    C311911   0.042   4.696   9.376 -0.1838  0.9620 -1.3916
  809MPD2    C411912   0.003   0.015   9.252 -0.3126  0.0218 -0.4428
  809MPD2    C511913   0.101   0.035   9.156  0.4693  1.1972  0.4492
  809MPD2     H11914   0.204   4.656   9.504  0.1602 -1.9649  0.0939
  809MPD2    H111915   4.621   0.012   9.218 -0.1251  0.8669 -1.0659
  809MPD2    H211916   0.295   0.077   9.110 -0.5079  1.4882  0.9579
  809MPD2    H311917   0.062   0.070   9.061 -0.1585 -0.7018 -0.0027
  809MPD2     N11918   4.665   4.658   9.477 -0.7955 -0.2929  0.0451
  809MPD2    H511919   4.566   4.668   9.458 -0.7482 -2.0789 -1.1117
  809MPD2    N111920   0.402   0.006   9.355  0.1210 -0.2663  0.1609
  809MPD2    H711921   0.422   4.697   9.450  1.2493  0.1575  0.0594
  810MPD2     C11922   4.213   3.205  10.123  0.1015  0.1694  0.5828
  810MPD2    C111923   4.116   3.292  10.156  0.1317 -0.3865  0.3466
  810MPD2    C211924   4.144   3.384  10.257  0.1384 -0.2984  0.1605
  810MPD2    C311925   4.269   3.397  10.314  0.8849  0.8480 -0.3550
  810MPD2    C411926   4.366   3.303  10.281 -0.3044  0.1448 -0.0542
  810MPD2    C511927   4.329   3.199  10.196 -0.0245 -0.3823  0.2947
  810MPD2     H11928   4.071   3.462  10.280  1.3311  1.1321 -0.9183
  810MPD2    H111929   4.463   3.305  10.329  0.2102  0.4633 -1.1235
  810MPD2    H211930   4.197   3.129  10.048 -0.9577 -1.1824  2.1633
  810MPD2    H311931   4.411   3.136  10.163 -2.3817 -2.3853 -1.7637
  810MPD2     N11932   4.310   3.496  10.407 -0.0637  0.0448  0.2694
  810MPD2    H511933   4.410   3.506  10.419 -0.3642  2.1354  1.1193
  810MPD2    N111934   4.001   3.286  10.079  0.0237 -0.1630  0.9016
  810MPD2    H711935   3.994   3.210  10.011 -1.3327 -0.0243  0.8796
  811MPD2     C11936   3.415   3.527   9.423  0.0904 -0.5221 -0.0497
  811MPD2    C111937   3.465   3.583   9.543 -0.6731  0.7441 -0.0076
  811MPD2    C211938   3.492   3.723   9.548  0.3883 -0.0434 -0.1439
  811MPD2    C311939   3.442   3.802   9.448 -0.1249  0.4843 -0.0127
  811MPD2    C411940   3.383   3.748   9.331 -0.0931  0.2970 -0.0424
  811MPD2    C511941   3.375   3.609   9.322  0.5869 -0.6276 -0.2019
  811MPD2     H11942   3.529   3.776   9.635  2.1568 -0.9231 -0.3766
  811MPD2    H111943   3.350   3.802   9.243 -0.1427 -0.3460 -0.4197
  811MPD2    H211944   3.402   3.420   9.409  0.8047 -0.7100  0.7295
  811MPD2    H311945   3.335   3.559   9.234  0.0565  0.2616 -0.4736
  811MPD2     N11946   3.461   3.941   9.459 -0.0986 -0.0023 -0.2505
  811MPD2    H511947   3.524   3.974   9.532 -0.5130 -2.3710  1.1828
  811MPD2    N111948   3.506   3.495   9.643 -0.0906 -0.7736  0.1960
  811MPD2    H711949   3.497   3.395   9.624 -2.1925 -1.0846  2.7673
  812MPD2     C11950   2.953   3.789  12.067 -0.0905 -1.3132  0.1960
  812MPD2    C111951   2.818   3.767  12.070 -0.7862 -0.0457 -0.4388
  812MPD2    C211952   2.763   3.688  12.165 -0.6912 -1.2882 -0.0287
  812MPD2    C311953   2.844   3.622  12.259 -0.9857 -0.0951 -0.3364
  812MPD2    C411954   2.983   3.638  12.248  1.2060  0.1004  0.5108
  812MPD2    C511955   3.032   3.727  12.158  0.7809 -0.1085  0.0186
  812MPD2     H11956   2.654   3.681  12.167 -0.6582 -1.3758  1.3259
  812MPD2    H111957   3.047   3.582  12.315 -0.8264 -1.8703  0.8014
  812MPD2    H211958   3.007   3.840  11.988  1.0624 -2.6691  0.1045
  812MPD2    H311959   3.138   3.748  12.152  0.5885  0.2230 -2.1379
  812MPD2     N11960   2.777   3.544  12.351  0.1685 -0.0526 -0.5019
  812MPD2    H511961   2.675   3.541  12.348  0.1352  0.3473  0.2933
  812MPD2    N111962   2.747   3.829  11.971 -0.5389  0.3688 -0.1349
  812MPD2    H711963   2.796   3.894  11.910 -0.8333 -1.0248 -1.8367
  813MPD2     C11964   2.122   0.850  13.011 -0.3954 -0.2419  0.2077
  813MPD2    C111965   2.056   0.970  12.972  0.8250 -0.7188 -0.2757
  813MPD2    C211966   1.964   1.023  13.057 -0.3835 -0.4670  0.1354
  813MPD2    C311967   1.924   0.954  13.169 -0.1266  0.0712  0.2816
  813MPD2    C411968   1.984   0.833  13.201 -0.5811 -0.6927  0.0115
  813MPD2    C511969   2.080   0.784  13.120 -0.6306  0.0124  0.0618
  813MPD2     H11970   1.920   1.120  13.035 -0.8564 -0.6726  0.1634
  813MPD2    H111971   1.955   0.767  13.281  1.3344  0.3680  1.5556
  813MPD2    H211972   2.193   0.789  12.956 -0.6460 -0.8406  0.5534
  813MPD2    H311973   2.122   0.685  13.131  3.2174  1.4393 -1.4775
  813MPD2     N11974   1.823   1.014  13.243  1.1111 -0.2502  0.1742
  813MPD2    H511975   1.776   1.090  13.196 -1.5550 -2.4190 -0.6376
  813MPD2    N111976   2.088   1.047  12.856  0.5754 -0.2786  0.0657
  813MPD2    H711977   2.044   1.137  12.843  0.4880  0.0204  2.3343
  814MPD2     C11978   2.411   1.989  12.101 -0.1381  0.1334 -0.2268
  814MPD2    C111979   2.384   2.038  11.975 -0.0162 -0.5735 -0.3442
  814MPD2    C211980   2.406   2.172  11.948  0.7795  0.3128  0.1229
  814MPD2    C311981   2.462   2.250  12.050  0.1351 -0.5662  0.3951
  814MPD2    C411982   2.485   2.198  12.170 -0.7077  0.0618  0.0752
  814MPD2    C511983   2.455   2.068  12.199  0.3169 -0.0298 -0.1574
  814MPD2     H11984   2.355   2.205  11.858 -0.1383  2.2947  1.3842
  814MPD2    H111985   2.517   2.262  12.250 -0.8204  0.0083  0.1629
  814MPD2    H211986   2.403   1.881  12.112  3.2880 -0.0875  0.1617
  814MPD2    H311987   2.476   2.029  12.298  0.7482 -1.3439 -0.7661
  814MPD2     N11988   2.491   2.391  12.036  0.3481 -0.9510 -0.9952
  814MPD2    H511989   2.509   2.439  12.124 -1.4685 -0.2696 -1.0002
  814MPD2    N111990   2.305   1.967  11.878  0.0470 -0.3712 -0.4498
  814MPD2    H711991   2.288   2.018  11.792 -3.2538 -1.2348 -0.3134
  815MPD2     C11992   2.505   0.770  11.649  0.3611  0.0554  0.2633
  815MPD2    C111993   2.444   0.648  11.656 -0.5690 -0.0971  0.1771
  815MPD2    C211994   2.328   0.629  11.730  0.0669  0.5022 -0.3754
  815MPD2    C311995   2.266   0.733  11.794 -0.7244 -1.0033 -0.7666
  815MPD2    C411996   2.321   0.860  11.777 -0.0804 -0.8077  0.0571
  815MPD2    C511997   2.438   0.874  11.703  0.2861  0.1283  0.0935
  815MPD2     H11998   2.292   0.528  11.742 -1.6332  1.0209 -1.1603
  815MPD2    H111999   2.275   0.949  11.819  0.3041 -0.0822 -1.0866
  815MPD2    H212000   2.601   0.793  11.603 -0.9716  1.2391 -1.9461
  815MPD2    H312001   2.483   0.972  11.693  0.4248  0.2038  1.4079
  815MPD2     N12002   2.143   0.701  11.864  0.2823  0.2216 -0.4900
  815MPD2    H512003   2.110   0.605  11.859 -3.1057  1.4688 -2.2148
  815MPD2    N112004   2.522   0.544  11.596  0.1631 -0.4447 -0.3785
  815MPD2    H712005   2.610   0.580  11.561  0.4505 -0.6789  0.1072
  816MPD2     C12006   2.864   4.674  17.217 -0.7071 -0.1636  0.1537
  816MPD2    C112007   2.827   0.043  17.117 -0.3747 -0.2661  0.3609
  816MPD2    C212008   2.914   0.056  17.014 -0.8023  0.3988  0.4366
  816MPD2    C312009   3.039   4.720  17.012  0.3745 -0.0757  0.8278
  816MPD2    C412010   3.070   4.630  17.114 -0.3411 -0.2697  0.1855
  816MPD2    C512011   2.977   4.598  17.212  0.2346 -0.3560 -0.1402
  816MPD2     H12012   2.880   0.126  16.938  1.2488  0.3048 -0.5777
  816MPD2    H112013   3.157   4.565  17.109 -0.4968 -0.4125 -0.7678
  816MPD2    H212014   2.797   4.647  17.297 -3.2463  2.3717 -1.1009
  816MPD2    H312015   2.981   4.517  17.284 -0.0852  0.7438  1.1375
  816MPD2     N12016   3.129   0.045  16.910 -0.4396  0.4132 -0.0891
  816MPD2    H512017   3.096   0.126  16.858 -1.0066  0.5468  0.4708
  816MPD2    N112018   2.708   0.118  17.134 -0.3526 -0.5996  0.1523
  816MPD2    H712019   2.674   0.111  17.230  0.0116  0.2531  0.3464
  817MPD2     C12020   2.445   1.338   9.641  0.2492  0.0478  0.1042
  817MPD2    C112021   2.555   1.423   9.662  0.3537  0.2116  0.2350
  817MPD2    C212022   2.554   1.547   9.603 -0.4028 -0.0932 -0.4303
  817MPD2    C312023   2.435   1.589   9.536  0.1175  0.9756  0.7086
  817MPD2    C412024   2.320   1.514   9.534  0.3578 -0.1782 -0.3685
  817MPD2    C512025   2.332   1.386   9.571  0.2947 -0.0668  0.0033
  817MPD2     H12026   2.640   1.612   9.607 -0.0933 -0.7362  2.8800
  817MPD2    H112027   2.233   1.542   9.475  0.1587  0.6059  0.2970
  817MPD2    H212028   2.450   1.235   9.675  0.2033  0.3221  0.9392
  817MPD2    H312029   2.260   1.308   9.550 -0.5950  0.9330 -0.6703
  817MPD2     N12030   2.445   1.722   9.489 -0.6729  0.3934  0.3358
  817MPD2    H512031   2.529   1.772   9.516 -0.7979  0.8052 -0.0268
  817MPD2    N112032   2.680   1.386   9.725  0.3162 -0.7402  0.6250
  817MPD2    H712033   2.746   1.462   9.736 -0.5292  0.2553 -1.1766
  818MPD2     C12034   1.814   1.459  10.110 -1.1901  0.5458  0.0989
  818MPD2    C112035   1.688   1.412  10.147  0.7092 -0.6879  0.3656
  818MPD2    C212036   1.651   1.295  10.092 -0.3682  0.1479  0.2709
  818MPD2    C312037   1.743   1.216  10.025  0.1644  1.0295 -0.6909
  818MPD2    C412038   1.872   1.260   9.995  0.3939 -0.1277 -0.1861
  818MPD2    C512039   1.906   1.379  10.041 -0.0302  0.4166 -0.0337
  818MPD2     H12040   1.553   1.257  10.119 -0.6357 -0.5805 -1.7691
  818MPD2    H112041   1.930   1.201   9.926 -0.1479 -0.1677 -0.6067
  818MPD2    H212042   1.849   1.550  10.158  0.7021 -0.7527  1.1726
  818MPD2    H312043   2.003   1.419  10.015  0.1935 -0.6824 -0.9073
  818MPD2     N12044   1.710   1.093   9.963 -0.0186  0.3349  0.3226
  818MPD2    H512045   1.784   1.049   9.908 -0.1524  0.8229 -0.2427
  818MPD2    N112046   1.594   1.481  10.238  0.1604 -0.2779 -0.6688
  818MPD2    H712047   1.518   1.422  10.272 -0.1611  0.0955 -0.7315
  819MPD2     C12048   4.052   3.792  16.159  0.1077  0.7411  0.1882
  819MPD2    C112049   4.009   3.750  16.034 -0.4355 -0.5263 -0.5676
  819MPD2    C212050   4.049   3.625  15.982 -0.1486 -1.2081 -0.2319
  819MPD2    C312051   4.160   3.563  16.040 -0.5035  0.3375 -0.5086
  819MPD2    C412052   4.210   3.619  16.160 -0.4932 -0.0451  0.1033
  819MPD2    C512053   4.148   3.724  16.220  0.1595 -0.5431  0.2628
  819MPD2     H12054   4.005   3.585  15.891 -0.5799  0.7895 -0.9020
  819MPD2    H112055   4.288   3.575  16.222  1.5264  3.1177 -0.2098
  819MPD2    H212056   4.002   3.879  16.201 -0.3408  0.1553  0.8572
  819MPD2    H312057   4.182   3.762  16.316 -1.7551 -4.5318  2.5173
  819MPD2     N12058   4.211   3.435  15.990  0.4052  0.2201  0.3251
  819MPD2    H512059   4.166   3.394  15.909  0.8974 -1.2143  0.7712
  819MPD2    N112060   3.907   3.834  15.970  0.5756  0.1431  0.1121
  819MPD2    H712061   3.870   3.913  16.022 -2.4904 -1.4307  0.3268
  820MPD2     C12062   3.484   3.959  15.017  0.1310  0.3043  0.0953
  820MPD2    C112063   3.398   3.909  15.116  0.0841  0.1823 -0.1205
  820MPD2    C212064   3.447   3.918  15.244 -0.4642 -0.4017 -0.1435
  820MPD2    C312065   3.566   3.975  15.278  0.2341  0.4578 -0.2269
  820MPD2    C412066   3.656   4.017  15.178  0.5285 -1.2432  0.0791
  820MPD2    C512067   3.612   3.997  15.054 -0.3668  0.2944 -0.1524
  820MPD2     H12068   3.393   3.881  15.330 -1.2722  1.2705  0.0549
  820MPD2    H112069   3.752   4.063  15.195  0.0316  0.1108 -0.7416
  820MPD2    H212070   3.456   3.969  14.913  0.1702  1.7575  0.2226
  820MPD2    H312071   3.678   4.031  14.976 -1.1427  0.2208 -0.8391
  820MPD2     N12072   3.606   3.987  15.418 -0.5152  0.0597 -0.5405
  820MPD2    H512073   3.702   4.014  15.438 -0.1754  0.3850 -2.6299
  820MPD2    N112074   3.272   3.862  15.083 -0.1889  0.4006  0.5043
  820MPD2    H712075   3.246   3.866  14.985  2.1648  1.1238 -0.0965
  821MPD2     C12076   4.504   4.138  13.280  0.0612  0.0253  0.1921
  821MPD2    C112077   4.616   4.153  13.360  0.0458  0.4024  0.5388
  821MPD2    C212078   0.024   4.171  13.303 -0.2887  0.2102 -0.5870
  821MPD2    C312079   0.040   4.190  13.169  0.0939 -0.3892 -0.2164
  821MPD2    C412080   4.646   4.183  13.084  0.0612  0.9649 -0.7123
  821MPD2    C512081   4.525   4.142  13.142 -0.0674 -0.1641 -0.4269
  821MPD2     H12082   0.109   4.176  13.370 -1.1726  2.1099  0.3951
  821MPD2    H112083   4.642   4.208  12.979 -0.4035  0.2795 -0.8547
  821MPD2    H212084   4.401   4.117  13.307  0.1158  0.1853  0.5260
  821MPD2    H312085   4.435   4.130  13.082  0.2361  1.4337 -1.2080
  821MPD2     N12086   0.160   4.230  13.119  0.2070  0.7712 -0.7269
  821MPD2    H512087   0.162   4.261  13.022  2.6296  0.2604 -0.8422
  821MPD2    N112088   4.606   4.165  13.501 -0.7737  0.1684 -0.4247
  821MPD2    H712089   4.688   4.203  13.546  0.8473 -2.5092 -1.1455
  822MPD2     C12090   4.698   4.375  15.824  0.3588  0.0908  0.1937
  822MPD2    C112091   0.051   4.489  15.831  0.0314  0.0408  0.2242
  822MPD2    C212092   4.707   4.612  15.859  0.3568  0.6311 -0.6415
  822MPD2    C312093   4.578   4.612  15.880  0.1973  0.0812 -0.4336
  822MPD2    C412094   4.504   4.494  15.878  0.1035  0.6724 -0.1239
  822MPD2    C512095   4.560   4.374  15.848 -0.2457 -0.4876  0.3220
  822MPD2     H12096   0.059   4.692  15.871  0.1087  0.4476  1.9894
  822MPD2    H112097   4.399   4.490  15.907  0.0929  0.2847 -0.2159
  822MPD2    H212098   0.012   4.278  15.789 -1.7951 -0.7991  0.5112
  822MPD2    H312099   4.505   4.281  15.856 -0.8956 -0.0827  0.5208
  822MPD2     N12100   4.524   0.013  15.935  0.7881  0.2459  0.2598
  822MPD2    H512101   4.429   0.021  15.971  0.1660  1.2368 -1.5996
  822MPD2    N112102   0.195   4.494  15.817  0.1811  0.0887 -0.1987
  822MPD2    H712103   0.235   4.578  15.858  2.6699 -1.2373  0.0668
  823MPD2     C12104   4.492   0.342  16.684  0.3244  0.7163  0.2243
  823MPD2    C112105   4.534   0.260  16.588  0.4151 -0.2304  0.3637
  823MPD2    C212106   4.588   0.135  16.629  0.0410 -0.5261  0.0355
  823MPD2    C312107   4.618   0.106  16.762 -0.2481  0.3127 -0.8115
  823MPD2    C412108   4.584   0.200  16.851 -0.6681  0.1422  0.5107
  823MPD2    C512109   4.532   0.325  16.820  0.1079 -0.4860 -0.2950
  823MPD2     H12110   4.630   0.069  16.554 -2.8682 -1.8214 -0.4564
  823MPD2    H112111   4.605   0.185  16.956 -1.0344  1.7077  0.8038
  823MPD2    H212112   4.444   0.435  16.656  1.2502  0.4578 -2.2165
  823MPD2    H312113   4.513   0.402  16.894 -0.0401 -1.5141  0.7448
  823MPD2     N12114   4.685   4.712  16.809  0.1145 -0.2462  0.0490
  823MPD2    H512115   4.700   4.700  16.909 -0.4017 -1.6794 -0.0382
  823MPD2    N112116   4.520   0.303  16.455  0.0389  0.4628 -0.0561
  823MPD2    H712117   4.501   0.402  16.443 -1.3309  0.1914 -0.1774
  824MPD2     C12118   0.676   3.933  16.085 -0.3382  0.0596  0.1407
  824MPD2    C112119   0.654   3.954  15.955 -0.1961 -0.0488  0.2318
  824MPD2    C212120   0.646   3.852  15.864  0.2624  0.3805 -0.5006
  824MPD2    C312121   0.662   3.723  15.899 -0.5322  0.0562 -0.2401
  824MPD2    C412122   0.689   3.701  16.032  0.2762  0.4936 -0.2568
  824MPD2    C512123   0.706   3.804  16.116  0.6533 -0.0361  0.5750
  824MPD2     H12124   0.621   3.880  15.762 -0.3221 -1.6037 -0.8948
  824MPD2    H112125   0.710   3.598  16.060 -1.5107 -0.1230 -1.1951
  824MPD2    H212126   0.676   4.008  16.164 -0.3482 -1.8764  1.9735
  824MPD2    H312127   0.712   3.781  16.222  1.9444 -0.0417  0.5040
  824MPD2     N12128   0.664   3.617  15.808  0.1832 -0.2085  0.1348
  824MPD2    H512129   0.650   3.643  15.711 -3.1886  0.4936  0.7900
  824MPD2    N112130   0.635   4.083  15.909 -0.4919 -0.7789 -0.7291
  824MPD2    H712131   0.606   4.110  15.815  0.9884  0.0009 -0.9609
  825MPD2     C12132   1.081   3.426  15.087  0.0932  0.6162 -0.3828
  825MPD2    C112133   1.031   3.510  15.183 -0.2720  0.2759  0.0338
  825MPD2    C212134   1.068   3.643  15.170  0.6819  0.1202  0.2296
  825MPD2    C312135   1.140   3.688  15.063  0.0106  0.2601  0.3383
  825MPD2    C412136   1.196   3.602  14.975 -0.0388 -0.2208 -0.2727
  825MPD2    C512137   1.159   3.470  14.983  0.9164  0.7301 -0.6749
  825MPD2     H12138   1.023   3.715  15.239  0.7911  0.3177  0.0937
  825MPD2    H112139   1.259   3.632  14.892 -1.0789  1.0506 -0.6091
  825MPD2    H212140   1.061   3.320  15.084 -2.1288  1.0637 -2.0541
  825MPD2    H312141   1.194   3.396  14.912  0.0773  0.6797 -1.0404
  825MPD2     N12142   1.186   3.820  15.058  0.4806 -0.2249  0.2657
  825MPD2    H512143   1.241   3.845  14.976  1.6698 -1.1651  0.7722
  825MPD2    N112144   0.961   3.452  15.293  0.8913  0.8071 -0.2976
  825MPD2    H712145   0.959   3.351  15.301 -1.2385  0.7634 -1.4636
  826MPD2     C12146   0.935   3.574  13.713  0.1879  0.3351  0.7782
  826MPD2    C112147   0.858   3.607  13.602 -0.7438 -0.2118 -0.0818
  826MPD2    C212148   0.736   3.675  13.631 -0.2632 -0.3510  0.2676
  826MPD2    C312149   0.706   3.718  13.758 -0.0597  0.4198 -0.6612
  826MPD2    C412150   0.786   3.680  13.864  0.2097 -0.0843 -0.8011
  826MPD2    C512151   0.901   3.618  13.841  0.8807 -0.0770  0.2435
  826MPD2     H12152   0.669   3.695  13.548  0.2316  2.3708  0.5406
  826MPD2    H112153   0.754   3.700  13.966  1.2858 -0.6114 -0.3566
  826MPD2    H212154   1.034   3.529  13.706 -0.3194 -0.5603 -0.7102
  826MPD2    H312155   0.958   3.581  13.925  1.5060  1.9616  0.6978
  826MPD2     N12156   0.606   3.808  13.778  0.5442  0.2250  0.2846
  826MPD2    H512157   0.585   3.819  13.876 -0.0463  0.7685  0.1000
  826MPD2    N112158   0.908   3.575  13.473  0.2460  0.4131  0.0778
  826MPD2    H712159   1.000   3.534  13.472 -0.2689 -0.7581  1.1502
  827MPD2     C12160   1.594   4.597  10.027  0.0601 -0.0219 -0.1661
  827MPD2    C112161   1.574   4.504  10.122 -0.1906  0.5813 -0.5125
  827MPD2    C212162   1.476   4.409  10.103 -0.6680  0.3985  0.0843
  827MPD2    C312163   1.396   4.405   9.992  0.2290 -0.0262  0.2569
  827MPD2    C412164   1.413   4.514   9.905  0.6300 -0.7211 -0.0987
  827MPD2    C512165   1.509   4.605   9.930 -0.5144  0.4759 -0.0767
  827MPD2     H12166   1.467   4.336  10.183  2.4429  1.4839  1.4537
  827MPD2    H112167   1.360   4.532   9.812 -1.1999  0.8754  1.2447
  827MPD2    H212168   1.660   4.681  10.044  0.3516  0.1302 -2.1388
  827MPD2    H312169   1.519   4.691   9.864 -0.6027  0.7506  0.2708
  827MPD2     N12170   1.298   4.307   9.987  0.1136  0.0014  0.3698
  827MPD2    H512171   1.290   4.237  10.060 -0.8933  0.4369  0.6891
  827MPD2    N112172   1.665   4.510  10.229 -0.3373 -0.1476  0.4473
  827MPD2    H712173   1.750   4.559  10.202 -0.0920  1.0115  3.2972
  828MPD2     C12174   0.226   0.293  12.530 -0.0753  0.1004  0.0766
  828MPD2    C112175   0.198   0.272  12.398  0.1726  0.0456 -0.3085
  828MPD2    C212176   0.305   0.214  12.319 -0.1213 -0.1496 -0.0473
  828MPD2    C312177   0.431   0.189  12.378 -0.1877  0.2072  0.4091
  828MPD2    C412178   0.455   0.218  12.513  0.0390 -0.0786 -0.5301
  828MPD2    C512179   0.351   0.268  12.582 -0.5321 -0.3194 -0.2527
  828MPD2     H12180   0.293   0.206  12.212  1.2266  3.5119 -0.4925
  828MPD2    H112181   0.547   0.190  12.563 -0.5959  0.7899  1.1245
  828MPD2    H212182   0.147   0.336  12.589 -0.2924 -0.6041  0.3030
  828MPD2    H312183   0.356   0.277  12.690  1.1185  0.0200 -0.3617
  828MPD2     N12184   0.542   0.127  12.303 -0.7505 -0.9294  0.1729
  828MPD2    H512185   0.618   0.097  12.362 -1.5576  0.9285  2.1602
  828MPD2    N112186   0.079   0.304  12.336 -0.4799  0.7583 -0.2403
  828MPD2    H712187   0.070   0.284  12.237 -0.9370 -0.0629 -0.0255
  829MPD2     C12188   0.057   0.644  11.616 -0.4690  0.8042 -0.0947
  829MPD2    C112189   4.678   0.551  11.633  0.4649  0.1573 -0.1198
  829MPD2    C212190   4.609   0.532  11.752 -0.5754  0.1860 -0.1346
  829MPD2    C312191   4.643   0.602  11.863  0.0737 -0.5662  0.0236
  829MPD2    C412192   0.024   0.692  11.852 -0.4149  0.6699  0.6388
  829MPD2    C512193   0.095   0.707  11.734 -0.0755  0.6104  0.1195
  829MPD2     H12194   4.522   0.467  11.765 -0.0244 -0.2437  1.4130
  829MPD2    H112195   0.058   0.746  11.940 -1.4846  0.7197  1.0212
  829MPD2    H212196   0.110   0.654  11.523  1.7783 -0.0486  1.0897
  829MPD2    H312197   0.184   0.766  11.716 -0.4727  1.4305  0.8220
  829MPD2     N12198   4.590   0.567  11.990 -0.0137 -0.1699 -0.2615
  829MPD2    H512199   4.625   0.617  12.071 -0.7244 -0.9011  0.5051
  829MPD2    N112200   4.643   0.483  11.515 -0.1073 -0.3797 -0.4396
  829MPD2    H712201   4.694   0.516  11.434  3.2623 -0.2081  1.7611
  830MPD2     C12202   4.180   3.280  15.409  0.1134 -0.5906  0.6398
  830MPD2    C112203   4.256   3.172  15.448 -0.2777 -0.6357  0.8716
  830MPD2    C212204   4.325   3.097  15.353 -0.3972 -0.0848 -0.0076
  830MPD2    C312205   4.321   3.128  15.215 -0.3925 -0.3243  1.0726
  830MPD2    C412206   4.237   3.229  15.176 -0.1656  0.0536  0.0244
  830MPD2    C512207   4.172   3.302  15.271  0.3018 -0.8136  0.0250
  830MPD2     H12208   4.393   3.023  15.394 -0.4360  0.2437  0.6502
  830MPD2    H112209   4.242   3.262  15.073 -1.9081 -0.2484 -0.1697
  830MPD2    H212210   4.130   3.333  15.489 -0.1159  0.1654  0.0035
  830MPD2    H312211   4.119   3.391  15.238 -0.3360 -0.1762  2.8350
  830MPD2     N12212   4.419   3.076  15.126  0.1791  0.1409  0.5769
  830MPD2    H512213   4.431   3.116  15.034  3.1753 -1.5946  0.1981
  830MPD2    N112214   4.276   3.168  15.588  1.1717  0.3561  0.0356
  830MPD2    H712215   4.239   3.249  15.637  0.6027  0.0376  0.1334
  831MPD2     C12216   0.224   0.345  16.093  0.3065 -1.3734 -0.2470
  831MPD2    C112217   0.241   0.237  16.010 -0.1347 -0.7614  0.1209
  831MPD2    C212218   0.194   0.117  16.062  0.0793  0.1388 -0.6330
  831MPD2    C312219   0.129   0.104  16.190  0.2464  0.3179 -0.3660
  831MPD2    C412220   0.111   0.218  16.262  0.6150 -0.2181  0.2052
  831MPD2    C512221   0.156   0.337  16.214 -0.0076 -0.3737  0.2441
  831MPD2     H12222   0.210   0.027  16.005 -1.1359 -0.9274  0.7090
  831MPD2    H112223   0.049   0.213  16.351 -0.7437 -1.6836 -0.8365
  831MPD2    H212224   0.261   0.445  16.070 -2.3487 -0.6383 -1.3037
  831MPD2    H312225   0.141   0.428  16.270  1.3981  1.5338 -2.4938
  831MPD2     N12226   0.070   4.705  16.235  0.5328 -0.1160  0.4022
  831MPD2    H512227   0.005   4.714  16.312  0.1364 -3.0733  0.4225
  831MPD2    N112228   0.312   0.247  15.889 -0.3710 -0.3633 -0.5688
  831MPD2    H712229   0.353   0.339  15.876 -0.5719 -0.2445 -0.3672
  832MPD2     C12230   3.345   1.429  17.053 -0.1904 -0.0571  1.0425
  832MPD2    C112231   3.250   1.526  17.096 -0.7328 -0.2053 -0.1000
  832MPD2    C212232   3.116   1.506  17.075  0.8118  0.4182  0.1196
  832MPD2    C312233   3.073   1.390  17.016  0.0030  0.5268 -0.1092
  832MPD2    C412234   3.162   1.298  16.983 -0.8608 -0.5958  0.5208
  832MPD2    C512235   3.295   1.319  16.996  0.2601  0.5853  0.0658
  832MPD2     H12236   3.033   1.561  17.118  2.4726  2.0522  1.2367
  832MPD2    H112237   3.126   1.206  16.939 -1.0428 -0.0183 -0.5229
  832MPD2    H212238   3.450   1.455  17.061  0.3070 -1.2026 -1.8569
  832MPD2    H312239   3.362   1.240  16.965 -0.1490  1.0621 -2.0441
  832MPD2     N12240   2.943   1.371  16.973 -0.0659  0.1410  0.0905
  832MPD2    H512241   2.924   1.286  16.920 -1.7839  0.1801  0.6652
  832MPD2    N112242   3.279   1.647  17.159  0.1294  0.2294  1.1677
  832MPD2    H712243   3.201   1.701  17.197 -0.3624  0.8469 -0.7142
  833MPD2     C12244   0.849   2.750  12.643  0.6722 -0.5634 -0.3935
  833MPD2    C112245   0.886   2.857  12.567 -0.2274  0.6133  0.1647
  833MPD2    C212246   1.003   2.843  12.496 -0.4609 -1.0122  0.1481
  833MPD2    C312247   1.067   2.719  12.477  0.4324  0.8208  0.4108
  833MPD2    C412248   1.027   2.615  12.552 -0.0385 -0.2448 -0.1810
  833MPD2    C512249   0.919   2.636  12.635 -0.5027 -0.3827 -0.0360
  833MPD2     H12250   1.053   2.922  12.441 -2.2777  0.0863  0.0990
  833MPD2    H112251   1.065   2.513  12.552  1.4005  0.3036  0.2935
  833MPD2    H212252   0.763   2.750  12.709  1.0889  1.2815  0.1533
  833MPD2    H312253   0.887   2.547  12.688 -0.2678  0.5463  1.6610
  833MPD2     N12254   1.163   2.691  12.375 -0.2880 -0.0341 -0.0749
  833MPD2    H512255   1.198   2.596  12.379 -1.0416 -0.2880  0.5222
  833MPD2    N112256   0.805   2.973  12.566  0.4085  0.2904  0.1300
  833MPD2    H712257   0.718   2.972  12.619  0.7446  3.4509  0.7434
  834MPD2     C12258   0.854   2.109  11.735 -0.2521  0.3019  0.7499
  834MPD2    C112259   0.924   2.190  11.652  0.6676  0.4208 -0.2257
  834MPD2    C212260   1.018   2.282  11.703  0.2983 -0.3056  0.5330
  834MPD2    C312261   1.032   2.297  11.839 -0.4100 -0.1323 -0.1303
  834MPD2    C412262   0.953   2.216  11.925 -0.0803 -0.3242  0.8065
  834MPD2    C512263   0.869   2.128  11.866  0.0981  0.0585  0.3292
  834MPD2     H12264   1.074   2.345  11.635  1.0469 -1.7714 -0.2142
  834MPD2    H112265   0.964   2.222  12.032 -1.2603 -1.1414  0.9724
  834MPD2    H212266   0.772   2.049  11.697  2.1457 -1.7389 -1.2693
  834MPD2    H312267   0.805   2.066  11.928 -0.9264 -2.9314 -3.6549
  834MPD2     N12268   1.122   2.388  11.882 -0.3429  0.0477 -0.0901
  834MPD2    H512269   1.170   2.444  11.812 -1.1120 -1.5785 -1.9266
  834MPD2    N112270   0.881   2.184  11.514 -0.0146 -0.0192 -0.1865
  834MPD2    H712271   0.801   2.129  11.487  2.2906 -2.7566 -1.4138
  835MPD2     C12272   0.900   0.101  11.605 -0.1157  0.6626 -0.1797
  835MPD2    C112273   0.849   0.209  11.674 -0.5161 -0.6128 -0.2625
  835MPD2    C212274   0.930   0.282  11.754  0.1817  1.0262 -0.1155
  835MPD2    C312275   1.059   0.255  11.771  0.2253  0.7658  0.0748
  835MPD2    C412276   1.109   0.154  11.692 -0.6123  0.0064 -0.3465
  835MPD2    C512277   1.030   0.076  11.612 -0.2751 -0.1455 -0.0852
  835MPD2     H12278   0.901   0.377  11.797 -0.6762  0.4035  0.6887
  835MPD2    H112279   1.214   0.125  11.692 -0.1145  1.7986 -0.4851
  835MPD2    H212280   0.840   0.041  11.538  0.4770 -2.1229  1.8129
  835MPD2    H312281   1.075   4.708  11.570 -1.8972 -1.1947  0.3591
  835MPD2     N12282   1.152   0.319  11.858  0.0920  0.7013 -0.2400
  835MPD2    H512283   1.247   0.286  11.847 -0.4081 -0.6523 -0.5931
  835MPD2    N112284   0.715   0.247  11.669  0.5832 -0.1919 -0.6166
  835MPD2    H712285   0.698   0.323  11.734 -1.7043 -0.1465 -1.2752
  836MPD2     C12286   1.445   0.767  12.628  0.1599 -0.0960 -0.3104
  836MPD2    C112287   1.348   0.687  12.565  0.7870  0.2360 -0.2450
  836MPD2    C212288   1.236   0.659  12.635  0.0023 -0.5502 -0.2513
  836MPD2    C312289   1.210   0.711  12.759  0.0632  0.3501  0.3332
  836MPD2    C412290   1.308   0.783  12.826 -0.1006 -0.0057 -0.0772
  836MPD2    C512291   1.422   0.809  12.754 -0.3179 -0.1968  0.1310
  836MPD2     H12292   1.169   0.589  12.587  0.5970 -1.8533  0.8373
  836MPD2    H112293   1.305   0.822  12.926 -0.5581  0.9686 -0.4743
  836MPD2    H212294   1.533   0.803  12.575 -0.3604 -0.4687 -1.4468
  836MPD2    H312295   1.494   0.872  12.804  1.0584 -2.6695  1.2743
  836MPD2     N12296   1.085   0.687  12.832  0.1118 -0.2823  0.1605
  836MPD2    H512297   1.071   0.720  12.927  2.5519 -0.0647  0.4404
  836MPD2    N112298   1.370   0.654  12.430 -0.4165  0.0776 -0.2298
  836MPD2    H712299   1.459   0.686  12.392 -1.1153  1.8536 -0.3879
  837MPD2     C12300   3.944   4.569   9.593 -0.1315  0.4602 -0.1462
  837MPD2    C112301   3.818   4.579   9.646 -0.9818 -0.2557 -0.1607
  837MPD2    C212302   3.775   4.698   9.698  1.0070  0.0906  0.6321
  837MPD2    C312303   3.865   0.083   9.708  0.4503  0.3693 -0.1838
  837MPD2    C412304   3.990   0.076   9.661 -0.5585  0.1596 -0.4925
  837MPD2    C512305   4.034   4.677   9.606  0.4408 -0.4497  0.1878
  837MPD2     H12306   3.673   4.715   9.730  0.4009 -1.6650 -0.3482
  837MPD2    H112307   4.067   0.150   9.678 -0.8777  0.2583  0.4824
  837MPD2    H212308   3.985   4.475   9.556  0.0997  0.0510  1.1423
  837MPD2    H312309   4.138   4.667   9.576  0.9067 -0.2427  1.7402
  837MPD2     N12310   3.814   0.198   9.771 -0.0362 -0.0873  0.2038
  837MPD2    H512311   3.719   0.196   9.806  0.5718  1.5241  1.9391
  837MPD2    N112312   3.714   4.486   9.625  0.0130 -0.7196 -0.4666
  837MPD2    H712313   3.628   4.499   9.677  1.7949 -1.2840  2.5893
  838MPD2     C12314   1.961   3.269  11.403  0.2831  0.2181 -0.4563
  838MPD2    C112315   1.993   3.152  11.450 -0.3467  0.6222 -0.3365
  838MPD2    C212316   1.959   3.118  11.579  0.8992  0.5436 -0.4778
  838MPD2    C312317   1.910   3.217  11.669  0.7729  0.2169  0.0366
  838MPD2    C412318   1.899   3.348  11.622  0.4900  0.5531  0.8248
  838MPD2    C512319   1.923   3.371  11.488  1.2955 -0.4365  0.7462
  838MPD2     H12320   1.960   3.013  11.607 -0.9051  0.5228 -0.5295
  838MPD2    H112321   1.868   3.432  11.683 -0.4022  0.9493 -0.1554
  838MPD2    H212322   1.975   3.298  11.299  1.2210 -0.3277 -0.4802
  838MPD2    H312323   1.913   3.474  11.455  0.7932 -0.8628 -0.4320
  838MPD2     N12324   1.873   3.184  11.804 -0.7287  0.2993 -0.7582
  838MPD2    H512325   1.897   3.090  11.837  0.6624  0.9482  0.0849
  838MPD2    N112326   2.029   3.041  11.370 -0.5667  0.2737  0.4970
  838MPD2    H712327   2.041   2.950  11.412 -2.3925  0.2121  0.8737
  839MPD2     C12328   1.818   2.293  11.612 -0.2453 -0.2483 -0.0434
  839MPD2    C112329   1.845   2.255  11.483  0.2696  0.6288 -0.0090
  839MPD2    C212330   1.924   2.345  11.399 -0.0616 -0.1494  1.2329
  839MPD2    C312331   1.976   2.454  11.459  0.8311 -0.4614 -0.3576
  839MPD2    C412332   1.962   2.483  11.595  0.3089 -0.3114 -0.1565
  839MPD2    C512333   1.879   2.403  11.665 -0.4427  0.4754 -0.6122
  839MPD2     H12334   1.952   2.323  11.297 -1.1440 -1.1225  1.1363
  839MPD2    H112335   2.009   2.570  11.638  0.2659 -0.3432 -0.0448
  839MPD2    H212336   1.762   2.237  11.686 -1.3584 -1.7767 -2.0408
  839MPD2    H312337   1.861   2.439  11.766  1.5588  1.3128 -0.5634
  839MPD2     N12338   2.047   2.551  11.389 -0.1740  0.2280 -0.7360
  839MPD2    H512339   2.079   2.633  11.438 -0.3642 -0.9022  1.2743
  839MPD2    N112340   1.787   2.143  11.422 -0.0333 -0.1732  0.0230
  839MPD2    H712341   1.832   2.113  11.336 -0.5622  0.0172 -0.3220
  840MPD2     C12342   2.216   0.072  10.169  0.3699  0.6723 -1.3679
  840MPD2    C112343   2.192   0.072  10.305  0.1964 -0.5403  0.3987
  840MPD2    C212344   2.266   0.154  10.386 -0.1533 -0.6863  0.3503
  840MPD2    C312345   2.368   0.231  10.334 -0.4151  0.1182  0.3113
  840MPD2    C412346   2.389   0.230  10.201  0.5342  0.5220 -0.2868
  840MPD2    C512347   2.310   0.158  10.110 -0.2502 -0.1305  0.4437
  840MPD2     H12348   2.255   0.145  10.493  1.4301 -1.0687  0.4767
  840MPD2    H112349   2.469   0.289  10.157  0.9421 -1.3829 -2.0930
  840MPD2    H212350   2.148   0.024  10.099 -1.6049  0.9292  0.3672
  840MPD2    H312351   2.321   0.156  10.003  2.4398 -0.4941  0.7298
  840MPD2     N12352   2.449   0.317  10.412  0.1282 -0.0278  0.2768
  840MPD2    H512353   2.508   0.378  10.356  0.2774 -0.9143 -0.5505
  840MPD2    N112354   2.090   4.710  10.359  0.6596 -0.4439 -0.0439
  840MPD2    H712355   2.049   4.649  10.290  2.7333  0.4662 -2.0541
  841MPD2     C12356   1.504   0.499  14.181 -0.4050  0.0755 -0.1871
  841MPD2    C112357   1.564   0.446  14.296  0.1225 -0.3297 -0.3862
  841MPD2    C212358   1.665   0.512  14.371  0.0324  0.0649  0.6038
  841MPD2    C312359   1.699   0.642  14.345  0.2508 -0.4071  0.2193
  841MPD2    C412360   1.629   0.697  14.235  0.1026  0.1699  0.3750
  841MPD2    C512361   1.544   0.626  14.148  0.5292 -0.3073 -0.0973
  841MPD2     H12362   1.708   0.446  14.446 -1.8088 -1.8991 -0.0427
  841MPD2    H112363   1.657   0.798  14.209 -2.7046  1.0090  0.5837
  841MPD2    H212364   1.436   0.451  14.112  0.2908  0.2932 -1.0249
  841MPD2    H312365   1.493   0.673  14.065  0.2887  1.2796  0.9425
  841MPD2     N12366   1.799   0.705  14.420 -0.0843 -0.6135 -0.9472
  841MPD2    H512367   1.854   0.646  14.482 -0.9959  0.5861  0.9743
  841MPD2    N112368   1.551   0.309  14.327 -0.0000 -0.1732  0.2795
  841MPD2    H712369   1.597   0.283  14.414 -0.4995  1.2433  0.9711
  842MPD2     C12370   1.755   1.282  16.700  0.2682 -0.2067  0.3130
  842MPD2    C112371   1.856   1.380  16.700 -0.3683 -0.5130 -0.3243
  842MPD2    C212372   1.921   1.407  16.822  1.1457 -0.1986  0.2781
  842MPD2    C312373   1.877   1.348  16.939 -0.3796 -0.5652  0.4643
  842MPD2    C412374   1.788   1.255  16.933 -0.6771  0.9860 -0.1028
  842MPD2    C512375   1.723   1.223  16.818  0.1216  0.8315  0.6396
  842MPD2     H12376   1.981   1.498  16.817 -0.0446  0.5703  0.0962
  842MPD2    H112377   1.757   1.209  17.027 -0.4322  1.1949  0.0797
  842MPD2    H212378   1.688   1.261  16.617 -1.6096  0.1949  1.7213
  842MPD2    H312379   1.642   1.151  16.818  0.4665  0.4388 -0.4870
  842MPD2     N12380   1.929   1.394  17.065  0.7515  0.3175  0.1140
  842MPD2    H512381   1.907   1.340  17.148  1.7625 -0.8700 -0.4037
  842MPD2    N112382   1.865   1.458  16.582 -0.3325 -0.5043 -0.7468
  842MPD2    H712383   1.802   1.430  16.508 -1.0030  1.8897 -1.0893
  843MPD2     C12384   4.259   1.281   0.125  0.0018 -0.0051  0.3698
  843MPD2    C112385   4.306   1.325   0.246  0.6218 -1.3998  0.3967
  843MPD2    C212386   4.399   1.428   0.255 -0.5124  0.4586  0.6209
  843MPD2    C312387   4.452   1.483   0.138  0.2857 -0.3165 -0.0530
  843MPD2    C412388   4.398   1.442   0.018  0.2204 -0.4722 -0.2137
  843MPD2    C512389   4.304   1.343   0.010 -0.4648  0.0892  0.3942
  843MPD2     H12390   4.445   1.454   0.350 -0.2441  0.5716  0.4594
  843MPD2    H112391   4.433   1.467  17.604  3.7522 -0.1622  1.1279
  843MPD2    H212392   4.174   1.215   0.108  0.8794 -0.3178 -2.8923
  843MPD2    H312393   4.266   1.316  17.598  2.1074  2.5518 -1.3026
  843MPD2     N12394   4.557   1.576   0.134  0.3976 -0.2541  0.0891
  843MPD2    H512395   4.571   1.623   0.046 -0.0853 -0.7520 -0.2539
  843MPD2    N112396   4.259   1.250   0.361  0.1250  0.5220 -0.4642
  843MPD2    H712397   4.207   1.165   0.338 -0.3560 -0.1006  2.9713
  844MPD2     C12398   2.564   1.135  16.364  0.1322 -0.1097  0.5432
  844MPD2    C112399   2.674   1.057  16.397  0.0920  0.1382  0.7386
  844MPD2    C212400   2.772   1.121  16.473  0.2879 -0.0543  0.6357
  844MPD2    C312401   2.775   1.258  16.482 -0.0578  0.5236  0.9640
  844MPD2    C412402   2.664   1.331  16.437 -0.2723 -0.3172 -0.0179
  844MPD2    C512403   2.558   1.267  16.388  0.6612  0.0708 -0.3088
  844MPD2     H12404   2.856   1.064  16.511  0.2995 -1.1222 -0.9977
  844MPD2    H112405   2.649   1.436  16.460 -0.4450  0.2656 -2.7597
  844MPD2    H212406   2.477   1.085  16.323 -0.6653  0.5019  1.4825
  844MPD2    H312407   2.461   1.314  16.377  0.7498  0.8496  2.4868
  844MPD2     N12408   2.886   1.321  16.547 -0.5226  0.2067 -0.2847
  844MPD2    H512409   2.941   1.256  16.602 -1.2150  0.9054  1.2464
  844MPD2    N112410   2.687   0.921  16.360 -0.5630 -0.4312 -0.1023
  844MPD2    H712411   2.765   0.864  16.392  1.1869  1.9875 -0.0123
  845MPD2     C12412   3.402   2.194  16.965 -0.5428 -0.0329  1.0380
  845MPD2    C112413   3.290   2.124  17.014  0.2995 -0.0235  0.2804
  845MPD2    C212414   3.255   1.997  16.968 -0.3361  0.3521 -0.5833
  845MPD2    C312415   3.332   1.939  16.869 -0.3139 -1.3708  0.4102
  845MPD2    C412416   3.443   2.007  16.821 -0.8909  0.4850 -0.2401
  845MPD2    C512417   3.475   2.138  16.868 -0.0876  0.1392  0.2014
  845MPD2     H12418   3.165   1.949  17.005  0.2377 -1.2820 -1.3163
  845MPD2    H112419   3.511   1.971  16.745 -1.4617 -2.2961  0.5815
  845MPD2    H212420   3.414   2.297  16.996 -0.7679  0.5603 -0.8555
  845MPD2    H312421   3.547   2.199  16.814 -0.3387  2.1073  2.0765
  845MPD2     N12422   3.293   1.828  16.800 -0.9170  0.0794  0.4383
  845MPD2    H512423   3.363   1.783  16.742 -3.9182 -0.8757 -2.4816
  845MPD2    N112424   3.214   2.190  17.118 -0.4187  0.2224 -0.2026
  845MPD2    H712425   3.244   2.280  17.153  0.0428 -0.0603  0.1304
  846MPD2     C12426   0.287   1.967  14.049  0.8363 -0.3136 -0.6082
  846MPD2    C112427   0.163   2.026  14.048 -0.4135 -0.5258  0.1730
  846MPD2    C212428   0.080   2.011  14.156  0.5242 -1.2528  0.1490
  846MPD2    C312429   0.112   1.925  14.257 -0.1339  0.0568  0.3876
  846MPD2    C412430   0.233   1.863  14.260  0.0159  0.2241 -0.0983
  846MPD2    C512431   0.317   1.883  14.154  0.2685 -0.5757  0.4572
  846MPD2     H12432   4.700   2.050  14.147  0.6572 -1.0953 -0.7172
  846MPD2    H112433   0.264   1.817  14.353  0.0864  0.7923  0.1557
  846MPD2    H212434   0.351   1.985  13.963 -0.8562  0.4528 -1.6927
  846MPD2    H312435   0.417   1.841  14.163  0.5562  0.2885  1.2948
  846MPD2     N12436   0.018   1.910  14.361  0.6562 -0.2213 -0.0900
  846MPD2    H512437   4.642   1.939  14.351  0.9157  1.4154  2.2353
  846MPD2    N112438   0.114   2.113  13.946  0.6801  0.1478  0.3816
  846MPD2    H712439   0.017   2.142  13.955  0.1252 -1.1713 -1.3797
  847MPD2     C12440   4.509   2.843  14.408  0.7790  0.7231 -0.8627
  847MPD2    C112441   4.608   2.819  14.500  0.5914  0.6399  0.6043
  847MPD2    C212442   4.585   2.725  14.598 -0.0673 -0.2206  0.6770
  847MPD2    C312443   4.462   2.662  14.605  0.8705  0.3199  0.1314
  847MPD2    C412444   4.359   2.697  14.520  0.7346  0.1894  0.4034
  847MPD2    C512445   4.384   2.793  14.429  0.0482  0.5055 -0.0924
  847MPD2     H12446   4.658   2.709  14.676  0.2495 -0.5470  0.3171
  847MPD2    H112447   4.260   2.653  14.527  0.5872  0.5059  0.3108
  847MPD2    H212448   4.528   2.903  14.320  0.0309  0.6798 -1.0560
  847MPD2    H312449   4.307   2.828  14.361  1.3172  0.2700 -1.6590
  847MPD2     N12450   4.447   2.568  14.709 -0.4980 -0.6268 -0.3084
  847MPD2    H512451   4.530   2.566  14.768 -0.0855  0.9252 -0.8303
  847MPD2    N112452   0.015   2.880  14.498  0.0327 -0.1929 -0.1810
  847MPD2    H712453   0.070   2.841  14.574 -0.1748 -2.7614 -1.3425
  848MPD2     C12454   2.434   1.636  16.378 -0.6352  0.9139 -0.1875
  848MPD2    C112455   2.525   1.697  16.456 -0.1731 -0.6002  0.7490
  848MPD2    C212456   2.592   1.811  16.403  0.3575  0.3977 -0.8995
  848MPD2    C312457   2.567   1.862  16.284  0.1538  0.2835  0.1537
  848MPD2    C412458   2.472   1.793  16.209  0.4124 -0.1925  0.6906
  848MPD2    C512459   2.411   1.678  16.250 -0.0879  1.0241 -0.3767
  848MPD2     H12460   2.651   1.869  16.473 -0.9047 -1.0541  1.3840
  848MPD2    H112461   2.456   1.826  16.107  0.9887 -3.3214 -0.4150
  848MPD2    H212462   2.359   1.564  16.408 -0.1718 -0.3153 -1.9375
  848MPD2    H312463   2.328   1.644  16.188 -0.2645  1.6530 -0.4852
  848MPD2     N12464   2.630   1.970  16.224  1.0764  0.0913  0.1865
  848MPD2    H512465   2.594   1.989  16.131  1.3472  1.3745  0.3329
  848MPD2    N112466   2.558   1.646  16.584  0.6862 -0.5278 -0.1345
  848MPD2    H712467   2.646   1.675  16.624  0.0807 -1.7599  2.1341
  849MPD2     C12468   2.033   1.323  13.378  0.1987  0.8321 -0.3280
  849MPD2    C112469   2.117   1.233  13.439 -0.1123 -0.4953 -0.2130
  849MPD2    C212470   2.114   1.225  13.576  0.2131 -0.9402 -0.3935
  849MPD2    C312471   2.052   1.313  13.652 -0.2900 -1.1374 -0.1890
  849MPD2    C412472   1.958   1.393  13.595 -0.3519  0.8344  0.2631
  849MPD2    C512473   1.945   1.395  13.461  0.3963  0.6333 -0.1454
  849MPD2     H12474   2.188   1.170  13.634  0.7308 -0.7579 -0.8846
  849MPD2    H112475   1.903   1.464  13.656 -1.7633  0.2743 -0.3530
  849MPD2    H212476   2.017   1.338  13.272 -0.4081 -2.2488 -0.6653
  849MPD2    H312477   1.875   1.464  13.415  0.2117  0.0556 -0.7215
  849MPD2     N12478   2.092   1.310  13.793 -0.0455  0.5153  0.1269
  849MPD2    H512479   2.169   1.250  13.821  1.5204  1.4812 -2.1869
  849MPD2    N112480   2.206   1.147  13.374 -0.0026 -0.4898 -0.0314
  849MPD2    H712481   2.261   1.083  13.431  0.9621 -0.8414 -1.3547
  850MPD2     C12482   4.713   4.187  15.059 -0.3230  0.0915  0.8316
  850MPD2    C112483   4.714   4.111  15.179  0.0011 -0.1199 -0.0909
  850MPD2    C212484   0.119   4.066  15.234 -0.1911  0.0815  0.2558
  850MPD2    C312485   0.238   4.076  15.157  0.0004 -0.6064 -0.3486
  850MPD2    C412486   0.226   4.139  15.033  0.2615  0.2393 -0.3028
  850MPD2    C512487   0.106   4.197  14.995  0.0850 -0.0840  0.3480
  850MPD2     H12488   0.120   4.019  15.332 -1.7050  1.0715  0.7442
  850MPD2    H112489   0.306   4.159  14.963  0.3392 -0.3479 -0.3814
  850MPD2    H212490   4.621   4.222  15.012  0.4593 -1.2394 -1.7004
  850MPD2    H312491   0.098   4.235  14.893  3.1544  1.1480  0.5540
  850MPD2     N12492   0.358   4.023  15.199 -0.3677  0.4208 -0.1200
  850MPD2    H512493   0.429   4.012  15.127  0.9603 -1.3163  1.4357
  850MPD2    N112494   4.600   4.090  15.256  0.3654 -0.6287  0.0459
  850MPD2    H712495   4.613   4.033  15.338  1.0478 -0.6532 -0.0803
  851MPD2     C12496   4.505   3.528  15.668  0.3737  0.2408 -0.4564
  851MPD2    C112497   4.482   3.546  15.537  0.4755 -0.3526 -0.1749
  851MPD2    C212498   4.531   3.450  15.454  0.0465  0.4488 -0.1590
  851MPD2    C312499   4.602   3.343  15.496 -0.3525  0.5239  0.3961
  851MPD2    C412500   4.616   3.319  15.630 -0.5618  0.4243 -0.6676
  851MPD2    C512501   4.563   3.414  15.714 -0.3790 -0.1881 -0.4062
  851MPD2     H12502   4.524   3.469  15.348  0.0247  2.5232  0.2082
  851MPD2    H112503   4.663   3.230  15.671  0.4362  1.2765  0.0428
  851MPD2    H212504   4.474   3.607  15.735  0.4113 -0.9935  1.0145
  851MPD2    H312505   4.566   3.394  15.821 -1.2605  0.3143 -0.2906
  851MPD2     N12506   4.648   3.269  15.391 -0.9418  0.1388 -0.1501
  851MPD2    H512507   4.634   3.309  15.299 -2.4704 -0.9146 -0.3638
  851MPD2    N112508   4.433   3.672  15.498  0.1232 -0.0204  0.0046
  851MPD2    H712509   4.402   3.737  15.569 -3.3898  0.4812 -2.0211
  852MPD2     C12510   0.576   0.781  10.529  0.3931  0.3264 -0.3178
  852MPD2    C112511   0.550   0.917  10.539  0.1991 -0.0768 -0.4091
  852MPD2    C212512   0.573   0.992  10.427  0.1904 -0.3368  0.0895
  852MPD2    C312513   0.649   0.938  10.323 -0.6137 -0.9052 -0.2960
  852MPD2    C412514   0.661   0.803  10.307 -0.2481 -0.2191  0.5023
  852MPD2    C512515   0.621   0.726  10.413  0.5238  0.5471 -0.1065
  852MPD2     H12516   0.542   1.096  10.429 -0.0031 -0.4176  1.3884
  852MPD2    H112517   0.705   0.756  10.220 -3.9561  2.0789 -2.6176
  852MPD2    H212518   0.544   0.716  10.610  1.0723  0.4672  0.0650
  852MPD2    H312519   0.634   0.619  10.405 -0.6919  0.2703  1.4308
  852MPD2     N12520   0.702   1.034  10.232 -0.2859 -0.0460  0.1005
  852MPD2    H512521   0.678   1.128  10.262  0.7440  0.7054 -1.3683
  852MPD2    N112522   0.490   0.975  10.648  0.3927  0.1410  0.4466
  852MPD2    H712523   0.453   1.069  10.636  0.6667  0.4262  1.9393
  853MPD2     C12524   1.901   1.175  12.427 -0.6098 -0.5570 -0.3155
  853MPD2    C112525   1.818   1.265  12.364  0.1979  0.0524  0.2579
  853MPD2    C212526   1.806   1.250  12.230  0.5551  0.4086  0.0732
  853MPD2    C312527   1.881   1.164  12.153  0.4203 -0.4570  0.5453
  853MPD2    C412528   1.976   1.095  12.218  0.3563  0.0217  0.0244
  853MPD2    C512529   1.986   1.096  12.358  0.0421 -0.1470 -0.6187
  853MPD2     H12530   1.733   1.314  12.181 -0.8843 -1.3245 -0.0335
  853MPD2    H112531   2.062   1.050  12.170 -0.3984 -2.2990  0.8556
  853MPD2    H212532   1.925   1.173  12.532 -0.5054  1.1755 -0.3028
  853MPD2    H312533   2.070   1.044  12.402  0.2917  1.4939  0.8195
  853MPD2     N12534   1.876   1.144  12.015  0.4845  0.1515 -0.4087
  853MPD2    H512535   1.924   1.067  11.969 -0.3947 -0.9546  0.5096
  853MPD2    N112536   1.764   1.370  12.435 -0.3926 -0.2610  0.3032
  853MPD2    H712537   1.786   1.386  12.533 -1.5533  0.0951  0.4966
  854MPD2     C12538   3.331   1.770  13.034  0.9064 -0.0460 -0.2544
  854MPD2    C112539   3.425   1.720  12.947  0.1329 -0.0934  0.0986
  854MPD2    C212540   3.508   1.613  12.986 -0.1330 -0.3025  0.9661
  854MPD2    C312541   3.518   1.577  13.117 -0.5654 -0.5995 -0.4304
  854MPD2    C412542   3.432   1.636  13.203 -0.2750  0.6353  0.7977
  854MPD2    C512543   3.341   1.737  13.165  0.1663  0.3718  0.0464
  854MPD2     H12544   3.561   1.553  12.914 -0.7311  1.2514 -0.7752
  854MPD2    H112545   3.424   1.608  13.307  1.3647  0.6590  0.9256
  854MPD2    H212546   3.264   1.847  12.997 -0.6158 -1.1463  0.2172
  854MPD2    H312547   3.271   1.768  13.242  0.6481  0.5508  0.4137
  854MPD2     N12548   3.595   1.474  13.170 -0.1951  0.5122 -0.1033
  854MPD2    H512549   3.582   1.465  13.270 -0.3761 -1.6677 -0.3112
  854MPD2    N112550   3.422   1.757  12.811  0.2172 -0.0210 -0.2797
  854MPD2    H712551   3.339   1.811  12.787  0.2644 -0.0708 -0.5527
  855MPD2     C12552   3.978   1.522  13.936  0.1755 -0.0610 -0.0985
  855MPD2    C112553   3.996   1.383  13.911  0.8961  0.0836  0.6427
  855MPD2    C212554   3.954   1.333  13.785  0.0443  0.2117  0.5374
  855MPD2    C312555   3.922   1.423  13.686  0.4452  0.3535 -0.2812
  855MPD2    C412556   3.916   1.559  13.713  0.7006  0.7434  0.2896
  855MPD2    C512557   3.944   1.602  13.834  0.2780 -0.8597 -0.5955
  855MPD2     H12558   3.945   1.227  13.765 -0.3478  0.5598 -1.0651
  855MPD2    H112559   3.884   1.634  13.641 -1.2151  0.2720  0.6359
  855MPD2    H212560   4.000   1.572  14.029  2.2577  0.4996 -0.8793
  855MPD2    H312561   3.938   1.709  13.845 -0.5727 -0.8712 -0.9027
  855MPD2     N12562   3.879   1.374  13.557  0.4579  0.0815  0.1793
  855MPD2    H512563   3.854   1.446  13.489  3.2072  2.2688  1.5332
  855MPD2    N112564   4.047   1.289  14.003  0.1388  0.4878  0.4713
  855MPD2    H712565   4.049   1.191  13.976  2.0849 -0.1492  2.8773
  856MPD2     C12566   0.801   2.361  14.433  0.4939 -0.7431  0.5659
  856MPD2    C112567   0.880   2.472  14.434  0.1915 -0.5257 -0.6033
  856MPD2    C212568   0.831   2.595  14.397  0.3319  0.0330  0.4746
  856MPD2    C312569   0.701   2.608  14.359  0.2804 -0.0746 -0.1347
  856MPD2    C412570   0.626   2.494  14.343 -0.4217 -0.4302 -0.1034
  856MPD2    C512571   0.675   2.376  14.382 -0.0481  0.8871 -0.5554
  856MPD2     H12572   0.900   2.676  14.414  0.6367 -0.1006 -0.1085
  856MPD2    H112573   0.524   2.510  14.308 -0.1271  0.1660 -0.6888
  856MPD2    H212574   0.846   2.265  14.455  1.4357 -0.8110 -1.5480
  856MPD2    H312575   0.617   2.285  14.369 -0.5297  1.3186 -1.4427
  856MPD2     N12576   0.635   2.735  14.340  0.0880 -0.0762  0.1983
  856MPD2    H512577   0.535   2.749  14.332  0.0555 -0.6711 -0.3263
  856MPD2    N112578   1.014   2.473  14.464  0.4965  0.3994 -0.9173
  856MPD2    H712579   1.053   2.562  14.438  0.1175  0.5180 -1.0831
  857MPD2     C12580   2.862   4.009  13.162 -0.2108 -0.3148 -0.4310
  857MPD2    C112581   2.867   4.112  13.068  0.2873  0.4317 -0.0441
  857MPD2    C212582   2.890   4.237  13.112 -0.5408  0.1334 -0.5316
  857MPD2    C312583   2.905   4.262  13.248 -0.1041 -0.1193  0.3539
  857MPD2    C412584   2.896   4.160  13.342 -0.6586  0.1708  0.1334
  857MPD2    C512585   2.876   4.032  13.294  0.3232 -0.5014  0.0441
  857MPD2     H12586   2.899   4.315  13.037 -2.1850  0.1862 -0.6821
  857MPD2    H112587   2.907   4.170  13.450 -1.2245  0.4717  0.1617
  857MPD2    H212588   2.856   3.904  13.133 -1.4020  0.1376 -1.7687
  857MPD2    H312589   2.883   3.941  13.352  1.7082 -1.3093 -1.4346
  857MPD2     N12590   2.924   4.393  13.299  0.4854 -0.0316 -0.2753
  857MPD2    H512591   2.932   4.469  13.232  1.5509 -0.7217 -0.9497
  857MPD2    N112592   2.872   4.078  12.934  0.1756 -0.6819 -0.7782
  857MPD2    H712593   2.866   3.978  12.919  2.6074 -0.8978 -0.3183
  858MPD2     C12594   3.123   3.175  17.258  0.0007  0.2122 -0.4387
  858MPD2    C112595   3.216   3.264  17.213 -0.0865 -0.7391  0.2330
  858MPD2    C212596   3.224   3.394  17.269  0.3195  0.0519  0.5855
  858MPD2    C312597   3.136   3.429  17.372 -0.2516 -1.0136 -0.3950
  858MPD2    C412598   3.042   3.339  17.410 -0.5906 -0.3012 -1.0590
  858MPD2    C512599   3.039   3.214  17.356  0.3969  0.1516 -0.3965
  858MPD2     H12600   3.294   3.464  17.225  0.6094 -1.6831 -1.6846
  858MPD2    H112601   2.970   3.366  17.487  0.8668  2.1312 -0.5417
  858MPD2    H212602   3.116   3.071  17.227 -0.6380  0.1952 -0.2283
  858MPD2    H312603   2.957   3.155  17.395  1.6277 -0.8200  0.7052
  858MPD2     N12604   3.135   3.562  17.425  0.0305  0.1235  0.2407
  858MPD2    H512605   3.064   3.593  17.491 -0.0738 -1.2958  0.7980
  858MPD2    N112606   3.306   3.218  17.112  0.6626 -0.8136 -0.0431
  858MPD2    H712607   3.289   3.125  17.074 -0.8105 -1.2881  1.7522
  859MPD2     C12608   1.580   1.215  15.694  0.5671 -0.5011  0.0990
  859MPD2    C112609   1.640   1.189  15.573  0.5666  0.1639  0.5186
  859MPD2    C212610   1.652   1.060  15.536  0.1415 -0.7805 -0.0247
  859MPD2    C312611   1.593   0.956  15.609 -0.3441 -0.1340  0.2993
  859MPD2    C412612   1.536   0.987  15.725 -0.3943  0.1373  0.1296
  859MPD2    C512613   1.526   1.115  15.772  0.1137 -0.4558 -0.0207
  859MPD2     H12614   1.691   1.038  15.437 -0.0797  2.1482 -0.7576
  859MPD2    H112615   1.478   0.908  15.772  0.5017 -0.1583  0.7432
  859MPD2    H212616   1.571   1.315  15.735  0.4548 -0.6866  0.5332
  859MPD2    H312617   1.475   1.132  15.866 -0.7821 -2.3546 -0.1542
  859MPD2     N12618   1.619   0.820  15.585  1.0018  0.1844  0.1880
  859MPD2    H512619   1.592   0.750  15.653  0.2822 -0.9029 -1.2068
  859MPD2    N112620   1.702   1.283  15.493 -0.2789  0.0833  0.0553
  859MPD2    H712621   1.744   1.250  15.406 -0.5156  1.1147 -0.4490
  860MPD2     C12622   4.694   1.539  11.670 -0.2098 -0.5092  0.2994
  860MPD2    C112623   4.717   1.587  11.799  0.8899 -0.6540  0.3865
  860MPD2    C212624   4.637   1.536  11.898  0.0673  0.1413 -0.5310
  860MPD2    C312625   4.535   1.444  11.881  0.4554 -0.1795 -0.3877
  860MPD2    C412626   4.516   1.387  11.753 -1.2468 -0.6163  0.0059
  860MPD2    C512627   4.592   1.448  11.649  0.0081 -0.6873 -0.0987
  860MPD2     H12628   4.658   1.577  11.996 -1.8262 -0.2876  0.0388
  860MPD2    H112629   4.439   1.312  11.738 -2.7700  0.3674  2.8665
  860MPD2    H212630   0.021   1.585  11.584  0.5489  1.7438  1.9142
  860MPD2    H312631   4.582   1.408  11.549  1.5195 -2.5073  0.4715
  860MPD2     N12632   4.445   1.420  11.988  0.2920  0.4135  0.3815
  860MPD2    H512633   4.470   1.473  12.071  0.7572 -0.0725  0.5546
  860MPD2    N112634   0.099   1.684  11.826 -0.2871 -0.5206  1.0514
  860MPD2    H712635   0.113   1.711  11.923  0.6856 -0.3137  0.8556
  861MPD2     C12636   3.101   3.982  10.727 -0.5001 -0.8285 -1.3610
  861MPD2    C112637   3.050   4.084  10.807 -0.1964 -0.2483 -0.1258
  861MPD2    C212638   3.014   4.205  10.751  0.2185 -0.5168 -0.4988
  861MPD2    C312639   3.027   4.227  10.616 -0.0200  0.2221 -0.1981
  861MPD2    C412640   3.075   4.120  10.541  0.2747  0.0813 -0.0084
  861MPD2    C512641   3.124   4.002  10.596  0.2987 -0.2989  0.8517
  861MPD2     H12642   2.956   4.274  10.811 -0.2017 -1.3705  0.0852
  861MPD2    H112643   3.087   4.127  10.433  2.9803 -0.5363  0.2490
  861MPD2    H212644   3.144   3.889  10.763 -0.7617  0.9237  3.5307
  861MPD2    H312645   3.167   3.924  10.534  0.3758 -0.0728  0.6257
  861MPD2     N12646   2.986   4.352  10.559  0.1649 -0.2721  0.1589
  861MPD2    H512647   2.983   4.360  10.458 -0.5907  0.5349  0.2351
  861MPD2    N112648   3.028   4.055  10.944 -0.1064  0.2598  0.0470
  861MPD2    H712649   2.963   4.117  10.990  0.0740  0.6421 -0.2129
  862MPD2     C12650   2.413   4.461  10.185  0.2744  0.1183 -0.0339
  862MPD2    C112651   2.495   4.385  10.268 -0.0727  0.3187  0.0555
  862MPD2    C212652   2.498   4.246  10.259 -0.3376  0.4133 -0.0831
  862MPD2    C312653   2.427   4.178  10.166 -0.0545 -0.2390 -1.0908
  862MPD2    C412654   2.334   4.247  10.098  0.4507  0.1181  0.2942
  862MPD2    C512655   2.326   4.386  10.101 -0.0322  0.0763 -0.1320
  862MPD2     H12656   2.560   4.194  10.331  0.4638 -0.4980 -1.4383
  862MPD2    H112657   2.276   4.189  10.027  0.7563 -1.5542  1.4122
  862MPD2    H212658   2.401   4.569  10.181  2.0010  0.1872 -3.0712
  862MPD2    H312659   2.248   4.435  10.044  1.4571  1.2724 -1.1571
  862MPD2     N12660   2.440   4.037  10.146  0.1681 -0.5483 -0.1727
  862MPD2    H512661   2.363   3.982  10.108  0.3902 -1.4887  0.7349
  862MPD2    N112662   2.569   4.447  10.367  0.0980  0.2189  0.5605
  862MPD2    H712663   2.624   4.388  10.429 -1.4923 -0.8357  0.9548
  863MPD2     C12664   1.194   2.866  17.061  0.4243 -0.7094  0.2905
  863MPD2    C112665   1.298   2.812  16.995  0.2214  0.1588 -0.5334
  863MPD2    C212666   1.405   2.763  17.071 -0.9088  0.9795  0.4052
  863MPD2    C312667   1.402   2.774  17.210 -1.5626  0.4499  0.2888
  863MPD2    C412668   1.298   2.847  17.270  0.3440 -0.3221  0.2321
  863MPD2    C512669   1.193   2.889  17.192 -0.3425  0.7611  0.0279
  863MPD2     H12670   1.486   2.698  17.039 -2.3583 -1.0929  0.9345
  863MPD2    H112671   1.286   2.845  17.378 -1.4381  0.8039  0.0555
  863MPD2    H212672   1.110   2.895  16.999  2.2634  0.9311 -1.4225
  863MPD2    H312673   1.107   2.939  17.236 -1.0141 -0.6944  0.3745
  863MPD2     N12674   1.498   2.711  17.287 -0.6004  0.6610 -0.1862
  863MPD2    H512675   1.564   2.656  17.233  1.0706  2.8616 -0.3536
  863MPD2    N112676   1.286   2.800  16.861  0.3165  0.1817 -0.1110
  863MPD2    H712677   1.199   2.839  16.827 -0.2592 -1.6791 -0.7585
  864MPD2     C12678   2.295   3.106  17.369  0.8637 -0.4548  0.5702
  864MPD2    C112679   2.262   3.236  17.403  1.1359  0.4768  0.2286
  864MPD2    C212680   2.352   3.341  17.391  0.3830 -0.0699 -0.3308
  864MPD2    C312681   2.484   3.316  17.341  0.9617  0.6663  0.8356
  864MPD2    C412682   2.514   3.187  17.308  0.0685  0.7185 -0.7122
  864MPD2    C512683   2.429   3.090  17.329  0.2818 -0.4631 -0.8050
  864MPD2     H12684   2.334   3.441  17.428 -0.0324 -0.2282 -0.1005
  864MPD2    H112685   2.605   3.160  17.254  0.5556  1.2828 -0.1748
  864MPD2    H212686   2.238   3.016  17.382 -0.7559  0.5283  0.2180
  864MPD2    H312687   2.465   2.998  17.284  0.2125 -0.8303 -0.1236
  864MPD2     N12688   2.590   3.411  17.326  0.2415  0.6405 -0.1885
  864MPD2    H512689   2.672   3.380  17.275  0.9071  3.3016 -0.7805
  864MPD2    N112690   2.129   3.268  17.450 -0.1561  0.1475  0.3362
  864MPD2    H712691   2.064   3.192  17.462  0.4868  0.0202  2.9127
  865MPD2     C12692   2.615   4.411  16.991 -0.9311 -0.0322  0.3409
  865MPD2    C112693   2.523   4.308  17.018  0.0578  0.3026 -0.1790
  865MPD2    C212694   2.578   4.192  17.075  0.3252 -0.5122 -0.4848
  865MPD2    C312695   2.713   4.181  17.110  0.5567 -0.6005  0.5505
  865MPD2    C412696   2.793   4.292  17.084 -0.6787 -0.3134 -0.6522
  865MPD2    C512697   2.747   4.399  17.017  0.6392  0.2883  0.1368
  865MPD2     H12698   2.508   4.109  17.084  0.4052 -0.5506 -0.2092
  865MPD2    H112699   2.897   4.291  17.116 -0.7959  0.2242 -0.2598
  865MPD2    H212700   2.581   4.506  16.951 -1.1517  0.7758  2.3932
  865MPD2    H312701   2.809   4.484  16.993  1.6678 -0.6446 -0.4603
  865MPD2     N12702   2.771   4.068  17.168  0.0982  0.4432  0.2917
  865MPD2    H512703   2.872   4.057  17.173 -0.0296 -0.8550 -0.2342
  865MPD2    N112704   2.385   4.326  16.993  0.0654  0.8674  0.4671
  865MPD2    H712705   2.368   4.396  16.921 -0.8634 -0.0861 -0.2407
  866MPD2     C12706   3.678   4.643  11.640  0.2163  0.2234  0.1144
  866MPD2    C112707   3.703   4.552  11.543  0.1771 -0.6644 -0.4269
  866MPD2    C212708   3.620   4.545  11.433  0.0929 -0.0850 -0.1342
  866MPD2    C312709   3.520   4.648  11.413  0.8319 -0.2049 -0.1127
  866MPD2    C412710   3.494   0.000  11.525  0.1956  0.4241 -0.2597
  866MPD2    C512711   3.567   4.717  11.638 -0.7331  0.3546  0.4595
  866MPD2     H12712   3.617   4.457  11.370  1.3632  0.7403 -1.3551
  866MPD2    H112713   3.398   0.050  11.533  0.4152  0.7397  0.3654
  866MPD2    H212714   3.730   4.641  11.736 -2.3932  0.1598  1.5126
  866MPD2    H312715   3.554   0.064  11.722  1.1130  0.1255  0.9296
  866MPD2     N12716   3.421   4.656  11.309 -0.3225  0.4469 -0.3011
  866MPD2    H512717   3.337   4.708  11.331 -0.8978 -1.3379  1.6722
  866MPD2    N112718   3.788   4.438  11.553  0.1401 -0.0743 -0.1916
  866MPD2    H712719   3.805   4.377  11.474  0.1535 -0.7210  0.3136
  867MPD2     C12720   0.760   4.212  17.013  0.4485 -1.0142 -0.7078
  867MPD2    C112721   0.857   4.214  17.114  0.8476  0.5057 -0.3220
  867MPD2    C212722   0.882   4.327  17.191  0.3168  0.2916 -0.6502
  867MPD2    C312723   0.807   4.439  17.173  0.5125 -0.2020 -0.1309
  867MPD2    C412724   0.707   4.433  17.076 -0.2096 -0.1738  0.0154
  867MPD2    C512725   0.689   4.324  16.992 -0.9794  0.9318  0.2999
  867MPD2     H12726   0.958   4.310  17.266  1.2947 -2.6363 -2.3231
  867MPD2    H112727   0.638   4.515  17.061 -0.7798 -0.9440 -1.5490
  867MPD2    H212728   0.742   4.131  16.943 -0.5072 -1.1528 -0.3015
  867MPD2    H312729   0.609   4.332  16.919 -0.9927 -0.3903  0.1736
  867MPD2     N12730   0.824   4.562  17.246 -0.4717  0.1063 -0.6091
  867MPD2    H512731   0.756   4.636  17.231 -0.0888  0.3056 -1.3529
  867MPD2    N112732   0.931   4.093  17.130 -0.1704  0.0494  0.0398
  867MPD2    H712733   0.898   4.015  17.074 -1.0355  0.5198 -0.1139
  868MPD2     C12734   2.834   3.047  13.127 -0.4380  0.8244 -0.8476
  868MPD2    C112735   2.891   2.924  13.152  0.1896 -1.1097 -0.1135
  868MPD2    C212736   2.827   2.835  13.239 -0.3479  0.4710  0.4591
  868MPD2    C312737   2.715   2.874  13.307 -0.6646 -0.0930  0.5065
  868MPD2    C412738   2.665   2.998  13.286 -0.5161 -0.1234  0.0101
  868MPD2    C512739   2.726   3.091  13.205 -0.6676 -0.0757 -0.0811
  868MPD2     H12740   2.866   2.735  13.249 -0.2013  0.7822  3.2267
  868MPD2    H112741   2.578   3.027  13.344 -1.1040 -0.2438 -0.8239
  868MPD2    H212742   2.884   3.125  13.071 -0.7243  2.6466  1.4557
  868MPD2    H312743   2.701   3.196  13.206  1.2708  0.3808  0.8237
  868MPD2     N12744   2.640   2.771  13.373  0.6334  0.3185 -0.4118
  868MPD2    H512745   2.687   2.683  13.389  0.5846  0.2462 -0.6629
  868MPD2    N112746   2.995   2.869  13.072 -0.7449  0.0812 -0.2142
  868MPD2    H712747   3.017   2.773  13.095  2.8972  0.8059 -0.6826
  869MPD2     C12748   4.200   1.803   2.336 -0.3673  0.7165  0.6240
  869MPD2    C112749   4.122   1.695   2.289  0.8243  0.4984 -0.1115
  869MPD2    C212750   4.105   1.683   2.152 -0.0195  0.0224  0.7071
  869MPD2    C312751   4.183   1.760   2.070  0.2471  0.7965  0.4036
  869MPD2    C412752   4.259   1.870   2.114 -0.0068 -0.2164 -0.1197
  869MPD2    C512753   4.269   1.885   2.248  0.2676  0.2357  0.9332
  869MPD2     H12754   4.060   1.591   2.116  1.3206 -0.5182  0.4114
  869MPD2    H112755   4.309   1.940   2.049  0.1943 -0.8175 -0.6196
  869MPD2    H212756   4.205   1.817   2.444 -0.3530  0.7562  0.6185
  869MPD2    H312757   4.325   1.973   2.279  2.0999 -0.5626 -0.0902
  869MPD2     N12758   4.172   1.743   1.931  0.0681  0.1414 -0.2895
  869MPD2    H512759   4.203   1.816   1.868  0.6945 -0.0280 -0.1780
  869MPD2    N112760   4.048   1.616   2.380 -0.2236  0.0400 -0.3113
  869MPD2    H712761   4.045   1.651   2.476  2.0178 -0.0756 -0.1904
  870MPD2     C12762   3.814   4.541   2.085 -0.0783 -0.2697  0.2393
  870MPD2    C112763   3.760   4.664   2.107 -0.2936  0.4152  0.0034
  870MPD2    C212764   3.780   0.041   2.012 -0.4809  0.1227 -0.1796
  870MPD2    C312765   3.825   0.007   1.884  0.5800  0.3022  0.5376
  870MPD2    C412766   3.880   4.603   1.866  0.5584 -0.7701  0.1057
  870MPD2    C512767   3.872   4.511   1.966  0.8619  0.2626 -0.1536
  870MPD2     H12768   3.739   0.140   2.028 -0.2407 -0.2179  2.6809
  870MPD2    H112769   3.923   4.567   1.773 -1.2731 -0.0143 -1.0360
  870MPD2    H212770   3.807   4.462   2.159 -3.2863  0.9026  1.1743
  870MPD2    H312771   3.920   4.416   1.945  3.1794  1.1956  0.8844
  870MPD2     N12772   3.802   0.105   1.781  0.2076  0.1870 -0.6624
  870MPD2    H512773   3.758   0.193   1.805  0.2103  1.2432 -4.6209
  870MPD2    N112774   3.711   4.674   2.240 -0.1534  0.6975 -0.9783
  870MPD2    H712775   3.720   4.588   2.294 -2.5135  1.3971  0.5342
  871MPD2     C12776   0.449   4.181  16.424  0.3062 -0.0016  0.8982
  871MPD2    C112777   0.419   4.140  16.556  0.2069 -0.0672 -0.4167
  871MPD2    C212778   0.507   4.060  16.620 -0.4126 -0.0665  0.1121
  871MPD2    C312779   0.609   4.000  16.550 -0.2145 -0.1052 -0.0690
  871MPD2    C412780   0.640   4.038  16.424  0.1625 -0.0076  0.2939
  871MPD2    C512781   0.562   4.130  16.364  0.4379  0.1635 -0.7328
  871MPD2     H12782   0.492   4.025  16.721  2.2266 -1.2121  0.1025
  871MPD2    H112783   0.722   3.993  16.369 -2.3465 -4.0856 -0.1046
  871MPD2    H212784   0.391   4.258  16.374  2.5056  0.4867 -0.9274
  871MPD2    H312785   0.565   4.150  16.258 -0.1645  1.2667 -0.5483
  871MPD2     N12786   0.685   3.905  16.622  0.3329  0.0193  0.5934
  871MPD2    H512787   0.658   3.880  16.716  0.6550 -0.7281  0.4854
  871MPD2    N112788   0.307   4.196  16.616 -0.0586  0.2487  0.3818
  871MPD2    H712789   0.233   4.247  16.567 -1.4621 -0.8110  1.4103
  872MPD2     C12790   0.729   1.527  13.603 -0.0337  0.3541 -0.6101
  872MPD2    C112791   0.638   1.626  13.622  0.0742 -0.0245 -0.0930
  872MPD2    C212792   0.534   1.617  13.712  0.8166  0.6824  0.9706
  872MPD2    C312793   0.525   1.510  13.794 -0.6639 -0.0440  0.4952
  872MPD2    C412794   0.625   1.417  13.777  0.3792 -0.4166  0.1071
  872MPD2    C512795   0.723   1.419  13.687  0.2540 -0.5405 -0.6194
  872MPD2     H12796   0.468   1.701  13.729  0.9551  1.1436 -0.7347
  872MPD2    H112797   0.620   1.323  13.831  1.4618 -1.0690 -0.9235
  872MPD2    H212798   0.817   1.544  13.542  1.5822  0.3338  1.6952
  872MPD2    H312799   0.804   1.347  13.683 -0.5211 -1.4214 -0.5427
  872MPD2     N12800   0.427   1.496  13.889  0.4456 -0.3569  0.0822
  872MPD2    H512801   0.434   1.419  13.954 -2.8604  0.0308  0.8655
  872MPD2    N112802   0.661   1.757  13.568 -0.3095  0.3940  0.6333
  872MPD2    H712803   0.591   1.826  13.594 -0.7128  0.0714  0.4077
  873MPD2     C12804   2.878   1.797   1.221 -0.9646 -0.1057  0.2187
  873MPD2    C112805   2.739   1.794   1.229  0.0033  0.0190 -0.2362
  873MPD2    C212806   2.678   1.668   1.211 -0.0049 -0.1328  0.1919
  873MPD2    C312807   2.760   1.554   1.187 -0.1341 -0.3495  0.0540
  873MPD2    C412808   2.897   1.569   1.170 -0.2549 -0.0715  0.5017
  873MPD2    C512809   2.950   1.690   1.181  0.6374 -0.0378  0.5091
  873MPD2     H12810   2.571   1.661   1.225  0.2836 -3.9900  0.4268
  873MPD2    H112811   2.957   1.496   1.117 -2.8613 -0.3961 -1.9335
  873MPD2    H212812   2.918   1.898   1.217 -1.1855 -0.0097  0.3930
  873MPD2    H312813   3.046   1.700   1.133 -0.2922  3.1226 -0.7217
  873MPD2     N12814   2.712   1.423   1.185 -0.5829  1.1699  0.2327
  873MPD2    H512815   2.780   1.353   1.157 -0.3007  1.3153  0.5741
  873MPD2    N112816   2.662   1.913   1.242  0.0133 -0.2730 -0.0450
  873MPD2    H712817   2.719   1.997   1.251  2.6151 -1.9680 -0.6758
  874MPD2     C12818   2.030   2.126  15.957  0.5523 -0.1917 -0.6291
  874MPD2    C112819   2.078   2.073  16.072 -0.0161  0.1341  0.0509
  874MPD2    C212820   2.199   2.122  16.113 -0.1815 -0.7673  0.7747
  874MPD2    C312821   2.274   2.212  16.040 -0.2766 -0.0621  0.0055
  874MPD2    C412822   2.223   2.264  15.927 -0.5832 -0.0609  1.0657
  874MPD2    C512823   2.102   2.224  15.885 -0.0245 -0.9024  0.1638
  874MPD2     H12824   2.244   2.089  16.206 -0.7821 -0.5201  1.1568
  874MPD2    H112825   2.293   2.327  15.872 -1.0805  1.1125  1.7845
  874MPD2    H212826   1.941   2.092  15.906  0.2527 -0.4201  0.0388
  874MPD2    H312827   2.066   2.255  15.787  1.0845  0.7855  0.2804
  874MPD2     N12828   2.393   2.258  16.094  0.2780 -0.8024  0.3512
  874MPD2    H512829   2.406   2.213  16.184 -3.0397  0.4075  1.4398
  874MPD2    N112830   2.010   1.961  16.124  0.4245  0.1077  0.0428
  874MPD2    H712831   1.918   1.950  16.084  0.3022 -0.9389  0.6062
  875MPD2     C12832   3.300   4.570  14.636 -0.0778  0.1726 -0.4173
  875MPD2    C112833   3.227   4.683  14.615  0.1486  0.1523  0.4975
  875MPD2    C212834   3.195   0.046  14.713  0.4763 -1.0659  0.2765
  875MPD2    C312835   3.228   0.022  14.841 -0.2315 -0.0563 -0.0743
  875MPD2    C412836   3.301   4.629  14.873  0.3609  0.5651  0.5154
  875MPD2    C512837   3.343   4.554  14.767 -0.3505 -0.0807  0.1682
  875MPD2     H12838   3.131   0.131  14.693  0.4030 -1.6582 -2.0482
  875MPD2    H112839   3.327   4.607  14.976  1.6546  0.0776  0.0836
  875MPD2    H212840   3.322   4.495  14.561  3.3483  0.5879  0.1321
  875MPD2    H312841   3.394   4.460  14.789  1.1826  1.3482  2.5934
  875MPD2     N12842   3.195   0.117  14.933  0.6506 -0.4287 -0.1038
  875MPD2    H512843   3.147   0.198  14.895  0.8583  0.4163  1.4293
  875MPD2    N112844   3.174   4.711  14.490 -0.6430 -0.1732  0.7125
  875MPD2    H712845   3.115   0.073  14.484 -0.5585 -0.0801  1.1462
  876MPD2     C12846   1.791   1.537  15.971  0.3693 -0.3284  0.6352
  876MPD2    C112847   1.929   1.525  15.968 -0.0587  0.1107  0.2761
  876MPD2    C212848   1.987   1.408  16.014 -0.5659  0.4447  0.2945
  876MPD2    C312849   1.910   1.302  16.049  0.0644 -0.6062 -0.2002
  876MPD2    C412850   1.774   1.311  16.041 -0.2442 -0.5893 -0.2935
  876MPD2    C512851   1.716   1.425  16.002 -0.0256 -0.2931  0.2257
  876MPD2     H12852   2.094   1.409  16.031 -0.5330  1.7369  0.0240
  876MPD2    H112853   1.722   1.219  16.062  0.5616 -1.2579 -1.2120
  876MPD2    H212854   1.744   1.630  15.939  0.5021 -0.4512  0.0793
  876MPD2    H312855   1.608   1.429  15.994 -0.0139 -0.4000  0.0323
  876MPD2     N12856   1.970   1.181  16.101  0.0864  0.4973  0.3963
  876MPD2    H512857   2.070   1.169  16.096 -0.4855 -2.8917 -3.0022
  876MPD2    N112858   2.005   1.645  15.937  0.5097 -0.1227  0.8343
  876MPD2    H712859   1.954   1.723  15.898  4.7739  1.7684 -0.9512
  877MPD2     C12860   1.961   2.025  15.327 -0.1137  0.2047  0.0769
  877MPD2    C112861   2.096   2.040  15.356  0.1528 -0.2315 -1.7655
  877MPD2    C212862   2.184   2.052  15.250 -0.3738  0.5377 -0.3678
  877MPD2    C312863   2.136   2.058  15.120  0.5391  0.3147  0.0805
  877MPD2    C412864   2.003   2.028  15.097  0.3079  0.3405  0.3328
  877MPD2    C512865   1.916   2.012  15.198 -0.2746  0.3555  0.5069
  877MPD2     H12866   2.287   2.065  15.280 -0.1656  0.5619 -1.0958
  877MPD2    H112867   1.961   2.038  14.998  0.4819 -1.2734  0.1033
  877MPD2    H212868   1.886   2.020  15.405 -2.8878  0.7902 -2.5527
  877MPD2    H312869   1.812   1.996  15.171  0.6526 -1.4893 -1.9232
  877MPD2     N12870   2.218   2.071  15.001 -0.2528  0.4503 -0.0841
  877MPD2    H512871   2.174   2.045  14.913  1.5292  0.5597 -1.0219
  877MPD2    N112872   2.148   2.036  15.485  0.0346 -0.0838  0.0851
  877MPD2    H712873   2.249   2.029  15.495 -0.0859 -0.0018  1.4410
  878MPD2     C12874   2.675   0.912  12.513  0.3559 -0.3782  0.2705
  878MPD2    C112875   2.605   1.024  12.543 -0.5479  0.3620  0.3185
  878MPD2    C212876   2.590   1.064  12.673 -0.7630  0.0629 -0.9693
  878MPD2    C312877   2.622   0.975  12.779  0.1732  0.5578 -0.2257
  878MPD2    C412878   2.668   0.853  12.742  0.1291  0.1246  0.3230
  878MPD2    C512879   2.716   0.827  12.608  0.0197  0.0759 -0.2379
  878MPD2     H12880   2.553   1.161  12.703  2.7105  1.1755 -0.3063
  878MPD2    H112881   2.703   0.779  12.811  0.2261  0.7394  0.9314
  878MPD2    H212882   2.702   0.895  12.409 -2.6512 -1.4168 -0.3289
  878MPD2    H312883   2.777   0.739  12.588 -0.4208  0.1908 -2.0975
  878MPD2     N12884   2.586   1.013  12.907  0.6517  0.1333  0.2544
  878MPD2    H512885   2.553   1.107  12.927 -0.3724  0.2344 -1.9820
  878MPD2    N112886   2.575   1.115  12.438  0.0884  0.1556 -0.1218
  878MPD2    H712887   2.631   1.080  12.361 -2.1055 -1.5383 -0.9497
  879MPD2     C12888   2.889   2.794  17.465 -0.3780 -0.0837 -0.2688
  879MPD2    C112889   2.831   2.670  17.489 -0.2029 -0.0912  0.8975
  879MPD2    C212890   2.735   2.626  17.392 -0.2721 -0.4384  0.0127
  879MPD2    C312891   2.697   2.699  17.278  1.0405  0.2940  0.2527
  879MPD2    C412892   2.758   2.821  17.262  0.5588 -0.0467 -0.5019
  879MPD2    C512893   2.858   2.863  17.348  0.2547 -0.3217 -0.3670
  879MPD2     H12894   2.696   2.526  17.405  0.0769 -0.6676 -0.6922
  879MPD2    H112895   2.732   2.889  17.181 -0.1077  1.2291  0.7763
  879MPD2    H212896   2.976   2.823  17.523  0.7051  1.0393 -2.4414
  879MPD2    H312897   2.905   2.959  17.333  3.7043 -1.4162  3.4384
  879MPD2     N12898   2.591   2.662  17.185 -0.4057 -0.3383  0.0315
  879MPD2    H512899   2.579   2.731  17.112 -1.2433  0.0950  0.5768
  879MPD2    N112900   2.856   2.613  17.623 -0.3208 -0.1139  0.6917
  879MPD2    H712901   2.924   2.650   0.003 -1.0073 -0.3169  1.5154
  880MPD2     C12902   4.616   4.398   0.360  1.0254 -0.2159  0.2657
  880MPD2    C112903   4.485   4.391   0.413  0.1452 -0.0465 -0.2129
  880MPD2    C212904   4.430   4.266   0.447 -0.3608 -0.4825  0.4150
  880MPD2    C312905   4.506   4.151   0.428 -0.0096 -0.0590  0.1655
  880MPD2    C412906   4.640   4.154   0.398 -0.2547  0.1926 -0.3012
  880MPD2    C512907   4.687   4.277   0.353 -0.4323 -0.2193 -0.3842
  880MPD2     H12908   4.322   4.268   0.461 -0.6985  0.3262 -2.1984
  880MPD2    H112909   4.707   4.071   0.385 -1.3700 -0.9281  1.1105
  880MPD2    H212910   4.655   4.495   0.333 -1.0826  0.5971  0.0977
  880MPD2    H312911   0.074   4.272   0.338 -0.2208  0.5910  0.8427
  880MPD2     N12912   4.445   4.021   0.441  0.3468 -0.5892  0.3341
  880MPD2    H512913   4.512   3.945   0.434  0.9860 -0.0063  0.1257
  880MPD2    N112914   4.417   4.512   0.418  0.6643 -0.1007 -0.3545
  880MPD2    H712915   4.457   4.585   0.360 -0.2213 -0.1989 -1.0818
  881MPD2     C12916   4.154   0.556  17.563 -0.1580  0.1317  0.4936
  881MPD2    C112917   4.230   0.442  17.566  0.0362 -0.0834  0.3593
  881MPD2    C212918   4.228   0.366  17.681 -0.3360 -0.1322 -1.1443
  881MPD2    C312919   4.168   0.410   0.108  0.2535 -0.3487 -0.2026
  881MPD2    C412920   4.122   0.536   0.111  0.6827 -0.1252 -0.2693
  881MPD2    C512921   4.119   0.608  17.682  0.1303  0.4408  1.0127
  881MPD2     H12922   4.270   0.267   0.002  0.1075  0.2337  1.8190
  881MPD2    H112923   4.080   0.579   0.201 -0.8847 -2.4967  0.1094
  881MPD2    H212924   4.136   0.612  17.472 -4.7853 -4.0333 -1.1795
  881MPD2    H312925   4.078   0.708  17.675  0.4333  0.5267  0.4382
  881MPD2     N12926   4.160   0.336   0.232 -0.2581 -0.4246 -0.2959
  881MPD2    H512927   4.130   0.392   0.311 -0.0416 -1.4540  0.5366
  881MPD2    N112928   4.244   0.390  17.438 -0.0295  0.3952 -0.0914
  881MPD2    H712929   4.205   0.438  17.357 -0.7284 -0.0497 -0.0129
  882MPD2     C12930   2.234   2.180  14.164  0.2383 -0.1071  0.3276
  882MPD2    C112931   2.163   2.131  14.280 -0.6710  0.9502 -0.0677
  882MPD2    C212932   2.029   2.106  14.280  0.1706 -0.0831 -0.5749
  882MPD2    C312933   1.960   2.150  14.172  0.1605 -0.5103  0.5836
  882MPD2    C412934   2.024   2.198  14.053 -0.2237  0.1233  0.5010
  882MPD2    C512935   2.165   2.209  14.051  0.2138  0.4696 -0.7192
  882MPD2     H12936   1.984   2.072  14.373  2.6113 -0.6853  0.3937
  882MPD2    H112937   1.971   2.235  13.966  0.5779  1.6161  0.6574
  882MPD2    H212938   2.342   2.183  14.171  0.2426  0.6618 -0.1466
  882MPD2    H312939   2.209   2.257  13.964  1.7284 -0.9754 -0.7560
  882MPD2     N12940   1.821   2.139  14.162  0.3419  0.2780 -0.2461
  882MPD2    H512941   1.782   2.176  14.076  1.4678  0.9827 -0.4594
  882MPD2    N112942   2.242   2.127  14.395  0.0632 -0.3647  0.1206
  882MPD2    H712943   2.339   2.148  14.372  0.0365  0.2517  0.5567
  883MPD2     C12944   4.067   2.212  16.237 -0.0533 -0.0253 -0.1867
  883MPD2    C112945   4.151   2.171  16.138  0.2689  0.9448 -0.4339
  883MPD2    C212946   4.282   2.144  16.174 -1.3969 -0.3464 -0.4188
  883MPD2    C312947   4.326   2.149  16.305 -0.2267  0.4449 -0.8623
  883MPD2    C412948   4.239   2.197  16.400  0.0025 -1.3167  0.4942
  883MPD2    C512949   4.107   2.227  16.369 -0.2506  0.0354  0.2859
  883MPD2     H12950   4.349   2.104  16.097 -0.9962 -1.4185  0.4864
  883MPD2    H112951   4.253   2.192  16.507  3.6293  2.9133  0.2173
  883MPD2    H212952   3.961   2.227  16.218 -0.1067 -1.8282 -1.2619
  883MPD2    H312953   4.032   2.246  16.445  0.7563 -0.2313  1.3546
  883MPD2     N12954   4.462   2.116  16.331  0.4666  1.1274  0.1388
  883MPD2    H512955   4.515   2.099  16.246 -1.8614 -0.5506 -0.9806
  883MPD2    N112956   4.112   2.145  16.003 -0.5496  0.1671  0.1416
  883MPD2    H712957   4.177   2.106  15.935 -1.3695  3.3568 -2.4525
  884MPD2     C12958   1.460   2.421  15.477 -0.3058 -0.4516  0.5360
  884MPD2    C112959   1.410   2.487  15.364 -0.5893 -0.3631 -0.5169
  884MPD2    C212960   1.270   2.486  15.331 -0.9750 -0.1011  0.0146
  884MPD2    C312961   1.187   2.415  15.414  0.7474 -0.2558 -0.9912
  884MPD2    C412962   1.238   2.327  15.513  0.1996  0.2953 -0.5780
  884MPD2    C512963   1.371   2.337  15.544 -0.3050  0.4002 -1.0143
  884MPD2     H12964   1.227   2.552  15.257 -1.6244  0.0525  0.5355
  884MPD2    H112965   1.173   2.268  15.577 -0.1724  0.3416 -0.9140
  884MPD2    H212966   1.562   2.414  15.514 -0.0976  0.5864  0.1499
  884MPD2    H312967   1.409   2.289  15.633 -0.9006  4.4679  1.4240
  884MPD2     N12968   1.044   2.429  15.396 -0.5930  0.2039  0.8865
  884MPD2    H512969   1.015   2.487  15.318 -2.0558 -1.9697 -0.1748
  884MPD2    N112970   1.497   2.566  15.278  0.7101  0.8648 -0.0258
  884MPD2    H712971   1.455   2.592  15.189  0.5294  2.2921  0.4893
  885MPD2     C12972   4.493   3.095   0.170  0.0889  0.4948  0.3040
  885MPD2    C112973   4.443   2.972   0.126 -0.5252  0.7332 -0.2882
  885MPD2    C212974   4.390   2.961  17.679  0.0686 -0.0847  0.3340
  885MPD2    C312975   4.385   3.074  17.598  0.8632  0.3350 -0.7090
  885MPD2    C412976   4.415   3.196  17.653  0.4574 -0.1881 -0.6918
  885MPD2    C512977   4.476   3.204   0.095 -0.4378 -0.0202 -0.7341
  885MPD2     H12978   4.347   2.870  17.637  1.2642 -0.7699  0.5936
  885MPD2    H112979   4.413   3.287  17.594 -0.2564 -0.9455 -1.8346
  885MPD2    H212980   4.523   3.100   0.274  3.1240 -3.2990 -0.3608
  885MPD2    H312981   4.507   3.296   0.143  1.2575 -1.2838  0.6089
  885MPD2     N12982   4.335   3.056  17.464 -0.3031  0.2189  0.0262
  885MPD2    H512983   4.304   2.963  17.438 -1.7364  1.4478 -2.6613
  885MPD2    N112984   4.465   2.865   0.213  0.0430  0.2467  0.3880
  885MPD2    H712985   4.518   2.884   0.298 -2.3814  2.4743  1.3683
  886MPD2     C12986   0.844   1.029  15.648  0.2163 -0.3082 -0.1863
  886MPD2    C112987   0.857   1.015  15.510  0.3851 -0.5551  0.1048
  886MPD2    C212988   0.839   1.127  15.425 -0.4755 -1.0621 -0.4386
  886MPD2    C312989   0.822   1.250  15.488  0.1659  0.5076  0.0449
  886MPD2    C412990   0.834   1.262  15.621  0.0223  0.1067  0.5676
  886MPD2    C512991   0.832   1.148  15.704 -0.0992  0.4088 -0.6321
  886MPD2     H12992   0.838   1.110  15.318 -0.1197 -1.3861 -0.3850
  886MPD2    H112993   0.821   1.357  15.672  2.5059  0.7711 -0.0585
  886MPD2    H212994   0.873   0.944  15.709 -1.5789 -0.5540  0.3306
  886MPD2    H312995   0.843   1.165  15.810  3.4320  0.0797 -0.9475
  886MPD2     N12996   0.819   1.373  15.413  0.3171 -0.3173  0.0732
  886MPD2    H512997   0.823   1.452  15.476  2.3137 -2.1122  2.2175
  886MPD2    N112998   0.903   0.897  15.447 -0.4235  0.2324 -0.3797
  886MPD2    H712999   0.895   0.902  15.346 -2.3898  3.3423 -0.0858
  887MPD2     C13000   1.429   1.131  15.184 -0.4248 -0.0836 -0.2210
  887MPD2    C113001   1.376   1.103  15.301  0.9393 -0.3619  0.3557
  887MPD2    C213002   1.363   1.197  15.400 -0.2547  0.1640  0.0532
  887MPD2    C313003   1.399   1.328  15.380 -0.4002 -0.0326 -0.0369
  887MPD2    C413004   1.453   1.356  15.256  0.6919 -0.0658 -0.4429
  887MPD2    C513005   1.481   1.258  15.156  0.3269  0.4091  0.4016
  887MPD2     H13006   1.327   1.174  15.500 -3.1638  1.1677 -0.7633
  887MPD2    H113007   1.476   1.461  15.244  0.3706 -0.1322 -1.6773
  887MPD2    H213008   1.441   1.071  15.094 -1.6804  0.3035 -0.6472
  887MPD2    H313009   1.527   1.281  15.061  0.0159  0.7206  0.3272
  887MPD2     N13010   1.357   1.428  15.472  0.2413 -0.0034  0.0091
  887MPD2    H513011   1.284   1.401  15.537 -1.1464 -0.0133 -1.5562
  887MPD2    N113012   1.317   0.978  15.321  0.3053  0.1420  0.1121
  887MPD2    H713013   1.247   0.965  15.393 -1.4849  1.4656 -1.3815
  888MPD2     C13014   3.185   1.411  14.804 -0.5161  0.7015  0.6517
  888MPD2    C113015   3.139   1.435  14.930 -0.5834  0.1588  0.6584
  888MPD2    C213016   3.216   1.504  15.019 -0.8071 -0.8634 -0.2110
  888MPD2    C313017   3.325   1.576  14.975  0.9644 -0.0802  0.2157
  888MPD2    C413018   3.374   1.545  14.847  0.2706  0.7218  0.3125
  888MPD2    C513019   3.309   1.456  14.767 -0.2784  0.3894 -0.6273
  888MPD2     H13020   3.178   1.527  15.118 -0.4139 -1.9468  0.1900
  888MPD2    H113021   3.460   1.590  14.799  0.2163  0.8050  0.2928
  888MPD2    H213022   3.144   1.343  14.731 -1.1900  2.1231 -0.3107
  888MPD2    H313023   3.347   1.432  14.669  1.7130  0.7529  0.0589
  888MPD2     N13024   3.385   1.663  15.064  0.0305 -0.6696 -0.1623
  888MPD2    H513025   3.335   1.691  15.148 -0.0397 -0.6770 -0.2028
  888MPD2    N113026   3.013   1.390  14.968 -0.0498  0.0639  0.4032
  888MPD2    H713027   2.982   1.404  15.063  1.2141  0.1362  0.8087
  889MPD2     C13028   2.991   0.198  12.887  0.1926  0.0837 -0.8087
  889MPD2    C113029   2.942   0.270  12.996 -0.0927 -0.2142  0.4180
  889MPD2    C213030   2.968   0.406  12.991 -0.0890  0.5041  0.5190
  889MPD2    C313031   2.982   0.469  12.873  0.4557  0.2483 -0.4155
  889MPD2    C413032   3.007   0.392  12.757 -0.0358 -0.4559 -0.9941
  889MPD2    C513033   3.011   0.261  12.769  0.4319  0.2754  0.3124
  889MPD2     H13034   2.944   0.458  13.083 -0.4071 -3.2406  2.5653
  889MPD2    H113035   3.032   0.437  12.662 -1.3081 -0.6301 -1.4131
  889MPD2    H213036   2.968   0.092  12.886  0.7871 -0.0668  0.9934
  889MPD2    H313037   3.032   0.202  12.681  0.8216 -1.8428  1.8126
  889MPD2     N13038   2.990   0.613  12.875 -0.2370 -0.3170  0.6870
  889MPD2    H513039   2.972   0.651  12.968  0.7988 -0.4784  0.9470
  889MPD2    N113040   2.924   0.209  13.125 -0.3382 -0.8188  0.1069
  889MPD2    H713041   2.901   0.271  13.201  2.2520  0.3611 -0.0656
  890MPD2     C13042   2.249   2.646  14.726  0.6649 -0.3633  0.1867
  890MPD2    C113043   2.368   2.630  14.788 -0.3271 -0.6621  0.1658
  890MPD2    C213044   2.377   2.560  14.904  1.2416 -0.0632 -0.2885
  890MPD2    C313045   2.258   2.503  14.953  0.3872  0.1812  0.4975
  890MPD2    C413046   2.145   2.504  14.879  0.2048 -0.0932 -0.0764
  890MPD2    C513047   2.131   2.583  14.768 -0.3822  0.1885 -0.4952
  890MPD2     H13048   2.469   2.556  14.961  2.1062  1.8528 -1.5207
  890MPD2    H113049   2.059   2.444  14.907  0.0717 -0.2200 -0.7679
  890MPD2    H213050   2.239   2.699  14.632  2.9047  0.7413  0.5757
  890MPD2    H313051   2.043   2.576  14.706 -0.0630  0.9705 -1.0491
  890MPD2     N13052   2.259   2.449  15.082 -0.0061  0.8662 -0.3537
  890MPD2    H513053   2.340   2.459  15.142  0.4609 -2.0420 -0.4969
  890MPD2    N113054   2.479   2.688  14.717 -0.3250  0.0692  0.1843
  890MPD2    H713055   2.471   2.708  14.618 -2.7492  0.6898  0.5112
  891MPD2     C13056   0.332   1.218  16.235 -0.3795 -0.1225 -0.2286
  891MPD2    C113057   0.254   1.257  16.346  0.0605  0.0729 -0.5666
  891MPD2    C213058   0.306   1.217  16.466 -0.6746 -1.0267  0.2484
  891MPD2    C313059   0.422   1.139  16.480 -0.8956  0.5084 -0.0069
  891MPD2    C413060   0.498   1.106  16.367 -0.2852 -0.0058  0.1146
  891MPD2    C513061   0.452   1.151  16.247  0.0563 -0.6288 -0.2598
  891MPD2     H13062   0.246   1.227  16.555 -1.0634  1.9219 -0.3412
  891MPD2    H113063   0.585   1.042  16.373  0.7904  1.4713  0.0963
  891MPD2    H213064   0.308   1.252  16.135  2.6114 -1.0589 -1.2537
  891MPD2    H313065   0.510   1.127  16.159  2.0937  0.6521  0.7338
  891MPD2     N13066   0.459   1.090  16.608  0.7102  0.5763 -0.1257
  891MPD2    H513067   0.387   1.094  16.679  2.8950 -3.1563  2.3288
  891MPD2    N113068   0.132   1.330  16.333 -0.0851 -1.0429 -0.7472
  891MPD2    H713069   0.114   1.356  16.236 -0.0524 -0.4950 -0.6066
  892MPD2     C13070   1.335   2.147  15.020 -0.7541 -0.2984  0.6965
  892MPD2    C113071   1.237   2.122  14.928  0.0428  0.2447  0.0990
  892MPD2    C213072   1.265   2.121  14.794  0.1973 -0.3044  0.5027
  892MPD2    C313073   1.398   2.130  14.751  0.3018  0.0209  0.7416
  892MPD2    C413074   1.501   2.134  14.847  0.4132 -0.0610 -0.4021
  892MPD2    C513075   1.468   2.156  14.978  0.6751  0.4378  0.6875
  892MPD2     H13076   1.180   2.118  14.727 -1.0800  1.5102  2.0279
  892MPD2    H113077   1.606   2.143  14.825  0.4475 -2.1772 -1.1331
  892MPD2    H213078   1.321   2.159  15.127  2.5403  0.7024  1.0206
  892MPD2    H313079   1.547   2.187  15.045  0.2912 -0.0799  1.3836
  892MPD2     N13080   1.433   2.135  14.611  0.2509  0.2531  0.7527
  892MPD2    H513081   1.529   2.143  14.578 -0.3257 -2.2883 -1.4957
  892MPD2    N113082   1.102   2.094  14.952 -0.6205  0.2546 -0.9054
  892MPD2    H713083   1.047   2.080  14.867 -3.7739  1.8649  0.8802
  893MPD2     C13084   3.126   0.409   1.522 -0.1533 -0.5665  0.8728
  893MPD2    C113085   3.100   0.427   1.657 -0.5424 -0.6955 -0.2083
  893MPD2    C213086   2.973   0.408   1.706  0.0924  0.4541 -0.7899
  893MPD2    C313087   2.865   0.374   1.628  0.3314 -0.2104  0.5446
  893MPD2    C413088   2.892   0.354   1.492 -0.0140 -0.7188  0.2756
  893MPD2    C513089   3.022   0.368   1.440 -0.0795 -0.1427  1.3466
  893MPD2     H13090   2.958   0.425   1.812 -1.5619  1.8970 -1.2693
  893MPD2    H113091   2.823   0.319   1.416  0.3250 -1.7178  0.4209
  893MPD2    H213092   3.223   0.433   1.480 -0.2433 -0.0934  0.9420
  893MPD2    H313093   3.034   0.360   1.333 -0.5001  2.9560  1.0769
  893MPD2     N13094   2.732   0.350   1.673 -0.3676  0.7407 -0.0930
  893MPD2    H513095   2.662   0.332   1.601  0.9890 -2.3780 -0.6217
  893MPD2    N113096   3.210   0.481   1.730 -0.3302  0.5609  0.4318
  893MPD2    H713097   3.300   0.480   1.684 -0.9742  2.5876 -0.8829
  894MPD2     C13098   1.310   3.102   1.117 -0.1014 -0.0999 -0.2051
  894MPD2    C113099   1.346   3.056   1.242  0.8433 -0.0956 -0.3916
  894MPD2    C213100   1.433   3.134   1.310  0.3192 -0.0020 -0.0182
  894MPD2    C313101   1.478   3.258   1.271 -0.1960 -0.2240 -0.0993
  894MPD2    C413102   1.440   3.297   1.145 -0.3331  0.5321 -0.4511
  894MPD2    C513103   1.355   3.222   1.078 -0.1080 -0.5068 -0.4669
  894MPD2     H13104   1.468   3.107   1.409 -0.1297  0.7534  0.3447
  894MPD2    H113105   1.481   3.379   1.088  1.2184  0.7740  0.9963
  894MPD2    H213106   1.239   3.051   1.052  3.7386 -0.7562 -3.9195
  894MPD2    H313107   1.313   3.250   0.982 -2.0316 -1.3283  0.1316
  894MPD2     N13108   1.548   3.345   1.360 -0.7315  0.0159  0.4589
  894MPD2    H513109   1.562   3.314   1.456 -2.3155  2.1483  1.3738
  894MPD2    N113110   1.300   2.930   1.295  0.7730 -0.1342 -0.1648
  894MPD2    H713111   1.351   2.899   1.377 -0.7649 -2.2806 -0.0285
  895MPD2     C13112   4.693   1.247  13.873 -0.6371  0.5337  1.1135
  895MPD2    C113113   4.692   1.341  13.775 -0.3289  0.3043  0.4230
  895MPD2    C213114   0.087   1.375  13.705  0.0898  0.1294  0.6961
  895MPD2    C313115   0.197   1.283  13.715  0.7148 -0.1307 -0.2054
  895MPD2    C413116   0.198   1.177  13.804 -0.0660 -0.0395  0.2454
  895MPD2    C513117   0.087   1.169  13.888 -0.6664 -0.0236  0.5626
  895MPD2     H13118   0.087   1.444  13.621 -1.3567 -0.2905  0.3658
  895MPD2    H113119   0.273   1.099  13.808 -2.2321 -2.1594 -0.8700
  895MPD2    H213120   4.611   1.242  13.944 -2.8037  2.7019 -1.2492
  895MPD2    H313121   0.085   1.097  13.969 -2.4615  0.0728  0.5948
  895MPD2     N13122   0.303   1.287  13.619 -0.3597  0.0745  0.5537
  895MPD2    H513123   0.357   1.202  13.615 -0.3381  0.1818 -1.7591
  895MPD2    N113124   4.570   1.417  13.763 -0.5914  0.0307 -0.0956
  895MPD2    H713125   4.490   1.380  13.815  0.2222  3.8069  3.7925
  896MPD2     C13126   3.034   3.534   1.928  0.0299 -0.2373  0.4576
  896MPD2    C113127   3.021   3.614   1.812 -0.9366 -0.2233 -0.5963
  896MPD2    C213128   2.930   3.564   1.716 -0.2510 -1.1056 -0.9619
  896MPD2    C313129   2.863   3.444   1.733  1.0078  0.2135 -0.2051
  896MPD2    C413130   2.891   3.361   1.843  0.4281  0.5867  0.2087
  896MPD2    C513131   2.970   3.414   1.941  0.2507 -0.0239  0.2056
  896MPD2     H13132   2.910   3.627   1.630 -0.0393 -1.4588 -1.2654
  896MPD2    H113133   2.846   3.263   1.853  2.1950 -0.2075  0.3529
  896MPD2    H213134   3.107   3.566   2.001  1.8996  0.3795 -1.6588
  896MPD2    H313135   2.997   3.343   2.019 -1.7450 -0.8561  0.1235
  896MPD2     N13136   2.755   3.423   1.641 -0.2210 -0.6629 -0.1424
  896MPD2    H513137   2.738   3.505   1.582 -3.5493 -0.6196  0.8750
  896MPD2    N113138   3.094   3.728   1.804 -0.8125 -0.2774 -0.3050
  896MPD2    H713139   3.144   3.759   1.886  2.0529 -2.9040 -1.0278
  897MPD2     C13140   4.132   0.370  10.045 -0.5623  0.6137 -0.3273
  897MPD2    C113141   4.064   0.474  10.116  0.0513 -0.5041 -0.0334
  897MPD2    C213142   3.975   0.438  10.218 -0.4527  0.5954 -0.1450
  897MPD2    C313143   3.971   0.307  10.268  0.9701  0.0885  0.8768
  897MPD2    C413144   4.049   0.207  10.202  0.4264  0.5098  0.6071
  897MPD2    C513145   4.129   0.242  10.097 -0.2445 -0.0434  0.3631
  897MPD2     H13146   3.922   0.519  10.267  0.0081  1.5981 -1.3098
  897MPD2    H113147   4.048   0.104  10.236  1.2912  0.8411  1.6415
  897MPD2    H213148   4.196   0.388   9.959  0.3066 -0.5342  0.0768
  897MPD2    H313149   4.176   0.164  10.038  3.4484 -2.2097  6.2535
  897MPD2     N13150   3.869   0.273  10.360  0.0383 -0.1070 -0.0803
  897MPD2    H513151   3.803   0.348  10.381  1.7947  1.5811 -0.6377
  897MPD2    N113152   4.077   0.604  10.066  0.5531  0.0597 -0.2032
  897MPD2    H713153   4.132   0.611   9.981  1.5503  0.1554  0.4558
  898MPD2     C13154   1.015   1.559   0.193  0.4813 -0.2299 -0.4127
  898MPD2    C113155   1.138   1.620   0.164  0.2518  0.0673 -0.5008
  898MPD2    C213156   1.130   1.705   0.058  0.4018  0.3791  0.2724
  898MPD2    C313157   1.015   1.731  17.671  0.0787 -0.4631 -0.2858
  898MPD2    C413158   0.901   1.656   0.010 -0.0020  0.4698  0.0246
  898MPD2    C513159   0.907   1.581   0.119  0.7804 -0.9857 -0.0577
  898MPD2     H13160   1.221   1.758   0.032 -0.1595  1.1590 -0.0738
  898MPD2    H113161   0.805   1.660  17.646  0.2836  1.9115 -0.4100
  898MPD2    H213162   1.014   1.478   0.265  2.1507  1.3134  1.3485
  898MPD2    H313163   0.818   1.523   0.143 -2.5034  2.8135 -3.0653
  898MPD2     N13164   1.022   1.821  17.563 -0.4456  0.2830 -0.5078
  898MPD2    H513165   1.112   1.863  17.540  0.2452 -1.7306 -1.4068
  898MPD2    N113166   1.264   1.593   0.224  0.2327 -0.0662 -0.2178
  898MPD2    H713167   1.341   1.647   0.185  1.4302 -1.5871  0.0233
  899MPD2     C13168   1.693   2.121   0.189 -0.6144  0.0829 -0.0455
  899MPD2    C113169   1.612   2.235   0.163  0.4719  0.4321 -0.6923
  899MPD2    C213170   1.500   2.259   0.237  0.1951  0.0129  0.7985
  899MPD2    C313171   1.461   2.168   0.333 -0.4240  0.5624  0.2644
  899MPD2    C413172   1.540   2.061   0.365 -0.0402 -0.4965  0.2348
  899MPD2    C513173   1.655   2.035   0.291  0.0473  0.3590 -0.4492
  899MPD2     H13174   1.437   2.345   0.217 -0.1936  0.0727  2.2937
  899MPD2    H113175   1.495   1.992   0.436  1.2054 -2.0819 -0.5105
  899MPD2    H213176   1.771   2.093   0.119  0.0613  1.1817  0.2681
  899MPD2    H313177   1.718   1.948   0.305  1.5798  1.3018 -1.4975
  899MPD2     N13178   1.341   2.180   0.411  0.5771  0.6059  0.0197
  899MPD2    H513179   1.319   2.112   0.482 -0.0216 -0.3059 -1.0365
  899MPD2    N113180   1.620   2.320   0.053  0.6123 -0.3844 -0.2755
  899MPD2    H713181   1.554   2.397   0.052  1.9568  0.7648  0.1464
  900MPD2     C13182   1.788   3.858  12.419 -0.3375  0.0072 -0.2044
  900MPD2    C113183   1.713   3.747  12.414 -0.4698 -0.4667  1.0927
  900MPD2    C213184   1.580   3.759  12.385  0.5210 -0.3531 -0.1358
  900MPD2    C313185   1.525   3.888  12.365  0.0585 -0.3226  0.5999
  900MPD2    C413186   1.600   4.005  12.365 -0.3294  0.6804  0.4635
  900MPD2    C513187   1.730   3.982  12.394 -0.4370 -0.7568 -0.6262
  900MPD2     H13188   1.525   3.671  12.351  1.5827 -0.2581 -2.1279
  900MPD2    H113189   1.569   4.107  12.348 -0.8052  0.5741  0.6893
  900MPD2    H213190   1.893   3.856  12.445  0.0454 -1.2914 -1.8099
  900MPD2    H313191   1.799   4.065  12.396 -0.7053 -0.4543 -3.9403
  900MPD2     N13192   1.400   3.891  12.308  0.1864 -0.0449 -0.5253
  900MPD2    H513193   1.366   3.800  12.278 -0.4491 -0.5816  1.8032
  900MPD2    N113194   1.768   3.616  12.440  0.0624  0.3440 -0.1423
  900MPD2    H713195   1.867   3.610  12.459  0.0209 -0.3229 -0.1595
  901MPD2     C13196   1.944   2.711  12.961 -0.1215 -0.1038  0.2238
  901MPD2    C113197   1.976   2.670  12.832 -0.0998 -0.5886 -0.9470
  901MPD2    C213198   1.940   2.762  12.730 -0.0775 -0.0392  0.5719
  901MPD2    C313199   1.876   2.883  12.762 -0.4771  0.2072  0.3194
  901MPD2    C413200   1.852   2.919  12.895 -0.1771 -0.2782 -0.0022
  901MPD2    C513201   1.896   2.837  12.995 -0.3251 -0.0959 -0.5512
  901MPD2     H13202   1.960   2.737  12.627 -0.0773  0.4374  0.4565
  901MPD2    H113203   1.813   3.016  12.922  0.6844  0.3799 -1.1270
  901MPD2    H213204   1.970   2.642  13.041 -1.9375  0.7775  1.5695
  901MPD2    H313205   1.874   2.866  13.097  2.3703 -1.9787  0.5631
  901MPD2     N13206   1.832   2.972  12.653 -0.2294  0.1471  0.2215
  901MPD2    H513207   1.855   2.946  12.557 -0.3730  0.5673  0.0730
  901MPD2    N113208   2.045   2.548  12.801  0.5174 -0.3849 -0.1667
  901MPD2    H713209   2.041   2.480  12.876 -2.6927  0.1944  0.2204
  902MPD2     C13210   0.613   1.587  13.195 -0.3487  0.1543 -1.2050
  902MPD2    C113211   0.520   1.606  13.099  0.0485  0.6119 -0.1049
  902MPD2    C213212   0.533   1.537  12.975 -0.0203  0.4036  0.7224
  902MPD2    C313213   0.626   1.434  12.961 -0.1242  0.1606 -0.8173
  902MPD2    C413214   0.722   1.423  13.060  0.2413  0.7513 -0.6245
  902MPD2    C513215   0.710   1.492  13.172  0.6405 -0.0413  0.2690
  902MPD2     H13216   0.471   1.562  12.890  2.5457 -1.5212 -1.6681
  902MPD2    H113217   0.810   1.363  13.043  0.7743  1.6870 -1.1662
  902MPD2    H213218   0.629   1.653  13.279  2.9334 -3.5403  1.0678
  902MPD2    H313219   0.791   1.490  13.244 -0.1679 -1.2093  1.1431
  902MPD2     N13220   0.651   1.356  12.842  0.4270  0.6135  0.4659
  902MPD2    H513221   0.741   1.312  12.827 -0.1963 -0.1919 -0.8472
  902MPD2    N113222   0.439   1.714  13.116 -0.5263 -0.3696  0.2064
  902MPD2    H713223   0.450   1.766  13.202 -2.0916 -0.6570  0.5846
  903MPD2     C13224   0.942   1.528  12.129 -0.5198 -0.4344 -0.3477
  903MPD2    C113225   0.810   1.491  12.161  0.1409 -0.0968  0.7543
  903MPD2    C213226   0.705   1.541  12.098  0.1186 -0.2256 -0.2468
  903MPD2    C313227   0.727   1.637  12.006  0.2689 -0.0396 -0.3522
  903MPD2    C413228   0.857   1.670  11.964  0.0303  0.3342  0.3738
  903MPD2    C513229   0.968   1.621  12.030  0.2625  0.2699  0.5074
  903MPD2     H13230   0.601   1.519  12.119  0.7702 -2.0611  1.0996
  903MPD2    H113231   0.873   1.757  11.902  0.0324 -0.4291 -0.7108
  903MPD2    H213232   1.028   1.490  12.182  1.0171  1.6826 -1.3337
  903MPD2    H313233   1.069   1.654  12.011 -0.7799  1.3572 -3.0766
  903MPD2     N13234   0.614   1.699  11.960  0.0940 -0.4971  0.1049
  903MPD2    H513235   0.528   1.675  12.008  0.4453 -0.4141  0.7739
  903MPD2    N113236   0.776   1.402  12.264  0.0885 -0.5762 -0.3384
  903MPD2    H713237   0.676   1.385  12.273 -0.2626  0.8335 -1.7728
  904MPD2     C13238   0.732   0.419  13.808 -0.0413  0.1693  0.3166
  904MPD2    C113239   0.669   0.506  13.904 -0.9106  0.8906 -0.3203
  904MPD2    C213240   0.755   0.559  13.995 -0.1641 -0.1043  0.5565
  904MPD2    C313241   0.894   0.527  14.006 -0.6562 -0.0190  0.3046
  904MPD2    C413242   0.950   0.448  13.908 -0.2941 -0.2848  0.6835
  904MPD2    C513243   0.867   0.382  13.823  0.3282  0.4946  0.0750
  904MPD2     H13244   0.715   0.621  14.074  0.9698  0.7030  0.4959
  904MPD2    H113245   1.056   0.423  13.905 -0.1621 -0.0078  3.4078
  904MPD2    H213246   0.667   0.376  13.733 -1.1728  1.5372  0.5188
  904MPD2    H313247   0.910   0.317  13.749 -0.6051 -1.2672  1.0835
  904MPD2     N13248   0.965   0.587  14.113  0.2423  0.5255 -0.5226
  904MPD2    H513249   0.915   0.631  14.189  0.6159  0.6883 -0.3735
  904MPD2    N113250   0.535   0.545  13.895  0.1942  0.3825 -0.8843
  904MPD2    H713251   0.500   0.610  13.965 -1.7864  0.1424 -1.6570
  905MPD2     C13252   4.654   1.064  13.490 -0.0095 -0.0335  0.0924
  905MPD2    C113253   0.042   0.991  13.482  0.1310  0.7992 -0.6109
  905MPD2    C213254   0.147   1.040  13.403  0.1552 -0.6130  0.4965
  905MPD2    C313255   0.125   1.148  13.320 -0.2608  0.0440  0.0734
  905MPD2    C413256   0.015   1.225  13.342  0.3365 -0.1932 -0.6685
  905MPD2    C513257   4.637   1.182  13.427 -0.3233  0.0261 -0.7374
  905MPD2     H13258   0.247   0.999  13.415  0.4655  0.1256  0.4231
  905MPD2    H113259   0.002   1.322  13.295  1.4694  0.2250 -0.1003
  905MPD2    H213260   4.577   1.036  13.562  0.2826  0.3626  0.5566
  905MPD2    H313261   4.555   1.246  13.456  0.5762  1.1223 -0.5995
  905MPD2     N13262   0.226   1.197  13.230  0.3142  0.0386  0.0306
  905MPD2    H513263   0.203   1.279  13.175  0.1032 -0.5883 -0.8101
  905MPD2    N113264   0.046   0.878  13.564  0.0205 -0.5262 -0.9759
  905MPD2    H713265   4.680   0.855  13.611  1.7362 -0.3430  2.2288
  906MPD2     C13266   2.465   0.674  11.189 -0.6964 -0.0931  0.2410
  906MPD2    C113267   2.434   0.553  11.130 -0.0363 -0.2049  0.6082
  906MPD2    C213268   2.344   0.469  11.196  0.2680 -0.5810 -0.0751
  906MPD2    C313269   2.281   0.515  11.318  0.6188 -0.0193 -0.0355
  906MPD2    C413270   2.316   0.635  11.375  0.0338 -0.3794 -0.3263
  906MPD2    C513271   2.404   0.717  11.310  0.0696  0.3383  0.4182
  906MPD2     H13272   2.334   0.366  11.163  3.1864 -0.6577 -0.7427
  906MPD2    H113273   2.252   0.660  11.459 -1.2170 -1.4273 -0.9689
  906MPD2    H213274   2.522   0.754  11.143 -1.9044 -0.2709 -1.5926
  906MPD2    H313275   2.401   0.822  11.338 -1.9529  0.2136  0.7255
  906MPD2     N13276   2.191   0.435  11.388  0.3062 -0.1536  0.1007
  906MPD2    H513277   2.156   0.472  11.475  2.7151 -0.8667  1.3743
  906MPD2    N113278   2.489   0.509  11.010 -0.0738  0.1724  0.0103
  906MPD2    H713279   2.448   0.424  10.974 -0.7559  0.6605 -0.3643
  907MPD2     C13280   1.274   4.573  15.427 -0.0031 -0.5806  0.2199
  907MPD2    C113281   1.297   4.437  15.435 -0.8801 -0.2413  0.2950
  907MPD2    C213282   1.327   4.380  15.562 -0.1582 -0.3457  0.1536
  907MPD2    C313283   1.343   4.456  15.676  0.0608  0.1702 -0.0380
  907MPD2    C413284   1.326   4.592  15.665  0.2817  0.1854 -0.0677
  907MPD2    C513285   1.289   4.647  15.545  0.5188  0.2106  0.2581
  907MPD2     H13286   1.332   4.273  15.572  1.4011 -0.3851 -1.1119
  907MPD2    H113287   1.343   4.654  15.752  0.3986  0.0294  0.0210
  907MPD2    H213288   1.245   4.628  15.338  1.6214 -0.0197  0.0408
  907MPD2    H313289   1.274   0.033  15.531  0.1213  0.2742  1.1580
  907MPD2     N13290   1.385   4.392  15.795 -0.2895  0.3607 -0.1140
  907MPD2    H513291   1.431   4.303  15.781 -1.5027 -0.1647 -0.8436
  907MPD2    N113292   1.294   4.347  15.328  0.4933  0.8531 -0.5348
  907MPD2    H713293   1.300   4.246  15.340  0.0483  0.8117 -0.6703
  908MPD2     C13294   3.637   0.515   9.456 -0.1892  0.9235 -1.0364
  908MPD2    C113295   3.772   0.485   9.445  0.2551  0.0861 -0.4978
  908MPD2    C213296   3.857   0.579   9.504 -0.7392 -0.0844 -0.2548
  908MPD2    C313297   3.817   0.691   9.573 -0.3270  0.2719  0.9299
  908MPD2    C413298   3.685   0.714   9.578 -0.0228  0.0711 -0.3365
  908MPD2    C513299   3.598   0.633   9.517 -0.4510 -0.1889 -0.0931
  908MPD2     H13300   3.964   0.563   9.498 -1.0077 -2.8640  2.4267
  908MPD2    H113301   3.637   0.798   9.626  1.2250  1.7906 -2.1095
  908MPD2    H213302   3.545   0.468   9.424 -0.1372 -1.2087  1.9096
  908MPD2    H313303   3.492   0.650   9.531 -0.0385  0.0018  2.7919
  908MPD2     N13304   3.910   0.772   9.643  0.2089  1.0151  0.8445
  908MPD2    H513305   4.008   0.746   9.638  0.0834  0.5498  0.8794
  908MPD2    N113306   3.818   0.380   9.365  0.2892 -0.1865  0.5834
  908MPD2    H713307   3.918   0.373   9.349  0.0062 -3.3475  0.1889
  909MPD2     C13308   3.779   3.279  11.982  0.1871 -1.0729  0.5863
  909MPD2    C113309   3.785   3.400  11.910 -0.1731  0.5150 -0.0135
  909MPD2    C213310   3.716   3.506  11.957  1.2053 -0.2097  0.0288
  909MPD2    C313311   3.633   3.492  12.065  0.0521 -0.3613  0.6987
  909MPD2    C413312   3.611   3.369  12.121  0.1375  0.0640 -0.4919
  909MPD2    C513313   3.684   3.262  12.079  0.1135 -0.3469 -1.0847
  909MPD2     H13314   3.743   3.600  11.911 -2.1296 -0.3385 -2.2377
  909MPD2    H113315   3.556   3.354  12.213  1.4576 -1.3084  0.0811
  909MPD2    H213316   3.843   3.195  11.959 -0.4770 -0.9448 -1.7880
  909MPD2    H313317   3.677   3.171  12.136  1.9021 -0.6757 -1.4050
  909MPD2     N13318   3.549   3.604  12.097  0.1813  0.1302  1.1168
  909MPD2    H513319   3.573   3.693  12.056  2.8673  0.1900  2.8490
  909MPD2    N113320   3.882   3.425  11.810 -0.0359  0.0089  0.0077
  909MPD2    H713321   3.883   3.522  11.781 -1.2013 -0.2860 -1.0441
  910MPD2     C13322   0.809   0.202  15.656  0.5770  0.5197  0.8607
  910MPD2    C113323   0.915   0.124  15.627  0.1789  0.4912  0.2354
  910MPD2    C213324   0.994   0.158  15.515  0.1124 -0.0041 -0.1116
  910MPD2    C313325   0.955   0.263  15.429  0.2791 -0.0939 -0.2859
  910MPD2    C413326   0.839   0.330  15.454 -0.9544 -0.2070  0.5798
  910MPD2    C513327   0.777   0.301  15.570  0.3942  0.1652  0.1644
  910MPD2     H13328   1.076   0.096  15.481  1.2097  0.3924  1.8518
  910MPD2    H113329   0.808   0.414  15.392 -1.3185 -0.9003 -0.1697
  910MPD2    H213330   0.749   0.177  15.743 -2.8256 -1.6407 -2.0932
  910MPD2    H313331   0.691   0.363  15.596 -1.2184 -1.9247 -0.2489
  910MPD2     N13332   1.031   0.314  15.326 -0.4077 -0.3140  0.7720
  910MPD2    H513333   0.992   0.392  15.275  0.5512  0.3407  1.0322
  910MPD2    N113334   0.956   0.008  15.696  0.3815 -0.0723 -0.0904
  910MPD2    H713335   1.036   4.676  15.662  1.2040 -0.1076  1.8416
  911MPD2     C13336   3.056   1.087  16.112  0.6950  0.2465  0.4966
  911MPD2    C113337   3.081   1.208  16.170  0.3631 -0.3621 -0.0856
  911MPD2    C213338   2.982   1.307  16.185 -0.0826  0.5628  0.1171
  911MPD2    C313339   2.854   1.277  16.141 -0.3622 -0.4799  0.5985
  911MPD2    C413340   2.824   1.155  16.089  0.5153  0.4604  0.7226
  911MPD2    C513341   2.922   1.068  16.079  0.0233  0.3029 -1.2377
  911MPD2     H13342   3.009   1.407  16.217 -2.6198  1.1380  0.3952
  911MPD2    H113343   2.721   1.129  16.072  1.2227 -0.1244 -2.5961
  911MPD2    H213344   3.137   1.016  16.096 -0.0462  0.1306 -2.5595
  911MPD2    H313345   2.898   0.980  16.020  1.5772 -0.5091 -0.6772
  911MPD2     N13346   2.753   1.366  16.130  0.5046  0.0376 -0.2131
  911MPD2    H513347   2.672   1.341  16.074  0.4493 -0.7379  0.2224
  911MPD2    N113348   3.221   1.226  16.194  0.2570  0.6381  0.0010
  911MPD2    H713349   3.281   1.150  16.163  0.3654  1.1904 -1.1487
  912MPD2     C13350   2.430   1.040  15.682 -0.5571 -0.7714  0.0249
  912MPD2    C113351   2.457   1.082  15.810  0.1604 -0.2622  0.4119
  912MPD2    C213352   2.463   0.986  15.915 -0.1276 -0.2074 -0.1057
  912MPD2    C313353   2.447   0.852  15.884 -0.3999  0.6987  0.6110
  912MPD2    C413354   2.426   0.813  15.757 -0.0345 -0.1757 -0.0120
  912MPD2    C513355   2.419   0.908  15.657  0.9602  0.3695  0.3606
  912MPD2     H13356   2.505   1.016  16.011 -0.9858 -2.6301  1.0117
  912MPD2    H113357   2.412   0.710  15.726  0.8845  0.1906 -1.6167
  912MPD2    H213358   2.403   1.114  15.608 -0.3410  0.5657  1.2604
  912MPD2    H313359   2.395   0.887  15.553  0.2648  0.8371  0.4244
  912MPD2     N13360   2.459   0.754  15.984  0.3840  0.5748 -0.2719
  912MPD2    H513361   2.477   0.794  16.076 -0.6927 -1.4084  0.7841
  912MPD2    N113362   2.473   1.223  15.818  0.6952  0.0257  0.2105
  912MPD2    H713363   2.467   1.278  15.733 -0.1670  0.7240  0.7241
  913MPD2     C13364   3.969   1.739   9.676 -0.3001 -0.2324  1.0841
  913MPD2    C113365   4.005   1.852   9.751  0.7086 -0.7271 -0.5362
  913MPD2    C213366   3.983   1.978   9.696 -0.2491 -0.4361 -0.3427
  913MPD2    C313367   3.916   1.994   9.571  0.6342 -0.0836  0.3805
  913MPD2    C413368   3.905   1.878   9.485 -0.1410 -0.0299 -0.6331
  913MPD2    C513369   3.928   1.755   9.547  0.4265  1.2630  0.7097
  913MPD2     H13370   4.015   2.065   9.751 -2.8877  0.3504 -0.0597
  913MPD2    H113371   3.869   1.889   9.384 -1.5990 -0.3806 -0.1499
  913MPD2    H213372   3.961   1.634   9.704 -0.6434 -0.9889 -1.7822
  913MPD2    H313373   3.906   1.673   9.480  2.2640  0.7622  0.7310
  913MPD2     N13374   3.889   2.121   9.513  1.1308  0.3268 -0.0968
  913MPD2    H513375   3.846   2.129   9.421  2.4847 -0.5711 -0.8107
  913MPD2    N113376   4.044   1.822   9.879 -0.0305  0.5125  0.3474
  913MPD2    H713377   4.045   1.722   9.896  0.6013  0.9730  3.0058
  914MPD2     C13378   2.088   2.595  11.973  0.3553 -0.6802 -0.2284
  914MPD2    C113379   2.073   2.672  12.087  0.0032  0.5292 -0.3273
  914MPD2    C213380   2.093   2.599  12.210 -0.3002 -0.6023 -0.3924
  914MPD2    C313381   2.140   2.468  12.215 -0.0713  0.2572  0.0671
  914MPD2    C413382   2.163   2.405  12.097 -0.6849  0.1129  0.4514
  914MPD2    C513383   2.134   2.470  11.972  0.1508 -0.6616 -0.0512
  914MPD2     H13384   2.075   2.648  12.305  0.3217 -0.4445 -0.3563
  914MPD2    H113385   2.208   2.307  12.089  0.5947  0.6374  1.2629
  914MPD2    H213386   2.073   2.640  11.876  2.7550 -1.1366 -0.8194
  914MPD2    H313387   2.144   2.417  11.878  0.7524 -0.2043 -0.2432
  914MPD2     N13388   2.173   2.414  12.342 -0.3272  0.1991  0.2719
  914MPD2    H513389   2.144   2.466  12.424 -0.0937  0.9926 -0.1500
  914MPD2    N113390   1.993   2.794  12.078 -0.2956  0.3209  0.1444
  914MPD2    H713391   1.977   2.835  11.987  3.0702  0.3575 -0.4581
  915MPD2     C13392   4.096   2.996  16.131 -0.5023 -0.1497  0.0466
  915MPD2    C113393   4.008   3.079  16.063 -0.0009  0.6071  0.6070
  915MPD2    C213394   3.965   3.194  16.123 -0.2030  0.2436  0.0951
  915MPD2    C313395   3.991   3.224  16.250 -0.5885  0.2635 -0.6684
  915MPD2    C413396   4.086   3.148  16.317 -0.5666  0.1851  0.0584
  915MPD2    C513397   4.130   3.030  16.263  0.4325  0.1578 -0.5429
  915MPD2     H13398   3.906   3.265  16.066  0.7446  0.1415 -1.0236
  915MPD2    H113399   4.130   3.172  16.413  2.5824 -0.0031 -1.3387
  915MPD2    H213400   4.148   2.912  16.089 -0.5270 -0.5788  0.8605
  915MPD2    H313401   4.206   2.969  16.310 -0.9597  0.1679  1.6745
  915MPD2     N13402   3.921   3.342  16.299 -0.0514 -0.6495  0.4588
  915MPD2    H513403   3.855   3.399  16.246  1.0880  1.0375  0.8352
  915MPD2    N113404   3.978   3.051  15.931 -0.3269 -0.7869 -0.5189
  915MPD2    H713405   4.031   2.973  15.894  0.6696 -1.4093  2.1959
  916MPD2     C13406   2.057   0.817  15.618  0.1525  0.1264  0.6494
  916MPD2    C113407   2.097   0.729  15.719 -0.0324  0.4273  0.0660
  916MPD2    C213408   2.171   0.623  15.688 -0.7694 -0.2816 -0.0286
  916MPD2    C313409   2.199   0.586  15.558 -0.0398  0.8201  0.0149
  916MPD2    C413410   2.153   0.664  15.458  0.1323 -0.4369  0.1496
  916MPD2    C513411   2.089   0.777  15.489 -0.3369  0.0812  0.2754
  916MPD2     H13412   2.211   0.557  15.764 -0.7882  0.3967  0.5734
  916MPD2    H113413   2.176   0.644  15.354  1.7273 -0.2776  0.4756
  916MPD2    H213414   1.999   0.906  15.642  2.1577  1.3611  0.9551
  916MPD2    H313415   2.056   0.847  15.414  0.3066 -1.0159 -1.0174
  916MPD2     N13416   2.266   0.461  15.533 -0.0805 -0.8367 -0.0636
  916MPD2    H513417   2.288   0.402  15.613 -2.6672 -0.2825  1.0718
  916MPD2    N113418   2.075   0.773  15.851 -0.2972 -0.0028 -0.7564
  916MPD2    H713419   2.027   0.862  15.859 -0.5184 -0.2861  1.1302
  917MPD2     C13420   2.742   2.556  10.689  0.1162  0.3381 -0.0636
  917MPD2    C113421   2.782   2.643  10.787 -0.3630 -0.7323 -0.6893
  917MPD2    C213422   2.901   2.720  10.760  0.0966 -0.0878 -0.0773
  917MPD2    C313423   2.953   2.713  10.634 -0.2593  0.0484  0.0151
  917MPD2    C413424   2.895   2.641  10.531  0.0245  0.3888 -0.6456
  917MPD2    C513425   2.793   2.553  10.561  0.1382 -0.1393 -0.7621
  917MPD2     H13426   2.934   2.788  10.838 -0.2390 -0.0978  0.0754
  917MPD2    H113427   2.928   2.653  10.429  1.5829  0.5802 -0.1144
  917MPD2    H213428   2.658   2.491  10.708 -0.6837  1.7806  1.4105
  917MPD2    H313429   2.756   2.496  10.477 -1.6260 -0.4304  0.2109
  917MPD2     N13430   3.066   2.787  10.593 -0.1372 -0.2914 -0.8379
  917MPD2    H513431   3.102   2.789  10.498  3.0793  1.8737  0.4165
  917MPD2    N113432   2.703   2.655  10.907 -0.0787  0.1546 -0.8944
  917MPD2    H713433   2.624   2.592  10.908  1.1518 -1.4092 -1.9521
  918MPD2     C13434   2.752   3.124  11.784  0.0850  0.5101  0.0592
  918MPD2    C113435   2.852   3.069  11.700  0.5299 -0.7936  1.0023
  918MPD2    C213436   2.815   3.036  11.575  0.5487 -0.8815 -0.9957
  918MPD2    C313437   2.678   3.025  11.552 -0.3817  0.3676  0.6782
  918MPD2    C413438   2.586   3.093  11.628  0.4394  0.0831  0.3348
  918MPD2    C513439   2.629   3.140  11.742  0.6973 -0.0498  0.3118
  918MPD2     H13440   2.892   2.991  11.514  0.7338 -0.0255 -1.3972
  918MPD2    H113441   2.482   3.108  11.602 -0.5165 -1.0669  3.4669
  918MPD2    H213442   2.776   3.167  11.881  2.4116  1.8696 -1.1408
  918MPD2    H313443   2.566   3.189  11.816 -1.8371 -0.4015 -1.6466
  918MPD2     N13444   2.643   2.943  11.441  0.2692  0.1692  0.8863
  918MPD2    H513445   2.717   2.921  11.376 -1.1833  1.8378 -1.3473
  918MPD2    N113446   2.985   3.067  11.747 -0.3147 -0.0304  0.3165
  918MPD2    H713447   3.054   3.045  11.676 -0.7572 -1.6908  0.3993
  919MPD2     C13448   3.675   2.185  11.244  0.0445 -0.7226 -0.4936
  919MPD2    C113449   3.734   2.060  11.250 -0.4336  0.6429  0.0551
  919MPD2    C213450   3.751   1.987  11.130  0.6351 -0.5827 -0.0614
  919MPD2    C313451   3.716   2.039  11.006  0.3896 -0.3618 -0.5999
  919MPD2    C413452   3.654   2.170  11.001  0.5451  0.9101  0.3743
  919MPD2    C513453   3.639   2.242  11.123 -0.1718 -0.3158  0.3363
  919MPD2     H13454   3.790   1.887  11.139  1.0210 -0.3122  1.3039
  919MPD2    H113455   3.613   2.201  10.905 -2.0205 -0.1199  1.1260
  919MPD2    H213456   3.639   2.235  11.333  0.2972 -1.8044  0.2187
  919MPD2    H313457   3.564   2.320  11.118  0.3864  0.1273 -1.0209
  919MPD2     N13458   3.739   1.962  10.884  0.3791 -0.4252  0.3410
  919MPD2    H513459   3.696   1.999  10.799  1.0104  0.4503  0.3988
  919MPD2    N113460   3.753   1.997  11.366 -0.2546  0.2481  0.1191
  919MPD2    H713461   3.799   1.907  11.356 -2.1932 -0.5395 -1.6727
  920MPD2     C13462   3.622   1.961   9.903 -0.3095 -0.7325 -0.4845
  920MPD2    C113463   3.527   1.872   9.957  0.3172  0.3971 -0.8708
  920MPD2    C213464   3.551   1.813  10.084 -0.1402  0.8721 -0.3019
  920MPD2    C313465   3.660   1.855  10.156 -0.8599 -0.5451  0.3372
  920MPD2    C413466   3.743   1.950  10.101 -0.1184  0.0343  0.1880
  920MPD2    C513467   3.719   2.011   9.984 -0.3041  0.2623 -0.0179
  920MPD2     H13468   3.475   1.741  10.115  0.0051  0.6334 -0.5014
  920MPD2    H113469   3.829   1.989  10.156 -1.0138  0.4430  1.3095
  920MPD2    H213470   3.614   1.993   9.800 -3.5510  0.2301  0.0409
  920MPD2    H313471   3.803   2.070   9.949  0.1707 -1.3449 -1.6388
  920MPD2     N13472   3.679   1.811  10.291 -0.9144  0.3752 -0.5126
  920MPD2    H513473   3.624   1.727  10.309 -1.6522  0.8319 -0.6117
  920MPD2    N113474   3.403   1.839   9.892  0.1736  0.1615  0.1379
  920MPD2    H713475   3.332   1.785   9.940  0.6124  1.0253  1.7483
  921MPD2     C13476   4.108   1.855  16.466  0.4474 -0.1346  0.5438
  921MPD2    C113477   4.143   1.722  16.469 -0.1734 -0.2012 -0.0067
  921MPD2    C213478   4.049   1.621  16.433  0.1046 -0.4701  0.6277
  921MPD2    C313479   3.918   1.656  16.408  1.0738  0.6050  0.1842
  921MPD2    C413480   3.885   1.793  16.415 -0.5859  0.2353  0.2747
  921MPD2    C513481   3.979   1.888  16.432  0.3083 -0.0256  0.2482
  921MPD2     H13482   4.078   1.518  16.418  0.9706 -0.4404  2.1050
  921MPD2    H113483   3.780   1.810  16.393 -0.8708 -0.1774  1.3305
  921MPD2    H213484   4.181   1.931  16.491 -1.0471  1.9404 -1.4326
  921MPD2    H313485   3.935   1.987  16.435 -0.0766 -0.2892  2.8535
  921MPD2     N13486   3.825   1.550  16.389 -0.6266 -0.0973  0.1422
  921MPD2    H513487   3.863   1.457  16.375  0.5726  0.7154 -2.0271
  921MPD2    N113488   4.280   1.704  16.490  0.8941  0.0012  0.0709
  921MPD2    H713489   4.332   1.791  16.489 -0.5661  0.8232 -2.6729
  922MPD2     C13490   0.228   3.299   0.057 -0.5729  0.2026 -0.0921
  922MPD2    C113491   0.244   3.411  17.669  0.2035  0.0721 -0.4926
  922MPD2    C213492   0.163   3.428  17.559 -0.2550 -0.2736 -0.4404
  922MPD2    C313493   0.086   3.332  17.512 -0.0216 -0.1659 -0.6814
  922MPD2    C413494   0.060   3.226  17.595 -0.0334 -0.0671 -0.5911
  922MPD2    C513495   0.128   3.211   0.027 -0.4702  0.6619  0.4719
  922MPD2     H13496   0.172   3.521  17.504  0.2662  0.3540  0.7022
  922MPD2    H113497   4.702   3.156  17.568 -1.3557  1.4309 -0.5857
  922MPD2    H213498   0.290   3.276   0.143 -1.9409 -0.8138  0.6200
  922MPD2    H313499   0.093   3.130   0.090 -1.0895  0.2746 -0.3620
  922MPD2     N13500   0.021   3.352  17.390  0.5893  0.1774 -0.7971
  922MPD2    H513501   0.016   3.447  17.353  1.1042  0.9178  1.0496
  922MPD2    N113502   0.332   3.513   0.009 -0.0841 -0.2276  0.3261
  922MPD2    H713503   0.341   3.582  17.621 -1.7070  0.6706  0.9529
  923MPD2     C13504   2.236   4.468   9.341 -0.1627  0.1333 -0.5710
  923MPD2    C113505   2.193   4.566   9.427 -0.2835  0.5917 -0.1094
  923MPD2    C213506   2.273   4.603   9.532 -0.3453  0.4204 -0.8930
  923MPD2    C313507   2.385   4.526   9.567  0.4182 -0.1065 -0.0078
  923MPD2    C413508   2.420   4.423   9.482 -0.2089 -0.1695 -0.2489
  923MPD2    C513509   2.349   4.400   9.368 -0.1920  0.1879 -0.3318
  923MPD2     H13510   2.250   4.695   9.585 -1.8748 -1.0210  0.9292
  923MPD2    H113511   2.510   4.367   9.503 -0.5324  0.1676  2.1029
  923MPD2    H213512   2.177   4.437   9.256 -0.3584 -1.5346  0.1701
  923MPD2    H313513   2.377   4.317   9.305  0.0878 -0.7881  1.0739
  923MPD2     N13514   2.466   4.543   9.680 -0.2331 -0.7159 -0.0401
  923MPD2    H513515   2.541   4.476   9.693  0.4590  0.1796  0.5804
  923MPD2    N113516   2.072   4.639   9.394  0.4049  0.4986  0.0534
  923MPD2    H713517   2.042   4.622   9.299 -0.8237  2.0481  0.1533
  924MPD2     C13518   1.671   3.606  15.903  0.0345  0.1290 -0.1409
  924MPD2    C113519   1.573   3.642  15.985  0.3340  0.3767 -0.3273
  924MPD2    C213520   1.565   3.776  16.028  0.5543  0.4679 -0.1574
  924MPD2    C313521   1.642   3.869  15.957  0.8117 -0.1574 -0.4507
  924MPD2    C413522   1.736   3.829  15.866  0.0576  0.7326 -0.6068
  924MPD2    C513523   1.757   3.695  15.839  0.1270  0.3468 -0.1677
  924MPD2     H13524   1.488   3.808  16.097 -1.0132 -0.1704 -1.6186
  924MPD2    H113525   1.793   3.906  15.817 -0.3161  0.5135 -1.4031
  924MPD2    H213526   1.695   3.501  15.893 -0.9666  0.1028 -2.0992
  924MPD2    H313527   1.834   3.665  15.769  1.2907 -0.6446  1.5162
  924MPD2     N13528   1.626   4.006  15.977 -0.0814 -0.0723  0.5649
  924MPD2    H513529   1.690   4.068  15.928  1.1901 -1.0313  1.0083
  924MPD2    N113530   1.485   3.544  16.044 -0.5486  0.1729 -0.5492
  924MPD2    H713531   1.477   3.456  15.995 -0.1272  0.0396 -0.3746
  925MPD2     C13532   0.459   1.391  14.609 -0.3834 -0.2804  0.2228
  925MPD2    C113533   0.338   1.454  14.609  0.4808  0.0833 -0.1882
  925MPD2    C213534   0.269   1.495  14.725 -0.2999 -0.0343  0.6862
  925MPD2    C313535   0.337   1.478  14.845 -0.2500 -0.2124 -0.5263
  925MPD2    C413536   0.457   1.407  14.848 -0.1650  0.4285  0.0784
  925MPD2    C513537   0.513   1.364  14.730 -0.7885  0.3195 -0.0836
  925MPD2     H13538   0.166   1.526  14.719 -0.2226  0.4423  1.8899
  925MPD2    H113539   0.501   1.391  14.946  2.0001 -1.9883 -1.3236
  925MPD2    H213540   0.516   1.360  14.522 -0.9238 -0.2200 -0.1569
  925MPD2    H313541   0.602   1.302  14.730 -0.1654  1.2125 -1.1666
  925MPD2     N13542   0.282   1.514  14.973 -0.3239  0.0931 -0.2012
  925MPD2    H513543   0.340   1.487  15.052 -1.2708 -0.6560  0.2283
  925MPD2    N113544   0.275   1.479  14.487 -0.0257 -0.7865 -0.7791
  925MPD2    H713545   0.181   1.516  14.497  0.8302  1.2502 -0.1718
  926MPD2     C13546   4.006   4.652  13.224 -0.5145 -0.1708 -0.2778
  926MPD2    C113547   3.959   0.058  13.251 -0.1663  0.1776  0.5972
  926MPD2    C213548   3.987   0.156  13.159 -0.4711  0.7833 -0.1128
  926MPD2    C313549   4.058   0.138  13.045  0.0185 -0.2503  0.2541
  926MPD2    C413550   4.099   0.012  13.017  0.2277  0.0341 -0.2645
  926MPD2    C513551   4.074   4.632  13.106  0.0636 -0.7568  0.6534
  926MPD2     H13552   3.957   0.258  13.181 -0.2985  0.6773  0.6328
  926MPD2    H113553   4.170   4.712  12.937  3.7235  0.1458  2.7833
  926MPD2    H213554   4.004   4.568  13.292  0.1003  0.6004  0.6973
  926MPD2    H313555   4.128   4.539  13.097  0.8202 -0.1479 -1.1394
  926MPD2     N13556   4.074   0.242  12.947 -0.0020  0.4666 -0.1510
  926MPD2    H513557   4.117   0.217  12.859  0.8418  0.7391  0.1767
  926MPD2    N113558   3.902   0.095  13.373  0.3379  0.4195  0.2209
  926MPD2    H713559   3.875   0.192  13.381 -5.3123 -1.3021  2.1355
  927MPD2     C13560   3.463   2.447   0.151 -0.8885 -0.1956  0.1610
  927MPD2    C113561   3.532   2.548   0.212  0.2268  0.4518 -0.4404
  927MPD2    C213562   3.651   2.595   0.158  0.4105 -0.0676  0.2647
  927MPD2    C313563   3.692   2.539   0.040 -0.3395 -0.2734 -0.6572
  927MPD2    C413564   3.632   2.428  17.670  0.5887 -0.2993  0.0905
  927MPD2    C513565   3.517   2.385   0.044 -0.0652  0.5283  0.5876
  927MPD2     H13566   3.702   2.682   0.198 -1.3415  0.2905  1.6900
  927MPD2    H113567   3.669   2.381  17.579 -2.1481 -0.1853 -1.0906
  927MPD2    H213568   3.388   2.401   0.213 -0.5883 -1.0177 -0.0835
  927MPD2    H313569   3.475   2.293   0.006  0.7496 -0.4199  1.9626
  927MPD2     N13570   3.814   2.594  17.671 -0.2202 -0.5301 -0.5442
  927MPD2    H513571   3.858   2.671   0.035 -0.0405 -0.4775 -0.7904
  927MPD2    N113572   3.476   2.610   0.327 -0.2463 -0.2402 -0.1177
  927MPD2    H713573   3.388   2.569   0.357 -0.4026 -0.2427 -0.5925
  928MPD2     C13574   1.630   0.617   1.203 -0.1344 -0.1623 -0.1497
  928MPD2    C113575   1.532   0.670   1.123  0.2437  0.4881  0.8285
  928MPD2    C213576   1.568   0.746   1.013 -0.1844 -0.4250 -0.4289
  928MPD2    C313577   1.700   0.768   0.973 -0.1760  0.1925 -0.4399
  928MPD2    C413578   1.793   0.711   1.058  0.0151  0.8008  0.4672
  928MPD2    C513579   1.760   0.647   1.175 -0.3440 -0.2575 -0.2892
  928MPD2     H13580   1.495   0.800   0.953  0.2246  0.9334  0.2936
  928MPD2    H113581   1.898   0.719   1.036  0.0851 -2.8842 -0.5250
  928MPD2    H213582   1.600   0.570   1.296  1.9921  2.0221  1.6645
  928MPD2    H313583   1.829   0.611   1.250 -0.8922 -0.1544  0.2703
  928MPD2     N13584   1.756   0.844   0.866 -0.4644  0.0465 -0.0743
  928MPD2    H513585   1.856   0.836   0.849 -0.6911 -1.5850 -0.6565
  928MPD2    N113586   1.394   0.656   1.167  0.8122 -0.4822  0.1944
  928MPD2    H713587   1.363   0.598   1.244 -1.3029  2.0574  1.2586
  929MPD2     C13588   2.240   0.522  10.087  0.4858 -0.3376 -0.0074
  929MPD2    C113589   2.117   0.470  10.124  0.1875  0.6828 -0.7455
  929MPD2    C213590   2.013   0.500  10.039  0.1471  0.5956 -0.8295
  929MPD2    C313591   2.021   0.610   9.961 -0.5398 -0.1885 -0.0198
  929MPD2    C413592   2.146   0.664   9.931  0.1687 -0.7162 -0.9674
  929MPD2    C513593   2.260   0.615   9.985 -0.2019  0.7216  0.1222
  929MPD2     H13594   1.913   0.474  10.070  0.7693  0.3547  1.0032
  929MPD2    H113595   2.166   0.734   9.851  1.4455  0.1383  0.0916
  929MPD2    H213596   2.324   0.498  10.152  0.8769  0.3855 -0.2383
  929MPD2    H313597   2.354   0.655   9.951  0.4431 -2.6417 -2.0481
  929MPD2     N13598   1.902   0.669   9.909 -0.1798  0.2597  1.2708
  929MPD2    H513599   1.914   0.764   9.873  2.2958 -0.7718 -0.6505
  929MPD2    N113600   2.097   0.391  10.249 -0.4705 -0.3761  0.9329
  929MPD2    H713601   2.184   0.387  10.301 -0.5247 -0.1431  1.0409
  930MPD2     C13602   3.034   3.360  14.042 -0.4834 -0.7141  0.1290
  930MPD2    C113603   3.152   3.293  14.003 -0.2263 -0.5678  0.9104
  930MPD2    C213604   3.142   3.199  13.902  0.4221  0.3411  0.1740
  930MPD2    C313605   3.029   3.182  13.832 -0.1118 -0.0997  0.2131
  930MPD2    C413606   2.916   3.244  13.873  0.1148 -0.0741  0.2421
  930MPD2    C513607   2.921   3.331  13.974 -0.5677 -0.1407  0.7237
  930MPD2     H13608   3.234   3.161  13.859 -0.3131 -1.1197 -0.1030
  930MPD2    H113609   2.823   3.236  13.816  1.6958 -0.2459 -2.3230
  930MPD2    H213610   3.038   3.437  14.119  1.1389  0.7461 -1.4374
  930MPD2    H313611   2.825   3.371  14.006 -2.2404 -2.5548 -1.2803
  930MPD2     N13612   3.021   3.095  13.717  1.0653  0.0749 -0.1413
  930MPD2    H513613   2.949   3.111  13.647  0.5595  0.6379  0.5026
  930MPD2    N113614   3.275   3.344  14.055 -0.0744  0.6661  0.1352
  930MPD2    H713615   3.272   3.430  14.109 -1.2621 -0.9134  2.5892
  931MPD2     C13616   3.786   2.932   0.981 -0.4804 -0.5752 -0.3431
  931MPD2    C113617   3.653   2.903   0.989  0.3078  0.1458 -0.1702
  931MPD2    C213618   3.599   2.861   1.113 -0.0390  0.3080 -0.2882
  931MPD2    C313619   3.683   2.856   1.225 -0.2295 -0.2581 -0.0156
  931MPD2    C413620   3.817   2.893   1.217 -0.4751 -0.2898 -0.0278
  931MPD2    C513621   3.862   2.930   1.095 -0.3456 -0.1463  0.2005
  931MPD2     H13622   3.504   2.809   1.113 -0.3433  0.8366 -2.7760
  931MPD2    H113623   3.891   2.891   1.296 -0.9672 -0.8099  0.4178
  931MPD2    H213624   3.833   2.957   0.886  0.5872 -0.1235  0.3024
  931MPD2    H313625   3.968   2.951   1.087  0.5674 -3.5336  3.3289
  931MPD2     N13626   3.640   2.797   1.344 -0.2139  0.1317  0.4449
  931MPD2    H513627   3.703   2.794   1.423  1.5673 -0.5940 -1.0060
  931MPD2    N113628   3.579   2.892   0.868 -0.6194 -0.0274  0.0905
  931MPD2    H713629   3.636   2.913   0.787 -0.7366  1.8396  0.4853
  932MPD2     C13630   0.305   2.027  11.129 -0.1143 -0.3333  0.1374
  932MPD2    C113631   0.424   1.979  11.196 -0.0004 -0.3948 -0.2127
  932MPD2    C213632   0.429   1.858  11.273 -0.0974 -0.0747 -0.4929
  932MPD2    C313633   0.313   1.788  11.274  0.7066  0.2576 -0.1022
  932MPD2    C413634   0.202   1.830  11.201 -0.8085 -0.2713 -1.1124
  932MPD2    C513635   0.197   1.944  11.127  0.2109 -0.1122 -0.6057
  932MPD2     H13636   0.515   1.829  11.332 -0.2743 -0.8164 -0.5923
  932MPD2    H113637   0.112   1.770  11.206  1.0850 -2.9405  1.3754
  932MPD2    H213638   0.304   2.129  11.090 -0.0797  0.5418  2.4154
  932MPD2    H313639   0.107   1.979  11.078 -0.7095  0.0637  1.2090
  932MPD2     N13640   0.293   1.661  11.337 -0.0372 -0.2543  0.5630
  932MPD2    H513641   0.205   1.612  11.337  0.3024 -0.8823  2.5851
  932MPD2    N113642   0.538   2.056  11.189  0.0767  0.6955 -0.0266
  932MPD2    H713643   0.611   2.018  11.249  0.9984  1.3055 -0.7705
  933MPD2     C13644   0.749   1.022   0.897 -0.1769 -0.4680 -0.2491
  933MPD2    C113645   0.802   1.064   1.021  0.4055  0.3631  0.0365
  933MPD2    C213646   0.779   1.196   1.055 -0.1250  0.6996  0.5322
  933MPD2    C313647   0.704   1.286   0.985 -0.6716 -0.0759  0.2672
  933MPD2    C413648   0.649   1.240   0.869 -0.2448 -0.6858 -0.3951
  933MPD2    C513649   0.672   1.112   0.819 -0.3126 -0.4221  0.3057
  933MPD2     H13650   0.825   1.230   1.147 -1.0068 -0.4846  1.4081
  933MPD2    H113651   0.595   1.303   0.799 -1.0258 -1.3231 -0.3680
  933MPD2    H213652   0.759   0.920   0.861  0.4879 -0.5357  0.1224
  933MPD2    H313653   0.636   1.077   0.723 -1.5501 -1.4050  1.1136
  933MPD2     N13654   0.697   1.419   1.036  0.2715  0.4073 -0.1146
  933MPD2    H513655   0.744   1.434   1.124  3.4159  0.0471 -1.7337
  933MPD2    N113656   0.862   0.962   1.098  0.1035  0.5867 -0.5140
  933MPD2    H713657   0.874   0.871   1.056 -1.0559 -0.6455  1.8184
  934MPD2     C13658   2.981   2.980   2.068  0.4934  0.5636  0.1706
  934MPD2    C113659   2.983   3.009   1.936  0.3747 -0.7649  0.1490
  934MPD2    C213660   2.889   2.956   1.853  0.0429  0.3755  0.6166
  934MPD2    C313661   2.780   2.889   1.903 -0.2729 -0.0129 -0.8628
  934MPD2    C413662   2.769   2.879   2.041 -0.1752  0.3174  0.6583
  934MPD2    C513663   2.868   2.918   2.117  0.3021 -0.5041 -0.3440
  934MPD2     H13664   2.887   2.983   1.748 -2.0904  1.2722  0.8725
  934MPD2    H113665   2.688   2.826   2.090  0.6253 -0.5494  1.0603
  934MPD2    H213666   3.055   3.021   2.136 -0.3976 -0.8509  2.0148
  934MPD2    H313667   2.861   2.905   2.225 -0.6689  2.8917 -0.0082
  934MPD2     N13668   2.673   2.849   1.830  0.2582 -0.5244 -0.3561
  934MPD2    H513669   2.602   2.814   1.893 -0.5836  0.3086 -0.8494
  934MPD2    N113670   3.079   3.089   1.876  0.3567  0.1220  0.5204
  934MPD2    H713671   3.063   3.101   1.777  1.6791  2.3637  0.5735
  935MPD2     C13672   2.452   2.359   0.971 -0.1978 -0.3663 -0.1676
  935MPD2    C113673   2.336   2.371   1.051 -0.6658  0.0973  0.5040
  935MPD2    C213674   2.332   2.464   1.149 -0.0886 -0.0181  0.2209
  935MPD2    C313675   2.446   2.527   1.193  0.4235 -0.2928  0.1700
  935MPD2    C413676   2.557   2.515   1.118 -0.2989  0.0154  0.2330
  935MPD2    C513677   2.562   2.438   1.006 -0.7400 -0.4068 -0.1207
  935MPD2     H13678   2.239   2.475   1.205  0.7487  4.1220  0.7639
  935MPD2    H113679   2.650   2.568   1.130  0.0035 -0.3192 -0.6120
  935MPD2    H213680   2.460   2.308   0.876  0.1031  0.6119 -0.6703
  935MPD2    H313681   2.648   2.427   0.941  0.6298 -2.2908  2.0027
  935MPD2     N13682   2.452   2.628   1.296  0.3146  0.5618  0.2059
  935MPD2    H513683   2.546   2.660   1.314  0.5653  0.7340 -1.3373
  935MPD2    N113684   2.219   2.296   1.024  0.3329  0.3405 -0.2003
  935MPD2    H713685   2.144   2.316   1.090 -1.0146 -1.4009 -1.2030
  936MPD2     C13686   1.889   4.416  12.693  0.2603  0.2389  0.2091
  936MPD2    C113687   1.855   4.504  12.795  0.2209  0.4985 -0.3180
  936MPD2    C213688   1.926   4.625  12.812 -0.1492 -0.3207  0.3940
  936MPD2    C313689   2.031   4.654  12.732  0.1107 -0.8231  0.4219
  936MPD2    C413690   2.061   4.565  12.630  0.6584  0.7101  0.4078
  936MPD2    C513691   1.997   4.448  12.611  0.8324 -0.1997  0.7396
  936MPD2     H13692   1.899   4.683  12.900  1.4464  0.0921  0.6140
  936MPD2    H113693   2.138   4.583  12.556  0.7417  1.7489  0.7336
  936MPD2    H213694   1.818   4.341  12.661  0.8874 -0.3606  0.2278
  936MPD2    H313695   2.032   4.390  12.526  0.7219  1.2719 -0.3224
  936MPD2     N13696   2.108   0.040  12.777  0.1525 -0.3530  0.2308
  936MPD2    H513697   2.079   0.086  12.863  1.1373  1.6139 -0.4973
  936MPD2    N113698   1.750   4.473  12.885  0.0257  0.4563  0.0899
  936MPD2    H713699   1.728   4.548  12.950  2.4768 -0.6656  2.2513
  937MPD2     C13700   3.895   1.338  11.477 -1.1038  0.0923 -0.0725
  937MPD2    C113701   3.952   1.462  11.459 -0.2085  0.9572  0.1110
  937MPD2    C213702   4.038   1.472  11.348  0.3987 -0.1117 -0.1653
  937MPD2    C313703   4.070   1.368  11.263 -0.2341 -0.5392 -0.3557
  937MPD2    C413704   4.019   1.242  11.292  0.0790 -0.2789 -0.7616
  937MPD2    C513705   3.925   1.232  11.395 -0.4624 -0.0700 -0.4346
  937MPD2     H13706   4.070   1.572  11.323  0.9658 -0.7098 -1.8281
  937MPD2    H113707   4.048   1.153  11.237 -1.1683 -0.7018 -0.7391
  937MPD2    H213708   3.816   1.320  11.549 -1.5838  0.2471 -0.5525
  937MPD2    H313709   3.873   1.141  11.419 -1.2118  0.4634 -0.0324
  937MPD2     N13710   4.150   1.394  11.153 -0.0953  0.6178 -0.1385
  937MPD2    H513711   4.198   1.483  11.145  0.6785  0.4292  2.5847
  937MPD2    N113712   3.913   1.584  11.523 -0.6281  0.2661  0.3333
  937MPD2    H713713   3.925   1.668  11.468 -0.8831  0.3967  0.4769
  938MPD2     C13714   1.078   2.714   0.819  0.8895 -0.3494 -0.0836
  938MPD2    C113715   1.197   2.701   0.890  0.0324  0.0280 -0.7270
  938MPD2    C213716   1.199   2.612   0.998 -0.3878 -0.3170  0.0614
  938MPD2    C313717   1.087   2.546   1.033  0.0173  0.5805  0.2198
  938MPD2    C413718   0.969   2.561   0.961 -0.3628  0.4996  0.3189
  938MPD2    C513719   0.962   2.653   0.863 -0.5052  0.1987  0.4477
  938MPD2     H13720   1.298   2.606   1.041 -0.0215  0.2847 -0.6866
  938MPD2    H113721   0.873   2.515   0.980 -0.6712  0.1234 -2.1675
  938MPD2    H213722   1.070   2.774   0.729  0.3918 -0.0518  0.1595
  938MPD2    H313723   0.868   2.668   0.811 -0.3521 -0.5051 -0.0354
  938MPD2     N13724   1.090   2.454   1.138  0.6270  0.3995 -0.4879
  938MPD2    H513725   1.003   2.408   1.165  0.7884  0.4596  0.1296
  938MPD2    N113726   1.311   2.776   0.869 -0.6467  0.6538 -0.1352
  938MPD2    H713727   1.383   2.754   0.938 -2.2101 -0.9752  0.9687
  939MPD2     C13728   3.057   4.127   1.333  0.3052 -0.3953  0.1499
  939MPD2    C113729   3.021   4.257   1.334 -0.3301  0.6242  0.4714
  939MPD2    C213730   3.057   4.333   1.220 -1.0246  0.4522  0.1879
  939MPD2    C313731   3.125   4.275   1.112  0.1578 -0.1213 -1.4365
  939MPD2    C413732   3.152   4.142   1.123  0.4069 -0.3478  0.1978
  939MPD2    C513733   3.118   4.070   1.230  0.8272  0.1194  0.3327
  939MPD2     H13734   3.036   4.439   1.212  1.1519  0.8512 -0.2465
  939MPD2    H113735   3.214   4.092   1.050  1.4889  0.3940  0.6180
  939MPD2    H213736   3.027   4.062   1.414  0.3470  0.9136  1.2090
  939MPD2    H313737   3.128   3.963   1.215  0.0241  0.3023 -1.5034
  939MPD2     N13738   3.160   4.352   0.997 -0.2848  0.0340 -0.1624
  939MPD2    H513739   3.130   4.449   1.001  2.2938  0.8264 -0.2963
  939MPD2    N113740   2.950   4.310   1.445 -0.6378 -0.3525 -0.2571
  939MPD2    H713741   2.920   4.240   1.511 -0.5574 -0.3933 -0.2635
  940MPD2     C13742   2.123   4.495  13.201 -0.2940  0.5796 -0.2442
  940MPD2    C113743   2.093   4.371  13.164 -0.0812  0.0764 -0.9882
  940MPD2    C213744   2.148   4.323  13.051 -0.8328 -0.0854  0.5335
  940MPD2    C313745   2.236   4.386  12.973  0.9726 -0.5474  0.2961
  940MPD2    C413746   2.266   4.518  13.004  0.2958 -0.1514  0.0024
  940MPD2    C513747   2.202   4.566  13.114  0.0302 -0.0134  0.2812
  940MPD2     H13748   2.151   4.215  13.036 -0.9783  0.0597 -0.5564
  940MPD2    H113749   2.324   4.585  12.941  1.4783 -2.1424 -1.0331
  940MPD2    H213750   2.087   4.539  13.293  3.7116  0.6991  1.2525
  940MPD2    H313751   2.223   4.670  13.136  1.8002  0.1608 -2.1432
  940MPD2     N13752   2.287   4.330  12.857  0.0539 -0.1749  0.2490
  940MPD2    H513753   2.343   4.393  12.799 -0.3997 -0.6777 -0.7381
  940MPD2    N113754   2.000   4.290  13.232 -0.2124  0.0599 -0.5002
  940MPD2    H713755   1.985   4.203  13.182  0.5374 -1.0624  1.2419
  941MPD2     C13756   0.967   2.756   8.989  0.3015 -0.9832  0.0537
  941MPD2    C113757   0.969   2.774   9.128 -0.2538  0.4056  0.2341
  941MPD2    C213758   0.983   2.661   9.208 -0.2157 -0.2338  0.1875
  941MPD2    C313759   1.029   2.537   9.151  0.4503 -0.5782 -0.2180
  941MPD2    C413760   1.038   2.521   9.014  0.9896  0.5082 -0.9693
  941MPD2    C513761   1.002   2.628   8.939  1.1765 -0.5607  0.2183
  941MPD2     H13762   0.965   2.677   9.314 -0.2254  2.4911 -0.2387
  941MPD2    H113763   1.071   2.432   8.961  0.5673  0.2401 -0.7756
  941MPD2    H213764   0.954   2.840   8.922  1.9602 -1.8773 -1.3874
  941MPD2    H313765   1.006   2.611   8.831 -0.8603  0.5105 -0.0235
  941MPD2     N13766   1.063   2.424   9.229  0.2929  0.6396  0.7152
  941MPD2    H513767   1.066   2.335   9.181  1.8362  0.2861  1.4774
  941MPD2    N113768   0.922   2.890   9.189 -0.3234 -0.0934 -0.3411
  941MPD2    H713769   0.906   2.883   9.289 -2.1045  1.5824 -0.5239
  942MPD2     C13770   0.525   0.222   9.810  0.1062  0.1897 -0.1195
  942MPD2    C113771   0.526   0.285   9.690 -0.0803  0.2569  0.6617
  942MPD2    C213772   0.642   0.301   9.616  0.4998 -0.2520 -0.6420
  942MPD2    C313773   0.766   0.259   9.667  0.2719  0.7874  0.0556
  942MPD2    C413774   0.766   0.198   9.788  0.3964 -0.2118  0.2222
  942MPD2    C513775   0.649   0.177   9.861  0.1322  0.0258 -0.6025
  942MPD2     H13776   0.636   0.342   9.516  3.2432  1.8347  0.0556
  942MPD2    H113777   0.852   0.152   9.837  0.0277  1.9619  2.9079
  942MPD2    H213778   0.437   0.201   9.871 -0.2576  1.5000 -0.2047
  942MPD2    H313779   0.650   0.117   9.952 -0.3287  1.1890  0.1749
  942MPD2     N13780   0.892   0.275   9.606 -0.1995  0.6127  0.3159
  942MPD2    H513781   0.972   0.228   9.648 -0.6272  0.4682  0.9693
  942MPD2    N113782   0.406   0.329   9.633  0.1975 -0.2550  0.7196
  942MPD2    H713783   0.407   0.378   9.544  0.6446 -0.6502  0.5034
  943MPD2     C13784   3.924   3.603   8.561  0.5466 -0.5729 -0.0212
  943MPD2    C113785   3.855   3.543   8.663 -0.5082 -0.2099  0.2161
  943MPD2    C213786   3.734   3.481   8.640  0.4040 -1.0125  0.0282
  943MPD2    C313787   3.677   3.485   8.509  0.3378  0.0654 -0.0188
  943MPD2    C413788   3.745   3.552   8.414  0.3628  0.2720  0.3987
  943MPD2    C513789   3.864   3.612   8.434  0.3481 -0.1441 -0.2507
  943MPD2     H13790   3.687   3.430   8.724  2.1036 -0.2502  1.4435
  943MPD2    H113791   3.703   3.560   8.314  0.7222 -1.0079  0.1481
  943MPD2    H213792   4.019   3.650   8.584 -0.5781  1.2053  0.9909
  943MPD2    H313793   3.910   3.662   8.350  1.6792  0.6383  0.9432
  943MPD2     N13794   3.552   3.430   8.488  1.1716  0.3246 -0.5553
  943MPD2    H513795   3.536   3.410   8.390 -1.2866 -1.9398  0.2772
  943MPD2    N113796   3.921   3.536   8.791  0.5951 -0.5079 -0.6588
  943MPD2    H713797   4.006   3.592   8.797 -0.8950  1.6348  0.5210
  944MPD2     C13798   4.334   2.677  10.755 -0.5964 -0.7825 -0.5976
  944MPD2    C113799   4.350   2.793  10.692 -0.7288 -0.9374 -0.0553
  944MPD2    C213800   4.285   2.909  10.737 -0.1455  0.3910 -0.0605
  944MPD2    C313801   4.215   2.903  10.855 -0.2030  0.2724 -0.0547
  944MPD2    C413802   4.207   2.783  10.924 -0.0317 -0.9522 -0.3867
  944MPD2    C513803   4.257   2.668  10.870 -0.5204  0.5071  0.3747
  944MPD2     H13804   4.294   3.001  10.681 -0.3577  0.3291 -0.1965
  944MPD2    H113805   4.154   2.769  11.017  1.7283  1.5607  0.9836
  944MPD2    H213806   4.376   2.583  10.721  0.8304 -0.3681  0.0296
  944MPD2    H313807   4.234   2.572  10.915  1.0232 -0.0663 -0.0647
  944MPD2     N13808   4.163   3.022  10.909  0.2650  0.4605 -0.1286
  944MPD2    H513809   4.171   3.100  10.844  0.1115  0.0281 -0.6669
  944MPD2    N113810   4.411   2.789  10.568 -0.1865  0.0658  0.4343
  944MPD2    H713811   4.441   2.698  10.534 -0.1733  0.3276 -0.2565
    1TCq1    O113812   2.636   3.162  14.317  0.4617 -0.0662  0.8228
    1TCq1    C113813   2.581   3.221  14.213 -0.2191  0.2295  0.0781
    1TCq1    O213814   2.629   3.228  14.099  0.4825  0.1848  0.3264
    1TCq1    C213815   2.518   3.335  14.274  0.1721 -0.3241 -0.2609
    1TCq1    C313816   2.383   3.350  14.235 -0.8712  0.0014  0.4246
    1TCq1    C413817   2.300   3.424  14.310 -0.1511  0.0628 -0.6186
    1TCq1    C513818   2.345   3.459  14.428 -0.3295 -1.1038 -0.0821
    1TCq1    C613819   2.472   3.439  14.464  0.3236 -0.0631  0.2994
    1TCq1    C713820   2.562   3.373  14.391 -0.0466  0.0331 -0.3544
    1TCq1    C813821   2.522   3.516  14.580  1.0830  0.9124  0.5030
    1TCq1    O413822   2.599   3.467  14.658  0.7197  0.2239 -0.1110
    1TCq1    C913823   2.161   3.408  14.285  0.0404 -0.6005 -0.0683
    1TCq1    O513824   2.083   3.488  14.346 -0.2214 -0.3623 -0.0569
    1TCq1    O613825   2.119   3.333  14.192  0.2748 -0.3885  0.0490
    1TCq1    H113826   2.583   3.176  14.398  0.8447  1.8764  0.7539
    1TCq1    H213827   2.340   3.309  14.144  0.7934  1.7701 -1.1456
    1TCq1    H313828   2.276   3.501  14.500  0.8652 -0.6313  0.7827
    1TCq1    H413829   2.666   3.382  14.420 -0.3545  0.1429  0.7228
    2MPD2     C13830   2.502   3.945  14.861  0.2620 -0.0100 -0.0313
    2MPD2    C113831   2.409   3.961  14.760 -0.0964 -0.2991  0.2483
    2MPD2    C213832   2.390   3.855  14.672  0.6470  0.2188 -0.1455
    2MPD2    C313833   2.475   3.743  14.674 -0.0707  0.1851  0.1124
    2MPD2    C413834   2.574   3.739  14.773 -0.6124 -0.9723 -0.2467
    2MPD2    C513835   2.580   3.835  14.869  0.1947  0.9056 -0.3680
    2MPD2     H13836   2.312   3.853  14.596  1.1324 -0.9077 -0.6063
    2MPD2    H113837   2.636   3.651  14.787  1.4924  0.6265  0.3702
    2MPD2    H213838   2.512   4.014  14.944  1.1948 -0.3023  0.1014
    2MPD2    H313839   2.632   3.811  14.961  2.3106 -1.5096 -2.1884
    2MPD2     N13840   2.460   3.638  14.579 -0.1828  0.6057  0.2681
    2MPD2    H513841   2.392   3.657  14.507  0.6334  1.7148 -0.2182
    2MPD2    N113842   2.320   4.075  14.765  0.0077  0.2651  0.3456
    2MPD2    H713843   2.325   4.124  14.854 -1.0418 -0.3589  0.7441
    3TMC2    C113844   2.163   4.241  14.695  0.0907  0.1617  0.8878
    3TMC2    C213845   2.198   4.307  14.813 -0.0488 -0.2465 -0.6028
    3TMC2    C313846   2.141   4.437  14.822 -0.0986  0.2998 -0.9616
    3TMC2    C413847   2.092   4.294  14.593  0.7463  0.0923  0.5707
    3TMC2    C513848   2.043   4.422  14.609 -0.4052  0.5548  0.4492
    3TMC2    C613849   2.064   4.494  14.724  0.3224  0.1305  0.1621
    3TMC2     C13850   2.246   4.122  14.663 -0.4203  0.6718 -1.0026
    3TMC2     O13851   2.251   4.090  14.544 -0.2580  0.1671 -0.3901
    3TMC2     H13852   2.261   4.262  14.888  1.5589  1.2741 -1.0441
    3TMC2    H113853   2.081   4.232  14.505 -0.6342  0.5302  0.4317
    3TMC2    H213854   2.027   4.595  14.738  3.2234  1.0322  1.5208
    3TMC2    C713855   1.983   4.478  14.489  1.1785  0.9530 -0.7494
    3TMC2    C813856   2.160   4.508  14.948 -0.1429 -0.1807  0.8321
    3TMC2    O113857   1.971   4.393  14.397  0.1556 -0.6603 -0.3618
    3TMC2    O213858   2.078   4.581  15.001  0.1624 -0.7296 -0.2545
    3TMC2    O513859   2.289   4.489  14.981  0.2010 -0.3587  0.0513
    3TMC2    H513860   2.344   4.444  14.913  0.0401 -0.3764 -0.0678
    4MPD2     C13861   1.688   0.983  13.904  0.0923  0.7306  0.6796
    4MPD2    C113862   1.690   0.845  13.886  0.5334  0.7037  0.1912
    4MPD2    C213863   1.797   0.767  13.940  0.5327  0.2488 -0.1725
    4MPD2    C313864   1.900   0.830  14.002  0.2020 -0.6174  0.5601
    4MPD2    C413865   1.901   0.969  14.019  0.0147  0.7963 -0.4620
    4MPD2    C513866   1.794   1.038  13.966  0.0331 -0.2224 -0.2335
    4MPD2     H13867   1.797   0.659  13.928 -0.8761  0.0012  2.2899
    4MPD2    H113868   1.970   1.012  14.090  0.8593  1.2263 -1.5376
    4MPD2    H213869   1.619   1.045  13.847 -0.0519 -0.4399 -0.4287
    4MPD2    H313870   1.791   1.145  13.983 -1.3847 -0.3896  0.5713
    4MPD2     N13871   2.009   0.752  14.053  0.1706  0.6515 -0.0803
    4MPD2    H513872   2.004   0.651  14.052  2.9670  0.5016  0.5908
    4MPD2    N113873   1.579   0.788  13.814 -0.3373  0.5451  0.1862
    4MPD2    H713874   1.518   0.857  13.772 -0.5269 -0.2229 -0.7860
    5TCq2    C113875   2.114   0.795  14.129 -0.8805 -0.6699  0.3380
    5TCq2    O213876   2.155   0.911  14.142  0.4875  0.1183  0.3565
    5TCq2    C213877   2.180   0.688  14.206  0.6369 -0.0681  0.8391
    5TCq2    C313878   2.310   0.713  14.247 -0.5611 -0.4306  0.5154
    5TCq2    C413879   2.369   0.642  14.349 -0.0894 -0.1325 -0.0215
    5TCq2    C513880   2.298   0.536  14.399 -0.5203  0.6595  0.1844
    5TCq2    C613881   2.173   0.508  14.348 -0.2615 -0.4537 -0.0638
    5TCq2    C713882   2.110   0.582  14.253 -0.9416 -0.8356  0.0275
    5TCq2    C813883   2.103   0.382  14.394 -0.6660  0.1837 -0.3534
    5TCq2    O413884   2.156   0.313  14.478 -0.4992  0.3737  0.6076
    5TCq2    C913885   2.500   0.670  14.405  0.4816  1.0284 -0.2339
    5TCq2    O513886   2.552   0.576  14.475  0.1853  0.1789 -0.2938
    5TCq2    O613887   2.555   0.784  14.394 -0.5093  0.2528 -0.1802
    5TCq2    H213888   2.361   0.799  14.204  1.3322 -2.0504 -0.4562
    5TCq2    H313889   2.323   0.478  14.487 -0.9647  0.9666  0.5123
    5TCq2    H413890   2.008   0.567  14.220 -1.1981  0.4694  0.2298
    6MPD1     C13891   0.770   1.809  12.577 -0.1769 -0.2873  0.1912
    6MPD1    C113892   0.862   1.728  12.513 -0.8016 -0.3389  0.1931
    6MPD1    C213893   0.934   1.641  12.601 -0.1707  0.0469  0.1575
    6MPD1    C313894   0.909   1.649  12.743 -0.4553  0.4519 -0.3408
    6MPD1    C413895   0.806   1.723  12.793  0.0477 -0.5624  0.3065
    6MPD1    C513896   0.737   1.804  12.708  0.0171  0.2582 -0.4060
    6MPD1     H13897   1.012   1.582  12.554 -3.4352 -4.0524 -0.0899
    6MPD1    H113898   0.783   1.727  12.899 -0.0142 -0.8494  0.3030
    6MPD1    H213899   0.713   1.884  12.522  1.2028  0.2044 -0.5623
    6MPD1    H313900   0.667   1.881  12.738  1.0555  0.2610  2.0209
    6MPD1     N13901   0.981   1.580  12.837 -1.1424  0.2398  0.7066
    6MPD1    H513902   0.963   1.589  12.937 -0.0219  1.3864  0.8054
    6MPD1    N113903   0.897   1.745  12.380  0.4345  0.4945 -0.3397
    6MPD1    H613904   0.933   1.661  12.335 -2.7847 -0.0692 -1.8389
    6MPD1    H713905   0.834   1.788  12.313  0.0408  1.4794  0.6631
    7MPD2     C13906   1.038   1.274  13.573 -0.1992  0.1724 -0.6246
    7MPD2    C113907   1.041   1.174  13.470 -0.0270  0.3154 -0.4925
    7MPD2    C213908   1.065   1.040  13.510  0.2159 -0.3566  0.1982
    7MPD2    C313909   1.079   1.007  13.642 -0.2526  0.5226 -0.0900
    7MPD2    C413910   1.063   1.100  13.745 -0.9330 -1.1075 -0.3062
    7MPD2    C513911   1.046   1.234  13.704  0.3158 -0.6926  0.0830
    7MPD2     H13912   1.080   0.962  13.436 -1.5086 -1.1248  0.6560
    7MPD2    H113913   1.070   1.069  13.849  1.0724  0.3686  0.0084
    7MPD2    H213914   1.023   1.381  13.566 -0.5200  0.1971  0.4931
    7MPD2    H313915   1.051   1.308  13.783 -0.5730 -1.7696  1.1329
    7MPD2     N13916   1.103   0.867  13.665 -0.0337  0.9580 -0.0505
    7MPD2    H513917   1.123   0.817  13.579 -1.2033 -0.0439  0.2610
    7MPD2    N113918   1.027   1.204  13.333 -0.1864 -0.1604  0.5376
    7MPD2    H713919   1.047   1.126  13.271 -2.4178 -1.9927  2.1327
    8TMC3    C113920   1.200   0.690  13.762  0.1043  0.1826  0.1583
    8TMC3    C213921   1.326   0.692  13.813  0.7149 -0.2244 -0.0036
    8TMC3    C313922   1.423   0.638  13.744 -0.2459 -0.4733 -0.8183
    8TMC3    C413923   1.178   0.632  13.643  0.0082 -0.5327  0.2229
    8TMC3    C513924   1.292   0.607  13.568  0.3719 -0.0190  0.0760
    8TMC3    C613925   1.419   0.598  13.616  0.0301 -0.3339  0.4611
    8TMC3     C13926   1.134   0.811  13.790  0.6781 -0.6509  0.5037
    8TMC3     O13927   1.133   0.855  13.905  0.3560 -0.4345 -0.0469
    8TMC3     H13928   1.332   0.733  13.913 -0.4559  0.8738 -0.3786
    8TMC3    H113929   1.080   0.629  13.597 -0.5957 -3.1742  1.6982
    8TMC3    H213930   1.500   0.543  13.569  2.6608  2.4417  1.7291
    8TMC3    C713931   1.286   0.674  13.436  0.1763  0.2883  0.6869
    8TMC3    C813932   1.548   0.651  13.801 -0.2788  0.0765  0.5075
    8TMC3    O113933   1.181   0.734  13.415  0.0389  0.2166 -0.4518
    8TMC3    O213934   1.605   0.548  13.833 -0.0149 -0.2319 -0.1252
    9TMC3    C113935   1.137   1.437  12.938  0.1269 -0.6023 -0.5333
    9TMC3    C213936   1.229   1.340  12.923 -0.2771  0.0604  0.4365
    9TMC3    C313937   1.260   1.251  13.024  0.0092  0.2884 -0.9241
    9TMC3    C413938   1.066   1.431  13.055  0.6069  0.1176 -0.3150
    9TMC3    C513939   1.082   1.327  13.147  0.7371  0.6269 -0.5850
    9TMC3    C613940   1.184   1.239  13.137  0.2484 -0.0274 -0.4967
    9TMC3     C13941   1.088   1.503  12.811  0.1931 -0.4840 -0.2550
    9TMC3     O13942   1.135   1.459  12.709  0.5647  0.3359 -0.1989
    9TMC3     H13943   1.283   1.337  12.828  1.9160  2.6634  1.5834
    9TMC3    H113944   0.986   1.499  13.081  0.3414  0.3591 -1.7602
    9TMC3    H213945   1.232   1.205  13.228 -0.4874 -0.8228 -0.4037
    9TMC3    C713946   1.032   1.336  13.277 -0.1949  0.0650 -0.6140
    9TMC3    C813947   1.369   1.154  13.013 -0.0082  0.8351  0.0741
    9TMC3    O113948   1.003   1.438  13.326  0.3308  0.7632 -0.4036
    9TMC3    O213949   1.461   1.181  12.934  0.2441  0.1679 -0.5744
   10MPD2     C13950   1.566   0.723  13.201 -0.7022  0.4326  0.0201
   10MPD2    C113951   1.439   0.743  13.260 -0.3813 -0.1430  0.2176
   10MPD2    C213952   1.370   0.852  13.222  0.2194 -0.2219 -0.4318
   10MPD2    C313953   1.419   0.939  13.126  0.4255  0.4935  0.0774
   10MPD2    C413954   1.539   0.919  13.065 -0.1970  0.4811 -0.3211
   10MPD2    C513955   1.610   0.815  13.110 -0.1172 -0.1305 -0.0503
   10MPD2     H13956   1.272   0.870  13.264  0.4151  0.4332 -0.2538
   10MPD2    H113957   1.579   0.985  12.989  0.1025  1.9729  1.1146
   10MPD2    H213958   1.632   0.641  13.228  1.9002  2.7333  0.7435
   10MPD2    H313959   1.711   0.806  13.072 -0.3650 -0.2781 -0.6686
   10MPD2     N13960   1.338   1.053  13.100 -0.1158  0.1860  0.2634
   10MPD2    H513961   1.252   1.061  13.152 -0.9958 -1.1322 -0.9874
   10MPD2    N113962   1.399   0.657  13.363  0.5092  0.2247  0.1935
   10MPD2    H713963   1.462   0.585  13.396  1.1434  0.0682 -1.3541
   11MPD2     C13964   1.908   4.642  14.260  0.6737  0.5268 -0.5875
   11MPD2    C113965   1.962   4.693  14.376  0.3251 -0.0884  0.0898
   11MPD2    C213966   1.987   0.107  14.382  0.9171  1.0543 -0.3710
   11MPD2    C313967   1.985   0.194  14.281 -0.2348 -0.3806 -0.0372
   11MPD2    C413968   1.932   0.146  14.158  0.4922 -0.3199 -0.6132
   11MPD2    C513969   1.885   0.010  14.159  0.9067  1.0136  0.0759
   11MPD2     H13970   2.019   0.148  14.477  1.7796  1.1511 -0.7058
   11MPD2    H113971   1.916   0.215  14.076 -0.0289  1.5709  1.0712
   11MPD2    H213972   1.887   4.537  14.240  0.3654  1.1748 -3.6832
   11MPD2    H313973   1.820   4.696  14.080  1.1800 -0.6500  0.5863
   11MPD2     N13974   2.033   0.331  14.287  0.7936 -0.0083  0.0727
   11MPD2    H513975   2.025   0.382  14.200 -0.7597 -0.6279 -0.1416
   11MPD2    N113976   1.997   4.614  14.486  0.9994 -0.2409 -0.6861
   11MPD2    H713977   2.018   4.656  14.576  0.4646 -1.3800 -0.0262
    1MPD1     C13978   3.826   1.801  16.914  0.6523 -0.5153 -0.2743
    1MPD1    C113979   3.886   1.739  17.019 -0.8258 -0.3502  0.1048
    1MPD1    C213980   4.025   1.737  17.030 -0.4479 -0.0383 -0.3683
    1MPD1    C313981   4.101   1.789  16.927  0.0890  0.1543 -0.7645
    1MPD1    C413982   4.043   1.843  16.815  0.5335 -0.4946 -0.9145
    1MPD1    C513983   3.905   1.851  16.813 -0.1331  0.7414 -1.0030
    1MPD1     H13984   4.065   1.689  17.118 -2.0167 -2.7318 -1.1266
    1MPD1    H113985   4.099   1.889  16.734  1.7155  1.5894  1.0732
    1MPD1    H213986   3.719   1.811  16.902  0.7589  0.3968 -0.4724
    1MPD1    H313987   3.860   1.893  16.724  0.2384  2.2306 -0.4996
    1MPD1     N13988   4.240   1.780  16.913 -0.1678 -0.3608 -0.1172
    1MPD1    H513989   4.268   1.817  16.823 -1.0327 -0.0239 -0.2467
    1MPD1    N113990   3.818   1.689  17.123  0.0401  0.0046 -0.5496
    1MPD1    H613991   3.718   1.682  17.105 -0.6029  0.7288  2.7811
    1MPD1    H713992   3.853   1.595  17.141  0.1735 -0.3654 -2.7262
    2MPD1     C13993   0.492   1.629  17.368  0.0627 -0.2061 -1.3361
    2MPD1    C113994   0.508   1.739  17.291  0.1224  0.3004  0.8634
    2MPD1    C213995   0.402   1.779  17.212  0.1169 -0.5840 -0.2415
    2MPD1    C313996   0.286   1.698  17.197  0.4619  0.3578  0.0685
    2MPD1    C413997   0.282   1.582  17.274  0.3673 -0.0751 -0.4393
    2MPD1    C513998   0.380   1.548  17.359  0.7074 -0.7102 -0.3124
    2MPD1     H13999   0.412   1.870  17.153  1.2262 -0.9911 -0.6873
    2MPD1    H114000   0.195   1.518  17.276 -1.2852  2.1381 -0.8908
    2MPD1    H214001   0.575   1.588  17.423  0.8218  3.2770  0.0792
    2MPD1    H314002   0.374   1.460  17.423 -1.4079  0.0207  0.5008
    2MPD1     N14003   0.180   1.734  17.113 -0.5665 -0.2536 -0.3329
    2MPD1    H514004   0.192   1.821  17.062 -2.4696  0.0626 -0.2250
    2MPD1    N114005   0.631   1.805  17.292 -0.3621 -0.0254  0.1503
    2MPD1    H614006   0.631   1.893  17.241  2.0074 -0.7139 -1.0651
    2MPD1    H714007   0.681   1.807  17.380  1.2629 -0.3689 -0.7623
    3TMC3    C114008   4.682   1.746  17.036  0.6472 -0.2200  0.3903
    3TMC3    C214009   4.717   1.764  16.902 -0.0130 -0.7524  0.5634
    3TMC3    C314010   4.630   1.746  16.794  1.1401  0.1943 -0.7371
    3TMC3    C414011   4.554   1.730  17.070  0.1838  0.2381  0.0208
    3TMC3    C514012   4.468   1.731  16.960  0.1628  0.9209 -0.0507
    3TMC3    C614013   4.499   1.727  16.822 -0.5284  0.8792 -0.5668
    3TMC3     C14014   0.060   1.689  17.131 -0.4476 -0.3027  0.3113
    3TMC3     O14015   0.006   1.642  17.232 -0.3443  1.1365 -0.1167
    3TMC3     H14016   0.102   1.780  16.881 -0.0260 -1.6701 -0.2440
    3TMC3    H114017   4.516   1.720  17.171 -2.0723  2.4376 -0.6130
    3TMC3    H214018   4.425   1.694  16.750 -0.8633  0.5877 -0.0945
    3TMC3    C714019   4.328   1.723  17.000  0.2397  0.1041  0.6730
    3TMC3    C814020   4.651   1.780  16.658  1.3994 -0.5025 -0.6977
    3TMC3    O114021   4.303   1.667  17.106 -0.6540 -0.0914 -0.3210
    3TMC3    O214022   4.550   1.793  16.588  0.5639  0.2053  0.4118
    4MPD1     C14023   0.225   1.752  16.242  0.6323 -0.7876 -0.2834
    4MPD1    C114024   0.294   1.708  16.354 -0.5304 -0.5392 -0.0310
    4MPD1    C214025   0.238   1.697  16.484  0.3675  0.5315 -0.3740
    4MPD1    C314026   0.113   1.750  16.500  0.1819  0.3986 -0.0179
    4MPD1    C414027   0.037   1.784  16.392 -0.1852  0.2637  0.3129
    4MPD1    C514028   0.095   1.779  16.264  0.4419  0.4040 -0.1357
    4MPD1     H14029   0.295   1.657  16.567  0.9299  2.6565  0.2549
    4MPD1    H114030   4.651   1.804  16.397 -0.4281 -0.5898 -1.3309
    4MPD1    H214031   0.259   1.770  16.141 -4.4104 -3.8773 -2.5663
    4MPD1    H314032   0.052   1.819  16.173 -1.0136 -1.0383 -0.0872
    4MPD1     N14033   0.060   1.745  16.630  0.1736 -0.0541  0.3020
    4MPD1    H514034   0.123   1.711  16.701  1.8807  0.9334 -0.7593
    4MPD1    N114035   0.434   1.702  16.340 -0.3258 -0.3605  0.2521
    4MPD1    H614036   0.471   1.679  16.248  0.1515 -0.1474  0.3885
    4MPD1    H714037   0.490   1.640  16.400 -0.6993 -0.5842  0.3703
    1TCq1    O114038   1.568   1.013  11.689  0.3193 -0.2324 -0.2701
    1TCq1    C114039   1.530   0.907  11.612  0.0565  0.4122 -0.4163
    1TCq1    O214040   1.597   0.867  11.522  0.1372 -0.5084  0.3669
    1TCq1    C214041   1.385   0.925  11.588  0.4269 -0.2173 -1.0570
    1TCq1    C314042   1.310   0.998  11.683  0.4728 -0.1581 -0.0599
    1TCq1    C414043   1.184   1.028  11.655 -0.3375 -0.4784  0.2208
    1TCq1    C514044   1.138   1.031  11.528  0.6552  0.1095 -0.4444
    1TCq1    C614045   1.223   0.993  11.430 -0.5157  0.0581 -0.2408
    1TCq1    C714046   1.343   0.934  11.453  0.6012  0.0650 -0.3168
    1TCq1    C814047   1.189   1.029  11.291  0.1280  0.2139  0.6673
    1TCq1    O414048   1.074   1.051  11.254  0.2087 -0.2749 -0.3087
    1TCq1    C914049   1.113   1.111  11.759 -0.4465 -0.5341 -0.3735
    1TCq1    O514050   0.995   1.145  11.734  0.1388 -0.0651 -0.6991
    1TCq1    O614051   1.186   1.166  11.846 -0.6182  0.5600  0.4621
    1TCq1    H114052   1.510   1.059  11.753 -1.5846 -3.3974  0.3105
    1TCq1    H214053   1.333   0.991  11.789 -0.5844  0.7183  0.2278
    1TCq1    H314054   1.049   1.087  11.504 -0.5610 -1.2401  0.8965
    1TCq1    H414055   1.404   0.888  11.376  0.6012 -0.6057  0.0823
    2MPD1     C14056   1.330   1.162  10.820 -0.0196 -0.4188  0.5526
    2MPD1    C114057   1.437   1.167  10.903  0.7457  0.3978 -0.0435
    2MPD1    C214058   1.429   1.130  11.033 -0.0603  0.1978  0.5433
    2MPD1    C314059   1.306   1.089  11.086 -0.4421 -0.4192  0.0582
    2MPD1    C414060   1.191   1.094  11.006 -0.0138  0.2020  0.2707
    2MPD1    C514061   1.208   1.132  10.880  1.1101  0.3285 -0.2045
    2MPD1     H14062   1.517   1.145  11.095  0.8114 -1.5265 -0.2670
    2MPD1    H114063   1.096   1.051  11.036 -0.1923  1.4194  1.4409
    2MPD1    H214064   1.334   1.182  10.714  0.0459  1.4798  0.9005
    2MPD1    H314065   1.125   1.120  10.811 -1.7659 -0.1841  3.3958
    2MPD1     N14066   1.305   1.039  11.219  0.3820 -0.2237 -0.0500
    2MPD1    H514067   1.394   1.025  11.264  0.7668  1.8280 -0.1724
    2MPD1    N114068   1.561   1.219  10.850  0.0662 -0.7192  0.2280
    2MPD1    H614069   1.632   1.195  10.919 -0.2534 -1.3107  0.3440
    2MPD1    H714070   1.575   1.176  10.759  0.0086  1.0643 -0.6251
    1TCq1    O114071   3.418   0.989  17.016  0.4904 -0.0561  0.3933
    1TCq1    C114072   3.491   0.906  16.939  0.5162  0.5040  0.0135
    1TCq1    O214073   3.485   0.888  16.812  0.2655 -0.4154  0.1813
    1TCq1    C214074   3.578   0.841  17.033 -0.4560 -0.2718 -0.0870
    1TCq1    C314075   3.707   0.848  17.004  0.3205  0.0258  0.1177
    1TCq1    C414076   3.799   0.795  17.088  0.5008  0.3345  0.3013
    1TCq1    C514077   3.760   0.739  17.201  1.0187  0.5269 -0.1479
    1TCq1    C614078   3.624   0.710  17.215 -0.1432 -0.5226  0.0463
    1TCq1    C714079   3.529   0.769  17.135 -0.1330 -0.0311 -0.5067
    1TCq1    C814080   3.578   0.641  17.334  0.1461  0.4314 -0.2870
    1TCq1    O414081   3.457   0.660  17.351  0.1604  0.4473 -0.5678
    1TCq1    C914082   3.930   0.858  17.094  0.6234  0.4191  0.4717
    1TCq1    O514083   3.954   0.953  17.014 -0.0369  0.3163 -0.6216
    1TCq1    O614084   4.005   0.821  17.187 -0.6701 -0.0996 -0.2168
    1TCq1    H114085   3.461   1.007  17.102 -0.8212 -0.2263  1.0816
    1TCq1    H214086   3.739   0.921  16.930  0.1645 -1.1747 -1.1321
    1TCq1    H314087   3.828   0.722  17.283 -2.1430  1.1849  2.6150
    1TCq1    H414088   3.424   0.746  17.145  0.1845 -1.4232 -0.3007
    2MPD1     C14089   3.640   0.339   0.052  0.1249 -0.4640 -0.4155
    2MPD1    C114090   3.764   0.356  17.676 -0.1584 -0.2345 -0.3136
    2MPD1    C214091   3.785   0.431  17.563 -0.6569  0.7075 -0.7523
    2MPD1    C314092   3.671   0.494  17.510 -0.4308  0.3250 -0.0586
    2MPD1    C414093   3.550   0.481  17.573 -0.2286 -0.5233 -0.3126
    2MPD1    C514094   3.538   0.405   0.000 -0.0524  0.1982 -0.3372
    2MPD1     H14095   3.885   0.430  17.520 -0.5354  0.4992 -0.4675
    2MPD1    H114096   3.462   0.535  17.540 -0.3212 -0.4446  0.0604
    2MPD1    H214097   3.633   0.263   0.129  1.8844 -0.3144 -0.1214
    2MPD1    H314098   3.441   0.418   0.048 -0.8036 -1.1137 -1.5184
    2MPD1     N14099   3.681   0.574  17.396  0.0302  0.2196 -0.0309
    2MPD1    H514100   3.765   0.571  17.339 -0.6263  1.2696 -1.0513
    2MPD1    N114101   3.862   0.273   0.032 -0.1880 -0.0501 -0.3359
    2MPD1    H614102   3.862   0.264   0.134  1.2123  0.6491 -0.2730
    2MPD1    H714103   3.952   0.314   0.011 -0.0415 -0.8968 -1.3212
    1MPD1     C14104   2.656   1.818  11.179  0.3259  0.1896  0.5966
    1MPD1    C114105   2.743   1.925  11.157  0.0348  0.5891 -1.1462
    1MPD1    C214106   2.823   1.953  11.264  0.2884  0.8540 -0.9202
    1MPD1    C314107   2.797   1.912  11.394  1.1246 -0.2728 -0.0297
    1MPD1    C414108   2.711   1.817  11.414  0.3921  0.1548 -0.1445
    1MPD1    C514109   2.640   1.773  11.304 -0.9404 -0.3764 -0.3855
    1MPD1     H14110   2.910   2.015  11.242  0.6382  0.8745  0.5853
    1MPD1    H114111   2.699   1.786  11.518 -2.9699 -1.0769 -0.9140
    1MPD1    H214112   2.611   1.760  11.099  3.7841 -2.2521  0.3974
    1MPD1    H314113   2.568   1.693  11.321 -0.0310 -1.3244 -1.0482
    1MPD1     N14114   2.888   1.962  11.489 -0.5372 -0.0998  0.1096
    1MPD1    H514115   2.958   2.029  11.461  0.9432 -0.4580  2.9629
    1MPD1    N114116   2.781   1.966  11.031 -0.9554 -0.3906  0.6130
    1MPD1    H614117   2.819   2.060  11.043  0.8132 -1.3822  2.8447
    1MPD1    H714118   2.707   1.961  10.961 -0.8022 -0.9355  0.4941
    2MPD1     C14119   2.172   1.301  11.501  0.6236  0.2424 -0.1275
    2MPD1    C114120   2.149   1.313  11.365  0.0754 -0.5326 -0.2942
    2MPD1    C214121   2.242   1.256  11.274  0.3713 -0.3147 -0.3843
    2MPD1    C314122   2.353   1.189  11.313  0.5160 -0.1741 -0.0020
    2MPD1    C414123   2.379   1.181  11.452 -0.9119 -0.1868 -0.4309
    2MPD1    C514124   2.289   1.237  11.542 -0.0913 -0.0401 -0.5555
    2MPD1     H14125   2.237   1.271  11.167  2.2913 -1.4853 -0.6353
    2MPD1    H114126   2.469   1.132  11.488 -0.9979 -0.8946 -1.1960
    2MPD1    H214127   2.113   1.340  11.583  1.4406 -0.1980  0.6802
    2MPD1    H314128   2.313   1.230  11.647  3.2599  0.9212 -1.2614
    2MPD1     N14129   2.453   1.133  11.231 -0.1455  0.0650 -0.0862
    2MPD1    H514130   2.520   1.080  11.286 -0.8333  0.4168  1.0810
    2MPD1    N114131   2.037   1.388  11.317  0.0334  0.1900  0.1462
    2MPD1    H614132   1.994   1.353  11.231  1.8065 -1.0537 -0.2415
    2MPD1    H714133   1.958   1.401  11.379 -1.0067 -0.7181 -0.9983
    3MPD1     C14134   2.492   0.714  10.292  0.0839  0.2766 -0.0858
    3MPD1    C114135   2.393   0.704  10.395  0.0038 -0.5797  0.2190
    3MPD1    C214136   2.421   0.750  10.526  0.1770 -0.3291  0.4729
    3MPD1    C314137   2.549   0.791  10.563 -0.5970 -0.6997 -0.6097
    3MPD1    C414138   2.642   0.797  10.458 -0.0235 -0.3878 -0.9684
    3MPD1    C514139   2.617   0.755  10.327 -0.4025 -0.6431  0.0920
    3MPD1     H14140   2.344   0.747  10.601 -0.8433 -0.8914 -0.6048
    3MPD1    H114141   2.741   0.837  10.477 -1.2633  2.5663 -0.6440
    3MPD1    H214142   2.461   0.693  10.191 -0.7958  2.1027 -0.1912
    3MPD1    H314143   2.679   0.794  10.248 -0.4674  0.4246  0.5601
    3MPD1     N14144   2.564   0.831  10.698  0.0499 -0.0663  0.4217
    3MPD1    H514145   2.481   0.818  10.755 -0.6563  1.5347 -0.2358
    3MPD1    N114146   2.271   0.639  10.367 -0.4325  0.4188  0.4445
    3MPD1    H614147   2.213   0.662  10.448 -1.3753 -0.6776  0.0727
    3MPD1    H714148   2.223   0.687  10.291  1.0927 -1.5569 -1.7726
    4MPD2     C14149   3.274   2.098  11.157 -0.0871 -0.3066 -0.4203
    4MPD2    C114150   3.324   2.023  11.259  0.2763 -0.1660 -0.3132
    4MPD2    C214151   3.405   1.914  11.225  0.2210 -0.0608  0.8319
    4MPD2    C314152   3.419   1.869  11.100  0.6312  0.3491 -0.2221
    4MPD2    C414153   3.362   1.944  10.998  0.1347 -0.9186 -0.4214
    4MPD2    C514154   3.287   2.056  11.026  0.6483 -0.0687 -0.2555
    4MPD2     H14155   3.441   1.853  11.307  2.5698 -1.3944 -1.1762
    4MPD2    H114156   3.374   1.918  10.894  0.3624  4.2014 -1.6617
    4MPD2    H214157   3.224   2.193  11.171  0.7978  0.1650 -0.4447
    4MPD2    H314158   3.253   2.112  10.940  1.8211  1.7127  0.4556
    4MPD2     N14159   3.491   1.751  11.090  0.6498  0.3937 -0.5277
    4MPD2    H514160   3.524   1.713  11.178 -2.0151 -3.2278 -1.1081
    4MPD2    N114161   3.303   2.040  11.398  0.2167 -0.1950 -0.1124
    4MPD2    H714162   3.355   1.984  11.464  0.6376  0.5606  0.2052
    5TMC3    C114163   3.199   2.118  11.594  0.3301  0.6114 -0.2912
    5TMC3    C214164   3.066   2.096  11.620  0.2211 -0.5728 -0.1468
    5TMC3    C314165   3.027   1.980  11.678  0.1705 -0.7726 -0.6353
    5TMC3    C414166   3.298   2.041  11.639  0.2588 -0.0529  0.0865
    5TMC3    C514167   3.254   1.924  11.698 -0.3856  0.2875  0.8361
    5TMC3    C614168   3.125   1.887  11.705  0.3793  0.2691 -0.2023
    5TMC3     C14169   3.208   2.125  11.450  0.5398  0.5354 -0.0161
    5TMC3     O14170   3.114   2.179  11.392 -0.4752  0.7960 -0.1907
    5TMC3     H14171   2.995   2.175  11.600  1.0188  0.1684 -0.0322
    5TMC3    H114172   3.398   2.080  11.628  1.6255 -2.8317  2.5289
    5TMC3    H214173   3.097   1.784  11.726  1.0661  0.3888  1.2886
    5TMC3    C714174   3.353   1.821  11.664  0.5175  0.2555 -0.2843
    5TMC3    C814175   2.908   1.918  11.621  0.0291 -0.9889  0.5973
    5TMC3    O114176   3.439   1.852  11.583  0.0927  0.4070  0.0470
    5TMC3    O214177   2.847   1.828  11.685  0.3847 -0.1950  0.3143
    6TMC3    C114178   2.569   1.045  11.051  0.0273 -0.2002  0.0697
    6TMC3    C214179   2.554   0.964  10.946  0.1369  0.7916 -0.1265
    6TMC3    C314180   2.670   0.909  10.893  0.0877 -0.0106 -0.3537
    6TMC3    C414181   2.697   1.063  11.109 -0.1549  0.1893 -0.3763
    6TMC3    C514182   2.809   1.005  11.055  0.2190  0.0361  0.0818
    6TMC3    C614183   2.800   0.920  10.946  0.3290  0.0070  0.1418
    6TMC3     C14184   2.455   1.119  11.096  0.1460  0.6255 -0.4900
    6TMC3     O14185   2.354   1.135  11.026  0.6080  0.0630 -0.2807
    6TMC3     H14186   2.454   0.961  10.903 -1.0172  0.8283  2.5471
    6TMC3    H114187   2.702   1.115  11.204 -2.7923  0.3449 -0.3378
    6TMC3    H214188   2.888   0.875  10.900 -0.9975 -0.7248 -1.6782
    6TMC3    C714189   2.945   1.027  11.105 -0.1516  0.2482  0.0530
    6TMC3    C814190   2.680   0.871  10.758  0.3337  0.8421 -0.1301
    6TMC3    O114191   2.966   1.140  11.152  0.3213  0.1650  0.2567
    6TMC3    O214192   2.792   0.868  10.705 -0.8475 -0.0047 -0.3360
    7MPD2     C14193   3.537   1.353  11.661  0.0861  0.4671 -0.4578
    7MPD2    C114194   3.538   1.444  11.561 -0.5831  0.0235 -1.0065
    7MPD2    C214195   3.481   1.567  11.590  0.3160 -0.4864  0.0741
    7MPD2    C314196   3.412   1.590  11.713  0.6308 -0.6805 -0.2008
    7MPD2    C414197   3.410   1.494  11.811 -0.1775 -0.4857 -0.3735
    7MPD2    C514198   3.479   1.378  11.784 -0.4933  0.3022 -0.4886
    7MPD2     H14199   3.467   1.643  11.515 -4.3750 -0.2097  1.2144
    7MPD2    H114200   3.350   1.516  11.898 -1.7172 -1.8418 -1.0939
    7MPD2    H214201   3.579   1.255  11.641 -0.9225  0.2716 -1.6424
    7MPD2    H314202   3.475   1.306  11.866 -0.0213 -0.4547 -1.1277
    7MPD2     N14203   3.337   1.703  11.733 -0.1561 -0.4776  0.5760
    7MPD2    H514204   3.274   1.699  11.812 -0.1367 -0.2314  0.6047
    7MPD2    N114205   3.592   1.409  11.425  0.2892 -0.7777  0.0518
    7MPD2    H714206   3.601   1.310  11.409 -1.1559 -1.2265  1.9695
    8TMC3    C114207   3.672   1.451  11.199 -0.0590  0.3000  0.3100
    8TMC3    C214208   3.626   1.335  11.164  0.1608  0.0332 -0.1837
    8TMC3    C314209   3.549   1.323  11.054 -0.0714 -0.7300  0.1339
    8TMC3    C414210   3.671   1.557  11.106 -0.1934  0.0134 -0.4418
    8TMC3    C514211   3.586   1.557  11.002 -0.1285  0.5442 -0.4992
    8TMC3    C614212   3.521   1.440  10.976 -0.8784  0.2287  0.4574
    8TMC3     C14213   3.631   1.500  11.332 -0.1348  0.0087  0.6103
    8TMC3     O14214   3.602   1.619  11.326  0.3132  0.5567 -0.5061
    8TMC3     H14215   3.645   1.248  11.226 -1.4448 -0.1053  0.1129
    8TMC3    H114216   3.721   1.650  11.134 -3.2231  1.1406  1.2191
    8TMC3    H214217   3.437   1.438  10.908  1.2366  0.0416 -2.1545
    8TMC3    C714218   3.496   1.670  10.983  0.8157 -1.0489  0.5139
    8TMC3    C814219   3.443   1.226  11.054  1.0762  0.5745  0.1101
    8TMC3    O114220   3.439   1.688  10.874  0.5525  0.4689 -0.7374
    8TMC3    O214221   3.339   1.252  10.997 -0.4635 -0.4798  0.2677
    9MPD2     C14222   3.435   0.869  11.136 -0.1231  0.2086  0.3417
    9MPD2    C114223   3.389   0.997  11.109 -0.5974  0.6057 -0.3066
    9MPD2    C214224   3.248   1.013  11.097  0.1063 -0.3244 -0.0128
    9MPD2    C314225   3.162   0.903  11.111 -0.2686 -0.2280  0.9992
    9MPD2    C414226   3.210   0.778  11.132  0.4346  0.0335 -0.6814
    9MPD2    C514227   3.345   0.763  11.151  0.6248 -0.2949  0.0984
    9MPD2     H14228   3.198   1.106  11.071  1.3257  0.0301 -1.0978
    9MPD2    H114229   3.151   0.689  11.112 -0.1311  0.3362 -0.3646
    9MPD2    H214230   3.541   0.849  11.127 -0.5035 -1.9974  0.7476
    9MPD2    H314231   3.395   0.667  11.145  1.9026  0.3403  0.6120
    9MPD2     N14232   3.019   0.911  11.098  0.0340  0.0902 -0.1716
    9MPD2    H514233   2.965   0.825  11.099  0.2334 -0.0425 -0.8944
    9MPD2    N114234   3.482   1.104  11.102 -0.4952  0.3689  0.2041
    9MPD2    H714235   3.580   1.098  11.126  0.1096  0.2342 -2.2383
    1MPD1     C14236   1.409   0.606  16.470  0.4378  0.6901 -0.0007
    1MPD1    C114237   1.378   0.654  16.591  0.3599  0.1131  0.0059
    1MPD1    C214238   1.487   0.703  16.662  0.5621 -0.4329  0.4063
    1MPD1    C314239   1.615   0.717  16.615  0.4438  0.7261  0.6281
    1MPD1    C414240   1.630   0.701  16.477 -0.2802  0.3889  0.7428
    1MPD1    C514241   1.531   0.631  16.411  0.7686 -0.2137  0.4187
    1MPD1     H14242   1.478   0.709  16.770  0.7050  2.0251  0.2818
    1MPD1    H114243   1.728   0.716  16.432  0.9750 -0.3743  3.2385
    1MPD1    H214244   1.342   0.556  16.401  1.8164 -0.9375 -0.1698
    1MPD1    H314245   1.542   0.587  16.313  2.7441  1.2631 -0.0167
    1MPD1     N14246   1.733   0.749  16.690  0.4297  0.4293  0.2682
    1MPD1    H514247   1.822   0.745  16.641  0.4314  0.8418  0.2379
    1MPD1    N114248   1.262   0.616  16.651 -0.5403 -0.1684 -0.1354
    1MPD1    H614249   1.184   0.605  16.587 -0.9797 -1.1417  0.5679
    1MPD1    H714250   1.235   0.692  16.714  0.1294  0.3559 -0.4799
    2MPD1     C14251   2.201   1.313  16.325  0.0765  0.1929  0.1071
    2MPD1    C114252   2.216   1.179  16.300 -0.2111 -0.6002  0.2905
    2MPD1    C214253   2.175   1.095  16.402  0.6152  0.1832  0.0292
    2MPD1    C314254   2.147   1.140  16.531 -0.3227  0.0420  0.4635
    2MPD1    C414255   2.148   1.273  16.553 -0.3758 -0.4548 -0.3577
    2MPD1    C514256   2.167   1.355  16.448 -0.5797  0.2560  0.0485
    2MPD1     H14257   2.188   0.987  16.401 -2.0888 -0.1754  2.2913
    2MPD1    H114258   2.125   1.304  16.654 -0.2805  0.6862 -0.6858
    2MPD1    H214259   2.198   1.377  16.238  1.9528 -0.9533 -0.7995
    2MPD1    H314260   2.157   1.462  16.464 -2.5793  0.1871 -0.7041
    2MPD1     N14261   2.120   1.042  16.628 -0.1745  0.4816  0.0693
    2MPD1    H514262   2.090   0.949  16.600  0.1654 -0.2862  2.2504
    2MPD1    N114263   2.252   1.128  16.174  0.4641  0.1836  0.3135
    2MPD1    H614264   2.333   1.177  16.136  1.1111  0.2427  1.7868
    2MPD1    H714265   2.275   1.030  16.164  0.6054  0.2658 -0.1943
    3TCq2    C114266   2.119   1.063  16.764 -0.2926 -0.8041 -0.5998
    3TCq2    O214267   2.172   1.155  16.827 -0.0630 -0.2901  0.3105
    3TCq2    C214268   2.067   0.943  16.831  0.1893 -0.3742 -0.4159
    3TCq2    C314269   2.126   0.899  16.946  0.0735 -0.0217  0.2382
    3TCq2    C414270   2.059   0.810  17.023  0.1466 -0.4297 -0.4305
    3TCq2    C514271   1.940   0.753  16.980 -0.2992  1.3760  0.0543
    3TCq2    C614272   1.889   0.808  16.866 -0.1847 -0.7961 -0.4530
    3TCq2    C714273   1.944   0.902  16.791  0.3489  0.4999  0.8153
    3TCq2    C814274   1.746   0.768  16.827 -0.5989  0.3659  0.3885
    3TCq2    O414275   1.664   0.732  16.908  0.4234 -0.8329  0.2945
    3TCq2    C914276   2.110   0.775  17.157  0.3616  0.0220 -0.0737
    3TCq2    O514277   2.040   0.709  17.234  0.2539  0.6794 -0.4595
    3TCq2    O614278   2.216   0.837  17.194  0.0505 -0.3520  0.5039
    3TCq2    H214279   2.213   0.955  16.978  1.7741 -2.5878  0.0872
    3TCq2    H314280   1.889   0.686  17.049  1.1896  0.8151  0.6182
    3TCq2    H414281   1.904   0.948  16.701  1.9008 -0.9820 -0.6630
    1TCq1    O114282   4.655   3.922  12.866 -0.2835 -0.6337  0.1670
    1TCq1    C114283   0.024   3.899  12.769  0.6202 -0.2282 -0.4261
    1TCq1    O214284   0.036   3.963  12.665  0.2658 -0.5132 -0.6311
    1TCq1    C214285   0.131   3.846  12.848  0.6328  0.5844 -0.7023
    1TCq1    C314286   0.112   3.741  12.931 -0.4789  0.1313  0.0077
    1TCq1    C414287   0.209   3.700  13.021  0.0130  1.2699  0.2091
    1TCq1    C514288   0.328   3.763  13.026  0.6943 -1.2135 -0.2691
    1TCq1    C614289   0.346   3.874  12.947 -0.2711 -0.8375  0.4193
    1TCq1    C714290   0.256   3.917  12.852 -0.7978 -0.0109  0.2357
    1TCq1    C814291   0.485   3.916  12.930 -0.6853  0.0378  0.1410
    1TCq1    O414292   0.525   3.973  12.826  0.1317  0.4151 -0.1479
    1TCq1    C914293   0.188   3.578  13.084  0.4651  0.3042 -0.2359
    1TCq1    O514294   0.256   3.558  13.187 -0.7330 -0.3878  0.0133
    1TCq1    O614295   0.078   3.525  13.055  0.3560 -0.0169 -0.6893
    1TCq1    H114296   4.672   3.886  12.956  0.1214  0.7523  0.6467
    1TCq1    H214297   0.015   3.694  12.928  0.9365 -2.7670 -0.2662
    1TCq1    H314298   0.409   3.721  13.084 -0.0620  0.7829  2.2330
    1TCq1    H414299   0.273   4.006  12.792 -0.4872 -0.3605 -0.1963
    2MPD2     C14300   0.783   3.978  12.978 -0.0760  0.0608 -0.1849
    2MPD2    C114301   0.691   3.942  13.083  0.3321 -0.1975  1.0524
    2MPD2    C214302   0.737   3.934  13.210  0.0129  0.0622 -0.2551
    2MPD2    C314303   0.868   3.961  13.237 -0.5193 -0.9301 -0.1287
    2MPD2    C414304   0.955   3.996  13.135  0.1236 -0.4631  0.4260
    2MPD2    C514305   0.911   3.998  13.007  0.8341  0.1970 -0.4347
    2MPD2     H14306   0.672   3.898  13.289  0.3031 -0.8130 -0.4168
    2MPD2    H114307   1.060   4.011  13.160  0.2430 -1.0943  0.3056
    2MPD2    H214308   0.753   3.969  12.875 -0.9918  0.7874  0.0219
    2MPD2    H314309   0.989   4.010  12.933  0.1987  0.5384 -1.0402
    2MPD2     N14310   0.904   3.950  13.373 -0.4254  0.5819  0.0924
    2MPD2    H514311   0.827   3.960  13.438 -1.0301  1.5774 -0.7873
    2MPD2    N114312   0.555   3.907  13.051 -0.0800  0.2086  0.7732
    2MPD2    H714313   0.500   3.867  13.126 -1.4352  4.5106  2.0507
    3TCq1    O114314   0.958   3.997  13.986 -0.4494 -0.5026  0.1350
    3TCq1    C114315   0.929   4.019  13.860  0.2127 -0.0952 -0.1740
    3TCq1    O214316   0.828   4.075  13.820  0.1899 -0.3426  0.0014
    3TCq1    C214317   1.014   3.936  13.777 -0.6319 -0.0867  1.0037
    3TCq1    C314318   1.145   3.921  13.814 -0.3315 -0.1277 -0.1967
    3TCq1    C414319   1.240   3.895  13.713  0.5213 -0.5500 -0.1308
    3TCq1    C514320   1.198   3.874  13.584  0.1795  0.6099  0.3747
    3TCq1    C614321   1.064   3.890  13.552  1.3235 -0.3978 -0.0326
    3TCq1    C714322   0.972   3.922  13.648  0.2488 -0.9303  0.3107
    3TCq1    C814323   1.033   3.910  13.407 -0.2357 -0.5986  0.8636
    3TCq1    O414324   1.126   3.877  13.328  0.3967 -0.1806  0.0004
    3TCq1    C914325   1.382   3.907  13.736 -0.0386  0.0957  0.3852
    3TCq1    O514326   1.455   3.928  13.632  0.0126 -0.0708  0.0235
    3TCq1    O614327   1.435   3.886  13.847  0.5994  0.2377  0.3501
    3TCq1    H114328   1.021   3.922  13.998  2.0291  0.9053 -4.1695
    3TCq1    H214329   1.188   3.933  13.912 -1.7796  0.7454  0.3278
    3TCq1    H314330   1.275   3.871  13.507  0.1067  1.3315  0.2690
    3TCq1    H414331   0.868   3.947  13.630  0.0749 -2.3014 -0.6235
    1MPD2     C14332   4.089   4.458  15.527 -0.3006  0.0031  0.3432
    1MPD2    C114333   4.131   4.498  15.398 -0.4034  0.2175  0.5195
    1MPD2    C214334   4.266   4.502  15.372 -0.2922  0.4253  0.1269
    1MPD2    C314335   4.353   4.457  15.463 -0.1440 -0.4529  0.0336
    1MPD2    C414336   4.315   4.414  15.589 -0.2536  0.6734 -0.0913
    1MPD2    C514337   4.179   4.416  15.623  0.5666  0.3729  0.0157
    1MPD2     H14338   4.311   4.529  15.276  0.5141 -0.1071  0.3584
    1MPD2    H114339   4.383   4.370  15.661  0.1946  3.6323  1.3095
    1MPD2    H214340   3.987   4.448  15.562 -0.2691  1.5494  0.8650
    1MPD2    H314341   4.152   4.371  15.718  0.5063  0.5768  0.0939
    1MPD2     N14342   4.494   4.473  15.428  0.3051 -0.3833 -0.0323
    1MPD2    H514343   4.521   4.537  15.354 -0.2715  3.0314  2.7445
    1MPD2    N114344   4.032   4.542  15.311 -0.1611 -0.1337 -0.7802
    1MPD2    H714345   3.938   4.553  15.348  1.3262  3.8423  1.8856
    2TMC3    C114346   3.933   4.617  15.109  0.4811  0.7439  0.6224
    2TMC3    C214347   3.940   4.599  14.970  0.3807 -0.2765  0.3575
    2TMC3    C314348   3.941   4.707  14.884  0.4040 -0.6760  0.5847
    2TMC3    C414349   3.916   0.018  15.157  0.6432  0.3478 -0.5510
    2TMC3    C514350   3.914   0.122  15.073 -0.0518  0.0506  0.0833
    2TMC3    C614351   3.922   0.114  14.938  0.1839 -0.0561  0.7005
    2TMC3     C14352   4.044   4.550  15.173 -0.7356  0.4007 -0.3746
    2TMC3     O14353   4.132   4.529  15.094  0.3888 -0.8650  0.3567
    2TMC3     H14354   3.952   4.499  14.932 -0.0238 -0.1208 -0.1706
    2TMC3    H114355   3.930   0.037  15.263  1.1556 -0.4634 -0.4654
    2TMC3    H214356   3.937   0.208  14.886  0.0389  0.7322  2.0934
    2TMC3    C714357   3.933   0.254  15.142  0.1527 -0.1178 -0.3184
    2TMC3    C814358   4.066   4.715  14.802 -0.3559 -0.7076 -0.1906
    2TMC3    O114359   3.868   0.271  15.248  0.0113  1.0281  0.3184
    2TMC3    O214360   4.084   0.093  14.730 -0.1024  0.0531  0.0592
    3TCq1    O114361   0.007   1.085  14.708 -0.2384 -0.4296  0.2831
    3TCq1    C114362   4.590   1.064  14.718 -0.2208  0.7917 -0.6643
    3TCq1    O214363   4.514   1.148  14.666 -0.3074  0.4072 -0.0592
    3TCq1    C214364   4.561   0.961  14.810 -0.1189 -0.0338  0.6211
    3TCq1    C314365   4.657   0.860  14.813 -0.0812 -0.1003  0.7820
    3TCq1    C414366   4.647   0.766  14.916 -0.7747 -0.3693  0.5805
    3TCq1    C514367   4.541   0.771  14.998  0.6412 -0.3829 -0.5650
    3TCq1    C614368   4.446   0.874  14.985  0.2363  0.3231 -0.3238
    3TCq1    C714369   4.462   0.984  14.900  0.1595  0.0078  0.2564
    3TCq1    C814370   4.315   0.854  15.049 -0.3707  1.2762 -0.5470
    3TCq1    O414371   4.230   0.946  15.055 -0.0322  0.0213  0.2323
    3TCq1    C914372   0.019   0.655  14.921 -0.4803  0.8600  0.1719
    3TCq1    O514373   0.128   0.670  14.857 -0.1689  0.1596  0.2765
    3TCq1    O614374   4.695   0.548  14.965 -0.4980  0.3115  0.4720
    3TCq1    H114375   0.056   1.024  14.767  1.5282  1.2022  0.4989
    3TCq1    H214376   0.007   0.846  14.732 -2.0975  0.2128 -1.0523
    3TCq1    H314377   4.541   0.702  15.082 -1.7551  0.1074 -0.1579
    3TCq1    H414378   4.390   1.065  14.904  1.4367  1.2941 -2.4326
    4MPD2     C14379   4.083   0.732  15.207  0.0482 -0.4778 -0.1695
    4MPD2    C114380   4.177   0.661  15.133 -0.0219 -0.3902 -0.1084
    4MPD2    C214381   4.161   0.526  15.094 -0.2842 -0.3610 -0.1076
    4MPD2    C314382   4.046   0.459  15.123  0.2755 -0.7158 -0.0020
    4MPD2    C414383   3.947   0.526  15.198  0.1528  0.0942  0.0748
    4MPD2    C514384   3.967   0.661  15.237  0.3005  0.2175 -0.1726
    4MPD2     H14385   4.231   0.487  15.020 -1.6306  1.4851 -2.3654
    4MPD2    H114386   3.844   0.498  15.217 -0.4689  0.2046 -3.1004
    4MPD2    H214387   4.099   0.831  15.247 -0.8482 -0.2340 -0.4177
    4MPD2    H314388   3.887   0.698  15.300 -1.2629 -0.7475 -1.5516
    4MPD2     N14389   4.030   0.329  15.083 -0.1089 -0.0225  0.3009
    4MPD2    H514390   4.088   0.305  15.004  0.9328 -0.1398  1.1132
    4MPD2    N114391   4.300   0.717  15.083 -0.0900 -0.8604 -0.1429
    4MPD2    H714392   4.372   0.655  15.047  1.5229  0.7771  0.2922
    5TMC2    C114393   0.053   4.495  15.159  0.4657  0.6462  0.4225
    5TMC2    C214394   0.186   4.489  15.200  0.2370  0.4005 -0.1144
    5TMC2    C314395   0.213   4.435  15.323  0.7752  0.1781 -0.3754
    5TMC2    C414396   4.671   4.457  15.241 -1.1439 -0.0219 -0.2686
    5TMC2    C514397   4.709   4.411  15.366 -0.4553  0.3308  0.0267
    5TMC2    C614398   0.116   4.398  15.415  0.8257  0.0124  0.0221
    5TMC2     C14399   0.023   4.538  15.027  0.1037 -0.3264 -1.2218
    5TMC2     O14400   0.108   4.538  14.939 -0.1558 -0.7362 -0.1542
    5TMC2     H14401   0.258   4.529  15.130  3.7289 -2.4268  1.8800
    5TMC2    H114402   4.574   4.429  15.203 -1.3500 -0.1532  0.3421
    5TMC2    H214403   0.136   4.363  15.516 -1.2434  2.0703  1.1342
    5TMC2    C714404   4.594   4.389  15.451 -0.0603  0.1497 -0.9342
    5TMC2    C814405   0.350   4.447  15.374  0.2395  0.3203  0.0700
    5TMC2    O114406   4.598   4.293  15.527  0.4533 -0.3451  0.0750
    5TMC2    O214407   0.455   4.416  15.318  0.2973 -0.3447  0.4998
    5TMC2    O514408   0.341   4.504  15.498  0.1140 -0.2480  0.3362
    5TMC2    H514409   0.244   4.520  15.507  0.2638  0.0984  1.4250
    6MPD2     C14410   4.363   4.681  14.713  0.3630 -0.4824 -0.6020
    6MPD2    C114411   4.307   4.648  14.834 -0.2919 -0.5074 -0.0155
    6MPD2    C214412   4.401   4.621  14.935 -0.1609 -0.3734 -0.6734
    6MPD2    C314413   4.536   4.605  14.911 -0.0796 -0.3254 -0.5016
    6MPD2    C414414   4.587   4.641  14.793 -0.1982  0.1047 -0.2422
    6MPD2    C514415   4.496   4.668  14.693  0.0969 -0.5935  0.0786
    6MPD2     H14416   4.364   4.611  15.036 -2.4778 -2.0268 -1.6886
    6MPD2    H114417   4.692   4.628  14.768  0.6332  1.1402  2.6131
    6MPD2    H214418   4.300   4.714  14.631  1.1155  1.8037 -0.2712
    6MPD2    H314419   4.536   4.706  14.600  1.3793 -2.3917 -0.1216
    6MPD2     N14420   4.608   4.557  15.022  0.4610  0.1546  0.5143
    6MPD2    H514421   4.557   4.549  15.109 -0.4582  2.1519  0.1556
    6MPD2    N114422   4.165   4.639  14.860 -0.1639  0.1870  0.1045
    6MPD2    H714423   4.143   4.606  14.953  0.2889 -0.5654 -0.0554
  945NH4     N114424   1.885   3.320   0.647 -0.1794  0.3031 -0.4312
  945NH4     H214425   1.956   3.268   0.703  0.5164 -0.0397 -1.6285
  945NH4     H314426   1.797   3.340   0.698 -0.4235 -1.6621 -0.0717
  945NH4     H414427   1.863   3.266   0.561 -0.0372  0.3741 -0.5126
  945NH4     H514428   1.935   3.408   0.624  0.5867 -0.1380 -0.4753
  946SOD     NA14429   1.854   4.605  15.023 -0.0273 -0.2280  0.0930
  947SOD     NA14430   2.055   1.704  13.802 -0.2341  0.0025 -0.1658
  948SOD     NA14431   0.447   2.979  10.754  0.0618 -0.2143 -0.3830
  949SOD     NA14432   4.700   0.913   1.830 -0.0890 -0.2460 -0.1935
  950SOD     NA14433   4.642   2.954   9.804  0.1437  0.3342 -0.2588
  951SOD     NA14434   1.033   4.029  11.642 -0.1920  0.4288  0.2285
  952SOD     NA14435   2.415   1.954  16.966  0.0417  0.5477 -0.3362
  953SOD     NA14436   1.046   0.127  12.430  0.0968  0.0654 -0.2208
  954SOD     NA14437   3.023   4.273   8.036  0.2280 -0.2751 -0.2095
  955SOD     NA14438   3.690   3.185  10.933 -0.6911  0.2240  0.2239
  956SOD     NA14439   3.436   2.358  14.776 -0.1240  0.2090  0.2491
  957SOD     NA14440   1.316   1.186  10.166 -0.1526 -0.0207  0.0284
  958SOD     NA14441   3.634   4.223  16.599 -0.0762  0.2639 -0.1611
  959SOD     NA14442   1.198   3.598  11.914  0.4592  0.1732 -0.0201
  960SOD     NA14443   2.081   3.266  13.984  0.4797  0.0857 -0.5955
  961SOD     NA14444   1.864   1.504   0.863  1.4587  0.2405  0.1779
  962SOD     NA14445   2.535   0.624  14.691  0.2933  0.3362 -0.2223
  963SOD     NA14446   0.008   4.043  10.338  0.7116 -0.1981  0.4107
  964SOD     NA14447   3.811   2.817  11.604 -0.0388 -0.0770  0.3938
  965SOD     NA14448   2.169   4.520   3.135 -0.0559 -0.2782 -0.1947
  966SOD     NA14449   0.083   3.315  10.109 -0.1763  0.3394  0.5560
  967SOD     NA14450   1.688   4.698   7.751  0.3324 -0.1413 -0.3141
  968SOD     NA14451   0.670   2.201   9.220 -0.2808 -0.4330 -0.1359
  969SOD     NA14452   3.231   1.282   0.340  0.0118  0.0181 -0.4576
  970SOD     NA14453   1.621   2.235  16.939  0.0899  0.0252  0.4177
  971SOD     NA14454   0.279   3.543  10.282  0.0097  0.3048  0.3363
  972SOD     NA14455   4.655   3.406  12.909 -0.0356 -0.1070  0.6435
  973SOD     NA14456   2.212   0.000  17.216 -0.1000  0.3597  0.1991
  974SOD     NA14457   2.938   1.680  16.370  0.1275 -0.3353  0.5691
  975SOD     NA14458   0.267   1.262  12.841  0.3489 -0.0699  0.5103
  976SOD     NA14459   1.619   3.773  13.824 -0.6621 -0.0270 -0.5887
  977SOD     NA14460   4.136   4.441   3.113  0.2785 -0.4225 -0.0502
  978SOD     NA14461   2.337   0.740  12.647 -0.0586 -0.3931  0.3412
  979SOD     NA14462   0.880   1.320  11.681  0.1043 -0.7112  0.2213
  980SOD     NA14463   1.425   4.714  14.809 -0.1849  0.1276 -0.0065
  981SOD     NA14464   0.995   4.424  10.894 -0.4019  0.3593 -0.0104
  982SOD     NA14465   0.617   3.730  11.790  0.6607 -0.4014 -0.2807
  983SOD     NA14466   4.704   3.682  10.326  0.5335 -0.2091 -0.1179
  984SOD     NA14467   0.951   1.610   7.287  0.1572  0.3790  0.2826
  985SOD     NA14468   0.553   4.405   8.530 -0.1211 -0.0461  0.1702
  986SOD     NA14469   2.229   0.138  13.788 -0.1835  0.4844  0.2679
  987SOD     NA14470   0.596   4.482  14.839  0.3128  0.1831  0.2796
  988SOD     NA14471   1.904   3.437  14.232  0.1478  0.0339  0.1561
  989SOD     NA14472   4.091   4.696   1.172 -0.3033  0.0988  0.3162
  990SOD     NA14473   2.122   0.372  15.938 -0.4190 -0.2409  0.2920
  991SOD     NA14474   1.483   1.378  16.360  0.2083  0.0077 -0.1799
  992SOD     NA14475   1.537   3.669  14.179  0.2240 -0.0423 -0.0265
  993SOD     NA14476   2.718   1.666  11.765 -0.1520 -0.1237 -0.2849
  994SOD     NA14477   0.274   3.681  13.362 -0.0663 -0.0340  0.6783
  995SOD     NA14478   4.523   4.235  10.514  0.6910 -0.5141  0.3276
  996SOD     NA14479   2.301   3.023  12.419  0.2859 -0.0288  0.4683
  997SOD     NA14480   4.638   3.519  13.212 -0.4887 -0.1828  0.6716
  998SOD     NA14481   3.428   0.556   7.826 -0.5824  0.0033  0.4772
  999SOD     NA14482   4.044   2.680   3.332  0.4044  0.2139  0.0245
 1000SOD     NA14483   1.286   3.813  11.658  0.1943  0.0830 -0.0170
 1001SOD     NA14484   0.286   3.217   8.971 -0.0200 -0.3153 -0.2790
 1002SOD     NA14485   1.701   1.833   0.020 -0.4274 -0.0521 -0.5342
 1003SOD     NA14486   4.028   1.322   2.076 -0.5888 -0.2144  0.7394
 1004SOD     NA14487   0.956   4.358  11.664 -0.0447 -0.1435  0.2513
 1005SOD     NA14488   4.428   2.115   2.728 -0.1076  0.1964  0.5924
 1006SOD     NA14489   3.781   3.475  14.859  0.0167 -0.0426  0.6171
 1007SOD     NA14490   1.448   2.174   2.547  0.2221 -0.4866 -0.2088
 1008SOD     NA14491   4.689   0.296   0.644 -0.4186 -0.0354  0.1144
 1009SOD     NA14492   1.412   3.826   0.971  0.1620  0.3552  0.6314
 1010SOD     NA14493   2.237   1.478   3.482 -0.1901 -0.0777 -0.2834
 1011SOL     OW14494   3.917   3.973   7.223 -0.2235 -0.0130  0.8262
 1011SOL    HW114495   3.901   4.063   7.252 -0.8099  0.7742 -1.9946
 1011SOL    HW214496   3.926   3.973   7.128 -1.3496 -0.0056  0.7217
 1012SOL     OW14497   4.328   2.186   8.388  0.3646 -0.6342  0.3731
 1012SOL    HW114498   4.345   2.131   8.465 -0.2916 -2.8974 -1.0893
 1012SOL    HW214499   4.234   2.196   8.398  0.6893 -0.4074  3.1491
 1013SOL     OW14500   3.019   4.096   8.162  0.1447 -0.1608  0.5646
 1013SOL    HW114501   2.948   4.048   8.204 -1.5292 -0.3011 -2.4512
 1013SOL    HW214502   3.094   4.064   8.214  0.3082  0.4283  0.6888
 1014SOL     OW14503   3.553   0.411   0.461 -0.2024  0.4281 -0.5711
 1014SOL    HW114504   3.472   0.380   0.501  0.6360 -1.1438 -0.0585
 1014SOL    HW214505   3.612   0.390   0.534 -0.1326 -0.5424 -0.9089
 1015SOL     OW14506   1.430   2.409   9.010  0.2181 -0.2233 -0.3312
 1015SOL    HW114507   1.476   2.352   8.948 -0.1637 -2.6724  1.6095
 1015SOL    HW214508   1.400   2.477   8.950 -1.6830 -2.0051 -1.3953
 1016SOL     OW14509   1.549   3.789   8.525 -0.1658 -0.3302  0.5361
 1016SOL    HW114510   1.644   3.796   8.515 -0.6931  1.4495 -3.4003
 1016SOL    HW214511   1.539   3.798   8.620  0.3084 -1.4792  0.6943
 1017SOL     OW14512   3.472   0.455   2.828  0.1632  0.6904  0.0795
 1017SOL    HW114513   3.531   0.509   2.775  1.0566 -0.5878 -0.2357
 1017SOL    HW214514   3.407   0.427   2.763  1.8713  1.6625 -2.0535
 1018SOL     OW14515   0.057   0.743   9.207  0.2011  0.0845  0.3591
 1018SOL    HW114516   0.142   0.737   9.249  0.8496  2.2687 -0.6149
 1018SOL    HW214517   0.013   0.824   9.235 -3.4126 -1.6088 -0.4583
 1019SOL     OW14518   3.903   4.279   3.650  0.2543 -0.5251 -0.2381
 1019SOL    HW114519   3.989   4.237   3.638 -0.0759 -1.0407 -0.7879
 1019SOL    HW214520   3.887   4.296   3.557 -2.8069 -0.6851  0.2564
 1020SOL     OW14521   2.703   2.848   5.511 -0.3326 -0.3480  0.6616
 1020SOL    HW114522   2.621   2.831   5.559 -0.9451  0.2715 -0.1663
 1020SOL    HW214523   2.702   2.784   5.439 -1.5524  0.0377  0.3293
 1021SOL     OW14524   0.404   2.029   2.840 -0.1930 -0.2661  0.0135
 1021SOL    HW114525   0.433   2.087   2.911  2.0881 -0.6822 -0.5867
 1021SOL    HW214526   0.455   1.952   2.866  0.5399 -0.0133 -0.6876
 1022SOL     OW14527   2.433   2.184  17.079 -0.2279 -0.6302 -0.5474
 1022SOL    HW114528   2.380   2.171  17.157  0.5378 -3.5030 -0.4974
 1022SOL    HW214529   2.479   2.262  17.109 -1.5349 -0.6171  1.4181
 1023SOL     OW14530   2.126   0.717   3.763 -0.0841  0.5989  0.0287
 1023SOL    HW114531   2.064   0.666   3.711 -1.7815  1.0366  1.6120
 1023SOL    HW214532   2.180   0.756   3.694 -1.3731  2.1243 -0.1205
 1024SOL     OW14533   0.272   1.129   6.282 -0.4115  0.6057 -0.1141
 1024SOL    HW114534   0.317   1.083   6.354  1.1557 -1.0612 -2.1629
 1024SOL    HW214535   0.293   1.060   6.219  1.8974 -0.9477  2.3038
 1025SOL     OW14536   3.441   4.106   5.409 -0.0765 -0.3897 -0.5136
 1025SOL    HW114537   3.411   4.192   5.440 -0.8843 -0.5839 -0.7458
 1025SOL    HW214538   3.452   4.064   5.494  1.0519  2.4741  0.7704
 1026SOL     OW14539   1.078   2.650   3.194  0.4624 -0.2954  0.6329
 1026SOL    HW114540   0.998   2.701   3.187  0.5436 -0.4125 -1.1073
 1026SOL    HW214541   1.134   2.700   3.253  0.3232  0.8859 -0.2500
 1027SOL     OW14542   1.236   0.018   9.014  0.2839  0.0921  0.0723
 1027SOL    HW114543   1.302   4.703   9.074 -0.9465  0.1272  1.4689
 1027SOL    HW214544   1.158   0.005   9.069  0.1945  0.2845 -0.0107
 1028SOL     OW14545   1.723   1.544   5.585  0.5342  0.1785  0.2052
 1028SOL    HW114546   1.627   1.553   5.582  0.3387 -1.5337  1.3460
 1028SOL    HW214547   1.749   1.523   5.496  1.3515 -3.1623  1.2361
 1029SOL     OW14548   3.026   3.293  10.847  0.1814 -0.5392 -0.3263
 1029SOL    HW114549   3.014   3.239  10.925 -0.0441 -1.4740 -1.0021
 1029SOL    HW214550   3.116   3.326  10.854  0.2345 -0.6527 -0.4610
 1030SOL     OW14551   3.801   1.687   7.875 -0.0547 -0.1293 -0.3475
 1030SOL    HW114552   3.810   1.730   7.960  1.5398 -0.9638 -0.1178
 1030SOL    HW214553   3.722   1.735   7.847  1.4077  1.6701 -1.3753
 1031SOL     OW14554   2.360   3.276  16.767  0.3607  0.0508 -0.7374
 1031SOL    HW114555   2.376   3.269  16.861 -0.2036 -0.2427 -0.6683
 1031SOL    HW214556   2.265   3.287  16.762  0.1638 -0.6739  1.4664
 1032SOL     OW14557   2.849   3.793  13.927 -0.4332  0.2317  0.1039
 1032SOL    HW114558   2.822   3.823  14.014 -0.1234 -0.1804  0.3424
 1032SOL    HW214559   2.875   3.878  13.891 -0.4501  0.1275 -0.1573
 1033SOL     OW14560   0.557   3.286   3.464  0.2108  0.0229  0.0986
 1033SOL    HW114561   0.511   3.303   3.546  0.1380 -0.0495  0.0735
 1033SOL    HW214562   0.518   3.351   3.406 -0.1250  0.0046  0.3039
 1034SOL     OW14563   2.606   0.699  11.936  0.1338 -0.1043 -0.3015
 1034SOL    HW114564   2.558   0.724  11.857  0.5222  1.2069 -0.1075
 1034SOL    HW214565   2.615   0.787  11.971  0.0928 -0.0235 -0.4934
 1035SOL     OW14566   1.586   3.170   3.627 -0.1907 -0.8399 -0.3216
 1035SOL    HW114567   1.549   3.249   3.666 -1.4539 -1.4735 -0.2352
 1035SOL    HW214568   1.671   3.162   3.669 -0.9216 -2.7523  0.7844
 1036SOL     OW14569   4.203   0.006   1.361  0.3944 -0.2038 -0.2084
 1036SOL    HW114570   4.285   0.051   1.339 -1.3790  3.6113  1.1718
 1036SOL    HW214571   4.219   4.706   1.453 -0.5097 -0.1420 -0.0434
 1037SOL     OW14572   4.701   0.824  10.891  0.3847 -0.2686 -0.2113
 1037SOL    HW114573   4.630   0.873  10.848  0.1787  1.1210  1.7301
 1037SOL    HW214574   0.011   0.768  10.820 -1.6047 -0.0017 -1.3082
 1038SOL     OW14575   0.231   2.399   1.486 -0.0399  0.1359 -0.0949
 1038SOL    HW114576   0.249   2.310   1.518  3.1700  0.8010 -0.1309
 1038SOL    HW214577   0.231   2.438   1.573 -0.7570  0.0012 -0.0312
 1039SOL     OW14578   3.963   1.050   2.954  0.3922  0.4377 -0.6822
 1039SOL    HW114579   3.994   0.980   3.012 -1.8516 -1.7227 -2.0524
 1039SOL    HW214580   3.993   1.025   2.867  0.6522  1.5487 -0.9096
 1040SOL     OW14581   0.797   1.941   5.166 -0.1373  0.1574  0.2905
 1040SOL    HW114582   0.826   2.012   5.108  2.4170 -0.1509  1.1816
 1040SOL    HW214583   0.805   1.862   5.112  0.8297  0.5398 -0.1231
 1041SOL     OW14584   4.518   2.126   2.519 -0.0992  0.4943 -0.5817
 1041SOL    HW114585   4.481   2.172   2.444 -1.4446 -0.3785 -0.4682
 1041SOL    HW214586   4.609   2.152   2.512  0.0724  0.0818  0.1166
 1042SOL     OW14587   3.384   4.647   6.088 -0.0949 -0.1575  0.0209
 1042SOL    HW114588   3.351   4.712   6.026 -1.5364 -0.4674  0.4427
 1042SOL    HW214589   3.461   4.696   6.117 -0.0837  1.3229 -2.5027
 1043SOL     OW14590   0.967   4.461   0.101  0.0126 -0.0017  0.2846
 1043SOL    HW114591   0.878   4.472   0.136 -1.4515 -2.3718 -2.7293
 1043SOL    HW214592   1.012   4.398   0.157 -0.7317 -0.8614 -0.0792
 1044SOL     OW14593   2.539   1.123   1.951 -0.3619  0.0730 -0.0300
 1044SOL    HW114594   2.507   1.070   2.024 -0.7012  2.2271  1.3983
 1044SOL    HW214595   2.457   1.121   1.902  1.2230 -0.0682 -2.6315
 1045SOL     OW14596   0.676   2.837   2.754  0.4829 -0.2764  0.4209
 1045SOL    HW114597   0.637   2.805   2.672  1.2118 -0.1864  0.0457
 1045SOL    HW214598   0.753   2.781   2.755  0.6357 -0.0652  0.3276
 1046SOL     OW14599   2.882   3.999   2.053  0.5362 -0.1945 -0.3107
 1046SOL    HW114600   2.874   4.062   1.982 -0.5533 -0.0206 -0.0409
 1046SOL    HW214601   2.793   4.011   2.087  1.1019 -0.2984  1.2200
 1047SOL     OW14602   1.234   1.910  12.752 -0.8355  0.3752  0.0493
 1047SOL    HW114603   1.236   1.906  12.657  1.4365 -2.3396  0.2160
 1047SOL    HW214604   1.145   1.935  12.779 -1.2736 -1.1447 -0.0125
 1048SOL     OW14605   0.550   0.835   2.355  0.1571  0.0444 -1.2921
 1048SOL    HW114606   0.514   0.876   2.276 -3.8356 -3.0434 -1.0529
 1048SOL    HW214607   0.554   0.907   2.418  3.3251 -2.3653  1.2792
 1049SOL     OW14608   1.017   1.245   5.129  0.1332  0.2248 -0.7824
 1049SOL    HW114609   1.094   1.274   5.081  0.9017 -1.4887 -0.5776
 1049SOL    HW214610   1.062   1.230   5.212 -0.1708 -2.7398 -1.1430
 1050SOL     OW14611   4.284   4.641  16.432  0.3775 -0.7387  0.2958
 1050SOL    HW114612   4.237   4.682  16.505 -1.5309 -1.4865 -0.5145
 1050SOL    HW214613   4.309   4.713  16.375  0.6714 -0.3711  0.8821
 1051SOL     OW14614   1.429   4.481   8.725 -0.2190  0.5152  0.4456
 1051SOL    HW114615   1.372   4.556   8.737  2.2840  2.6266 -0.7928
 1051SOL    HW214616   1.409   4.420   8.796 -1.2828 -1.6721 -1.7179
 1052SOL     OW14617   0.002   0.211   6.802 -0.0956  0.2864 -0.2876
 1052SOL    HW114618   0.030   0.287   6.853 -0.6832 -0.8012  1.6399
 1052SOL    HW214619   4.636   0.215   6.842 -1.0483 -0.6774 -2.2333
 1053SOL     OW14620   0.906   1.277  11.279 -0.3003 -0.3148 -0.4846
 1053SOL    HW114621   0.930   1.296  11.188 -0.7518 -1.2870 -0.7999
 1053SOL    HW214622   0.931   1.185  11.282  0.1682 -0.2121 -1.4307
 1054SOL     OW14623   1.706   2.486   6.379  0.2506 -0.2362 -0.3138
 1054SOL    HW114624   1.712   2.419   6.312  1.4390  0.1723 -0.6027
 1054SOL    HW214625   1.646   2.549   6.338  0.1488 -1.1422 -1.5270
 1055SOL     OW14626   4.323   3.173  14.861 -0.5206  0.0302 -0.2653
 1055SOL    HW114627   4.254   3.192  14.798  1.3310  0.9821 -2.0084
 1055SOL    HW214628   4.360   3.262  14.864  1.7424 -0.9223  0.6097
 1056SOL     OW14629   0.462   2.298   5.445 -0.5026 -0.4764 -0.1494
 1056SOL    HW114630   0.470   2.203   5.456  2.4522 -0.3513 -1.0402
 1056SOL    HW214631   0.438   2.325   5.534  0.6054 -0.1142  0.0381
 1057SOL     OW14632   1.170   1.260  15.671 -0.4671  0.1025 -0.1260
 1057SOL    HW114633   1.080   1.287  15.688 -0.6992  0.7225 -2.3756
 1057SOL    HW214634   1.168   1.165  15.655  1.7777 -0.3294  2.2559
 1058SOL     OW14635   1.230   2.894   4.356  0.3854 -0.5323  0.1049
 1058SOL    HW114636   1.317   2.879   4.393  0.7071  2.4860  0.6202
 1058SOL    HW214637   1.178   2.835   4.411 -0.3352 -1.5799 -1.7175
 1059SOL     OW14638   1.477   1.779   3.729  0.8812  0.5244 -0.8060
 1059SOL    HW114639   1.477   1.739   3.642 -1.3313  1.8912 -1.4354
 1059SOL    HW214640   1.384   1.766   3.747  1.1024 -0.4102 -0.3403
 1060SOL     OW14641   1.287   3.384   2.615 -0.1076 -0.1953 -0.1790
 1060SOL    HW114642   1.331   3.322   2.674 -1.1084  0.0668  0.8588
 1060SOL    HW214643   1.341   3.462   2.624 -1.0687  0.2217  1.9608
 1061SOL     OW14644   4.012   4.593   4.600  0.5875  0.0933 -0.0733
 1061SOL    HW114645   4.098   4.560   4.625  0.5515  0.7290  0.9046
 1061SOL    HW214646   3.951   4.521   4.613 -1.2092  1.5959 -0.2726
 1062SOL     OW14647   2.306   3.917   8.483 -0.1130  0.1403  0.2945
 1062SOL    HW114648   2.221   3.947   8.516  0.4661  0.4339  1.5110
 1062SOL    HW214649   2.315   3.838   8.536  0.9290  0.3292  0.3892
 1063SOL     OW14650   0.144   0.055   9.984 -0.0873  0.0002  0.0927
 1063SOL    HW114651   0.134   0.133   9.930 -0.7465  0.8185  1.3981
 1063SOL    HW214652   0.172   4.715   9.915 -0.7739  0.8027 -0.8806
 1064SOL     OW14653   2.917   1.265   5.359  0.4149  0.7038  0.5491
 1064SOL    HW114654   2.851   1.244   5.425  1.3891  2.0035  1.9460
 1064SOL    HW214655   2.892   1.202   5.292 -3.7829  2.4378  0.4529
 1065SOL     OW14656   4.006   3.876   7.492 -0.3863  0.7773 -0.0526
 1065SOL    HW114657   4.057   3.956   7.506  1.1033 -0.3122  0.7642
 1065SOL    HW214658   4.030   3.853   7.402 -1.8911 -1.8175  0.2291
 1066SOL     OW14659   0.477   3.519  14.901  0.2176  0.3436 -0.0547
 1066SOL    HW114660   0.481   3.557  14.814 -3.4017 -0.9267 -0.7408
 1066SOL    HW214661   0.555   3.465  14.918 -1.0094 -0.5853  2.7158
 1067SOL     OW14662   0.172   1.911   9.232 -0.5511  0.2363 -0.2188
 1067SOL    HW114663   0.189   1.830   9.280 -0.4106  0.7995  0.6802
 1067SOL    HW214664   0.248   1.917   9.173 -1.0346  0.8275 -0.7827
 1068SOL     OW14665   0.563   2.616   5.931  0.0713  0.3315 -0.9946
 1068SOL    HW114666   0.641   2.617   5.876 -0.0062 -0.0842 -1.1121
 1068SOL    HW214667   0.613   2.603   6.011 -0.4026 -0.5536 -0.8329
 1069SOL     OW14668   2.794   3.999   1.701  0.2245 -0.1110 -0.0390
 1069SOL    HW114669   2.831   4.064   1.760 -0.8634 -0.6701  1.2576
 1069SOL    HW214670   2.735   4.056   1.652 -0.4367 -3.9625 -3.7818
 1070SOL     OW14671   3.768   1.222   3.765  0.2021 -0.4376 -0.2063
 1070SOL    HW114672   3.774   1.132   3.797  2.3665 -0.3855 -0.4607
 1070SOL    HW214673   3.737   1.256   3.849  0.8925  0.7713 -0.4360
 1071SOL     OW14674   0.706   0.500   3.788  0.0936 -0.3845  0.3311
 1071SOL    HW114675   0.749   0.463   3.711 -0.4046 -0.7268  0.2209
 1071SOL    HW214676   0.668   0.424   3.831 -1.0273  0.4583  0.8333
 1072SOL     OW14677   4.066   0.882   6.981  0.0049 -0.1565  0.2799
 1072SOL    HW114678   4.093   0.837   6.900 -0.2539 -0.6053  0.4403
 1072SOL    HW214679   3.994   0.827   7.013  0.6555 -1.7973 -1.0744
 1073SOL     OW14680   0.591   2.734   8.521  0.2829 -0.1138  0.5267
 1073SOL    HW114681   0.588   2.638   8.522  0.1064 -0.0928  1.4432
 1073SOL    HW214682   0.605   2.755   8.613  3.4104  0.8726 -0.1585
 1074SOL     OW14683   3.481   3.714   1.880  0.0257  0.3777  0.1253
 1074SOL    HW114684   3.544   3.643   1.868 -1.9049 -0.8487 -2.7812
 1074SOL    HW214685   3.529   3.791   1.848 -0.6496 -0.2393 -2.3903
 1075SOL     OW14686   0.881   1.034   4.987  0.2715 -0.4050  0.1783
 1075SOL    HW114687   0.931   0.961   4.950  0.8162  0.5154 -0.8908
 1075SOL    HW214688   0.947   1.101   5.003  0.1723  0.8429 -4.6119
 1076SOL     OW14689   3.786   0.636   1.333  0.1209  0.1249  0.3044
 1076SOL    HW114690   3.868   0.622   1.380 -0.6060  0.5077  1.6726
 1076SOL    HW214691   3.786   0.731   1.323 -2.6129  0.1011 -0.0050
 1077SOL     OW14692   0.346   2.265  10.814  0.2572 -0.1285  0.0648
 1077SOL    HW114693   0.401   2.232  10.885 -2.4789 -1.8063  1.4155
 1077SOL    HW214694   0.412   2.312  10.763 -1.3166  2.1818  0.1373
 1078SOL     OW14695   3.026   3.621   4.033 -0.0332 -0.2969 -0.1746
 1078SOL    HW114696   3.077   3.554   3.988  0.1749 -0.0604 -0.2936
 1078SOL    HW214697   2.978   3.640   3.952 -0.2280  2.2579  0.5292
 1079SOL     OW14698   4.541   0.279  10.685 -0.1266 -0.3838  0.0085
 1079SOL    HW114699   4.591   0.198  10.692  1.5907  0.8482  2.1338
 1079SOL    HW214700   4.597   0.347  10.723 -1.6237  1.1781 -0.6019
 1080SOL     OW14701   3.096   4.060   9.695 -0.2814  0.0775 -0.6525
 1080SOL    HW114702   3.091   4.031   9.604 -0.4351 -1.0785 -0.2781
 1080SOL    HW214703   3.030   3.999   9.729 -0.8082  1.5510  0.9777
 1081SOL     OW14704   1.084   0.308  12.584  0.1115 -0.2559 -0.0209
 1081SOL    HW114705   1.156   0.317  12.646 -0.8116 -0.2681  1.0711
 1081SOL    HW214706   1.019   0.371  12.618  0.4845  0.0639  0.1009
 1082SOL     OW14707   3.404   3.534   7.376  0.0129 -0.6030  0.2666
 1082SOL    HW114708   3.342   3.478   7.423 -0.0330  0.2008  1.1718
 1082SOL    HW214709   3.426   3.480   7.300  0.0639 -2.2393  1.4455
 1083SOL     OW14710   1.421   2.183   5.538 -0.4857  0.3558  0.4099
 1083SOL    HW114711   1.416   2.275   5.514  0.9994  0.1928 -0.5188
 1083SOL    HW214712   1.393   2.186   5.629 -0.3732  1.9994  0.3836
 1084SOL     OW14713   3.558   2.088   1.214 -0.3561 -0.1753 -0.0485
 1084SOL    HW114714   3.517   2.169   1.245 -2.0914 -1.8386  2.0778
 1084SOL    HW214715   3.601   2.116   1.134 -1.2877  3.6228  0.7810
 1085SOL     OW14716   1.186   3.136  12.419 -0.5416  0.2748 -0.2000
 1085SOL    HW114717   1.222   3.064  12.367  0.5344  0.5662  0.1291
 1085SOL    HW214718   1.093   3.119  12.404 -0.1302 -1.6098 -0.6110
 1086SOL     OW14719   2.380   1.951   2.162  0.1871 -0.3655  0.1763
 1086SOL    HW114720   2.391   1.937   2.068 -0.6906  1.7710 -0.2433
 1086SOL    HW214721   2.364   1.864   2.198  1.4126 -0.0814  1.3612
 1087SOL     OW14722   1.272   0.347   5.190 -0.3515  0.3671 -0.4107
 1087SOL    HW114723   1.205   0.280   5.206  0.5004 -0.4270 -0.1384
 1087SOL    HW214724   1.339   0.308   5.133  0.0773  1.0367 -0.3686
 1088SOL     OW14725   2.570   0.152   9.105 -0.0777 -0.6632 -0.2616
 1088SOL    HW114726   2.590   0.224   9.046 -1.5200  0.6734  0.8738
 1088SOL    HW214727   2.605   0.187   9.187  0.6937  1.4380 -1.4912
 1089SOL     OW14728   1.469   3.579  12.020  0.9192 -0.0029  0.1363
 1089SOL    HW114729   1.542   3.641  12.024 -0.6941  1.9571 -0.9076
 1089SOL    HW214730   1.498   3.544  11.935 -0.9806  1.7901 -1.2313
 1090SOL     OW14731   2.099   4.470   5.613 -0.2273 -0.0524  0.5459
 1090SOL    HW114732   2.067   4.383   5.588 -0.1388 -0.2408  1.0819
 1090SOL    HW214733   2.126   4.445   5.702  1.8325 -1.8251 -0.5542
 1091SOL     OW14734   3.244   2.776  16.305  0.3521  0.0840 -0.3300
 1091SOL    HW114735   3.168   2.834  16.296 -0.1065 -0.7024 -1.5703
 1091SOL    HW214736   3.315   2.832  16.336  0.2102  1.1651 -1.9275
 1092SOL     OW14737   2.098   0.559   8.152 -0.6062  0.4993  0.5342
 1092SOL    HW114738   2.090   0.544   8.246 -1.1057 -0.6212  0.3166
 1092SOL    HW214739   2.120   0.652   8.144 -0.9453  0.7507  2.6738
 1093SOL     OW14740   3.196   0.969   3.861 -0.0151  0.2136  0.3967
 1093SOL    HW114741   3.286   0.939   3.847  0.4802  2.4343 -1.0930
 1093SOL    HW214742   3.151   0.933   3.784 -0.4997  0.0600  0.7501
 1094SOL     OW14743   0.544   0.846  11.907 -0.0582 -0.0878  0.6505
 1094SOL    HW114744   0.625   0.896  11.908  0.9167 -1.7105  2.4816
 1094SOL    HW214745   0.486   0.894  11.966 -0.3964  0.3696 -0.0535
 1095SOL     OW14746   3.818   0.437   8.663 -0.7243 -0.4956  0.5393
 1095SOL    HW114747   3.840   0.527   8.686 -0.4249 -0.3594 -0.3169
 1095SOL    HW214748   3.795   0.450   8.571  0.2555 -2.2048  0.0626
 1096SOL     OW14749   2.480   0.015   2.427  0.3402  0.5622  0.3852
 1096SOL    HW114750   2.474   0.040   2.335  0.6924 -1.1852 -0.1099
 1096SOL    HW214751   2.524   0.092   2.462 -1.5945  0.8925  2.1260
 1097SOL     OW14752   2.027   4.473   1.352  0.2595  0.1143  0.0259
 1097SOL    HW114753   1.962   4.541   1.365 -0.2628 -0.3153 -0.3274
 1097SOL    HW214754   2.051   4.444   1.440  0.5052 -0.1352 -0.1219
 1098SOL     OW14755   1.786   2.888   6.667  0.1751  0.1894 -0.0321
 1098SOL    HW114756   1.809   2.816   6.609  0.2937 -1.0181  1.5263
 1098SOL    HW214757   1.817   2.862   6.753  1.5937  2.9145  0.2886
 1099SOL     OW14758   2.171   3.336  11.008  0.5616  0.2290 -0.1030
 1099SOL    HW114759   2.155   3.276  10.936  1.4604  1.5387 -1.3899
 1099SOL    HW214760   2.143   3.282  11.082 -0.1328 -1.8694 -1.9242
 1100SOL     OW14761   1.536   4.243   6.433  0.1180  0.3055 -0.0113
 1100SOL    HW114762   1.533   4.297   6.354  1.3576 -0.2505 -0.4333
 1100SOL    HW214763   1.559   4.307   6.500 -0.8374  1.5014 -0.7968
 1101SOL     OW14764   4.671   2.651   8.574  0.0006  0.2309 -0.0202
 1101SOL    HW114765   4.691   2.743   8.557  0.2651  0.1833  0.0272
 1101SOL    HW214766   4.591   2.648   8.521  0.7420 -1.1452 -1.0679
 1102SOL     OW14767   4.677   0.511   1.103  0.1558 -0.2519 -0.2924
 1102SOL    HW114768   4.633   0.571   1.164  0.5869  0.7708 -0.9985
 1102SOL    HW214769   0.047   0.518   1.133 -0.1130  0.5553  0.3302
 1103SOL     OW14770   3.832   1.346   3.499  0.0893 -0.2220 -0.3098
 1103SOL    HW114771   3.821   1.295   3.579 -1.0580  0.7654  0.1626
 1103SOL    HW214772   3.802   1.288   3.430  0.2938  0.6466 -1.1347
 1104SOL     OW14773   3.101   4.687   3.253 -0.0796 -1.0005  0.4494
 1104SOL    HW114774   3.076   4.635   3.177 -0.3433  1.8699 -1.4174
 1104SOL    HW214775   3.043   4.640   3.314 -1.1453 -1.0471 -0.5944
 1105SOL     OW14776   0.959   1.355  17.119  0.2365 -0.0842  0.2596
 1105SOL    HW114777   0.965   1.411  17.042 -0.0885  0.7027  0.7948
 1105SOL    HW214778   0.978   1.267  17.087 -0.5351  0.0761 -0.6535
 1106SOL     OW14779   0.075   4.158   4.845 -0.0231 -0.0981 -0.1912
 1106SOL    HW114780   0.035   4.243   4.824 -0.8946 -0.3260  0.5063
 1106SOL    HW214781   0.008   4.103   4.804  0.1865  0.2123 -0.9423
 1107SOL     OW14782   2.934   1.864  16.507 -0.1935 -0.1516  0.1554
 1107SOL    HW114783   2.878   1.927  16.462 -2.4922 -2.9973 -0.9797
 1107SOL    HW214784   2.878   1.835  16.579 -1.9078  0.0305 -1.1165
 1108SOL     OW14785   4.607   0.937   9.815 -0.6020 -0.0105  0.0362
 1108SOL    HW114786   4.646   0.988   9.744 -0.6340 -1.0094 -0.6889
 1108SOL    HW214787   4.679   0.939   9.879  0.3715  1.3542 -1.1300
 1109SOL     OW14788   0.747   3.636   1.691  0.7468 -0.2465 -0.1445
 1109SOL    HW114789   0.838   3.610   1.704  0.9177 -0.6089 -2.1689
 1109SOL    HW214790   0.750   3.677   1.605  1.9716 -0.0928 -0.0291
 1110SOL     OW14791   3.428   1.288   1.874 -0.1345  0.0170 -0.1686
 1110SOL    HW114792   3.397   1.205   1.837 -2.5702  2.0471 -2.7238
 1110SOL    HW214793   3.504   1.252   1.920 -0.1608  1.2100  0.8015
 1111SOL     OW14794   4.622   4.151   4.523  0.5215 -0.0418  0.1251
 1111SOL    HW114795   4.712   4.180   4.511  0.6042  0.2154  1.3758
 1111SOL    HW214796   4.580   4.206   4.457 -1.9130  1.5767  2.9804
 1112SOL     OW14797   0.846   2.370   5.684  0.2575  0.6702  0.1473
 1112SOL    HW114798   0.863   2.457   5.721  0.6989 -0.3756  2.4449
 1112SOL    HW214799   0.937   2.343   5.674 -0.3334 -0.8692 -1.0608
 1113SOL     OW14800   1.299   2.545   5.695  0.3322 -0.8277 -0.2665
 1113SOL    HW114801   1.394   2.556   5.686  0.1530  1.5192  0.6570
 1113SOL    HW214802   1.270   2.601   5.623 -1.3804 -0.2490  0.8788
 1114SOL     OW14803   2.151   1.953   1.763 -0.4482  0.8507  0.3206
 1114SOL    HW114804   2.135   1.913   1.849  2.3676  0.5960  0.7484
 1114SOL    HW214805   2.230   1.906   1.735  0.0013  0.4179  2.2858
 1115SOL     OW14806   0.610   4.215   0.302 -0.0212 -0.1415  0.1414
 1115SOL    HW114807   0.555   4.233   0.378  1.5460 -0.7208  1.4220
 1115SOL    HW214808   0.689   4.192   0.351 -0.4411 -1.4649  0.1741
 1116SOL     OW14809   0.234   4.628  10.256 -0.3592 -0.3357 -0.6163
 1116SOL    HW114810   0.171   4.671  10.314  0.1939 -2.2085  1.4126
 1116SOL    HW214811   0.253   4.688  10.184 -1.8022 -0.6367 -1.2392
 1117SOL     OW14812   1.005   1.812   3.013 -0.2939 -0.4272 -0.0525
 1117SOL    HW114813   0.991   1.720   2.990 -0.5564 -0.2972 -0.4255
 1117SOL    HW214814   1.030   1.852   2.929 -1.4272 -0.1627 -0.2589
 1118SOL     OW14815   2.290   0.020  17.011 -0.9873 -0.3022  0.1547
 1118SOL    HW114816   2.303   4.664  16.955  0.9141  2.1820 -2.8078
 1118SOL    HW214817   2.320   0.089  16.952  0.7122  0.6257  2.1257
 1119SOL     OW14818   0.679   4.717  10.506  0.0615 -0.1894  0.0246
 1119SOL    HW114819   0.706   4.695  10.595  0.1340  1.2817  0.3589
 1119SOL    HW214820   0.683   0.091  10.511 -0.2672 -0.1501 -0.4035
 1120SOL     OW14821   4.263   0.072   1.057  0.3456  0.0611  0.2350
 1120SOL    HW114822   4.319   0.005   1.016  2.0169  2.5156 -1.4920
 1120SOL    HW214823   4.215   0.109   0.983 -0.4208  0.5805  1.0077
 1121SOL     OW14824   3.858   1.136   4.225  0.6331 -0.2174 -0.1421
 1121SOL    HW114825   3.881   1.116   4.316  0.4720  1.4038  0.2480
 1121SOL    HW214826   3.773   1.177   4.239  0.2060  0.0494 -3.5998
 1122SOL     OW14827   3.566   3.429  14.869 -0.2519  0.5165  0.3641
 1122SOL    HW114828   3.480   3.430  14.826 -0.1181 -0.1247  0.0812
 1122SOL    HW214829   3.540   3.402  14.957 -0.2568  0.2883  0.2938
 1123SOL     OW14830   3.676   2.704   3.289 -0.5081  0.0325  0.3243
 1123SOL    HW114831   3.639   2.637   3.233 -0.4314  1.0293 -0.9134
 1123SOL    HW214832   3.698   2.652   3.367  0.2172  0.5162  0.4454
 1124SOL     OW14833   0.210   1.317  12.439 -0.4691 -0.5517  0.2856
 1124SOL    HW114834   0.190   1.354  12.525 -0.3573 -2.2269  1.0319
 1124SOL    HW214835   0.165   1.233  12.446 -0.6553 -0.5385 -0.7549
 1125SOL     OW14836   1.122   2.909   2.968  0.1712  0.3958 -0.3211
 1125SOL    HW114837   1.183   2.835   2.964  0.9693  1.1261 -1.7664
 1125SOL    HW214838   1.169   2.968   3.027  1.0584  1.4368 -2.0476
 1126SOL     OW14839   2.318   0.854   8.847  0.0137 -0.5375  0.2184
 1126SOL    HW114840   2.274   0.832   8.765  0.8036 -1.7930  0.1279
 1126SOL    HW214841   2.289   0.945   8.857  0.0041 -0.5406  0.2183
 1127SOL     OW14842   2.843   0.124   4.541  0.0477  0.2005  0.5015
 1127SOL    HW114843   2.877   0.099   4.627 -1.6591  0.0199  1.1254
 1127SOL    HW214844   2.872   0.048   4.490  3.1200 -0.0630  2.6258
 1128SOL     OW14845   4.350   1.559   4.066 -0.3321  0.2539  0.3628
 1128SOL    HW114846   4.393   1.621   4.125  0.7879  0.3434 -0.5456
 1128SOL    HW214847   4.383   1.477   4.102  0.5940 -0.4145 -2.0054
 1129SOL     OW14848   2.504   1.883  13.653 -0.2287  0.5631  0.1823
 1129SOL    HW114849   2.532   1.796  13.682 -1.3935 -0.2120 -1.0352
 1129SOL    HW214850   2.446   1.855  13.582 -1.9060  2.0368  0.9943
 1130SOL     OW14851   0.821   4.189   8.710 -0.1194  0.7950  0.1221
 1130SOL    HW114852   0.888   4.250   8.681 -0.1302  0.8879  0.2929
 1130SOL    HW214853   0.763   4.195   8.634  0.7070  1.5471 -0.4464
 1131SOL     OW14854   1.778   2.781   6.908  0.6948 -0.5327  0.9104
 1131SOL    HW114855   1.690   2.803   6.939  0.4323 -1.4144  0.7943
 1131SOL    HW214856   1.806   2.714   6.970 -1.1189  0.0169  2.3075
 1132SOL     OW14857   4.677   2.842  16.554  0.2360 -0.1659 -0.3605
 1132SOL    HW114858   0.012   2.852  16.476 -0.8892  2.4461 -0.8117
 1132SOL    HW214859   0.001   2.907  16.608  1.4894 -0.6395 -0.8260
 1133SOL     OW14860   2.814   0.649  15.055  0.5173  0.0341 -0.2300
 1133SOL    HW114861   2.879   0.691  15.112 -1.4091  1.8302  0.6352
 1133SOL    HW214862   2.797   0.577  15.114  1.5013  0.3465  0.4436
 1134SOL     OW14863   1.573   1.377   7.376  0.3242 -0.1600  0.7689
 1134SOL    HW114864   1.600   1.430   7.451 -0.2943  0.8561  0.2646
 1134SOL    HW214865   1.638   1.390   7.307 -0.9482 -0.2109 -0.4321
 1135SOL     OW14866   3.877   0.613  11.805  0.4821  0.3409 -0.1085
 1135SOL    HW114867   3.905   0.688  11.752  1.7877 -0.9264 -1.1883
 1135SOL    HW214868   3.829   0.568  11.736  1.0004 -1.7213  0.8845
 1136SOL     OW14869   4.178   4.648   6.334  0.4221  0.3314  1.1040
 1136SOL    HW114870   4.114   4.594   6.287  1.3507  0.3092 -0.1430
 1136SOL    HW214871   4.230   4.662   6.255 -0.5525 -1.0927  0.2117
 1137SOL     OW14872   4.677   2.628   6.446  0.0985 -0.0342  0.0259
 1137SOL    HW114873   4.655   2.717   6.474 -1.7312 -0.3663 -0.3151
 1137SOL    HW214874   4.605   2.600   6.390  0.4459 -1.7896  0.4531
 1138SOL     OW14875   4.014   2.385   8.097 -0.1430 -0.0173 -0.2499
 1138SOL    HW114876   3.973   2.323   8.157  1.9657 -0.8016  0.3618
 1138SOL    HW214877   4.040   2.455   8.157  0.5987  0.0514 -0.6513
 1139SOL     OW14878   1.890   3.324  10.022  0.5435 -0.1870  0.3405
 1139SOL    HW114879   1.937   3.286   9.948  1.1965  0.4198  0.4415
 1139SOL    HW214880   1.803   3.293   9.998  0.8667  0.3227 -1.5084
 1140SOL     OW14881   2.664   0.496  13.068  0.3317 -0.8147 -0.0828
 1140SOL    HW114882   2.749   0.538  13.082  0.1378 -0.2018 -0.7701
 1140SOL    HW214883   2.615   0.578  13.063  3.5362  1.1729  1.2115
 1141SOL     OW14884   4.323   3.534   1.599 -0.0527 -0.2908 -0.3417
 1141SOL    HW114885   4.245   3.532   1.654 -0.4919  2.7463 -0.8555
 1141SOL    HW214886   4.391   3.568   1.657  0.7165  0.3889 -1.6253
 1142SOL     OW14887   4.099   0.991   9.066  0.2882  0.2576  0.2057
 1142SOL    HW114888   4.178   1.044   9.066 -1.2217  2.5145 -0.6713
 1142SOL    HW214889   4.041   1.032   9.131 -1.8665  0.8212 -2.0814
 1143SOL     OW14890   4.427   3.948   9.075  0.0864  0.4608 -0.1166
 1143SOL    HW114891   4.347   3.908   9.109 -0.6365  2.1824  0.2677
 1143SOL    HW214892   4.444   3.885   9.005 -0.2750  1.0265 -0.7139
 1144SOL     OW14893   2.963   4.628   2.282 -0.1463  0.4129  0.5205
 1144SOL    HW114894   3.011   4.556   2.322 -1.2748 -0.8469 -0.3806
 1144SOL    HW214895   2.911   4.672   2.349  0.5720  0.1099  1.2814
 1145SOL     OW14896   1.588   0.987   7.743  0.2594  0.1017 -0.4087
 1145SOL    HW114897   1.644   1.064   7.753 -1.9540  1.5440  0.7133
 1145SOL    HW214898   1.548   0.984   7.829 -0.4766  0.1006 -0.7554
 1146SOL     OW14899   0.205   1.868  14.753  0.0031  0.4027 -0.7639
 1146SOL    HW114900   0.191   1.795  14.813  2.6572  1.0055  0.5585
 1146SOL    HW214901   0.189   1.823  14.670  0.0330 -1.3936  0.2044
 1147SOL     OW14902   2.851   1.102  17.154  0.3124 -0.5003 -0.1895
 1147SOL    HW114903   2.884   1.179  17.201  0.9482  0.3633 -2.0548
 1147SOL    HW214904   2.761   1.130  17.139  0.7778  1.1817  0.2021
 1148SOL     OW14905   0.727   0.872   8.483 -0.1571  0.3227  0.6640
 1148SOL    HW114906   0.816   0.843   8.504 -0.0809  0.3044  0.3166
 1148SOL    HW214907   0.704   0.885   8.575 -0.7584  1.8368  0.2913
 1149SOL     OW14908   0.604   3.725   8.466 -0.1822  0.4855  0.3222
 1149SOL    HW114909   0.674   3.698   8.406 -0.0283  2.2543 -0.3196
 1149SOL    HW214910   0.655   3.793   8.512  0.6347  0.2884 -0.2923
 1150SOL     OW14911   4.075   2.424   1.973 -0.0866 -0.0981 -0.0700
 1150SOL    HW114912   4.039   2.511   1.958 -1.2595 -0.7741 -1.1933
 1150SOL    HW214913   4.110   2.440   2.061 -0.7394  1.3600 -0.0682
 1151SOL     OW14914   1.432   0.286   6.993 -0.5899  0.7617  0.0638
 1151SOL    HW114915   1.426   0.381   7.002  2.3401  0.8597  0.7911
 1151SOL    HW214916   1.364   0.255   7.053 -0.9187  2.6131  0.6439
 1152SOL     OW14917   2.122   0.352   0.824 -0.2364  0.1417 -0.0019
 1152SOL    HW114918   2.112   0.430   0.878 -0.8323  0.5473 -0.6921
 1152SOL    HW214919   2.040   0.345   0.776 -0.4736  2.6016  0.0543
 1153SOL     OW14920   0.244   4.362   2.272  0.0967  0.3157  0.0426
 1153SOL    HW114921   0.331   4.322   2.281 -0.6021 -1.2816 -0.3238
 1153SOL    HW214922   0.262   4.438   2.328  2.0412 -0.8653  1.0407
 1154SOL     OW14923   3.802   0.120   8.483  0.7855  0.0316  0.1572
 1154SOL    HW114924   3.891   0.088   8.501  0.7035 -0.6371 -0.6063
 1154SOL    HW214925   3.753   0.101   8.564 -0.2107 -0.1411 -0.4864
 1155SOL     OW14926   1.012   4.272   5.356 -0.0020 -0.2928 -0.0233
 1155SOL    HW114927   1.053   4.190   5.383  1.8936  1.0106  1.0825
 1155SOL    HW214928   0.982   4.238   5.272 -0.9595  1.5645 -0.4195
 1156SOL     OW14929   1.542   1.921   4.146  0.3569 -0.0704 -0.1162
 1156SOL    HW114930   1.551   2.016   4.142 -2.3929  0.2504  1.7757
 1156SOL    HW214931   1.569   1.894   4.058  2.8559  1.0082  0.3224
 1157SOL     OW14932   4.372   0.925   5.005 -0.3577 -0.3473 -0.3584
 1157SOL    HW114933   4.460   0.939   4.970 -0.7061 -0.2378 -1.1832
 1157SOL    HW214934   4.325   0.909   4.924 -1.7042 -1.9409  0.7494
 1158SOL     OW14935   4.696   2.791   0.854 -0.9959  0.0408  0.4215
 1158SOL    HW114936   4.639   2.719   0.881 -0.7303 -1.8571 -4.1606
 1158SOL    HW214937   4.719   2.813   0.945 -1.7385 -3.1095  1.3695
 1159SOL     OW14938   2.526   4.117   9.596  0.4829 -0.1031  0.7927
 1159SOL    HW114939   2.487   4.165   9.668  0.5300  0.1611  0.6402
 1159SOL    HW214940   2.451   4.101   9.540  0.5449 -2.2455  1.2931
 1160SOL     OW14941   0.778   2.701   8.279 -0.7740  0.4702  0.2774
 1160SOL    HW114942   0.707   2.673   8.336  0.7282 -2.9241  0.4546
 1160SOL    HW214943   0.776   2.633   8.212  0.5494 -1.2534  1.9865
 1161SOL     OW14944   3.996   0.551   6.176 -0.0973  0.2301  0.2054
 1161SOL    HW114945   4.016   0.624   6.117 -2.5545 -1.7710 -3.1166
 1161SOL    HW214946   3.901   0.558   6.176  0.0539  2.3714 -1.4514
 1162SOL     OW14947   4.228   0.463   5.085 -0.0447  0.0173  0.1525
 1162SOL    HW114948   4.158   0.438   5.146 -0.4562  0.7650 -0.0107
 1162SOL    HW214949   4.304   0.442   5.138 -1.4763  0.7072  2.4722
 1163SOL     OW14950   0.426   0.230   2.888 -0.2713  0.2685 -0.3071
 1163SOL    HW114951   0.353   0.171   2.908 -1.2766  1.6247 -0.0094
 1163SOL    HW214952   0.474   0.214   2.969  0.6077  0.2230 -0.8387
 1164SOL     OW14953   2.433   3.834   1.435 -0.3700  0.3982 -0.1483
 1164SOL    HW114954   2.403   3.838   1.344 -3.5519 -0.6201  0.8689
 1164SOL    HW214955   2.356   3.797   1.476  0.7222 -2.3159 -0.5244
 1165SOL     OW14956   4.041   3.605   2.962 -0.3875  0.9067  0.3701
 1165SOL    HW114957   3.955   3.602   3.003 -0.2125 -1.1443  0.5589
 1165SOL    HW214958   4.028   3.553   2.883  1.6509  0.3479  0.4054
 1166SOL     OW14959   0.172   2.140   2.749 -0.1476  0.1393  0.0065
 1166SOL    HW114960   0.257   2.096   2.761  0.1728  0.8290  0.2775
 1166SOL    HW214961   0.195   2.224   2.790  0.1980 -0.8464  1.8481
 1167SOL     OW14962   0.600   0.505   5.169 -0.1034 -0.1812  0.4309
 1167SOL    HW114963   0.674   0.507   5.229 -0.1680 -0.0237  0.5026
 1167SOL    HW214964   0.557   0.424   5.196 -2.2097  0.6322 -0.5225
 1168SOL     OW14965   2.924   2.073  16.862 -0.2166 -0.3180  0.5991
 1168SOL    HW114966   2.930   2.128  16.783 -2.0155 -1.2270 -0.1856
 1168SOL    HW214967   3.010   2.032  16.861 -0.1041 -0.0973  1.3518
 1169SOL     OW14968   2.502   0.441   7.548  0.5669 -0.3026  0.8236
 1169SOL    HW114969   2.475   0.489   7.470  0.7574 -0.1775  0.8325
 1169SOL    HW214970   2.576   0.389   7.517 -0.1717 -0.4722 -0.6165
 1170SOL     OW14971   2.468   2.611   7.267  0.5454 -0.0543 -0.3610
 1170SOL    HW114972   2.483   2.646   7.354  3.2674 -1.6809 -0.2023
 1170SOL    HW214973   2.504   2.524   7.283 -0.0928 -0.0485  1.0775
 1171SOL     OW14974   1.406   4.070   8.617 -0.4745 -0.3577 -0.0673
 1171SOL    HW114975   1.487   4.113   8.644 -0.4285 -1.3547  1.3318
 1171SOL    HW214976   1.414   4.007   8.688 -2.7300 -0.7615 -0.1591
 1172SOL     OW14977   3.536   3.782   5.116 -0.0621  0.3920  0.2017
 1172SOL    HW114978   3.478   3.820   5.051  0.7267  1.3125  0.0541
 1172SOL    HW214979   3.478   3.802   5.190 -0.9772 -1.7590  0.0879
 1173SOL     OW14980   0.879   3.839   5.677 -0.5939  0.7471 -0.3914
 1173SOL    HW114981   0.954   3.780   5.676 -0.4892  0.8407  1.3049
 1173SOL    HW214982   0.843   3.833   5.766 -0.3969 -0.7871 -0.4268
 1174SOL     OW14983   3.592   4.376  13.414  0.1984 -0.5951 -0.3439
 1174SOL    HW114984   3.671   4.410  13.371 -0.2172  0.6850 -0.1149
 1174SOL    HW214985   3.565   4.459  13.453 -0.7779 -1.3766  0.6508
 1175SOL     OW14986   2.394   0.336   2.473 -0.2320 -0.6094 -0.3087
 1175SOL    HW114987   2.392   0.310   2.381  1.6775  2.5274 -1.2345
 1175SOL    HW214988   2.348   0.420   2.479 -0.5244 -0.9030  1.4034
 1176SOL     OW14989   3.800   4.620  15.644 -0.0104  0.7170 -0.3635
 1176SOL    HW114990   3.733   4.687  15.659 -0.5616  0.2199 -0.5768
 1176SOL    HW214991   3.768   4.584  15.561 -0.2386  1.8209 -0.7653
 1177SOL     OW14992   3.873   3.707  11.677  0.3416 -0.5059 -0.2360
 1177SOL    HW114993   3.907   3.768  11.743 -1.2147 -0.4398  0.5083
 1177SOL    HW214994   3.801   3.753  11.634 -1.1435 -0.3967  2.3698
 1178SOL     OW14995   2.109   2.571   1.899  0.2029 -0.0851 -0.6487
 1178SOL    HW114996   2.048   2.592   1.828 -0.1678 -1.1572 -0.6502
 1178SOL    HW214997   2.180   2.536   1.845  0.1282 -2.4609  0.8281
 1179SOL     OW14998   2.931   0.224  16.275  0.0105  0.2253  0.0060
 1179SOL    HW114999   2.951   0.281  16.200  0.6678 -0.7568 -0.5729
 1179SOL    HW215000   2.937   0.290  16.344  0.6192  0.2290 -0.0440
 1180SOL     OW15001   2.629   3.646   1.947 -0.0056 -0.0385 -0.2544
 1180SOL    HW115002   2.714   3.675   1.978 -0.2235  0.3152  0.0195
 1180SOL    HW215003   2.615   3.708   1.875  1.8117  2.6364  1.7331
 1181SOL     OW15004   2.344   3.296  16.142 -0.3369 -0.4523  0.0460
 1181SOL    HW115005   2.287   3.220  16.129 -1.2399  0.5465 -1.8395
 1181SOL    HW215006   2.338   3.306  16.237 -0.2762  1.1862 -0.1320
 1182SOL     OW15007   4.536   0.732  15.707 -0.1236  0.1189 -0.4993
 1182SOL    HW115008   4.582   0.704  15.787  1.2305 -1.8126 -1.9514
 1182SOL    HW215009   4.457   0.769  15.747 -0.3894 -1.2962  0.3112
 1183SOL     OW15010   1.996   0.817   7.855  0.0068  0.0654  0.4699
 1183SOL    HW115011   2.014   0.883   7.788  0.6032  0.6268  1.1863
 1183SOL    HW215012   1.984   0.739   7.802  2.1543  0.5516 -0.7204
 1184SOL     OW15013   0.663   4.603   7.492 -0.4156  0.3216 -0.1218
 1184SOL    HW115014   0.676   4.655   7.572 -0.0160 -2.0835  1.3817
 1184SOL    HW215015   0.678   4.514   7.524  0.7107  1.1141  1.5929
 1185SOL     OW15016   4.586   3.292  13.104  0.1111 -0.4842 -0.4704
 1185SOL    HW115017   4.641   3.221  13.137 -0.0865  0.0297  0.9487
 1185SOL    HW215018   4.509   3.236  13.100  1.9372 -2.8610 -1.8369
 1186SOL     OW15019   4.134   3.488   7.069 -0.2703  0.1504 -0.5208
 1186SOL    HW115020   4.190   3.553   7.027  2.2830 -1.5170  0.3045
 1186SOL    HW215021   4.178   3.448   7.144  0.1787  0.7527 -0.4575
 1187SOL     OW15022   1.624   2.445  16.859 -0.2470 -0.0266 -0.7824
 1187SOL    HW115023   1.555   2.510  16.845 -0.0088  1.1182  3.4787
 1187SOL    HW215024   1.689   2.457  16.790 -0.3787  3.5203 -0.2872
 1188SOL     OW15025   1.663   2.936   1.312 -0.0070  0.5756 -0.0743
 1188SOL    HW115026   1.723   2.979   1.372 -0.4428  1.5639 -0.3457
 1188SOL    HW215027   1.721   2.923   1.236  0.3387  1.4798  0.0263
 1189SOL     OW15028   0.575   1.807   2.864  0.3542  0.2527  0.2548
 1189SOL    HW115029   0.616   1.771   2.943  0.6555 -0.7122 -0.3360
 1189SOL    HW215030   0.655   1.845   2.827  0.1103 -0.0179 -0.5474
 1190SOL     OW15031   2.113   3.682   2.242 -0.9457 -0.3321 -0.2939
 1190SOL    HW115032   2.072   3.656   2.324  1.2712 -0.5478  0.7586
 1190SOL    HW215033   2.146   3.598   2.209 -1.9168 -1.6651  2.1255
 1191SOL     OW15034   3.689   4.189   2.055 -0.6232 -0.3670  0.4134
 1191SOL    HW115035   3.660   4.103   2.026 -1.3620  0.2935 -0.7998
 1191SOL    HW215036   3.777   4.180   2.093  0.0180 -1.3740 -1.2916
 1192SOL     OW15037   2.412   3.344   8.517  0.4389 -0.4514 -0.1959
 1192SOL    HW115038   2.449   3.256   8.523 -0.9749 -1.2036 -2.4314
 1192SOL    HW215039   2.320   3.325   8.534  0.2900  0.2920 -0.1524
 1193SOL     OW15040   0.222   0.853   8.254  0.0424 -0.3004 -0.5994
 1193SOL    HW115041   0.298   0.835   8.309  1.0761 -1.2618 -2.3213
 1193SOL    HW215042   0.171   0.910   8.311  0.8904 -2.0040  1.8422
 1194SOL     OW15043   1.985   0.461   0.190 -0.1918 -0.2341 -0.1778
 1194SOL    HW115044   1.926   0.514   0.244  1.5122  0.7895  0.6624
 1194SOL    HW215045   2.058   0.469   0.251  1.5381 -2.7017 -1.9246
 1195SOL     OW15046   3.022   1.564   2.433 -0.0726 -0.6334  0.3061
 1195SOL    HW115047   3.051   1.637   2.377 -1.1390 -2.9359 -3.2922
 1195SOL    HW215048   2.942   1.531   2.392  0.2498 -1.3446  0.2519
 1196SOL     OW15049   2.963   1.678   1.949 -0.0552  0.0663  0.6472
 1196SOL    HW115050   3.024   1.721   1.889 -2.1921 -0.3235 -1.8374
 1196SOL    HW215051   2.978   1.716   2.035  1.8664 -1.5557  1.0201
 1197SOL     OW15052   0.348   3.780  16.229 -0.4062  0.4942  0.2893
 1197SOL    HW115053   0.385   3.823  16.152  0.6923  0.3765  0.7636
 1197SOL    HW215054   0.316   3.849  16.286 -2.7789 -0.6371  0.3324
 1198SOL     OW15055   0.468   4.431   3.951 -0.1757  0.4721  0.5099
 1198SOL    HW115056   0.527   4.371   3.906 -0.7709 -0.4346  0.9541
 1198SOL    HW215057   0.453   4.386   4.034  1.2795  0.6162  0.8500
 1199SOL     OW15058   0.602   0.603   1.498  0.1490 -0.0173 -0.2532
 1199SOL    HW115059   0.603   0.604   1.594 -0.1183 -0.4273 -0.2460
 1199SOL    HW215060   0.575   0.692   1.475  4.5823  0.8957 -1.8348
 1200SOL     OW15061   0.904   2.897  11.521 -0.2927 -0.0626 -0.2840
 1200SOL    HW115062   0.997   2.878  11.528 -0.5475 -0.3338  2.2063
 1200SOL    HW215063   0.858   2.831  11.572 -1.3764  0.5969 -0.4091
 1201SOL     OW15064   4.051   0.941  13.712 -0.0859  0.0357  0.9081
 1201SOL    HW115065   3.997   0.959  13.789 -2.7223  1.3850 -1.2234
 1201SOL    HW215066   4.007   1.000  13.650  0.7624  0.4516  0.6965
 1202SOL     OW15067   1.961   4.174   4.676  0.6389 -0.7216  0.4439
 1202SOL    HW115068   1.991   4.105   4.735  0.8116 -1.5324 -0.5851
 1202SOL    HW215069   1.981   4.130   4.593 -0.1436  1.0545 -0.7047
 1203SOL     OW15070   2.451   3.808   3.793 -0.4575 -0.2684 -0.8134
 1203SOL    HW115071   2.387   3.752   3.836 -1.5123  0.4538 -1.4385
 1203SOL    HW215072   2.501   3.742   3.745  1.9431 -0.0190  1.3076
 1204SOL     OW15073   4.469   1.298   7.515  0.8049  0.2278  0.0935
 1204SOL    HW115074   4.385   1.287   7.470 -0.0464 -1.7948  2.1794
 1204SOL    HW215075   4.474   1.220   7.570 -1.2605  0.2701  0.3547
 1205SOL     OW15076   1.573   3.495  11.755  0.5090 -0.2448  0.4935
 1205SOL    HW115077   1.620   3.427  11.803 -0.9541 -3.2111 -2.2832
 1205SOL    HW215078   1.634   3.538  11.695  0.0872  0.1654  0.3592
 1206SOL     OW15079   1.252   0.475  17.531  0.4946  0.4031 -0.0531
 1206SOL    HW115080   1.221   0.496  17.619 -0.2700 -0.7389 -0.0455
 1206SOL    HW215081   1.218   0.556  17.493 -1.3425 -0.0792  0.5683
 1207SOL     OW15082   2.282   0.012   6.952 -0.4645 -0.1922 -0.4675
 1207SOL    HW115083   2.376   4.719   6.958 -0.2884  1.5180  0.8147
 1207SOL    HW215084   2.258   4.657   6.899  1.4487 -1.1674  0.0644
 1208SOL     OW15085   1.099   3.376  12.555  0.4285 -0.2559  0.2216
 1208SOL    HW115086   1.128   3.466  12.541 -4.7079  1.0937 -1.4490
 1208SOL    HW215087   1.159   3.320  12.506  0.0194  0.1606 -0.7327
 1209SOL     OW15088   3.451   3.169   6.699  0.2991 -0.0644 -0.4813
 1209SOL    HW115089   3.447   3.244   6.641  3.8204  1.1407  0.8509
 1209SOL    HW215090   3.380   3.116   6.662 -1.2917  0.0020  2.4397
 1210SOL     OW15091   4.341   0.645   8.864  0.3047 -0.7406  0.7485
 1210SOL    HW115092   4.360   0.692   8.782  1.7427 -1.6320  0.5832
 1210SOL    HW215093   4.390   0.688   8.933  1.4601 -0.2579 -0.3637
 1211SOL     OW15094   2.804   2.954  13.601 -0.4832  0.1157 -0.1170
 1211SOL    HW115095   2.774   2.940  13.511  0.3937  1.3330 -0.6054
 1211SOL    HW215096   2.742   3.026  13.617  0.4095  0.6188  1.0532
 1212SOL     OW15097   0.591   3.334   5.989 -0.2718 -0.1479  0.5177
 1212SOL    HW115098   0.509   3.333   5.939 -0.9653 -1.6152  1.6990
 1212SOL    HW215099   0.599   3.428   6.005 -3.4874 -0.0098  1.3611
 1213SOL     OW15100   3.814   0.388  14.061 -0.5883  0.1513 -0.2677
 1213SOL    HW115101   3.806   0.433  14.145 -0.8743  3.0485 -1.8597
 1213SOL    HW215102   3.766   0.453  14.011 -0.2973  0.4945 -0.0995
 1214SOL     OW15103   2.619   0.585   3.845  0.4393  0.1774 -0.1761
 1214SOL    HW115104   2.538   0.630   3.820  0.7797  0.8963  0.0002
 1214SOL    HW215105   2.614   0.519   3.776 -3.2489  0.7425 -0.4301
 1215SOL     OW15106   3.507   1.106   2.710 -0.1979  0.0427 -0.5339
 1215SOL    HW115107   3.460   1.158   2.776  4.3983 -0.4044  3.0240
 1215SOL    HW215108   3.457   1.025   2.724  0.5626 -0.3968 -0.3964
 1216SOL     OW15109   1.122   3.014   9.953 -0.3127  0.1511  0.0958
 1216SOL    HW115110   1.175   3.076  10.003  0.7589 -1.3449  0.8310
 1216SOL    HW215111   1.054   2.989  10.015  1.4470  0.5696  2.1949
 1217SOL     OW15112   2.128   4.652   2.923  0.3436 -0.4200  0.2532
 1217SOL    HW115113   2.205   4.705   2.902  0.1786 -0.2267  0.1339
 1217SOL    HW215114   2.061   4.686   2.864  0.9804 -1.4195 -1.0278
 1218SOL     OW15115   2.418   1.683   2.194  0.3854 -0.2538 -0.1948
 1218SOL    HW115116   2.440   1.594   2.224 -0.9491 -0.1587  1.0546
 1218SOL    HW215117   2.505   1.723   2.188 -0.2081  1.1948  0.9044
 1219SOL     OW15118   0.586   3.198   4.703 -0.1383 -0.0351  0.2317
 1219SOL    HW115119   0.526   3.154   4.763  1.8038 -4.4011 -0.9867
 1219SOL    HW215120   0.617   3.131   4.641 -0.2697 -0.2712  0.4197
 1220SOL     OW15121   3.042   3.187   3.812 -0.3667  0.7304 -0.4816
 1220SOL    HW115122   2.979   3.202   3.741  0.0763  1.8041 -0.6564
 1220SOL    HW215123   3.063   3.099   3.781 -1.7173  0.1448  0.2306
 1221SOL     OW15124   1.236   2.206   9.037 -0.2381 -0.4827 -0.0041
 1221SOL    HW115125   1.285   2.263   8.979  1.1887 -2.1891 -0.4927
 1221SOL    HW215126   1.310   2.170   9.085 -0.1588  2.1405  1.8349
 1222SOL     OW15127   3.061   2.339   1.165 -0.4933 -0.0945 -0.5271
 1222SOL    HW115128   3.048   2.420   1.215 -2.2476  0.6923 -2.2996
 1222SOL    HW215129   3.044   2.368   1.076  0.0943 -0.2447 -0.6881
 1223SOL     OW15130   3.118   0.374  15.756 -0.7568 -0.0754 -0.1285
 1223SOL    HW115131   3.095   0.428  15.680  0.8149  2.0068  0.8830
 1223SOL    HW215132   3.073   0.419  15.827  1.8072 -2.5935  3.0784
 1224SOL     OW15133   1.713   1.314  16.359  0.0328 -0.6088 -0.3653
 1224SOL    HW115134   1.781   1.287  16.297 -0.4479 -0.1602 -1.0891
 1224SOL    HW215135   1.667   1.232  16.372 -1.4701 -0.0222 -2.0595
 1225SOL     OW15136   2.440   3.774   2.764 -0.8264 -0.1792  0.4631
 1225SOL    HW115137   2.365   3.806   2.713 -0.7176  0.0255  0.4301
 1225SOL    HW215138   2.510   3.784   2.699  1.3682 -3.0644  2.3683
 1226SOL     OW15139   3.253   1.278  11.451 -0.3501 -0.0931 -0.0787
 1226SOL    HW115140   3.238   1.303  11.360 -1.4077  0.8749  0.3659
 1226SOL    HW215141   3.324   1.337  11.475  0.3038  0.0831 -2.4616
 1227SOL     OW15142   0.601   4.224  13.758 -0.2159  0.5067 -0.3160
 1227SOL    HW115143   0.673   4.163  13.771 -0.1047  0.3668 -1.5700
 1227SOL    HW215144   0.610   4.276  13.838 -1.6418 -0.5188  0.5039
 1228SOL     OW15145   3.337   2.292   5.940  0.8197 -0.5789  0.1661
 1228SOL    HW115146   3.307   2.332   6.022  1.1432 -0.7230  0.3533
 1228SOL    HW215147   3.256   2.256   5.903  0.6728 -1.1807  1.0708
 1229SOL     OW15148   0.105   1.137  12.954 -0.1489  0.4783 -0.4643
 1229SOL    HW115149   0.019   1.107  12.923  0.0009 -0.6203  0.1891
 1229SOL    HW215150   0.099   1.103  13.043  0.6804  0.4230 -0.4304
 1230SOL     OW15151   2.083   1.186   4.383  0.5294  0.1158  0.2737
 1230SOL    HW115152   2.141   1.168   4.457  0.8458 -1.0833 -0.2656
 1230SOL    HW215153   2.098   1.281   4.379  3.2743 -0.3391  0.2521
 1231SOL     OW15154   4.332   2.527   9.628  0.1330 -0.4626 -0.1721
 1231SOL    HW115155   4.425   2.514   9.610  0.3601 -0.2583  0.8828
 1231SOL    HW215156   4.291   2.468   9.564  1.7844 -3.8834  1.8756
 1232SOL     OW15157   2.934   0.755  16.474  0.4941 -0.0537  0.5118
 1232SOL    HW115158   2.930   0.734  16.568 -2.5349  1.1293  0.6628
 1232SOL    HW215159   2.991   0.832  16.473  0.0184  0.2831 -0.8315
 1233SOL     OW15160   1.473   1.190  14.364  0.3129 -0.1320 -0.3483
 1233SOL    HW115161   1.383   1.163  14.349  0.5557  0.5117 -2.9600
 1233SOL    HW215162   1.456   1.283  14.357 -0.1123 -0.1034  1.0964
 1234SOL     OW15163   3.129   3.906  14.440 -0.5868  0.0276  0.3415
 1234SOL    HW115164   3.152   3.890  14.532  2.5493 -2.6482 -0.9414
 1234SOL    HW215165   3.033   3.910  14.445 -0.7226  0.2522 -2.4786
 1235SOL     OW15166   1.762   0.692   5.380 -0.0807  0.6446  0.2188
 1235SOL    HW115167   1.673   0.694   5.344 -0.2225  0.0296  0.5301
 1235SOL    HW215168   1.765   0.751   5.454  0.5061  1.1865 -0.2405
 1236SOL     OW15169   4.379   2.435   8.251 -0.2173  0.0027  0.3496
 1236SOL    HW115170   4.471   2.419   8.274 -0.2528  1.3690  1.4562
 1236SOL    HW215171   4.342   2.359   8.295  2.3336 -1.9452 -0.8703
 1237SOL     OW15172   2.085   1.767   4.755 -0.2981 -0.8857 -0.4058
 1237SOL    HW115173   2.109   1.807   4.838  0.5298  0.4712 -1.3031
 1237SOL    HW215174   2.045   1.837   4.703 -2.6970 -0.4126  2.0346
 1238SOL     OW15175   2.629   2.624  12.615 -0.1234 -0.3185  0.4352
 1238SOL    HW115176   2.576   2.703  12.607  3.6363  2.2972  1.5183
 1238SOL    HW215177   2.713   2.666  12.595  1.1862 -2.8950  0.4777
 1239SOL     OW15178   0.225   0.145   4.505  0.2675  0.3057  0.3128
 1239SOL    HW115179   0.228   0.208   4.433  3.2384  0.6769  0.7489
 1239SOL    HW215180   0.183   0.074   4.456  0.4333  0.7428 -0.4659
 1240SOL     OW15181   1.760   3.426   4.211 -0.8604 -0.0347 -0.1505
 1240SOL    HW115182   1.846   3.461   4.236 -1.0684 -0.9602  1.8560
 1240SOL    HW215183   1.786   3.336   4.190  2.7944  0.6950  1.2272
 1241SOL     OW15184   4.382   2.741  17.428 -0.4156 -0.0062  0.3051
 1241SOL    HW115185   4.386   2.670  17.492  0.8130 -0.9930 -0.8516
 1241SOL    HW215186   4.463   2.786  17.450  0.2116 -0.2263 -1.4937
 1242SOL     OW15187   1.537   2.786   4.214 -0.6787  0.1908  0.3003
 1242SOL    HW115188   1.499   2.699   4.206 -0.8661  0.0192  3.2415
 1242SOL    HW215189   1.631   2.773   4.229 -0.7170  0.1692  0.5122
 1243SOL     OW15190   0.725   3.884   4.015  0.5615 -0.1266 -0.6861
 1243SOL    HW115191   0.770   3.800   4.007  2.5132  0.7117  1.4414
 1243SOL    HW215192   0.664   3.872   4.088  0.0920 -2.0880 -1.4080
 1244SOL     OW15193   3.490   3.664   7.813  0.3537  0.4438  0.4597
 1244SOL    HW115194   3.502   3.625   7.899 -3.0566 -0.6435  0.4517
 1244SOL    HW215195   3.443   3.746   7.831  0.6609  0.4746  1.1198
 1245SOL     OW15196   0.739   0.422  11.957 -0.1186  0.3064  0.1628
 1245SOL    HW115197   0.827   0.459  11.967 -1.1020  1.7042  3.2701
 1245SOL    HW215198   0.718   0.405  12.048  2.6135 -2.2428  0.3187
 1246SOL     OW15199   4.241   3.531   5.848  0.0705  0.2976  0.2912
 1246SOL    HW115200   4.189   3.559   5.923  0.0889  2.0846 -0.3716
 1246SOL    HW215201   4.192   3.450   5.831  1.1036 -0.4870  1.0123
 1247SOL     OW15202   0.185   0.598   5.540  0.1392 -0.1620 -0.7327
 1247SOL    HW115203   0.263   0.601   5.485  0.5422  0.0607 -0.1484
 1247SOL    HW215204   0.201   0.680   5.587  0.5698 -1.2510  1.0238
 1248SOL     OW15205   1.219   1.087   9.074 -0.0826 -0.5292  0.9747
 1248SOL    HW115206   1.125   1.099   9.088  0.3962  1.9443  1.8652
 1248SOL    HW215207   1.247   1.060   9.161  3.3840  1.8441  0.5886
 1249SOL     OW15208   0.647   0.661   5.483 -0.1073 -0.4025  0.0690
 1249SOL    HW115209   0.737   0.675   5.453  0.2319 -1.3729  0.6086
 1249SOL    HW215210   0.596   0.714   5.422 -0.0280 -0.6055 -0.1725
 1250SOL     OW15211   4.721   0.366  13.783 -0.3865  0.3508 -0.4933
 1250SOL    HW115212   4.672   0.284  13.783 -1.6963  1.1260 -1.4006
 1250SOL    HW215213   0.074   0.359  13.843  0.6785  1.1791 -1.7187
 1251SOL     OW15214   4.462   1.943   7.595  0.1928  0.3557 -0.0110
 1251SOL    HW115215   4.391   1.974   7.652 -1.2591 -1.1321 -1.0037
 1251SOL    HW215216   4.452   1.849   7.604 -1.7478  0.4842 -0.8074
 1252SOL     OW15217   4.476   3.071   5.429 -0.1779 -0.3770  0.8791
 1252SOL    HW115218   4.525   3.002   5.383 -1.2206  0.6060 -1.6693
 1252SOL    HW215219   4.525   3.084   5.511  0.3801 -2.0244  0.8140
 1253SOL     OW15220   4.607   4.033   8.119 -0.0240  0.5239 -0.1697
 1253SOL    HW115221   4.670   3.963   8.138 -0.0308  0.6515  0.3177
 1253SOL    HW215222   4.655   4.103   8.163 -0.0774 -0.3703  1.3150
 1254SOL     OW15223   4.329   0.963   7.209 -0.1545  0.4938 -0.1066
 1254SOL    HW115224   4.239   0.956   7.240  0.1994  0.2298  0.8401
 1254SOL    HW215225   4.374   1.021   7.271  3.0268 -1.4772 -0.5460
 1255SOL     OW15226   2.712   2.385   3.199  0.5069 -0.7323  0.0599
 1255SOL    HW115227   2.731   2.298   3.234  2.3356 -0.8733 -1.2496
 1255SOL    HW215228   2.801   2.410   3.173 -0.7253  1.9688 -1.5847
 1256SOL     OW15229   1.707   3.791   3.695  0.2039 -0.2025  0.2533
 1256SOL    HW115230   1.666   3.748   3.620  1.9862 -2.1640  0.4249
 1256SOL    HW215231   1.650   3.863   3.721  1.4586  1.8009 -2.5366
 1257SOL     OW15232   0.795   0.374   4.991 -0.5036 -0.0098  0.1152
 1257SOL    HW115233   0.855   0.357   5.063 -1.4577  0.4927  1.0240
 1257SOL    HW215234   0.715   0.340   5.033 -2.9655  1.5604 -3.3025
 1258SOL     OW15235   3.326   3.231  12.950 -0.5218 -0.5687 -0.2166
 1258SOL    HW115236   3.238   3.264  12.929  0.6985  2.8433  0.0175
 1258SOL    HW215237   3.313   3.190  13.036 -0.2562 -1.1294 -0.4429
 1259SOL     OW15238   2.931   0.792  12.211  0.3035  1.1067  0.3798
 1259SOL    HW115239   2.978   0.792  12.127  0.2979  0.7792  0.3772
 1259SOL    HW215240   2.872   0.724  12.178  1.0785  0.5298  0.1774
 1260SOL     OW15241   0.663   1.200   6.812  0.3814 -0.0786 -0.3353
 1260SOL    HW115242   0.745   1.157   6.785 -0.0512 -2.2416  1.7648
 1260SOL    HW215243   0.647   1.258   6.738 -1.3935 -0.3881 -0.1743
 1261SOL     OW15244   2.211   0.178   3.656 -0.0675  0.0798 -0.9335
 1261SOL    HW115245   2.140   0.239   3.677  0.1767  0.4158 -1.0790
 1261SOL    HW215246   2.286   0.231   3.682 -0.2111 -0.4634  0.6020
 1262SOL     OW15247   4.604   1.259   0.563  0.6497 -0.1933 -0.2542
 1262SOL    HW115248   4.528   1.307   0.530  0.0676 -1.6564 -1.0564
 1262SOL    HW215249   4.567   1.191   0.620 -0.2336  0.0807 -0.5022
 1263SOL     OW15250   1.381   0.450   1.405  0.4037 -0.2620 -0.4461
 1263SOL    HW115251   1.399   0.372   1.353 -2.5199 -0.0790 -1.7408
 1263SOL    HW215252   1.472   0.462   1.431  0.2226  3.6421 -1.5983
 1264SOL     OW15253   3.870   3.254   3.585 -1.0067 -0.5297  0.0246
 1264SOL    HW115254   3.883   3.307   3.506  4.0731 -0.4293  0.8988
 1264SOL    HW215255   3.892   3.168   3.548  1.6460 -0.8016  2.2052
 1265SOL     OW15256   3.811   1.117   2.326 -0.2083 -0.1546  0.4802
 1265SOL    HW115257   3.900   1.135   2.354  0.2147  0.3870 -1.2016
 1265SOL    HW215258   3.829   1.121   2.232 -0.0321  1.3333  0.5773
 1266SOL     OW15259   1.593   1.409   5.989  0.0813 -0.2765 -0.0435
 1266SOL    HW115260   1.522   1.357   6.026 -1.2439  1.1744 -0.5562
 1266SOL    HW215261   1.646   1.353   5.933 -0.0216  1.4024 -1.8351
 1267SOL     OW15262   1.925   3.873  15.608 -0.3972  0.3968  0.4368
 1267SOL    HW115263   1.950   3.951  15.559  1.9125 -0.6668 -0.0576
 1267SOL    HW215264   1.956   3.797  15.560 -1.0006 -0.0355  0.7264
 1268SOL     OW15265   4.553   3.850   2.473  0.2812 -0.2525 -0.0420
 1268SOL    HW115266   4.623   3.916   2.466  2.2606 -2.3194  0.1835
 1268SOL    HW215267   4.485   3.910   2.443  0.3887  0.5790  1.3687
 1269SOL     OW15268   2.241   0.616   8.639 -0.1090 -0.1553 -0.0818
 1269SOL    HW115269   2.269   0.705   8.618 -3.1528  1.2546  1.9895
 1269SOL    HW215270   2.146   0.630   8.642 -0.0457  0.5964 -1.8288
 1270SOL     OW15271   4.574   1.589  15.720  0.3658  0.0279  0.2144
 1270SOL    HW115272   4.668   1.595  15.733  0.1032  0.7967  1.7294
 1270SOL    HW215273   4.540   1.582  15.809  3.0675  0.0334  1.2393
 1271SOL     OW15274   2.186   0.597   3.023 -0.0991  0.1691  0.1741
 1271SOL    HW115275   2.263   0.544   3.041 -0.3957  0.0955  1.2458
 1271SOL    HW215276   2.122   0.547   3.075  0.8620  0.1301  1.3145
 1272SOL     OW15277   1.891   1.981   8.409 -0.2332  0.2596  0.0706
 1272SOL    HW115278   1.812   1.959   8.457  0.3384 -1.7371  0.1020
 1272SOL    HW215279   1.923   2.061   8.449 -1.9117 -0.2960  2.5192
 1273SOL     OW15280   2.136   0.043  15.256  0.6506 -0.1581 -0.3077
 1273SOL    HW115281   2.046   0.026  15.227 -0.8585  0.9780  3.7193
 1273SOL    HW215282   2.123   0.129  15.295 -0.8632 -0.7400  0.4603
 1274SOL     OW15283   1.757   0.297   5.967  0.1171 -0.0813 -0.6993
 1274SOL    HW115284   1.693   0.313   6.036  1.0662 -2.1003  0.6710
 1274SOL    HW215285   1.698   0.253   5.906 -2.1625  1.9496  0.0680
 1275SOL     OW15286   4.001   3.744   4.609 -0.0529  0.7585 -0.0254
 1275SOL    HW115287   4.090   3.769   4.635  0.7791 -2.0197 -0.2711
 1275SOL    HW215288   3.969   3.718   4.696  0.5753 -1.5579 -0.4912
 1276SOL     OW15289   0.763   2.367   5.434 -0.7028 -0.7039 -0.5251
 1276SOL    HW115290   0.682   2.334   5.473 -2.1506  2.8083 -0.6182
 1276SOL    HW215291   0.809   2.385   5.515 -2.2067  0.7202  0.0021
 1277SOL     OW15292   3.013   2.607   5.765  0.5507  0.3526 -0.0141
 1277SOL    HW115293   3.100   2.619   5.728  0.3452  0.1913 -0.5481
 1277SOL    HW215294   2.985   2.524   5.726 -1.3175  2.1843 -2.5194
 1278SOL     OW15295   2.309   3.938   5.208  0.5519 -0.0860 -0.3704
 1278SOL    HW115296   2.273   3.850   5.209  0.7738 -0.1587  0.6743
 1278SOL    HW215297   2.347   3.945   5.295 -2.0126  0.3668  0.7092
 1279SOL     OW15298   3.952   4.011   4.855  0.6135 -0.0457  0.1051
 1279SOL    HW115299   3.873   3.986   4.902  0.3881 -0.5251 -0.5266
 1279SOL    HW215300   4.027   3.986   4.909  0.7362 -0.0289 -0.0586
 1280SOL     OW15301   4.540   1.609  10.563  0.2590 -0.0187 -0.3648
 1280SOL    HW115302   4.522   1.607  10.469 -3.4050  2.5433  0.2882
 1280SOL    HW215303   4.538   1.517  10.589  0.8360 -0.3955 -1.6063
 1281SOL     OW15304   2.479   2.718   6.742  0.0625 -0.1914 -0.0518
 1281SOL    HW115305   2.399   2.717   6.795 -1.5992 -0.8909 -2.5749
 1281SOL    HW215306   2.476   2.808   6.708  1.8176 -1.3415 -3.2244
 1282SOL     OW15307   1.514   2.786   5.014 -0.4085 -0.2123 -0.0916
 1282SOL    HW115308   1.490   2.708   4.963 -0.2802  1.5309 -2.8647
 1282SOL    HW215309   1.583   2.747   5.066 -2.0272 -0.1358  2.0911
 1283SOL     OW15310   3.088   3.703  15.534  0.3154  0.1066 -0.3078
 1283SOL    HW115311   3.058   3.622  15.492 -1.3000  0.4052  0.2791
 1283SOL    HW215312   3.147   3.735  15.466  0.6797  0.3561  0.1242
 1284SOL     OW15313   2.168   0.132  16.273  0.0980 -0.3354  0.4864
 1284SOL    HW115314   2.211   0.048  16.255  1.5786  0.7940 -1.2172
 1284SOL    HW215315   2.077   0.109  16.253  0.4258 -0.3603 -1.0130
 1285SOL     OW15316   4.061   0.301   2.970 -0.5876 -0.2294  0.2812
 1285SOL    HW115317   4.112   0.296   3.051 -1.8878  2.7254  1.3192
 1285SOL    HW215318   4.126   0.283   2.903 -1.0465  1.1298 -0.5432
 1286SOL     OW15319   4.435   4.150   9.302 -0.3392  0.3436 -0.5671
 1286SOL    HW115320   4.351   4.109   9.281 -0.2198  0.6442 -1.6459
 1286SOL    HW215321   4.482   4.108   9.230 -0.4170 -2.0616  0.8011
 1287SOL     OW15322   2.358   0.125  11.309 -0.3794  0.3200  0.4949
 1287SOL    HW115323   2.286   0.184  11.287 -0.7016 -0.0776  0.4934
 1287SOL    HW215324   2.321   0.047  11.269  2.3773 -0.1896 -1.0208
 1288SOL     OW15325   3.721   2.356   1.167 -0.7656  0.0468  0.0766
 1288SOL    HW115326   3.762   2.430   1.121 -0.6743  0.6240  1.0943
 1288SOL    HW215327   3.761   2.372   1.252 -0.6926  0.0314  0.0452
 1289SOL     OW15328   3.458   2.721   5.477  0.0510 -0.3771  0.3213
 1289SOL    HW115329   3.416   2.666   5.543  0.6813  0.5204  1.4674
 1289SOL    HW215330   3.521   2.661   5.439  1.0408 -0.0505  1.4449
 1290SOL     OW15331   4.043   4.152  12.559 -0.1097 -0.0582  0.0126
 1290SOL    HW115332   4.125   4.157  12.510  0.6696 -0.6042  1.2422
 1290SOL    HW215333   3.985   4.104  12.500  1.1461 -1.0997 -0.3881
 1291SOL     OW15334   2.419   1.184   5.608 -0.3386 -0.3786 -0.1679
 1291SOL    HW115335   2.344   1.143   5.565  1.2119 -0.4108 -2.8496
 1291SOL    HW215336   2.391   1.276   5.606 -0.4918 -0.4658 -2.3208
 1292SOL     OW15337   0.429   4.590   8.477 -0.2639  0.3332 -0.0120
 1292SOL    HW115338   0.460   4.681   8.478  0.1098  0.2127 -2.8003
 1292SOL    HW215339   0.336   4.609   8.483 -0.1233  0.9964  0.1252
 1293SOL     OW15340   2.044   1.930   5.376  0.4993  0.3543  0.0458
 1293SOL    HW115341   2.068   2.017   5.408  0.6445  0.3892 -0.1604
 1293SOL    HW215342   1.950   1.932   5.394  0.1954  0.2392 -1.4971
 1294SOL     OW15343   2.347   3.209  11.377 -0.2399  0.3210  0.3870
 1294SOL    HW115344   2.360   3.254  11.460 -0.3427 -0.1309  0.6471
 1294SOL    HW215345   2.354   3.119  11.409  0.2209  0.0891 -0.3659
 1295SOL     OW15346   4.223   0.398   6.231  0.0193  0.2437 -0.4749
 1295SOL    HW115347   4.152   0.462   6.235 -0.4060 -0.2187 -0.6265
 1295SOL    HW215348   4.276   0.438   6.300 -1.0289  1.0445 -0.1254
 1296SOL     OW15349   2.414   3.077  15.189  0.2519  0.2594  0.3944
 1296SOL    HW115350   2.428   2.984  15.201  0.7481  0.3771  0.7302
 1296SOL    HW215351   2.506   3.097  15.172  0.5386 -1.5091 -0.0643
 1297SOL     OW15352   4.101   4.102  12.102  0.3808  0.1710  0.0216
 1297SOL    HW115353   4.014   4.068  12.081  0.5138 -0.8543  1.1282
 1297SOL    HW215354   4.104   4.187  12.058  0.5525  0.1074 -0.0896
 1298SOL     OW15355   3.093   0.478   7.555 -0.4642  0.1723 -0.2699
 1298SOL    HW115356   3.097   0.531   7.475  0.0685  0.2399 -0.1968
 1298SOL    HW215357   3.134   0.395   7.531  2.4787  1.1268  1.4703
 1299SOL     OW15358   3.304   3.644   8.358 -0.7581 -0.0648  0.0987
 1299SOL    HW115359   3.308   3.690   8.442 -1.1463 -1.3845  0.8312
 1299SOL    HW215360   3.209   3.652   8.357 -0.6908  0.6852 -0.2980
 1300SOL     OW15361   4.664   2.286   1.332  0.0515  0.6358 -0.3801
 1300SOL    HW115362   4.656   2.192   1.321  2.5126  0.3175  0.5573
 1300SOL    HW215363   0.038   2.296   1.334  0.3841 -2.8331  1.5870
 1301SOL     OW15364   3.551   2.510   4.759  0.0123 -0.1864  0.5375
 1301SOL    HW115365   3.558   2.606   4.761 -0.2148 -0.1523 -0.2394
 1301SOL    HW215366   3.626   2.493   4.703 -0.8035 -1.1642 -0.2526
 1302SOL     OW15367   0.527   1.005  13.859 -0.4576  0.0466  0.2894
 1302SOL    HW115368   0.490   0.989  13.772 -1.1288  3.1479  0.0094
 1302SOL    HW215369   0.621   1.012  13.838 -0.8016 -1.0616 -1.6026
 1303SOL     OW15370   4.137   1.951   3.331  0.6379  0.0339 -1.1776
 1303SOL    HW115371   4.090   1.876   3.293 -0.2256 -0.3242  0.6214
 1303SOL    HW215372   4.226   1.915   3.330  0.9151  0.7354 -3.0096
 1304SOL     OW15373   1.048   0.402  14.657 -0.5696 -0.3675 -0.1399
 1304SOL    HW115374   1.119   0.455  14.621 -0.2477  0.8249  2.2281
 1304SOL    HW215375   0.983   0.422  14.590 -1.7842 -0.3959  1.0375
 1305SOL     OW15376   1.619   0.501  10.207  0.0449 -0.2496  0.0861
 1305SOL    HW115377   1.712   0.489  10.224 -0.3152 -1.0735  1.4901
 1305SOL    HW215378   1.602   0.526  10.297  1.6268 -0.6603  0.4947
 1306SOL     OW15379   0.064   3.267  16.070 -0.0259  0.5184  0.1973
 1306SOL    HW115380   0.111   3.207  16.128  0.4589 -1.4866 -2.3103
 1306SOL    HW215381   4.721   3.305  16.131  1.9493  1.4617  1.6931
 1307SOL     OW15382   4.581   1.290  12.364  0.5947  0.4721  0.7312
 1307SOL    HW115383   4.582   1.214  12.306 -0.2786  0.1876  1.0881
 1307SOL    HW215384   4.575   1.248  12.450 -1.4598  1.8600  1.2711
 1308SOL     OW15385   1.772   1.969   5.429  0.1397  0.1402 -0.8455
 1308SOL    HW115386   1.676   1.961   5.427  0.1196  0.0981  0.8073
 1308SOL    HW215387   1.785   2.020   5.509  0.9495 -0.6882 -0.4450
 1309SOL     OW15388   0.902   0.982   7.538 -0.1414 -0.1746  0.4419
 1309SOL    HW115389   0.925   0.920   7.469 -3.6006 -0.2114 -0.7066
 1309SOL    HW215390   0.806   0.972   7.541 -0.0170 -1.4642  0.1598
 1310SOL     OW15391   3.076   1.893   7.088  0.0253  0.2593  0.1211
 1310SOL    HW115392   2.991   1.889   7.045 -0.3957 -2.1438  1.1943
 1310SOL    HW215393   3.096   1.987   7.090 -1.8924  0.7003 -2.2521
 1311SOL     OW15394   2.620   3.638   3.632 -0.4435 -0.6170  0.1114
 1311SOL    HW115395   2.580   3.562   3.590 -0.6238 -0.4549 -0.0097
 1311SOL    HW215396   2.628   3.686   3.550  3.0157  1.7962  1.8895
 1312SOL     OW15397   0.845   0.471   7.139  0.8209  0.2512  0.2151
 1312SOL    HW115398   0.903   0.455   7.064 -0.5655 -0.6618 -0.6746
 1312SOL    HW215399   0.770   0.513   7.096 -0.3803 -1.5245  0.5695
 1313SOL     OW15400   3.837   0.072   5.993 -0.5354  0.0519 -0.4571
 1313SOL    HW115401   3.903   0.021   6.041 -2.5858  0.5521  2.9028
 1313SOL    HW215402   3.875   0.159   5.990  2.0016 -1.1523 -3.1266
 1314SOL     OW15403   0.322   4.489   6.960 -0.3018 -0.1039 -0.6059
 1314SOL    HW115404   0.361   4.539   7.032 -1.3687  0.3894 -0.3716
 1314SOL    HW215405   0.401   4.478   6.908 -0.5214 -3.2115 -0.2905
 1315SOL     OW15406   1.137   1.282   4.065 -0.1026  0.0268  0.5260
 1315SOL    HW115407   1.173   1.338   4.134  0.2793 -0.2088  0.5192
 1315SOL    HW215408   1.184   1.331   3.998 -0.1259 -0.1804  0.3594
 1316SOL     OW15409   1.855   2.981   3.463 -0.0745  0.1436  0.9250
 1316SOL    HW115410   1.918   3.038   3.419  0.4216 -0.9665  0.2246
 1316SOL    HW215411   1.810   2.950   3.384 -0.2872  1.4959  0.5013
 1317SOL     OW15412   4.623   4.652  10.922 -0.7484  0.1343 -0.1359
 1317SOL    HW115413   4.704   4.670  10.969 -0.5328 -2.6317  0.5500
 1317SOL    HW215414   4.657   4.647  10.832 -0.0381  1.3307  0.0599
 1318SOL     OW15415   3.951   1.345   6.761  0.8027  0.1289 -0.2396
 1318SOL    HW115416   3.903   1.263   6.768 -0.4775  0.9626  0.9082
 1318SOL    HW215417   3.983   1.336   6.671  0.4394 -0.0009 -0.3577
 1319SOL     OW15418   0.230   1.551   0.579  0.1380 -0.1710 -0.0168
 1319SOL    HW115419   0.136   1.544   0.592 -0.1630 -2.5951 -3.6443
 1319SOL    HW215420   0.260   1.626   0.630 -1.3777  1.0157 -0.9201
 1320SOL     OW15421   3.078   0.726   6.820  0.0842  0.1370 -0.3696
 1320SOL    HW115422   3.082   0.727   6.725 -1.4731 -1.5713 -0.4534
 1320SOL    HW215423   3.075   0.820   6.838  0.2642  0.3270 -1.3341
 1321SOL     OW15424   1.450   4.613   2.785 -0.4525 -0.6366 -0.3304
 1321SOL    HW115425   1.375   4.650   2.739 -0.5666 -2.4109 -1.5661
 1321SOL    HW215426   1.449   4.521   2.758  0.8157 -1.2321  1.6766
 1322SOL     OW15427   0.601   0.106  14.504  0.0671  0.3901  0.1792
 1322SOL    HW115428   0.553   0.093  14.421 -0.3937  2.3299  0.1455
 1322SOL    HW215429   0.574   0.197  14.519 -1.1348 -0.2687  1.9825
 1323SOL     OW15430   3.592   3.271   3.228 -0.0803 -0.6296  0.1736
 1323SOL    HW115431   3.522   3.335   3.238 -1.0581 -1.2845 -2.6011
 1323SOL    HW215432   3.665   3.333   3.230 -1.0363  0.5928 -2.8942
 1324SOL     OW15433   0.465   0.195   0.979 -0.6798 -0.3641  0.4722
 1324SOL    HW115434   0.555   0.194   0.947 -0.3903  1.2489  1.2355
 1324SOL    HW215435   0.431   0.127   0.920 -0.1522  1.2612 -1.6959
 1325SOL     OW15436   1.564   3.702   3.162  0.4828 -0.0648  0.1448
 1325SOL    HW115437   1.656   3.725   3.150  0.7215 -1.1487 -0.0848
 1325SOL    HW215438   1.570   3.608   3.175 -0.8001 -0.1967 -0.1574
 1326SOL     OW15439   3.377   1.134   6.396  0.5505  0.3444 -0.4968
 1326SOL    HW115440   3.456   1.093   6.431 -0.3595 -0.4361  0.6530
 1326SOL    HW215441   3.356   1.209   6.451 -0.7239 -0.4034  0.0559
 1327SOL     OW15442   2.113   0.302   7.069  0.2675 -0.3646  0.0829
 1327SOL    HW115443   2.183   0.310   7.133  0.6400  0.4012 -0.4112
 1327SOL    HW215444   2.161   0.277   6.990  0.2396 -1.1206  0.3076
 1328SOL     OW15445   0.105   1.079  12.357  0.0311 -0.1410 -0.0842
 1328SOL    HW115446   0.186   1.032  12.338  0.9628  0.9290  1.2100
 1328SOL    HW215447   0.081   1.114  12.271 -0.2086  1.0093  0.4462
 1329SOL     OW15448   0.306   4.073   4.028 -0.6251 -0.0055 -0.0561
 1329SOL    HW115449   0.250   4.114   3.963 -1.4804 -1.8342 -0.4687
 1329SOL    HW215450   0.335   4.000   3.974  1.7646  1.3393 -0.6067
 1330SOL     OW15451   4.324   0.457   4.825 -1.1758  0.3101 -0.4234
 1330SOL    HW115452   4.307   0.474   4.918 -0.5931  1.7811 -0.5887
 1330SOL    HW215453   4.413   0.491   4.815 -1.3634  0.5849 -1.0991
 1331SOL     OW15454   0.969   2.825   3.459  0.3283  0.0754  0.1339
 1331SOL    HW115455   1.011   2.870   3.385  0.6380 -1.5965 -0.7122
 1331SOL    HW215456   1.011   2.878   3.526 -1.9286 -1.2954  2.6358
 1332SOL     OW15457   3.067   2.623  17.178 -0.0785  0.6941  0.5159
 1332SOL    HW115458   3.044   2.678  17.253  0.9126  0.4216  1.0322
 1332SOL    HW215459   3.144   2.582  17.217 -0.0935 -1.0341 -1.2787
 1333SOL     OW15460   3.720   1.008   1.074  0.1909  0.6909  0.0947
 1333SOL    HW115461   3.765   1.063   1.138 -0.9786  2.3443 -0.5119
 1333SOL    HW215462   3.669   0.944   1.123  2.1912 -0.1054  1.1491
 1334SOL     OW15463   1.434   1.257   7.941  0.3834 -0.1266  0.1153
 1334SOL    HW115464   1.502   1.261   7.874 -0.2080 -0.5109 -0.4956
 1334SOL    HW215465   1.486   1.261   8.022  0.7920 -0.9725 -0.1107
 1335SOL     OW15466   2.733   3.511   6.157 -0.5624 -0.5265  0.7595
 1335SOL    HW115467   2.820   3.476   6.140  0.2442  2.3221 -0.9572
 1335SOL    HW215468   2.722   3.493   6.251 -0.1927 -0.9651  0.7196
 1336SOL     OW15469   3.685   1.870   4.738 -0.6070 -0.1034 -0.1873
 1336SOL    HW115470   3.764   1.816   4.733  0.5533  1.5690  0.1683
 1336SOL    HW215471   3.669   1.876   4.832  1.4189  0.7990  0.1077
 1337SOL     OW15472   4.471   1.521   4.393  0.1654 -0.1581  0.5138
 1337SOL    HW115473   4.430   1.458   4.452 -1.6157  0.4560 -0.0553
 1337SOL    HW215474   4.526   1.464   4.339  1.1112 -0.6627  2.0179
 1338SOL     OW15475   3.896   3.918  13.126  0.3815  0.0750 -0.3264
 1338SOL    HW115476   3.988   3.946  13.120 -0.0594  1.5654 -0.1495
 1338SOL    HW215477   3.858   3.995  13.169  0.4425 -0.4922  0.7647
 1339SOL     OW15478   2.723   0.193   6.084  0.0381 -0.2757 -0.5271
 1339SOL    HW115479   2.630   0.198   6.102  0.1825  1.7395 -0.3775
 1339SOL    HW215480   2.762   0.172   6.169  2.0483 -1.5460 -1.7691
 1340SOL     OW15481   0.642   1.447   6.620 -0.0656  0.5896  0.0849
 1340SOL    HW115482   0.621   1.462   6.528 -1.0014 -2.1817 -0.1737
 1340SOL    HW215483   0.594   1.515   6.667 -0.0108  0.5628  0.1794
 1341SOL     OW15484   1.384   1.037   0.143 -0.5060  0.2759  0.0517
 1341SOL    HW115485   1.465   1.047   0.193 -2.6607  2.7111  3.0899
 1341SOL    HW215486   1.382   0.945   0.116 -1.2138  0.4596 -0.5323
 1342SOL     OW15487   3.465   2.572   7.730  0.2517 -0.1010  0.4550
 1342SOL    HW115488   3.389   2.623   7.703  0.1315  1.1524  3.1423
 1342SOL    HW215489   3.517   2.652   7.722 -1.2461  0.5089 -2.7466
 1343SOL     OW15490   2.558   3.101  12.223 -0.3833 -0.1917  0.6791
 1343SOL    HW115491   2.501   3.146  12.285  1.1364 -1.6152  3.0851
 1343SOL    HW215492   2.606   3.176  12.188 -0.9508 -1.5882 -3.1692
 1344SOL     OW15493   0.405   1.615   5.301  0.0262 -0.0112  0.0434
 1344SOL    HW115494   0.414   1.531   5.256 -0.6737  1.3531 -2.6760
 1344SOL    HW215495   0.310   1.615   5.310  0.3656  0.4441  3.4837
 1345SOL     OW15496   4.577   4.339   3.900 -0.3564 -0.1957 -0.2826
 1345SOL    HW115497   4.561   4.426   3.937 -2.5931 -0.8877  0.3960
 1345SOL    HW215498   4.522   4.281   3.954 -1.2040  2.2765  1.4874
 1346SOL     OW15499   0.408   2.631   4.243 -0.0907 -0.1550 -0.1124
 1346SOL    HW115500   0.371   2.676   4.168  1.0713  1.1027  0.0768
 1346SOL    HW215501   0.460   2.563   4.201 -1.1746 -0.8358 -0.3532
 1347SOL     OW15502   0.318   3.531  15.893  0.0444  0.7391  0.1768
 1347SOL    HW115503   0.327   3.626  15.901 -1.1871  0.8584  0.0711
 1347SOL    HW215504   0.269   3.522  15.811  1.0597  0.8495 -0.4493
 1348SOL     OW15505   2.837   4.277   8.666 -0.2727  0.6991  0.0626
 1348SOL    HW115506   2.745   4.303   8.669 -1.2944 -2.8620 -0.1252
 1348SOL    HW215507   2.877   4.334   8.731 -2.0279  0.8699  0.9940
 1349SOL     OW15508   4.297   4.434  12.505 -0.0473 -0.3275  0.1786
 1349SOL    HW115509   4.341   4.416  12.588  0.6854  0.0773 -0.1227
 1349SOL    HW215510   4.332   4.523  12.498  0.4840 -0.7392 -2.2781
 1350SOL     OW15511   2.090   0.471  17.259 -0.1249  0.6279  0.0641
 1350SOL    HW115512   2.056   0.557  17.237 -0.2138  0.6861  0.4327
 1350SOL    HW215513   2.142   0.487  17.338  1.6766  1.1720 -1.2420
 1351SOL     OW15514   1.411   1.352   4.177 -0.3093  0.1411 -0.2886
 1351SOL    HW115515   1.421   1.287   4.107  1.6559  0.5520 -0.3854
 1351SOL    HW215516   1.441   1.432   4.133 -1.4194  0.5686 -0.2593
 1352SOL     OW15517   3.243   2.460  17.291 -0.3187  0.1355  0.9726
 1352SOL    HW115518   3.233   2.417  17.376 -0.5845  1.1299  1.4398
 1352SOL    HW215519   3.333   2.493  17.292 -0.8489  1.6298 -0.0840
 1353SOL     OW15520   3.112   3.084   0.768 -0.3634  0.1152  0.1959
 1353SOL    HW115521   3.192   3.132   0.746  0.2740 -1.9414 -1.9526
 1353SOL    HW215522   3.061   3.138   0.828 -2.3565 -2.3629  0.7222
 1354SOL     OW15523   1.181   2.905  10.489 -0.1898 -0.8425  0.0801
 1354SOL    HW115524   1.225   2.853  10.421 -0.3374 -2.4826  1.2408
 1354SOL    HW215525   1.170   2.987  10.442 -2.0589 -2.0833 -1.6413
 1355SOL     OW15526   0.784   3.803   5.937  0.2150 -0.0010 -0.0072
 1355SOL    HW115527   0.801   3.796   6.031 -0.7146  0.9001  0.2159
 1355SOL    HW215528   0.722   3.731   5.926  1.7331 -1.3354  0.0394
 1356SOL     OW15529   1.752   4.191   4.067  0.0346 -0.0299  0.3831
 1356SOL    HW115530   1.729   4.180   3.975  1.7427 -1.1851  0.1018
 1356SOL    HW215531   1.720   4.281   4.075 -2.3310 -0.8143 -0.0219
 1357SOL     OW15532   1.086   0.814   0.129  0.0404 -0.2057 -0.0246
 1357SOL    HW115533   1.031   0.890   0.151  2.8470  2.3187 -1.6231
 1357SOL    HW215534   1.119   0.784   0.213  1.6973  1.0773 -0.2100
 1358SOL     OW15535   3.084   2.526   4.112 -0.3939 -0.5115 -0.3735
 1358SOL    HW115536   3.099   2.519   4.018 -1.2116 -0.7468 -0.4845
 1358SOL    HW215537   3.138   2.604   4.125 -0.5207 -0.9223  2.7222
 1359SOL     OW15538   2.145   3.425  13.842  0.0006 -0.2738 -0.0967
 1359SOL    HW115539   2.218   3.437  13.781 -1.1702 -0.8648 -1.5910
 1359SOL    HW215540   2.075   3.455  13.785 -1.3526 -2.6156  0.3386
 1360SOL     OW15541   3.436   2.031   6.072 -0.1135 -0.7809  0.2708
 1360SOL    HW115542   3.388   2.110   6.047  0.5384 -0.0630  1.2869
 1360SOL    HW215543   3.406   2.038   6.163 -0.2260  0.9063  0.1079
 1361SOL     OW15544   1.470   1.789   2.869 -0.3180 -0.2355  0.2131
 1361SOL    HW115545   1.556   1.806   2.829  0.6098 -1.6144  1.6468
 1361SOL    HW215546   1.422   1.844   2.807  0.6670  0.4421  0.0465
 1362SOL     OW15547   2.150   2.608   3.305  0.1463  0.3966  0.0122
 1362SOL    HW115548   2.136   2.525   3.259  2.7453 -0.2369  0.3412
 1362SOL    HW215549   2.125   2.663   3.231  0.0601 -2.3460 -1.9650
 1363SOL     OW15550   0.991   2.878   8.591  0.0454  0.8159 -0.2782
 1363SOL    HW115551   0.933   2.927   8.533  0.7267  2.6289  0.5806
 1363SOL    HW215552   1.041   2.824   8.529 -1.6229 -2.6971  1.4328
 1364SOL     OW15553   1.490   1.318   3.427 -0.5028 -0.1416 -0.5666
 1364SOL    HW115554   1.453   1.241   3.384  0.0607 -0.9556  0.4165
 1364SOL    HW215555   1.576   1.319   3.385  0.0378 -0.8618  0.5285
 1365SOL     OW15556   2.977   3.902   0.967  0.3381  0.0311  0.5530
 1365SOL    HW115557   2.885   3.875   0.965  0.1627  0.7481 -0.9930
 1365SOL    HW215558   2.984   3.917   1.061 -1.1897 -0.9053  0.8095
 1366SOL     OW15559   2.728   0.320  16.690  0.1187 -0.0953 -0.2110
 1366SOL    HW115560   2.718   0.286  16.779  1.0572  1.2632  0.4062
 1366SOL    HW215561   2.641   0.300  16.656  0.7277  2.0163 -3.0319
 1367SOL     OW15562   2.272   0.056  10.821 -0.0254  0.3574  0.2000
 1367SOL    HW115563   2.276   4.681  10.816 -0.4112  0.3360  0.2270
 1367SOL    HW215564   2.256   0.065  10.727  0.5331 -0.5450  0.0168
 1368SOL     OW15565   2.202   4.489  17.202 -0.2966 -0.0769 -0.2848
 1368SOL    HW115566   2.269   4.440  17.248 -1.5268  0.7200  2.3451
 1368SOL    HW215567   2.127   4.436  17.229  0.3768 -1.4719 -1.1403
 1369SOL     OW15568   4.499   0.053   8.738  0.0994 -0.1216 -0.3938
 1369SOL    HW115569   4.571   4.711   8.747 -0.3724 -0.7873 -1.2095
 1369SOL    HW215570   4.444   4.716   8.685  0.9278 -0.8903 -0.4099
 1370SOL     OW15571   1.419   2.962  13.933 -0.5509  0.3164 -0.5394
 1370SOL    HW115572   1.462   2.881  13.962  2.9032  1.8165 -1.5707
 1370SOL    HW215573   1.336   2.950  13.980 -0.1876 -2.6972 -0.6646
 1371SOL     OW15574   3.907   4.511   6.282 -0.5782 -0.2077 -0.2345
 1371SOL    HW115575   3.843   4.447   6.314  1.5534 -2.5412 -0.5747
 1371SOL    HW215576   3.980   4.456   6.251 -0.8016 -0.4094 -0.3970
 1372SOL     OW15577   2.005   4.221   7.142  0.2096  0.0157 -0.3171
 1372SOL    HW115578   1.978   4.309   7.167 -0.6354 -0.4704  0.5162
 1372SOL    HW215579   1.931   4.203   7.084 -0.6902  3.3587 -0.1950
 1373SOL     OW15580   4.580   2.484   6.908  1.1698 -0.3237  0.3043
 1373SOL    HW115581   4.554   2.402   6.950  0.6547  0.3675  1.3234
 1373SOL    HW215582   4.639   2.455   6.837 -1.5353 -0.2009 -1.9925
 1374SOL     OW15583   4.092   1.352   6.530  0.2946  0.2305  0.0250
 1374SOL    HW115584   4.125   1.441   6.540  0.8586 -0.2486  2.3072
 1374SOL    HW215585   4.157   1.319   6.468  1.1051  0.3464  0.8089
 1375SOL     OW15586   3.242   0.584  11.732  0.7505 -0.3007 -0.2105
 1375SOL    HW115587   3.189   0.607  11.655  0.2790  0.3501  0.3051
 1375SOL    HW215588   3.193   0.511  11.771  1.8935 -0.0757  1.6293
 1376SOL     OW15589   4.183   2.055  12.340  0.4504  0.2282  0.0111
 1376SOL    HW115590   4.187   2.013  12.254  1.5535  0.8991 -0.2625
 1376SOL    HW215591   4.274   2.053  12.369  0.4164  0.4840  0.1308
 1377SOL     OW15592   3.641   3.636   3.872  0.0469  0.3436  0.6256
 1377SOL    HW115593   3.549   3.614   3.883  0.6030 -0.7689  2.9629
 1377SOL    HW215594   3.689   3.553   3.865 -0.8150  0.1156 -2.6405
 1378SOL     OW15595   0.162   2.488   1.744  0.5204  0.7279 -0.2408
 1378SOL    HW115596   0.169   2.461   1.835 -1.9633  0.6274 -0.0649
 1378SOL    HW215597   0.102   2.421   1.712 -3.7615  3.6841  1.5637
 1379SOL     OW15598   2.023   1.428   5.702  0.3430 -0.2332  0.2191
 1379SOL    HW115599   2.118   1.415   5.698  0.1322 -1.2290 -1.3725
 1379SOL    HW215600   2.007   1.483   5.624 -1.1177 -0.4021  0.4103
 1380SOL     OW15601   1.552   1.963   2.527  0.3868 -0.6551 -0.2804
 1380SOL    HW115602   1.542   1.868   2.536  0.9763 -0.7489 -0.5764
 1380SOL    HW215603   1.646   1.967   2.542  0.3454 -3.7272  0.9024
 1381SOL     OW15604   2.791   2.588   2.533 -0.7803  0.0061 -0.4181
 1381SOL    HW115605   2.753   2.507   2.498 -2.1269  0.5241 -0.1576
 1381SOL    HW215606   2.760   2.580   2.624  1.9899 -2.9042  0.2861
 1382SOL     OW15607   2.900   0.472   3.805 -0.2402 -0.1191 -0.5801
 1382SOL    HW115608   2.815   0.513   3.795 -0.6469 -0.8337 -0.0192
 1382SOL    HW215609   2.894   0.449   3.898 -1.5990  0.4207 -0.5386
 1383SOL     OW15610   3.628   1.353   3.033  0.0223 -0.0885 -0.5618
 1383SOL    HW115611   3.651   1.265   3.002  1.5718  0.6376 -1.4242
 1383SOL    HW215612   3.685   1.414   2.987 -0.2956  1.1558  0.6955
 1384SOL     OW15613   1.781   0.735  15.989 -0.2466 -0.1490 -0.5042
 1384SOL    HW115614   1.810   0.654  15.947  1.5905  0.5777 -0.6458
 1384SOL    HW215615   1.780   0.804  15.922  2.1038 -0.1385 -0.5303
 1385SOL     OW15616   2.803   3.877   8.255  0.4149  0.9845  0.2525
 1385SOL    HW115617   2.824   3.868   8.162 -0.3209  1.2356  0.0620
 1385SOL    HW215618   2.718   3.835   8.263 -0.3090  2.1457 -1.2008
 1386SOL     OW15619   0.918   1.330   4.750  0.8203 -0.0082  0.0745
 1386SOL    HW115620   0.921   1.290   4.663  0.1104 -0.4673  0.2596
 1386SOL    HW215621   0.827   1.359   4.750  0.7907 -0.1022 -0.0203
 1387SOL     OW15622   3.748   3.965   0.354  0.2704  0.0143 -0.0829
 1387SOL    HW115623   3.784   3.912   0.425  1.0723 -0.8055 -1.1033
 1387SOL    HW215624   3.669   4.004   0.390 -0.1344 -0.4603 -0.4610
 1388SOL     OW15625   3.849   0.395   2.811  0.3637  0.0076 -0.3509
 1388SOL    HW115626   3.921   0.375   2.871  0.4903 -2.5572 -1.3405
 1388SOL    HW215627   3.843   0.325   2.745  0.7573 -0.3618  0.0046
 1389SOL     OW15628   3.034   1.129   7.858  0.8196  0.6372  0.2310
 1389SOL    HW115629   2.953   1.088   7.826  0.6638  0.1882  1.2233
 1389SOL    HW215630   3.008   1.217   7.831 -1.4313  0.0867  0.5464
 1390SOL     OW15631   3.620   4.238   3.637  0.1381  0.5752 -0.7910
 1390SOL    HW115632   3.647   4.150   3.611 -0.6810 -1.0324  3.7370
 1390SOL    HW215633   3.692   4.274   3.689 -0.5527  2.1069 -0.9206
 1391SOL     OW15634   1.629   0.849  16.199  0.3588 -0.4716  0.7623
 1391SOL    HW115635   1.669   0.935  16.184 -0.5240 -0.2834 -0.5766
 1391SOL    HW215636   1.690   0.795  16.148 -0.1332  1.0656 -1.4865
 1392SOL     OW15637   3.519   0.050   7.334 -0.6563 -0.1049 -0.2610
 1392SOL    HW115638   3.425   0.034   7.341 -0.9227  2.2253  1.3514
 1392SOL    HW215639   3.529   0.000   7.252 -0.9030 -1.7224  0.6991
 1393SOL     OW15640   3.844   4.254   3.378  0.0466  0.2284  0.0515
 1393SOL    HW115641   3.884   4.173   3.409  0.7882  1.2548  1.7738
 1393SOL    HW215642   3.915   4.294   3.328 -0.8245  2.0295  0.2517
 1394SOL     OW15643   1.425   4.398  12.196  0.5103 -0.6349  0.0243
 1394SOL    HW115644   1.512   4.373  12.230 -0.1857 -1.7074  1.0325
 1394SOL    HW215645   1.370   4.390  12.274  2.5257 -2.9297  1.2537
 1395SOL     OW15646   4.427   4.623   8.057  0.9460 -0.0651 -0.6658
 1395SOL    HW115647   4.476   4.575   7.990  0.7059  1.5051 -1.9622
 1395SOL    HW215648   4.343   4.578   8.046  0.7669 -0.0909  0.8363
 1396SOL     OW15649   2.530   2.792   5.703 -0.3496  0.3168  0.1594
 1396SOL    HW115650   2.601   2.825   5.758  1.1374 -1.3355 -0.7612
 1396SOL    HW215651   2.465   2.778   5.771 -0.2968  0.0123  0.1444
 1397SOL     OW15652   4.277   2.615   6.579 -0.2879  0.0830  0.3477
 1397SOL    HW115653   4.323   2.695   6.553 -1.7720  0.9829  0.5184
 1397SOL    HW215654   4.303   2.559   6.505 -1.5451  2.6687 -2.0831
 1398SOL     OW15655   2.455   1.546   8.203 -1.0011  0.1782  0.3560
 1398SOL    HW115656   2.459   1.593   8.287 -0.4548  1.6069 -0.4748
 1398SOL    HW215657   2.445   1.458   8.240  0.0782 -0.8407 -1.7960
 1399SOL     OW15658   4.026   4.699   6.857  0.1441  0.0784 -0.1829
 1399SOL    HW115659   4.098   4.645   6.890 -0.0027 -0.3873 -0.6250
 1399SOL    HW215660   3.947   4.666   6.900  0.4687 -1.9895 -1.1702
 1400SOL     OW15661   2.821   4.116   4.722  0.1386  0.2626  0.0645
 1400SOL    HW115662   2.773   4.195   4.747 -0.7121 -0.7728  1.6882
 1400SOL    HW215663   2.825   4.067   4.804 -2.2550  0.3955  0.2428
 1401SOL     OW15664   2.826   0.216   8.591 -0.1324 -0.0386  0.1092
 1401SOL    HW115665   2.761   0.286   8.590  0.3477  0.3864 -1.8354
 1401SOL    HW215666   2.877   0.227   8.670  2.7616  2.9162 -2.1928
 1402SOL     OW15667   4.351   1.232   9.693  0.4020 -0.0542 -0.0387
 1402SOL    HW115668   4.443   1.256   9.702  0.3430  0.4390 -0.7603
 1402SOL    HW215669   4.320   1.323   9.693 -0.1461 -0.2450 -1.5981
 1403SOL     OW15670   1.161   1.562   6.712 -0.5355  0.1496 -0.1116
 1403SOL    HW115671   1.086   1.558   6.652  0.7626 -1.4983 -1.6123
 1403SOL    HW215672   1.153   1.654   6.737 -2.1938  0.3309 -1.2897
 1404SOL     OW15673   4.703   1.732   8.634 -0.7541  0.3293  0.3312
 1404SOL    HW115674   0.020   1.785   8.704 -1.7690 -1.3578  2.1468
 1404SOL    HW215675   4.666   1.798   8.575  0.5782 -0.3398 -1.2349
 1405SOL     OW15676   1.437   0.647  15.754  0.0357 -0.0317 -0.4193
 1405SOL    HW115677   1.411   0.555  15.751 -0.2808 -0.0140  1.6239
 1405SOL    HW215678   1.456   0.655  15.847 -0.3156 -1.3887 -0.2285
 1406SOL     OW15679   4.405   2.901   7.343 -0.3204  0.0818 -0.2374
 1406SOL    HW115680   4.479   2.938   7.390 -0.5989 -0.6199  0.7706
 1406SOL    HW215681   4.450   2.831   7.296 -1.2873 -2.1844  2.2002
 1407SOL     OW15682   4.705   0.050   3.426 -0.2896  0.6915 -0.0818
 1407SOL    HW115683   0.023   0.023   3.343 -1.9051 -0.2646 -0.5139
 1407SOL    HW215684   0.008   0.142   3.437  1.5346  0.1307  0.6534
 1408SOL     OW15685   0.335   1.080   0.029 -0.1390 -0.6017 -0.5094
 1408SOL    HW115686   0.407   1.121  17.667 -0.1883  0.8646  0.6783
 1408SOL    HW215687   0.351   0.992  17.682 -1.6719 -1.1952  0.3000
 1409SOL     OW15688   2.392   3.270  13.185 -0.3857 -0.1230  0.4324
 1409SOL    HW115689   2.341   3.350  13.190 -0.3532  0.0075 -1.4112
 1409SOL    HW215690   2.431   3.290  13.100  0.0692 -0.1889  0.6284
 1410SOL     OW15691   3.742   0.608   6.072 -0.0628 -0.0927 -0.6378
 1410SOL    HW115692   3.776   0.567   5.993  1.2605 -1.5794  0.6788
 1410SOL    HW215693   3.652   0.577   6.072  0.2702 -1.0507 -1.4210
 1411SOL     OW15694   1.959   1.891   6.068  0.6140  0.4061 -0.0543
 1411SOL    HW115695   2.048   1.904   6.102  0.8267  0.1424 -0.5108
 1411SOL    HW215696   1.970   1.810   6.018 -0.2471 -1.1295  2.2549
 1412SOL     OW15697   1.388   4.131   4.042  0.2560  0.1288 -0.1102
 1412SOL    HW115698   1.409   4.176   4.124 -3.0698  2.4484 -0.5679
 1412SOL    HW215699   1.363   4.201   3.983  1.0535  0.2993 -0.2430
 1413SOL     OW15700   2.506   3.234   8.091  0.4103  0.6555 -0.1869
 1413SOL    HW115701   2.415   3.221   8.064 -0.0530 -0.0036  1.7286
 1413SOL    HW215702   2.489   3.320   8.129 -1.4147 -0.0817  0.6611
 1414SOL     OW15703   0.561   3.626  16.381 -0.4818  0.3154 -0.0731
 1414SOL    HW115704   0.622   3.694  16.411 -0.3414  0.2954 -0.3143
 1414SOL    HW215705   0.478   3.671  16.368 -0.4078  0.2199 -0.9185
 1415SOL     OW15706   4.461   3.351  16.656  0.2707 -0.1185  0.3338
 1415SOL    HW115707   4.427   3.336  16.568  2.3769  0.0869 -0.5032
 1415SOL    HW215708   4.395   3.315  16.715 -0.0468  2.3353  1.4425
 1416SOL     OW15709   0.158   3.348   1.707  0.1875  0.1014  0.0104
 1416SOL    HW115710   0.182   3.301   1.627  0.9109 -2.8741  1.9648
 1416SOL    HW215711   0.215   3.425   1.709 -2.4668  2.0299  1.7599
 1417SOL     OW15712   4.556   1.097  11.896  0.0093  0.6106  0.4783
 1417SOL    HW115713   4.481   1.151  11.918  1.4364  3.5366 -1.8794
 1417SOL    HW215714   4.586   1.117  11.807  0.0007 -2.8692 -0.3137
 1418SOL     OW15715   0.285   1.888   4.128 -0.1282 -0.2043 -0.0658
 1418SOL    HW115716   0.304   1.813   4.071  0.4497  1.8101 -2.5302
 1418SOL    HW215717   0.372   1.925   4.140 -0.1026  0.1808 -1.4028
 1419SOL     OW15718   4.084   4.250   4.445 -0.0459  0.8512 -0.4182
 1419SOL    HW115719   4.137   4.321   4.410 -1.3628  1.3435 -1.4119
 1419SOL    HW215720   4.137   4.227   4.522 -0.5668  0.7181 -0.1014
 1420SOL     OW15721   4.399   4.674   9.418  0.3457  0.0476  0.1380
 1420SOL    HW115722   4.357   4.589   9.428  0.5346 -0.2411 -1.6324
 1420SOL    HW215723   4.397   4.673   9.323 -2.6306  1.6356  0.1917
 1421SOL     OW15724   0.136   0.315   7.527  0.2301  0.3346  0.0460
 1421SOL    HW115725   0.120   0.265   7.607 -0.8868  1.3926  0.4700
 1421SOL    HW215726   0.231   0.303   7.521  0.2201  0.2371  0.0756
 1422SOL     OW15727   0.740   0.100   4.667 -0.1183  0.0764  0.3282
 1422SOL    HW115728   0.743   0.193   4.689 -1.9371 -0.0758  1.1860
 1422SOL    HW215729   0.645   0.086   4.659  0.0813 -0.7427 -0.6511
 1423SOL     OW15730   2.582   0.362   1.138 -0.4191  0.6894 -0.0611
 1423SOL    HW115731   2.553   0.428   1.074 -0.1592 -1.1343 -2.0455
 1423SOL    HW215732   2.676   0.352   1.129 -0.4850  0.0259 -0.0011
 1424SOL     OW15733   1.041   4.397   8.778 -0.1106 -0.5728  0.1830
 1424SOL    HW115734   0.996   4.430   8.856 -0.1575  1.9332 -0.8853
 1424SOL    HW215735   1.132   4.397   8.806 -0.5694  0.7840  1.6660
 1425SOL     OW15736   2.924   1.609  10.608  0.5240  0.1052  0.0216
 1425SOL    HW115737   2.943   1.516  10.596 -1.0820 -0.6275  2.9265
 1425SOL    HW215738   2.999   1.638  10.660  0.0583 -2.1022  1.9496
 1426SOL     OW15739   3.486   4.030   5.688  0.3092 -0.0965  0.4292
 1426SOL    HW115740   3.464   3.939   5.710  1.1621  0.0638  1.8780
 1426SOL    HW215741   3.406   4.064   5.726  1.1196  2.2434  0.0202
 1427SOL     OW15742   2.303   2.535   9.513 -0.1127  0.4123  0.1304
 1427SOL    HW115743   2.263   2.567   9.594  0.6373 -1.0906  1.0975
 1427SOL    HW215744   2.232   2.548   9.451 -0.5489  0.8758  0.7244
 1428SOL     OW15745   0.229   0.010  14.226  0.6201 -1.0615  0.4975
 1428SOL    HW115746   0.219   4.640  14.255 -0.3584 -1.3232 -0.6587
 1428SOL    HW215747   0.182   0.013  14.142  2.3526 -0.1000 -0.4566
 1429SOL     OW15748   3.224   0.363  13.270  0.3242  0.5070  0.2575
 1429SOL    HW115749   3.229   0.457  13.250 -3.2977  0.7023  0.3497
 1429SOL    HW215750   3.178   0.332  13.191  1.0195  0.6858 -0.2208
 1430SOL     OW15751   0.988   1.520   1.596  0.1780 -0.0822  0.4104
 1430SOL    HW115752   1.022   1.610   1.590  0.0709 -0.2508 -2.4683
 1430SOL    HW215753   0.895   1.542   1.604  0.1178 -0.4124  0.6492
 1431SOL     OW15754   1.900   2.993   1.466  0.7407 -0.3170  0.0476
 1431SOL    HW115755   1.914   2.914   1.414  0.9402 -0.6674  0.6407
 1431SOL    HW215756   1.973   2.990   1.528  1.7194 -0.5881 -1.0914
 1432SOL     OW15757   2.213   0.286  16.483  0.8960 -0.0583  0.5782
 1432SOL    HW115758   2.128   0.250  16.507  0.3094  0.6057 -0.4922
 1432SOL    HW215759   2.230   0.239  16.401 -0.8800 -0.3896  0.4022
 1433SOL     OW15760   4.567   2.591  11.113  0.4050 -0.1611 -0.0011
 1433SOL    HW115761   4.563   2.559  11.023  1.4176  0.8544 -0.4065
 1433SOL    HW215762   4.626   2.666  11.110 -0.4859  0.5851  1.0331
 1434SOL     OW15763   3.974   4.010   3.456 -0.5268  0.4318 -0.3990
 1434SOL    HW115764   3.961   3.946   3.526  3.1570 -1.6665 -1.6825
 1434SOL    HW215765   4.026   3.958   3.395  0.1494 -0.9501  1.3562
 1435SOL     OW15766   3.401   2.298   4.457  0.1915  0.3517  0.2325
 1435SOL    HW115767   3.454   2.239   4.510 -0.4347  0.3297  0.8383
 1435SOL    HW215768   3.415   2.259   4.371  2.2247  0.8861  0.3319
 1436SOL     OW15769   3.557   4.634   6.360 -0.1449 -0.3009 -0.1871
 1436SOL    HW115770   3.636   4.580   6.364  0.1178 -0.0010 -1.5138
 1436SOL    HW215771   3.578   4.695   6.289  0.0362  0.9328  0.9218
 1437SOL     OW15772   1.126   2.580  11.472 -0.0577  0.8774  0.1635
 1437SOL    HW115773   1.187   2.521  11.515 -3.3270 -0.8196  2.4303
 1437SOL    HW215774   1.074   2.523  11.415  0.6216  0.6212 -0.2129
 1438SOL     OW15775   1.287   0.044   3.568 -0.3145  0.3251  0.1728
 1438SOL    HW115776   1.285   4.675   3.535 -3.0148 -0.3916  2.1938
 1438SOL    HW215777   1.212   0.045   3.629 -0.4256  0.0325  0.0410
 1439SOL     OW15778   3.865   0.744   3.565  0.0918 -0.0302 -0.5092
 1439SOL    HW115779   3.875   0.832   3.529 -1.3240 -0.0641 -1.0024
 1439SOL    HW215780   3.835   0.688   3.494  2.0775  0.7417 -1.9245
 1440SOL     OW15781   0.178   0.223   8.445 -0.3368  0.6676 -0.0764
 1440SOL    HW115782   0.150   0.292   8.504  4.0069  2.4577 -0.1328
 1440SOL    HW215783   0.237   0.271   8.386 -2.5701  1.6195 -1.5407
 1441SOL     OW15784   2.560   2.005   8.308  0.2342 -0.2712 -0.2593
 1441SOL    HW115785   2.565   2.014   8.212  0.5233  0.1046 -0.2116
 1441SOL    HW215786   2.604   2.080   8.348  0.3055  0.3822 -1.5322
 1442SOL     OW15787   3.132   0.658  15.637  0.4327  0.4030  0.4512
 1442SOL    HW115788   3.069   0.646  15.566 -0.6824 -1.9272  1.8304
 1442SOL    HW215789   3.194   0.721  15.600  0.1752  0.1645 -0.3609
 1443SOL     OW15790   1.268   4.643  16.432  0.1957 -0.4491 -0.1765
 1443SOL    HW115791   1.203   4.633  16.362  0.4554  0.5370 -0.5558
 1443SOL    HW215792   1.294   4.551  16.425 -0.5639 -0.5807 -1.1579
 1444SOL     OW15793   1.353   1.153   3.002 -0.1525  0.2085  0.1393
 1444SOL    HW115794   1.258   1.141   3.007 -0.1551 -0.7238 -2.0203
 1444SOL    HW215795   1.358   1.187   2.913 -0.0708 -1.0789 -0.3368
 1445SOL     OW15796   1.594   4.182   7.775  0.2555 -0.9180 -0.0527
 1445SOL    HW115797   1.619   4.193   7.683  0.1890 -2.9084 -0.3016
 1445SOL    HW215798   1.660   4.239   7.814  1.3260 -0.2798 -2.7746
 1446SOL     OW15799   3.544   1.973   5.623 -0.3108 -0.0517  0.4397
 1446SOL    HW115800   3.594   1.942   5.698 -2.1462 -2.7290  0.5474
 1446SOL    HW215801   3.566   1.900   5.564 -1.9015 -0.2920  0.1348
 1447SOL     OW15802   2.535   4.499   5.581 -0.5182 -0.2842 -0.2365
 1447SOL    HW115803   2.524   4.584   5.623 -1.2799 -0.0174 -0.9971
 1447SOL    HW215804   2.514   4.436   5.649  0.4294 -0.1495  0.1825
 1448SOL     OW15805   4.633   4.715  13.272 -0.0159  0.5952 -0.2644
 1448SOL    HW115806   4.569   0.062  13.248  1.3736  2.5150  1.3842
 1448SOL    HW215807   4.667   0.025  13.356 -2.0220 -3.8747  2.1730
 1449SOL     OW15808   4.381   1.339   4.566  0.8294 -0.0932  0.1907
 1449SOL    HW115809   4.438   1.359   4.639  1.5279  1.7161 -0.8737
 1449SOL    HW215810   4.332   1.260   4.592 -0.6261  1.0657  0.9608
 1450SOL     OW15811   3.838   3.456   8.066  0.1655 -0.1541 -0.3440
 1450SOL    HW115812   3.878   3.507   7.996 -0.9363  0.9144 -0.1924
 1450SOL    HW215813   3.884   3.374   8.045 -0.1562 -0.4502  0.1071
 1451SOL     OW15814   4.400   3.648   3.755 -0.0954  0.1461  0.0475
 1451SOL    HW115815   4.354   3.725   3.788  0.4444  0.9660 -1.1179
 1451SOL    HW215816   4.333   3.580   3.749 -0.7966  0.7848  0.6524
 1452SOL     OW15817   1.246   0.787  17.211  0.3862 -0.1527  0.7086
 1452SOL    HW115818   1.325   0.797  17.265  1.8748 -1.9798 -1.1294
 1452SOL    HW215819   1.275   0.756  17.125 -2.1338  0.5846 -0.4204
 1453SOL     OW15820   4.638   0.421   2.711  0.0346  0.0306 -0.1020
 1453SOL    HW115821   4.627   0.388   2.622  1.1310 -0.7756  0.0716
 1453SOL    HW215822   4.649   0.514   2.689  2.3584 -0.1742  0.2073
 1454SOL     OW15823   1.075   3.774  14.089  0.0147 -0.2971 -0.5652
 1454SOL    HW115824   1.001   3.716  14.106  0.7018 -0.4552  1.7743
 1454SOL    HW215825   1.140   3.712  14.057 -0.2940 -0.3557 -1.0854
 1455SOL     OW15826   4.080   4.236   9.527  0.6691  0.3829  0.0570
 1455SOL    HW115827   4.055   4.296   9.457  1.3373 -0.5579 -0.9919
 1455SOL    HW215828   4.016   4.165   9.537 -1.8584  2.6639 -0.1706
 1456SOL     OW15829   2.987   2.119   7.309  0.2200  0.2109  0.2231
 1456SOL    HW115830   2.975   2.199   7.360  2.7210  1.4587 -1.1066
 1456SOL    HW215831   3.037   2.152   7.234 -0.1559  0.7673  0.2177
 1457SOL     OW15832   3.143   0.262  10.384 -0.1584 -0.3787 -0.4999
 1457SOL    HW115833   3.225   0.295  10.420 -1.1813  1.6877 -0.0923
 1457SOL    HW215834   3.074   0.320  10.415 -2.5256 -2.0726 -2.5035
 1458SOL     OW15835   2.724   3.502  11.838 -0.6616  0.4221  0.3383
 1458SOL    HW115836   2.674   3.556  11.777  2.7663  1.1676 -1.7441
 1458SOL    HW215837   2.764   3.432  11.787 -1.1487 -0.0380  0.5796
 1459SOL     OW15838   4.637   4.234   8.323  0.1901 -0.1379 -0.1550
 1459SOL    HW115839   4.653   4.326   8.343  1.3838 -0.9784  2.7061
 1459SOL    HW215840   4.546   4.240   8.296  0.4306  0.3512 -0.8680
 1460SOL     OW15841   4.235   0.944   8.094  0.1993 -0.4993 -0.3849
 1460SOL    HW115842   4.193   0.859   8.113  1.3422 -1.0790 -0.4603
 1460SOL    HW215843   4.288   0.918   8.019  0.0225 -0.6784 -0.4490
 1461SOL     OW15844   2.952   3.974  11.789  0.1563 -0.3557 -0.0668
 1461SOL    HW115845   2.920   4.058  11.757  1.0662  0.1636  0.3651
 1461SOL    HW215846   3.029   3.959  11.734  0.0485  4.7733 -1.5418
 1462SOL     OW15847   1.655   0.624  11.424  0.0670  0.5420  0.3068
 1462SOL    HW115848   1.677   0.575  11.503 -0.6890  0.7025  0.6209
 1462SOL    HW215849   1.640   0.711  11.461 -0.5046  0.2083  0.8633
 1463SOL     OW15850   4.488   3.680   2.243  0.9470  0.1235  0.2165
 1463SOL    HW115851   4.422   3.652   2.306  1.6607 -2.3583 -0.1727
 1463SOL    HW215852   4.541   3.735   2.302 -0.9999  0.7750  1.3735
 1464SOL     OW15853   0.184   1.217   5.005  0.2032  0.3683  0.1661
 1464SOL    HW115854   0.237   1.296   5.011 -0.9586  1.0882  0.7706
 1464SOL    HW215855   0.199   1.195   4.912 -0.1825 -0.2147  0.2451
 1465SOL     OW15856   3.405   1.766   5.286  0.3820 -0.3011  0.1813
 1465SOL    HW115857   3.389   1.856   5.258 -3.5761 -0.3722  2.2587
 1465SOL    HW215858   3.315   1.744   5.310 -0.3901  0.8694 -1.7211
 1466SOL     OW15859   1.730   4.498   2.260 -0.1229 -0.1111  0.0239
 1466SOL    HW115860   1.826   4.496   2.253 -0.1206  1.9281 -0.6208
 1466SOL    HW215861   1.706   4.406   2.270  1.0957 -0.3515  0.8439
 1467SOL     OW15862   2.937   0.828   2.180  0.4640  0.1067  0.1091
 1467SOL    HW115863   2.906   0.761   2.119 -2.1607 -0.5790  2.2250
 1467SOL    HW215864   2.929   0.905   2.123  1.6996 -1.0741 -1.6630
 1468SOL     OW15865   0.824   3.265   4.524 -0.2796 -0.2653  0.5562
 1468SOL    HW115866   0.799   3.349   4.561  0.7083  0.3930 -0.2718
 1468SOL    HW215867   0.903   3.291   4.477 -0.7970 -1.3935 -0.9371
 1469SOL     OW15868   0.401   0.402   0.356 -0.3924 -0.4961  0.2807
 1469SOL    HW115869   0.474   0.462   0.342 -0.6675 -0.7158 -2.1428
 1469SOL    HW215870   0.343   0.444   0.292 -0.2447 -0.8784 -0.1086
 1470SOL     OW15871   0.408   4.493  10.404  0.0807  0.4436 -0.5371
 1470SOL    HW115872   0.364   4.539  10.475  0.3222 -2.8848  1.7485
 1470SOL    HW215873   0.363   4.541  10.334  0.2290 -0.0998 -1.0076
 1471SOL     OW15874   0.709   3.173  17.309 -0.2018  0.1967  0.5342
 1471SOL    HW115875   0.769   3.179  17.384  0.3904  1.6899 -0.0603
 1471SOL    HW215876   0.625   3.199  17.348  1.2148 -3.2732  5.9659
 1472SOL     OW15877   4.288   1.944   7.846 -0.0038  0.0694 -0.2039
 1472SOL    HW115878   4.264   2.023   7.894  0.4018  0.3625 -0.4855
 1472SOL    HW215879   4.357   1.904   7.900 -0.9784  2.8223  3.0966
 1473SOL     OW15880   0.594   0.706   3.372  0.1175 -0.4852 -0.3539
 1473SOL    HW115881   0.612   0.799   3.364 -1.2359 -0.2854 -0.9929
 1473SOL    HW215882   0.512   0.718   3.421  2.0465  3.0703  2.0284
 1474SOL     OW15883   0.121   2.447   8.653 -0.5217 -0.3613  0.2857
 1474SOL    HW115884   0.087   2.483   8.735 -0.9037 -0.9648  0.3952
 1474SOL    HW215885   0.068   2.495   8.590 -0.4774 -1.2680 -0.4511
 1475SOL     OW15886   3.798   0.717   5.372  0.3369  0.6098  0.4885
 1475SOL    HW115887   3.762   0.760   5.450  0.6210 -1.6448  1.8713
 1475SOL    HW215888   3.723   0.663   5.351  1.3482  0.2171 -2.0648
 1476SOL     OW15889   1.936   3.512   5.917  0.2867 -0.6831  0.2065
 1476SOL    HW115890   1.872   3.555   5.860  0.4741  0.8368  1.1453
 1476SOL    HW215891   1.931   3.421   5.887 -0.1623 -0.6683  0.2306
 1477SOL     OW15892   2.658   1.505   5.297  0.3470 -0.3915 -0.2207
 1477SOL    HW115893   2.572   1.463   5.302  0.1553 -0.1924 -1.9686
 1477SOL    HW215894   2.644   1.577   5.359  0.7367  1.1829 -1.9818
 1478SOL     OW15895   2.335   2.061   6.067  0.2363 -0.1554  0.3154
 1478SOL    HW115896   2.387   1.982   6.051 -1.2385 -1.0690  0.0149
 1478SOL    HW215897   2.266   2.027   6.125 -4.0238  2.8539 -2.9551
 1479SOL     OW15898   2.888   0.976  16.868  0.2188  0.2036 -0.1282
 1479SOL    HW115899   2.816   0.984  16.931  0.5142  0.7504  0.1361
 1479SOL    HW215900   2.934   0.912  16.922 -2.7616 -0.6797  1.3566
 1480SOL     OW15901   2.376   4.114  17.377 -0.9223  0.1316  0.2088
 1480SOL    HW115902   2.335   4.150  17.299  1.5308  1.0146 -0.6533
 1480SOL    HW215903   2.439   4.055  17.336 -0.9055  1.1648 -1.2352
 1481SOL     OW15904   3.317   3.091  14.265 -0.0610  0.1359 -0.4989
 1481SOL    HW115905   3.308   3.140  14.183 -0.3591  2.4199  0.8697
 1481SOL    HW215906   3.404   3.055  14.249 -0.6463 -1.7723  0.6880
 1482SOL     OW15907   4.262   4.642   1.962  0.1438 -0.0386  0.8068
 1482SOL    HW115908   4.241   4.572   1.900 -0.4328  1.2391 -0.4550
 1482SOL    HW215909   4.176   4.644   2.004 -0.1038 -0.9778  0.3600
 1483SOL     OW15910   0.356   0.940   9.301 -0.0391  0.0452  0.5311
 1483SOL    HW115911   0.302   1.011   9.266 -0.8676 -0.1849  1.3343
 1483SOL    HW215912   0.302   0.885   9.358 -1.0124 -0.9770 -1.3604
 1484SOL     OW15913   4.177   1.577   4.684 -0.2186  0.5162  0.1430
 1484SOL    HW115914   4.222   1.523   4.749 -2.3276 -0.9324  0.4314
 1484SOL    HW215915   4.207   1.536   4.603  0.3613  0.7857  0.2265
 1485SOL     OW15916   2.069   3.889   2.915 -0.1190 -0.6695 -0.6170
 1485SOL    HW115917   2.011   3.823   2.954 -0.2615  1.2950  2.4547
 1485SOL    HW215918   2.098   3.852   2.832  1.3158 -3.8770  1.2787
 1486SOL     OW15919   4.118   3.201  11.959 -0.2423 -0.4446 -0.2580
 1486SOL    HW115920   4.031   3.195  11.919  0.3548  0.9165 -1.7634
 1486SOL    HW215921   4.135   3.294  11.970  3.7589 -1.3144  0.8181
 1487SOL     OW15922   1.875   4.694   4.892  0.1958  0.6009 -0.0399
 1487SOL    HW115923   1.825   4.665   4.969 -0.3662 -1.7071 -1.2725
 1487SOL    HW215924   1.938   4.621   4.887 -0.6386 -0.0643 -0.7752
 1488SOL     OW15925   3.108   3.293   6.943 -0.2849  0.1796 -0.2189
 1488SOL    HW115926   3.091   3.213   6.993 -0.5237  0.2695 -0.1523
 1488SOL    HW215927   3.074   3.283   6.854 -0.1030 -0.1979 -0.2438
 1489SOL     OW15928   3.103   1.169   4.676  0.4395  0.4312 -0.6953
 1489SOL    HW115929   3.175   1.139   4.622  0.4002 -0.7223 -0.1110
 1489SOL    HW215930   3.046   1.219   4.617  1.4548  0.9078 -1.2675
 1490SOL     OW15931   1.995   0.974   8.575  0.1606 -0.3127  0.0900
 1490SOL    HW115932   1.922   1.028   8.544  0.9874  1.7831  1.8837
 1490SOL    HW215933   1.964   0.969   8.665 -0.4173  4.2426  0.1623
 1491SOL     OW15934   3.291   2.643   8.049 -0.0573  0.1506 -0.4911
 1491SOL    HW115935   3.311   2.733   8.025 -2.4028  0.6013 -0.7632
 1491SOL    HW215936   3.206   2.651   8.093  0.2018 -1.5354  0.3062
 1492SOL     OW15937   0.942   4.219   3.802 -0.4572 -0.5636 -0.6340
 1492SOL    HW115938   0.966   4.238   3.711  1.0943 -0.5177 -0.2143
 1492SOL    HW215939   0.993   4.140   3.822  2.3017  1.2463 -0.4272
 1493SOL     OW15940   3.643   1.089   8.252 -0.0642 -0.2001 -0.4574
 1493SOL    HW115941   3.709   1.099   8.184 -0.5710 -0.8612 -1.0440
 1493SOL    HW215942   3.568   1.140   8.220  0.0854  1.1544  1.3313
 1494SOL     OW15943   4.234   4.273  14.977  0.2853 -0.0169  0.2058
 1494SOL    HW115944   4.309   4.252  15.032 -0.2154  0.3546  1.0510
 1494SOL    HW215945   4.230   4.369  14.985  0.0146  0.0293 -0.5440
 1495SOL     OW15946   4.077   3.272   2.489  0.5168 -0.1493 -0.1025
 1495SOL    HW115947   4.010   3.251   2.423 -0.2469  0.0756  0.6072
 1495SOL    HW215948   4.087   3.364   2.463 -0.8203 -0.1510 -0.6680
 1496SOL     OW15949   0.298   1.360   9.268 -0.1110 -0.6711  0.1940
 1496SOL    HW115950   0.317   1.273   9.233  2.2619  0.9310 -2.6028
 1496SOL    HW215951   0.352   1.411   9.207 -2.1818  1.2252 -0.0331
 1497SOL     OW15952   2.258   3.267   2.931 -0.1683 -0.0031 -0.2305
 1497SOL    HW115953   2.334   3.310   2.892  0.1876 -2.4235 -2.2533
 1497SOL    HW215954   2.267   3.297   3.021  1.4570  1.3871 -0.8529
 1498SOL     OW15955   2.259   4.199   2.078 -0.0478  0.4580 -0.1078
 1498SOL    HW115956   2.217   4.146   2.010  0.9622  0.4558 -0.7348
 1498SOL    HW215957   2.323   4.241   2.021  0.1773 -1.5802 -1.3936
 1499SOL     OW15958   2.367   1.061   4.322 -0.6564 -0.2546  0.2080
 1499SOL    HW115959   2.460   1.069   4.304 -0.4601 -1.0558  0.8986
 1499SOL    HW215960   2.357   1.072   4.416 -1.1170  1.3396 -0.0160
 1500SOL     OW15961   3.844   4.557  12.347 -0.0061  0.4449 -0.0926
 1500SOL    HW115962   3.761   4.602  12.364  0.5014  1.1445  0.5122
 1500SOL    HW215963   3.872   4.523  12.432  0.9038 -1.3285 -1.0914
 1501SOL     OW15964   4.072   3.232   7.253 -0.1957 -0.1320 -0.3909
 1501SOL    HW115965   4.048   3.229   7.346  0.7355 -1.4125 -0.2014
 1501SOL    HW215966   4.147   3.173   7.244  0.1372  0.5411 -2.1124
 1502SOL     OW15967   2.359   1.263   7.154  0.0453 -0.1344 -0.1999
 1502SOL    HW115968   2.298   1.216   7.097 -1.3965  1.8222 -0.2664
 1502SOL    HW215969   2.385   1.340   7.102  0.4228 -0.4864 -0.5301
 1503SOL     OW15970   1.553   0.794   7.347  0.9131  0.4971 -0.1238
 1503SOL    HW115971   1.469   0.758   7.375  0.7140  1.2256  0.2202
 1503SOL    HW215972   1.600   0.779   7.429 -1.7766 -0.5741  1.2225
 1504SOL     OW15973   1.378   3.998   7.570 -0.2233 -0.1910  0.1942
 1504SOL    HW115974   1.356   4.084   7.607 -3.0954 -0.9471  0.2164
 1504SOL    HW215975   1.425   4.020   7.489 -0.1280 -2.6219 -0.4194
 1505SOL     OW15976   3.159   1.656  16.347  0.1258 -0.4731  0.8102
 1505SOL    HW115977   3.191   1.575  16.307  2.6940  0.5383  0.7890
 1505SOL    HW215978   3.223   1.711  16.301  0.7338 -0.6693  1.4301
 1506SOL     OW15979   1.041   2.906   5.593  0.0210  0.0636  0.1842
 1506SOL    HW115980   0.954   2.872   5.574  0.3290  0.4835 -1.9785
 1506SOL    HW215981   1.017   2.997   5.613  0.4506 -0.3345  2.4509
 1507SOL     OW15982   2.501   0.267   5.601 -0.2929  0.4807  0.2535
 1507SOL    HW115983   2.425   0.323   5.588  0.2010  2.1046  4.4622
 1507SOL    HW215984   2.519   0.288   5.692  2.0803 -2.0977  0.3853
 1508SOL     OW15985   2.861   0.678   8.054 -0.1526  0.0025  0.5862
 1508SOL    HW115986   2.845   0.714   7.967  1.2285  0.4811  0.5278
 1508SOL    HW215987   2.954   0.690   8.074  0.6759 -2.6120 -1.6999
 1509SOL     OW15988   2.651   2.481   3.952 -0.4845  0.0476 -0.2457
 1509SOL    HW115989   2.646   2.434   4.035 -1.4643 -0.0926 -0.3865
 1509SOL    HW215990   2.597   2.429   3.894  1.7044  1.4004 -3.4827
 1510SOL     OW15991   2.417   2.882   2.310  0.7242  0.3313 -0.0653
 1510SOL    HW115992   2.490   2.926   2.354 -0.5068  1.6554  0.6481
 1510SOL    HW215993   2.392   2.820   2.378 -0.4693  1.8035  0.8423
 1511SOL     OW15994   0.307   3.266  11.325 -0.3378  0.1842  0.0254
 1511SOL    HW115995   0.286   3.212  11.401 -0.6328 -0.8706 -0.8017
 1511SOL    HW215996   0.224   3.311  11.314  0.2580  1.6741  1.5876
 1512SOL     OW15997   4.383   3.107   1.619 -0.6469  0.1100  0.1760
 1512SOL    HW115998   4.309   3.083   1.675 -0.5257 -0.5077  0.0710
 1512SOL    HW215999   4.436   3.164   1.675  1.9451 -1.2312 -0.9261
 1513SOL     OW16000   1.789   4.477  14.852 -0.5502  0.1291 -0.0402
 1513SOL    HW116001   1.766   4.395  14.809  1.3982 -0.1509 -0.5444
 1513SOL    HW216002   1.727   4.542  14.818 -2.2264 -1.7252 -0.5605
 1514SOL     OW16003   0.822   4.577   4.901 -0.2970 -0.0871  0.6768
 1514SOL    HW116004   0.840   4.642   4.833 -0.5889 -1.3169 -0.5719
 1514SOL    HW216005   0.728   4.594   4.907 -0.0597  1.4970 -0.0600
 1515SOL     OW16006   0.429   3.973   0.623  0.0738 -0.1869 -0.3039
 1515SOL    HW116007   0.501   4.031   0.648 -1.3678  0.1506  3.1307
 1515SOL    HW216008   0.431   3.902   0.689 -0.6821  1.3575  1.3790
 1516SOL     OW16009   0.138   3.091  15.869  0.4704  0.3945 -0.1916
 1516SOL    HW116010   0.128   3.155  15.939 -1.5538  0.8808 -0.9452
 1516SOL    HW216011   0.171   3.019  15.923  2.8361  1.0210 -0.7992
 1517SOL     OW16012   0.888   2.833  17.185 -0.4609 -0.0325 -0.0902
 1517SOL    HW116013   0.796   2.809  17.201 -1.0623  1.8025 -0.8109
 1517SOL    HW216014   0.929   2.751  17.212  1.1470  0.4436 -1.1665
 1518SOL     OW16015   4.512   1.075   8.816  0.4282 -0.3106 -0.4300
 1518SOL    HW116016   4.502   1.126   8.735  0.4342 -0.6248 -0.6276
 1518SOL    HW216017   4.593   1.109   8.852  1.3742 -2.2979 -0.6816
 1519SOL     OW16018   3.687   3.975   4.961  0.3161  0.1318 -0.4130
 1519SOL    HW116019   3.632   4.047   4.991 -1.7246 -1.3557 -0.5722
 1519SOL    HW216020   3.669   3.910   5.028 -0.3243  1.7817  1.0132
 1520SOL     OW16021   1.202   0.549   1.648  0.2210 -0.7775  0.2867
 1520SOL    HW116022   1.262   0.554   1.722  1.1361 -1.0849 -0.4338
 1520SOL    HW216023   1.262   0.527   1.576  0.4829  0.3164  0.1606
 1521SOL     OW16024   4.504   4.473   4.911  0.2054 -0.3732  0.1517
 1521SOL    HW116025   4.561   4.416   4.858 -1.9840  0.1867 -2.8052
 1521SOL    HW216026   4.551   4.555   4.923  0.6228 -0.6605  0.5185
 1522SOL     OW16027   2.129   2.169   8.943 -0.2750  0.8433  0.1865
 1522SOL    HW116028   2.154   2.081   8.973 -1.4424  1.1766  2.1389
 1522SOL    HW216029   2.159   2.214   9.021 -1.3643  3.0638 -0.6913
 1523SOL     OW16030   2.472   4.030   2.858 -0.3342 -0.0783  0.1195
 1523SOL    HW116031   2.534   4.006   2.926  1.3386 -0.0103 -1.3855
 1523SOL    HW216032   2.424   3.947   2.852  1.9870 -1.4169  0.2017
 1524SOL     OW16033   4.516   3.167   0.888  0.1145 -0.5206 -0.1809
 1524SOL    HW116034   4.531   3.106   0.960  1.5884 -1.0424 -0.9268
 1524SOL    HW216035   4.478   3.243   0.931 -0.1649  0.2735 -1.8484
 1525SOL     OW16036   1.175   1.763   3.662 -0.1514  0.1964 -0.5303
 1525SOL    HW116037   1.107   1.759   3.595 -1.1065 -0.5933  0.5047
 1525SOL    HW216038   1.142   1.838   3.712  0.1664 -0.2093  0.2802
 1526SOL     OW16039   4.087   3.332   2.115  0.1476 -0.5766  0.8551
 1526SOL    HW116040   4.013   3.392   2.107 -0.8904 -2.0691 -1.0123
 1526SOL    HW216041   4.056   3.252   2.072  0.5567 -1.0362  1.4064
 1527SOL     OW16042   1.849   4.083  14.744  0.1050  0.1387  0.0031
 1527SOL    HW116043   1.883   4.050  14.661 -3.0531  1.9095 -1.9572
 1527SOL    HW216044   1.922   4.053  14.799 -0.2908 -1.6699 -0.4707
 1528SOL     OW16045   2.440   1.107   8.999 -0.0464 -0.7049  0.6518
 1528SOL    HW116046   2.394   1.150   9.072 -0.1203 -2.4736  1.6678
 1528SOL    HW216047   2.359   1.097   8.948  0.0679 -1.6494  0.6573
 1529SOL     OW16048   0.522   4.023   3.440 -0.0259  0.9964 -0.1428
 1529SOL    HW116049   0.602   3.983   3.473  0.3416  0.4599 -1.6907
 1529SOL    HW216050   0.489   4.054   3.524  1.2054  2.2353 -0.1136
 1530SOL     OW16051   1.131   2.495   8.159  0.3922 -0.2396 -0.2262
 1530SOL    HW116052   1.066   2.562   8.139  0.1054 -1.7062 -4.1394
 1530SOL    HW216053   1.204   2.529   8.107  0.5436 -1.4663 -0.8013
 1531SOL     OW16054   1.700   3.678   2.474 -0.4303 -0.9107  0.6354
 1531SOL    HW116055   1.752   3.723   2.541 -0.7071 -2.1914  1.7154
 1531SOL    HW216056   1.740   3.591   2.469 -0.6976 -1.0150  0.3204
 1532SOL     OW16057   3.794   3.594   3.079  0.0060  0.1173  0.3015
 1532SOL    HW116058   3.747   3.533   3.022  0.1758  0.0496  0.2346
 1532SOL    HW216059   3.759   3.566   3.164 -1.3730  0.2662 -0.2179
 1533SOL     OW16060   4.387   3.055   0.474  0.2682  0.3358 -0.0738
 1533SOL    HW116061   4.457   3.008   0.518  0.1468  1.1118  0.9363
 1533SOL    HW216062   4.363   3.107   0.551 -0.9127  1.2109 -1.0215
 1534SOL     OW16063   0.561   2.845   3.519 -0.1036  0.0819 -0.4980
 1534SOL    HW116064   0.511   2.915   3.560 -0.2858 -1.0356  1.1999
 1534SOL    HW216065   0.508   2.839   3.440  2.1150 -1.5842 -1.8855
 1535SOL     OW16066   4.353   0.438   2.310  0.6852  0.5598  0.5256
 1535SOL    HW116067   4.323   0.525   2.281 -1.1702 -0.0141  0.7329
 1535SOL    HW216068   4.274   0.424   2.362 -0.1989  1.0328 -0.6806
 1536SOL     OW16069   4.319   3.893   1.548  0.6768 -0.0835  0.1842
 1536SOL    HW116070   4.299   3.820   1.607 -2.3634  1.3133  0.9207
 1536SOL    HW216071   4.325   3.966   1.611  1.0767  0.8566 -0.9445
 1537SOL     OW16072   4.334   0.411  14.655  0.0318  0.1755  0.0120
 1537SOL    HW116073   4.252   0.440  14.694 -1.0187 -0.8851 -1.4282
 1537SOL    HW216074   4.336   0.321  14.686 -3.1925  0.1860  0.2125
 1538SOL     OW16075   4.307   0.087   4.038 -0.6029 -0.2069 -0.7474
 1538SOL    HW116076   4.259   0.170   4.038 -0.6658 -0.2409 -1.5174
 1538SOL    HW216077   4.318   0.070   4.132 -1.5841  2.7701 -0.0615
 1539SOL     OW16078   1.423   2.114  13.880  0.0736 -0.2884  0.5281
 1539SOL    HW116079   1.348   2.162  13.917  0.5022  0.2028  0.7542
 1539SOL    HW216080   1.431   2.035  13.933 -0.4113 -0.3908  0.4531
 1540SOL     OW16081   4.077   0.887  17.440  0.3919 -0.6845  0.7180
 1540SOL    HW116082   3.990   0.905  17.475  0.6197 -1.9576  1.9349
 1540SOL    HW216083   4.054   0.862  17.350  1.9869 -1.4346  0.5190
 1541SOL     OW16084   2.070   1.832  13.365 -0.6336 -0.2628 -0.2968
 1541SOL    HW116085   2.025   1.911  13.334 -1.2027 -1.5013 -2.5532
 1541SOL    HW216086   2.077   1.782  13.284 -0.2706 -0.5413 -0.0945
 1542SOL     OW16087   2.079   2.769   2.275  0.1492 -0.6942 -0.0255
 1542SOL    HW116088   2.108   2.795   2.188  1.0980 -1.8882 -0.0665
 1542SOL    HW216089   2.129   2.687   2.285 -0.3307 -0.9670  0.1513
 1543SOL     OW16090   0.615   3.733   7.391  0.2524  0.0917 -0.6018
 1543SOL    HW116091   0.591   3.755   7.301 -0.6942 -0.2909 -0.4373
 1543SOL    HW216092   0.707   3.747   7.366  0.3574  0.6581  0.1000
 1544SOL     OW16093   3.035   0.013  10.309 -0.1659  0.0572 -0.4520
 1544SOL    HW116094   2.948   0.053  10.305 -0.2558 -0.2777 -2.1246
 1544SOL    HW216095   3.084   0.095  10.322 -0.9130  0.2552  1.0378
 1545SOL     OW16096   0.315   4.057  15.937  0.3152  0.1017 -0.5628
 1545SOL    HW116097   0.256   4.076  16.010  2.7333  1.7173  0.9515
 1545SOL    HW216098   0.280   4.133  15.890  0.8940  1.1200  0.6661
 1546SOL     OW16099   4.207   2.092   1.455  0.1433 -0.5618 -0.6522
 1546SOL    HW116100   4.124   2.067   1.495  0.8894 -1.7050  0.2054
 1546SOL    HW216101   4.180   2.082   1.364 -0.0522  1.1692 -0.7860
 1547SOL     OW16102   2.043   3.166   6.271 -0.4545 -0.0605  0.2363
 1547SOL    HW116103   1.972   3.155   6.335 -2.2659  0.7555 -1.6468
 1547SOL    HW216104   2.007   3.134   6.189 -3.5813  4.6771 -0.2200
 1548SOL     OW16105   3.265   0.653  13.352  0.5735 -0.3853  0.3480
 1548SOL    HW116106   3.304   0.621  13.270 -0.7796  0.0622 -0.4767
 1548SOL    HW216107   3.340   0.659  13.411  0.7896  0.4844 -0.0159
 1549SOL     OW16108   3.939   2.716   5.941  0.4907 -0.0489 -0.2879
 1549SOL    HW116109   3.939   2.621   5.929 -1.4109 -0.0012 -0.5961
 1549SOL    HW216110   4.003   2.721   6.013 -0.1759 -0.3307  0.3230
 1550SOL     OW16111   2.582   2.400  12.729  0.1621 -0.0369  0.9071
 1550SOL    HW116112   2.610   2.484  12.695 -1.9890  0.1021 -0.4902
 1550SOL    HW216113   2.497   2.423  12.767 -0.7848 -0.0351 -1.2379
 1551SOL     OW16114   0.635   0.580   8.863 -0.1593  1.0207  0.2829
 1551SOL    HW116115   0.719   0.618   8.837  0.1974 -0.5302 -0.8101
 1551SOL    HW216116   0.591   0.555   8.782 -0.1992  0.5797  0.4408
 1552SOL     OW16117   2.824   0.700   4.725 -0.1934 -0.7110 -0.1490
 1552SOL    HW116118   2.902   0.754   4.716 -0.5168  0.3534  3.2438
 1552SOL    HW216119   2.830   0.662   4.638  1.6877 -1.8667  0.4941
 1553SOL     OW16120   2.040   3.510   3.366 -0.0482 -0.3960 -0.3293
 1553SOL    HW116121   1.959   3.511   3.417  0.8556  1.0717  1.1064
 1553SOL    HW216122   2.091   3.582   3.404 -0.5715 -0.5552  0.6784
 1554SOL     OW16123   3.005   1.710  13.773 -0.5509  0.1190  0.0962
 1554SOL    HW116124   3.084   1.704  13.827 -2.1805  0.5028  2.5144
 1554SOL    HW216125   2.995   1.624  13.732  1.9223 -0.8163  1.4588
 1555SOL     OW16126   2.311   1.016   6.258 -0.2674 -0.3062 -0.7629
 1555SOL    HW116127   2.307   1.046   6.167 -3.0815 -0.2739 -0.6333
 1555SOL    HW216128   2.353   0.931   6.248  0.5627 -0.1659  1.7364
 1556SOL     OW16129   1.786   4.581   3.100 -0.5097  0.7370  0.4454
 1556SOL    HW116130   1.852   4.519   3.134 -0.6954  0.0295 -0.4905
 1556SOL    HW216131   1.768   4.534   3.019  0.6264 -1.4399  1.4307
 1557SOL     OW16132   0.934   4.589   2.597  0.0108  0.3851  0.1988
 1557SOL    HW116133   0.985   4.564   2.519 -1.8871 -3.3663  0.1619
 1557SOL    HW216134   0.908   4.674   2.561  2.1701  0.7514 -0.4902
 1558SOL     OW16135   4.396   4.029   5.432 -0.0117  0.1831  0.7879
 1558SOL    HW116136   4.332   3.970   5.471  0.2359 -1.3492 -1.1475
 1558SOL    HW216137   4.433   4.077   5.506 -1.5142 -1.3962  2.5452
 1559SOL     OW16138   1.935   4.005   7.727 -0.4762  0.1825 -0.0808
 1559SOL    HW116139   1.858   3.950   7.743 -0.7643  1.1311  1.7803
 1559SOL    HW216140   1.939   4.041   7.816 -0.8869  1.5877 -0.6280
 1560SOL     OW16141   2.447   0.171  13.782  0.4148  0.7770 -0.1917
 1560SOL    HW116142   2.482   0.260  13.778  0.2310  0.8631  0.1137
 1560SOL    HW216143   2.527   0.119  13.784  0.2113  0.3966 -2.5900
 1561SOL     OW16144   1.116   1.517   5.301  0.0472  0.1707  0.5239
 1561SOL    HW116145   1.068   1.597   5.324  0.8126  1.3374 -1.8498
 1561SOL    HW216146   1.087   1.510   5.210  0.5309  2.0779  0.2201
 1562SOL     OW16147   2.582   3.493  11.357  0.3412 -0.8427 -0.1188
 1562SOL    HW116148   2.549   3.568  11.407 -1.9723 -1.7361 -0.3165
 1562SOL    HW216149   2.676   3.507  11.373 -0.1963  2.4021  0.2527
 1563SOL     OW16150   2.399   0.568  12.093  0.0986 -0.0590 -0.2608
 1563SOL    HW116151   2.436   0.626  12.159 -0.0482 -0.9820  0.6374
 1563SOL    HW216152   2.469   0.574  12.028 -0.5556  0.3601 -0.9175
 1564SOL     OW16153   3.298   1.228   1.109  0.0299 -0.1214  0.3284
 1564SOL    HW116154   3.264   1.273   1.032  0.2283  1.1411  0.9870
 1564SOL    HW216155   3.296   1.136   1.082  0.8472 -0.2465  0.7058
 1565SOL     OW16156   2.953   1.539   3.417 -0.5672  0.1758  0.3125
 1565SOL    HW116157   3.048   1.533   3.426 -0.3733  1.7986 -0.5692
 1565SOL    HW216158   2.937   1.577   3.330  0.6982 -2.3571 -0.9970
 1566SOL     OW16159   3.674   4.586  10.893 -0.0996 -0.3760  0.2624
 1566SOL    HW116160   3.615   4.589  10.969  0.1435  1.5520  0.3638
 1566SOL    HW216161   3.759   4.563  10.930  0.9215  2.0176 -0.6291
 1567SOL     OW16162   3.038   0.387   4.449 -0.2164 -0.0876  0.1265
 1567SOL    HW116163   2.985   0.333   4.390 -3.7669  0.4128  2.8037
 1567SOL    HW216164   3.122   0.395   4.404 -0.6035  1.5948 -0.3164
 1568SOL     OW16165   3.392   0.409   7.411  0.2665  0.0505  0.4465
 1568SOL    HW116166   3.358   0.326   7.379 -0.1160 -1.0804  3.8253
 1568SOL    HW216167   3.485   0.394   7.428  0.1046  0.0967  1.3504
 1569SOL     OW16168   4.138   3.637   3.415 -0.3177  0.4367  0.0485
 1569SOL    HW116169   4.153   3.569   3.480 -1.0291  0.9385  0.7367
 1569SOL    HW216170   4.169   3.603   3.331 -0.7940  1.1933 -0.4305
 1570SOL     OW16171   0.428   1.875   7.748  0.6502  0.2995  0.2033
 1570SOL    HW116172   0.351   1.876   7.690  0.6759 -1.5440  0.1508
 1570SOL    HW216173   0.472   1.792   7.730  0.7582  0.2139  0.8687
 1571SOL     OW16174   2.121   0.867   3.068 -0.1486 -0.0924  0.2073
 1571SOL    HW116175   2.056   0.853   2.999 -1.1369  1.4143  0.8447
 1571SOL    HW216176   2.187   0.799   3.054 -0.7448 -0.5106 -0.6293
 1572SOL     OW16177   3.100   0.009  16.244  0.3768 -0.0577  0.8126
 1572SOL    HW116178   3.045   0.085  16.263 -0.2791  0.1120 -1.7510
 1572SOL    HW216179   3.156   0.034  16.171 -0.7154  1.1937  0.3949
 1573SOL     OW16180   3.814   3.943   0.047  0.2810 -0.2341 -0.4600
 1573SOL    HW116181   3.721   3.947   0.071  0.9549  1.4393  1.8132
 1573SOL    HW216182   3.861   3.946   0.131  0.2335  1.2268 -0.4895
 1574SOL     OW16183   4.176   3.837   2.955  0.1900 -0.1693 -0.0901
 1574SOL    HW116184   4.132   3.753   2.970  0.6259 -0.1031  1.5412
 1574SOL    HW216185   4.106   3.892   2.991  2.0106  2.5597 -0.7312
 1575SOL     OW16186   0.829   1.912   8.642 -0.4326 -0.1315  0.5351
 1575SOL    HW116187   0.847   1.877   8.554 -2.7938 -1.8945  0.7729
 1575SOL    HW216188   0.752   1.966   8.627  0.3284  0.3901 -1.5318
 1576SOL     OW16189   1.927   0.027  16.515 -0.1509 -0.1941  0.3891
 1576SOL    HW116190   1.864   0.070  16.573 -0.5283 -1.8146  1.1775
 1576SOL    HW216191   1.879   0.042  16.434  3.0946 -2.2710 -1.9048
 1577SOL     OW16192   0.809   0.866   6.111 -0.0705  0.0908 -0.0061
 1577SOL    HW116193   0.730   0.880   6.164 -0.0297 -0.1773  0.1210
 1577SOL    HW216194   0.840   0.956   6.115  1.6592 -0.5575  0.8926
 1578SOL     OW16195   2.950   0.880   6.200  0.2956  0.2148  0.1399
 1578SOL    HW116196   2.973   0.970   6.222 -0.1887  0.8709 -2.0019
 1578SOL    HW216197   2.898   0.887   6.120 -1.8586 -0.7221  1.4805
 1579SOL     OW16198   0.576   3.628  14.629 -0.3278 -0.2302  0.6888
 1579SOL    HW116199   0.506   3.575  14.591  1.5732 -1.2369 -1.3982
 1579SOL    HW216200   0.644   3.562  14.642  0.4394  0.6542  1.2366
 1580SOL     OW16201   4.155   2.145   5.743  0.6232 -0.3459  0.1684
 1580SOL    HW116202   4.174   2.122   5.652 -0.5011  0.1155 -0.1924
 1580SOL    HW216203   4.209   2.081   5.789 -1.2125 -1.2709  1.0327
 1581SOL     OW16204   0.771   2.174   8.843 -0.0714  0.4090  0.1343
 1581SOL    HW116205   0.745   2.181   8.935 -0.0544 -3.5102  0.4015
 1581SOL    HW216206   0.861   2.206   8.845 -1.0331  3.1945  0.2635
 1582SOL     OW16207   1.153   3.498  10.335 -0.2102  0.7025  0.1636
 1582SOL    HW116208   1.239   3.527  10.305 -0.3363  0.3990 -0.4766
 1582SOL    HW216209   1.110   3.582  10.326 -2.4780 -0.1118  3.4131
 1583SOL     OW16210   1.027   3.548   8.367 -0.2442  0.4915 -1.0494
 1583SOL    HW116211   1.039   3.641   8.387 -0.6533  0.4049 -0.4099
 1583SOL    HW216212   1.121   3.530   8.354 -0.3369 -0.4704 -0.4031
 1584SOL     OW16213   1.782   0.240   2.258  0.0399 -0.7718 -0.4979
 1584SOL    HW116214   1.805   0.332   2.250  0.2371 -0.4830  3.3373
 1584SOL    HW216215   1.688   0.253   2.262 -0.2020 -2.0541 -1.8763
 1585SOL     OW16216   0.905   4.321  15.022  0.5733 -0.3100 -0.5131
 1585SOL    HW116217   0.824   4.310  14.971 -0.2227  1.5438  0.3492
 1585SOL    HW216218   0.895   4.241  15.074  1.6192 -0.1552 -0.0718
 1586SOL     OW16219   1.380   3.177  14.852 -0.4279  0.0597 -0.0464
 1586SOL    HW116220   1.441   3.250  14.862 -0.9676  0.5379 -0.2075
 1586SOL    HW216221   1.306   3.224  14.813 -2.3883 -0.8107  2.5893
 1587SOL     OW16222   4.403   0.198  13.178 -0.6479 -0.3259 -0.1686
 1587SOL    HW116223   4.388   0.187  13.085 -3.8311 -1.8594  0.5163
 1587SOL    HW216224   4.411   0.293  13.176  2.0975 -0.4938  1.4393
 1588SOL     OW16225   3.285   0.906   8.820 -0.2529 -0.3284 -0.0124
 1588SOL    HW116226   3.265   0.991   8.780  4.4243  2.1465  2.9592
 1588SOL    HW216227   3.247   0.917   8.907 -0.6870 -1.5407 -0.0482
 1589SOL     OW16228   2.139   4.609   9.877 -0.1358  0.5693 -0.7129
 1589SOL    HW116229   2.195   4.674   9.834  0.5057  0.5076  0.0059
 1589SOL    HW216230   2.139   4.530   9.824  2.0332  1.8524 -2.6005
 1590SOL     OW16231   1.985   1.001  17.650  0.6000 -0.2256  0.3674
 1590SOL    HW116232   2.037   0.921  17.645 -0.2196 -0.8947  2.5409
 1590SOL    HW216233   1.901   0.957  17.639  1.6841 -1.6228 -2.3532
 1591SOL     OW16234   4.388   1.232  14.472 -1.0532 -0.0884 -0.3008
 1591SOL    HW116235   4.404   1.325  14.487 -4.2666  0.5410 -0.7367
 1591SOL    HW216236   4.437   1.199  14.547  0.6089  1.5902 -0.6687
 1592SOL     OW16237   2.584   1.078  10.215 -0.0581  0.2767 -0.4966
 1592SOL    HW116238   2.677   1.062  10.231 -0.6784 -1.7933  1.0183
 1592SOL    HW216239   2.566   1.132  10.292 -2.3030  2.7522 -2.7457
 1593SOL     OW16240   0.798   4.555   2.826  0.0446 -0.1053 -0.5955
 1593SOL    HW116241   0.873   4.507   2.862 -1.9175 -0.7152  2.6450
 1593SOL    HW216242   0.827   4.576   2.737  0.7398  2.0513  0.1483
 1594SOL     OW16243   4.479   2.460   6.001  0.0551  0.0712 -0.3430
 1594SOL    HW116244   4.510   2.480   5.912  2.5671  1.1166  0.7487
 1594SOL    HW216245   4.387   2.480   5.984 -0.3179 -1.7283 -0.4578
 1595SOL     OW16246   3.638   3.768   6.153  0.1100 -0.3055  0.2844
 1595SOL    HW116247   3.543   3.755   6.150 -0.3970  3.1072  0.7260
 1595SOL    HW216248   3.635   3.818   6.235  1.4249  0.1738  0.0373
 1596SOL     OW16249   0.630   4.023   6.385 -0.6785  0.4232 -0.4773
 1596SOL    HW116250   0.612   4.096   6.326 -0.6199  0.1598 -0.8160
 1596SOL    HW216251   0.558   4.033   6.447 -1.4391  0.0406 -1.3103
 1597SOL     OW16252   1.124   0.598   5.575 -0.3036 -0.3025  0.0715
 1597SOL    HW116253   1.071   0.519   5.584  0.6306 -1.2721 -2.8823
 1597SOL    HW216254   1.157   0.582   5.487 -0.0282 -0.6568  0.2430
 1598SOL     OW16255   1.807   4.038  12.770 -0.2809  0.6982 -0.4986
 1598SOL    HW116256   1.747   4.006  12.703 -1.4377 -0.1038  0.9055
 1598SOL    HW216257   1.771   4.123  12.796 -3.4153 -0.5455 -0.8890
 1599SOL     OW16258   3.188   2.954   4.892 -0.2298  0.0485  0.8117
 1599SOL    HW116259   3.165   2.901   4.968 -1.9560  1.3476  1.1790
 1599SOL    HW216260   3.116   3.016   4.902  0.6574  1.2578 -0.3992
 1600SOL     OW16261   3.529   3.725   1.314 -0.0411 -0.0589  0.1034
 1600SOL    HW116262   3.611   3.680   1.292  0.3033  0.6067  0.0376
 1600SOL    HW216263   3.458   3.671   1.280 -0.5029 -1.0645  2.6171
 1601SOL     OW16264   1.915   0.512   5.967 -0.2869  0.1482 -0.0363
 1601SOL    HW116265   2.001   0.470   5.967  0.0483  0.8475  0.4593
 1601SOL    HW216266   1.854   0.439   5.961  2.4883 -2.2730  1.4073
 1602SOL     OW16267   4.047   2.747   4.121  0.2427  0.6883  0.4801
 1602SOL    HW116268   4.006   2.782   4.201  1.9334  2.0195  0.7643
 1602SOL    HW216269   4.132   2.727   4.159 -1.3061 -1.8278  2.6089
 1603SOL     OW16270   0.657   2.211  12.687  0.1005  0.3651  0.1492
 1603SOL    HW116271   0.744   2.210  12.726  0.3870  0.4079 -0.4869
 1603SOL    HW216272   0.668   2.155  12.610  1.2434 -0.1077  0.6472
 1604SOL     OW16273   3.372   2.322   3.986 -0.1806  0.7734 -0.4720
 1604SOL    HW116274   3.406   2.296   3.900  0.9330  0.1564  0.1602
 1604SOL    HW216275   3.439   2.297   4.050 -0.8872 -0.6633 -0.3073
 1605SOL     OW16276   4.368   2.454   7.155 -0.7976 -0.0746 -0.2657
 1605SOL    HW116277   4.408   2.369   7.138  0.3498  0.3896  0.0541
 1605SOL    HW216278   4.382   2.461   7.250 -0.2048 -0.4203 -0.3256
 1606SOL     OW16279   4.609   2.132   6.542 -0.1132 -0.0401 -0.3990
 1606SOL    HW116280   4.526   2.167   6.574 -0.1728  1.1903 -1.9540
 1606SOL    HW216281   4.644   2.109   6.629  1.2399  0.1939 -0.8748
 1607SOL     OW16282   4.197   0.580   3.206  0.1729  0.6843  0.0413
 1607SOL    HW116283   4.170   0.638   3.135  1.6593  0.2199 -0.8872
 1607SOL    HW216284   4.192   0.490   3.174 -0.8329  0.3406  1.1560
 1608SOL     OW16285   3.661   0.389   6.559  0.5141  0.2253  0.0380
 1608SOL    HW116286   3.593   0.322   6.546 -1.0972  1.8687 -0.1515
 1608SOL    HW216287   3.734   0.357   6.506 -0.2388 -2.6918  0.7907
 1609SOL     OW16288   2.168   1.941   3.710  0.1089 -0.3067  0.1048
 1609SOL    HW116289   2.116   2.015   3.679 -0.1969 -0.0414  1.2756
 1609SOL    HW216290   2.232   1.935   3.638 -1.1264  0.8533 -1.0783
 1610SOL     OW16291   0.374   4.293   0.841  0.2406 -0.4243 -0.3401
 1610SOL    HW116292   0.318   4.279   0.765  1.1531 -0.5537 -0.9931
 1610SOL    HW216293   0.453   4.341   0.813  0.7666  0.6280  2.9359
 1611SOL     OW16294   0.277   1.537   8.764  0.3822 -0.3058 -0.2244
 1611SOL    HW116295   0.308   1.561   8.676  0.8928 -0.3839 -0.0661
 1611SOL    HW216296   0.229   1.456   8.749 -0.9746 -0.0474  2.7793
 1612SOL     OW16297   0.953   1.667   5.081  0.0400 -0.4672  0.2210
 1612SOL    HW116298   0.973   1.687   4.990 -3.6869  0.2169 -0.4146
 1612SOL    HW216299   0.897   1.590   5.081  0.9069 -1.1095  0.8984
 1613SOL     OW16300   0.416   0.773   1.954  0.3987  0.3539 -0.0441
 1613SOL    HW116301   0.392   0.716   2.026 -1.3821 -0.7793 -1.5535
 1613SOL    HW216302   0.401   0.853   2.004 -2.3439 -0.7130  0.8251
 1614SOL     OW16303   4.479   4.688   8.346  0.4459  0.3420 -0.0292
 1614SOL    HW116304   4.461   0.060   8.336  1.2905  0.3986 -0.9962
 1614SOL    HW216305   4.465   4.662   8.255  0.1943 -1.2271  0.4619
 1615SOL     OW16306   3.475   0.597  14.634  0.1554  0.7049 -0.0739
 1615SOL    HW116307   3.464   0.658  14.706  4.1972  1.0794  0.2357
 1615SOL    HW216308   3.386   0.563  14.622  0.6517 -0.8216  0.5914
 1616SOL     OW16309   2.942   0.974   1.074 -0.2277  0.2381 -0.1060
 1616SOL    HW116310   2.899   0.889   1.085 -3.0119  1.6628  0.0351
 1616SOL    HW216311   3.022   0.949   1.028 -0.0671  0.3360  0.1217
 1617SOL     OW16312   3.407   0.874  12.765  0.0259 -0.6362 -0.3701
 1617SOL    HW116313   3.475   0.808  12.778  0.7131 -0.1931 -1.6443
 1617SOL    HW216314   3.354   0.853  12.842  0.1649  2.1102  0.4993
 1618SOL     OW16315   3.430   4.524   1.906  0.2003  0.2039 -0.3054
 1618SOL    HW116316   3.414   4.433   1.932 -2.4274  0.2303 -1.8780
 1618SOL    HW216317   3.438   4.570   1.990 -2.7073  0.8950 -0.4166
 1619SOL     OW16318   3.613   3.909   7.132 -0.0326  0.3165  0.0521
 1619SOL    HW116319   3.563   3.835   7.097  0.5519 -0.9987  1.9935
 1619SOL    HW216320   3.688   3.855   7.160 -0.5523 -0.1077  0.6474
 1620SOL     OW16321   3.784   0.478   5.842 -0.0885  0.4683 -0.8254
 1620SOL    HW116322   3.726   0.483   5.767 -0.8902  1.1742 -0.1624
 1620SOL    HW216323   3.861   0.447   5.795 -1.7341  0.1064 -3.2927
 1621SOL     OW16324   2.679   3.586   8.103  0.5034 -0.3681  0.0570
 1621SOL    HW116325   2.760   3.602   8.151 -0.7059  1.2021  1.5828
 1621SOL    HW216326   2.651   3.502   8.140  0.6541 -1.0036 -1.2858
 1622SOL     OW16327   0.691   4.439   7.171 -0.3364 -0.9318  0.2071
 1622SOL    HW116328   0.674   4.431   7.077  1.1904  1.1423 -0.2393
 1622SOL    HW216329   0.622   4.384   7.208  0.5234 -1.4095  1.1061
 1623SOL     OW16330   0.004   1.792  12.924 -0.0292 -0.5396  0.5973
 1623SOL    HW116331   0.087   1.747  12.907  0.1559  0.4522 -1.1313
 1623SOL    HW216332   4.710   1.839  12.842  0.5529  0.6992  1.1839
 1624SOL     OW16333   0.418   0.649   1.219 -0.2093  0.2111 -0.2116
 1624SOL    HW116334   0.458   0.735   1.204  2.0051 -1.0413 -1.5789
 1624SOL    HW216335   0.494   0.596   1.192  0.3632  2.3052 -2.6715
 1625SOL     OW16336   0.808   1.577   8.040  0.0799  0.6569 -0.1810
 1625SOL    HW116337   0.894   1.606   8.010  1.0793 -0.6584  1.3658
 1625SOL    HW216338   0.828   1.578   8.134  0.6315  1.8983 -0.3203
 1626SOL     OW16339   4.265   3.810   5.575  0.1439  0.0166 -0.4263
 1626SOL    HW116340   4.177   3.781   5.552  0.7539 -1.8276 -0.4157
 1626SOL    HW216341   4.306   3.731   5.609 -1.2694  0.5133  2.4003
 1627SOL     OW16342   4.615   3.729   4.047  0.2552 -0.3093  0.6031
 1627SOL    HW116343   4.696   3.706   4.093  1.1697 -0.3824 -1.0662
 1627SOL    HW216344   4.550   3.748   4.116 -0.6496  1.9518 -0.8570
 1628SOL     OW16345   3.499   2.773   2.463  0.1040  0.2940  0.2755
 1628SOL    HW116346   3.537   2.687   2.478 -0.0618  0.2282  0.3206
 1628SOL    HW216347   3.421   2.746   2.414 -1.1429 -0.2986  2.5686
 1629SOL     OW16348   0.196   1.889   4.376  0.4012 -0.0311  0.3424
 1629SOL    HW116349   0.125   1.953   4.370 -0.0478 -0.3611  2.1425
 1629SOL    HW216350   0.229   1.894   4.286 -1.9026 -0.9435 -0.5395
 1630SOL     OW16351   2.982   2.447   7.971 -0.0010  0.2999  0.1558
 1630SOL    HW116352   2.966   2.500   8.049 -1.7587  2.2318 -1.5042
 1630SOL    HW216353   2.984   2.519   7.908  0.5132 -0.9266 -1.2299
 1631SOL     OW16354   0.506   4.040   1.630 -0.1487 -0.0162 -0.0617
 1631SOL    HW116355   0.471   4.036   1.541 -2.0796  1.1457  0.6547
 1631SOL    HW216356   0.474   3.956   1.664  1.7985  0.2698  2.4675
 1632SOL     OW16357   2.303   1.716   5.151  0.0042 -0.5777  0.1282
 1632SOL    HW116358   2.252   1.658   5.094 -0.5401  0.4537 -0.4387
 1632SOL    HW216359   2.230   1.773   5.177 -0.6402 -1.4533  0.2280
 1633SOL     OW16360   3.383   3.000   2.218 -0.4318  0.4096  0.6886
 1633SOL    HW116361   3.311   3.046   2.174  0.2865 -1.2215 -2.1861
 1633SOL    HW216362   3.453   3.038   2.165 -0.0363 -0.6676  0.4414
 1634SOL     OW16363   0.164   2.338   2.975  0.0866 -0.0517 -0.6273
 1634SOL    HW116364   0.109   2.394   2.920  1.6447  2.0662 -0.0688
 1634SOL    HW216365   0.240   2.396   2.985  0.4209 -0.3291 -1.6279
 1635SOL     OW16366   4.099   2.040   7.441  0.2152 -0.0649  0.3171
 1635SOL    HW116367   4.019   2.002   7.403 -0.2883  0.5178  0.7895
 1635SOL    HW216368   4.092   2.013   7.533 -1.9587 -0.3825  0.0698
 1636SOL     OW16369   1.794   3.991   2.363  0.2516  0.2288  0.1732
 1636SOL    HW116370   1.709   3.954   2.339  0.2862 -0.4693  1.1099
 1636SOL    HW216371   1.824   3.944   2.441 -2.9193  2.2105  2.6139
 1637SOL     OW16372   1.405   1.060  16.926 -0.0665  0.4838 -0.0599
 1637SOL    HW116373   1.465   0.995  16.964 -0.5375 -0.3388 -0.7209
 1637SOL    HW216374   1.395   1.117  17.002  0.5003 -0.4261  0.7122
 1638SOL     OW16375   0.352   0.899  10.093  0.3321 -0.2243  0.1183
 1638SOL    HW116376   0.416   0.897  10.021  1.0829  1.2796  0.7545
 1638SOL    HW216377   0.408   0.881  10.168 -1.3616  2.2613  1.9683
 1639SOL     OW16378   0.986   0.569  17.269  0.5047 -0.2460 -0.0958
 1639SOL    HW116379   1.027   0.582  17.183  1.8977 -1.8542  0.3018
 1639SOL    HW216380   0.896   0.593  17.251  1.1548  0.9458 -1.7566
 1640SOL     OW16381   1.263   0.001   1.121  0.3108 -0.3007 -0.1196
 1640SOL    HW116382   1.248   0.086   1.161 -0.3190 -1.2370  1.6544
 1640SOL    HW216383   1.173   4.692   1.108 -0.1352  0.8197  0.4003
 1641SOL     OW16384   2.264   0.851   0.822  0.2689 -0.4190  0.4656
 1641SOL    HW116385   2.209   0.779   0.790 -1.5449  1.1635  0.0079
 1641SOL    HW216386   2.201   0.898   0.877  0.4776 -1.4857  1.6308
 1642SOL     OW16387   3.593   1.607   2.290 -0.4686 -0.0493  0.5565
 1642SOL    HW116388   3.522   1.642   2.343 -0.4217  0.2044  0.4509
 1642SOL    HW216389   3.553   1.533   2.244 -2.0916  1.6979 -0.8104
 1643SOL     OW16390   1.768   2.629   2.000 -0.5921 -0.5733 -0.0657
 1643SOL    HW116391   1.781   2.553   1.942  0.3766 -0.6297  0.2322
 1643SOL    HW216392   1.673   2.641   1.987 -0.8347 -2.7056 -0.2603
 1644SOL     OW16393   3.815   1.284  15.619 -0.1530 -0.0209  0.1608
 1644SOL    HW116394   3.797   1.205  15.669  1.5470  0.2130  1.1313
 1644SOL    HW216395   3.878   1.254  15.553  0.6995 -0.4570  1.1723
 1645SOL     OW16396   3.835   3.190   5.122 -0.2882 -0.5877 -0.6029
 1645SOL    HW116397   3.830   3.165   5.214  1.2541 -0.5113 -0.4986
 1645SOL    HW216398   3.836   3.286   5.129 -0.8784 -0.6409  0.2279
 1646SOL     OW16399   3.157   3.262  14.947 -0.0129 -0.0597  0.0130
 1646SOL    HW116400   3.069   3.227  14.941 -0.2301  0.2166  1.5848
 1646SOL    HW216401   3.203   3.230  14.869  0.3933 -0.3803  0.3796
 1647SOL     OW16402   0.811   4.348   7.601 -0.1322 -0.1398  0.2257
 1647SOL    HW116403   0.797   4.276   7.540 -1.1290 -0.4661  0.8494
 1647SOL    HW216404   0.884   4.390   7.555 -1.0392 -1.2237 -2.1743
 1648SOL     OW16405   4.605   2.526   9.541 -0.4462  0.1476  0.3418
 1648SOL    HW116406   4.683   2.575   9.567 -1.6655  1.5083  1.4164
 1648SOL    HW216407   4.634   2.468   9.470 -0.6127  0.2392  0.1978
 1649SOL     OW16408   0.734   2.120  12.434  0.2692  0.3339 -0.3021
 1649SOL    HW116409   0.680   2.199  12.435  0.9041  0.7805 -1.3952
 1649SOL    HW216410   0.815   2.158  12.400  0.8450 -0.7716 -0.1614
 1650SOL     OW16411   3.134   1.843  12.767  0.4705  0.2966 -0.5165
 1650SOL    HW116412   3.063   1.907  12.772 -0.0750 -0.2413 -1.3462
 1650SOL    HW216413   3.077   1.784  12.817  0.9824 -0.1582 -0.4772
 1651SOL     OW16414   0.974   0.041   1.830  0.1338  0.5814 -0.4287
 1651SOL    HW116415   0.943   0.131   1.825  0.8485  0.9601  2.4321
 1651SOL    HW216416   1.063   0.052   1.863 -0.1774  2.4188 -0.2251
 1652SOL     OW16417   1.578   2.940  15.414 -0.0404 -0.1754  0.6706
 1652SOL    HW116418   1.510   2.939  15.481  0.0504 -0.1456  0.7622
 1652SOL    HW216419   1.652   2.926  15.473 -0.1612  0.0045  0.8642
 1653SOL     OW16420   0.327   0.534  14.959 -0.5531 -0.0222  0.6390
 1653SOL    HW116421   0.271   0.479  15.013 -0.6784  1.5554  2.1080
 1653SOL    HW216422   0.258   0.588  14.922  0.6812  0.3148 -1.1880
 1654SOL     OW16423   1.304   2.460  11.674 -0.1810 -0.2700 -0.1535
 1654SOL    HW116424   1.360   2.383  11.677  0.3592  0.1686  1.2321
 1654SOL    HW216425   1.371   2.517  11.636  1.7962 -1.7074  1.2155
 1655SOL     OW16426   1.517   1.939   5.423  0.0411 -0.4793 -0.1088
 1655SOL    HW116427   1.475   2.016   5.462  0.2297  0.6023 -2.0307
 1655SOL    HW216428   1.498   1.866   5.481  3.3556  0.2897  1.9100
 1656SOL     OW16429   3.482   3.127   6.984  0.2764  0.0751  0.2875
 1656SOL    HW116430   3.455   3.121   6.892 -0.4324 -0.3975  0.5285
 1656SOL    HW216431   3.558   3.069   6.993  1.0840  1.5978  3.3667
 1657SOL     OW16432   4.615   3.769   7.586  0.7244  0.4123 -1.2068
 1657SOL    HW116433   4.614   3.763   7.682 -0.7869 -0.7758 -1.3102
 1657SOL    HW216434   4.539   3.715   7.565  1.5311 -1.1571 -0.1075
 1658SOL     OW16435   1.763   2.765   9.418  0.3632  0.1425  0.0851
 1658SOL    HW116436   1.751   2.707   9.493  0.6339 -0.6435 -0.4715
 1658SOL    HW216437   1.736   2.707   9.347  0.5960 -1.5224  1.3520
 1659SOL     OW16438   1.941   3.145  14.785 -0.2334  0.0778 -0.1974
 1659SOL    HW116439   1.853   3.118  14.814 -0.2141  1.1934  0.8887
 1659SOL    HW216440   1.989   3.142  14.867 -0.1075 -0.7753 -0.2961
 1660SOL     OW16441   2.609   1.592  12.902  0.5746  0.1983 -0.7530
 1660SOL    HW116442   2.701   1.584  12.876  0.5487 -0.0157 -0.7861
 1660SOL    HW216443   2.623   1.607  12.995 -1.4393 -0.4122 -0.3508
 1661SOL     OW16444   0.482   0.110  14.253  0.2761 -0.3422 -0.1496
 1661SOL    HW116445   0.478   0.125  14.159 -2.0099  0.4620  0.0819
 1661SOL    HW216446   0.393   0.079  14.268  0.5146 -1.1793 -0.4630
 1662SOL     OW16447   2.137   3.030   5.046 -0.5125  0.2544  0.0003
 1662SOL    HW116448   2.142   2.934   5.044  1.6535  0.3539  0.7756
 1662SOL    HW216449   2.043   3.044   5.060 -0.0605  1.0009  2.2625
 1663SOL     OW16450   0.308   3.578   3.973  0.1521 -0.1931  0.0115
 1663SOL    HW116451   0.249   3.608   4.042 -0.6877 -1.1002 -0.3179
 1663SOL    HW216452   0.261   3.602   3.894  1.4943  3.5879  0.3784
 1664SOL     OW16453   3.144   1.504   1.451 -0.3429 -0.6260 -0.0044
 1664SOL    HW116454   3.119   1.414   1.430 -0.2743 -0.4199 -0.9649
 1664SOL    HW216455   3.158   1.526   1.359  1.8919 -2.3460 -0.0534
 1665SOL     OW16456   2.420   0.876   5.712 -0.5017  0.6479 -0.0549
 1665SOL    HW116457   2.398   0.951   5.766 -3.0037 -1.2846  1.5825
 1665SOL    HW216458   2.341   0.870   5.658 -0.2552  2.1235 -0.5617
 1666SOL     OW16459   3.365   2.160   7.916 -0.1934  0.1895 -0.6645
 1666SOL    HW116460   3.353   2.255   7.923 -0.4598  0.2624 -2.0505
 1666SOL    HW216461   3.372   2.142   7.822  3.7212  1.1375 -0.5413
 1667SOL     OW16462   2.439   1.769   8.401  0.4475 -0.1800 -0.7338
 1667SOL    HW116463   2.487   1.851   8.389  0.2525  0.2011  0.9803
 1667SOL    HW216464   2.364   1.786   8.344  1.2431  0.0500 -1.7151
 1668SOL     OW16465   1.532   1.367  10.616 -0.9850  0.0223  0.0050
 1668SOL    HW116466   1.557   1.460  10.620  0.6727 -0.4740  1.5943
 1668SOL    HW216467   1.549   1.342  10.707  1.4329 -2.3829 -1.0894
 1669SOL     OW16468   3.777   0.046   6.608 -0.0413 -0.5553 -0.3216
 1669SOL    HW116469   3.813   0.101   6.678  0.7930 -0.4469 -0.8423
 1669SOL    HW216470   3.828   0.072   6.532 -1.0822 -0.2903 -0.9249
 1670SOL     OW16471   2.898   3.295   3.579  0.1210  0.1165 -0.5752
 1670SOL    HW116472   2.833   3.319   3.644  0.0451  0.0574 -0.6292
 1670SOL    HW216473   2.946   3.377   3.569  0.3437  0.0863  0.2611
 1671SOL     OW16474   1.562   1.131   3.733  0.1537  0.0212 -0.7116
 1671SOL    HW116475   1.588   1.216   3.768  1.8590 -0.9679  0.4447
 1671SOL    HW216476   1.482   1.109   3.782  0.5312 -2.0384 -1.0048
 1672SOL     OW16477   3.444   4.385   5.860 -0.7373 -0.3082  0.5252
 1672SOL    HW116478   3.515   4.447   5.872 -1.0539  0.2424 -0.4329
 1672SOL    HW216479   3.479   4.340   5.783  1.4961 -0.0496  1.4086
 1673SOL     OW16480   2.392   2.196   2.268 -0.0598  0.1082  0.2975
 1673SOL    HW116481   2.368   2.105   2.251  0.6878  0.2332 -1.4825
 1673SOL    HW216482   2.473   2.203   2.218 -0.2912 -1.1814 -0.2535
 1674SOL     OW16483   0.372   4.035   3.074 -0.4183 -0.1586  0.0537
 1674SOL    HW116484   0.330   3.973   3.015 -0.5088 -1.7263  1.7374
 1674SOL    HW216485   0.379   3.970   3.145 -1.9132  1.6349  1.8452
 1675SOL     OW16486   1.652   4.192   8.657  0.1115  0.3676 -0.7408
 1675SOL    HW116487   1.714   4.224   8.591  0.9109  3.0530  1.3112
 1675SOL    HW216488   1.716   4.179   8.727 -1.5964 -3.2609  0.1483
 1676SOL     OW16489   0.551   2.103   7.632  0.4410 -0.4634 -0.3214
 1676SOL    HW116490   0.518   2.015   7.650 -0.9570  0.4434  1.5525
 1676SOL    HW216491   0.474   2.140   7.589  0.0910 -0.2456  0.4709
 1677SOL     OW16492   0.178   4.468   6.637 -0.1873 -0.5044 -0.4212
 1677SOL    HW116493   0.126   4.519   6.699  1.6037  1.4202 -0.4766
 1677SOL    HW216494   0.134   4.472   6.552 -0.9459 -1.3720 -0.0619
 1678SOL     OW16495   2.468   0.932   5.344 -0.0340 -0.2618 -0.7411
 1678SOL    HW116496   2.400   0.953   5.409 -0.8474  2.6976 -2.5126
 1678SOL    HW216497   2.448   0.845   5.310 -1.1069 -0.4115  0.2784
 1679SOL     OW16498   0.732   1.232  14.955 -0.1695  0.1449  0.4876
 1679SOL    HW116499   0.676   1.155  14.961  1.2569 -0.9263  0.2812
 1679SOL    HW216500   0.742   1.265  15.044 -1.7313  0.2361  0.6297
 1680SOL     OW16501   0.516   0.862   4.548 -0.2248  0.4421 -0.5909
 1680SOL    HW116502   0.586   0.813   4.506 -1.6076 -1.7108 -0.3833
 1680SOL    HW216503   0.483   0.921   4.480 -1.2998  0.6677  0.1273
 1681SOL     OW16504   0.212   2.214   6.488 -0.4114 -0.3816 -0.0727
 1681SOL    HW116505   0.141   2.202   6.426  0.6290  2.2093 -1.7584
 1681SOL    HW216506   0.242   2.297   6.450  0.0875  0.0704  1.3010
 1682SOL     OW16507   0.477   4.322   6.385 -0.4618  0.4417  0.4267
 1682SOL    HW116508   0.421   4.254   6.423  1.1373 -1.8811 -1.3306
 1682SOL    HW216509   0.480   4.290   6.295  2.0599 -0.5818  0.8885
 1683SOL     OW16510   0.010   1.917   3.062  0.8894 -0.5715  1.0011
 1683SOL    HW116511   0.035   2.001   3.101 -0.7643  0.8240 -0.9673
 1683SOL    HW216512   4.711   1.868   3.142 -1.1252 -0.8058  0.3591
 1684SOL     OW16513   2.830   2.612   5.126 -0.1825  0.2532 -0.5900
 1684SOL    HW116514   2.800   2.656   5.046  2.4550  0.4940 -1.4749
 1684SOL    HW216515   2.898   2.555   5.088  0.0643  0.1821 -0.0353
 1685SOL     OW16516   2.798   0.764   7.799  0.3269  0.5448  0.6492
 1685SOL    HW116517   2.831   0.716   7.723  2.4991  2.4673  0.4028
 1685SOL    HW216518   2.806   0.851   7.761 -4.6732  2.0093  2.9311
 1686SOL     OW16519   1.469   4.115  15.724  0.2032 -0.6593  0.1837
 1686SOL    HW116520   1.421   4.034  15.743  0.8397 -0.5879  2.1105
 1686SOL    HW216521   1.543   4.073  15.681  0.1162 -0.7547  0.1281
 1687SOL     OW16522   3.567   0.939   6.799 -0.0587  0.5696  0.2024
 1687SOL    HW116523   3.488   0.910   6.754  0.2792  1.0908 -0.7042
 1687SOL    HW216524   3.609   0.853   6.809 -1.8079 -0.5265 -1.7418
 1688SOL     OW16525   2.562   3.311   6.411 -0.3310  0.0654  0.0296
 1688SOL    HW116526   2.548   3.397   6.370 -0.5004  0.1452  0.2576
 1688SOL    HW216527   2.486   3.265   6.373 -0.6458  0.4090  0.2374
 1689SOL     OW16528   1.036   0.862   5.440  0.0954  0.4660  0.1531
 1689SOL    HW116529   1.101   0.929   5.462  1.1102 -0.8939  1.2696
 1689SOL    HW216530   1.040   0.804   5.516  0.5488  0.3353  0.0292
 1690SOL     OW16531   2.088   3.359   8.543 -0.0412  0.9387 -0.3323
 1690SOL    HW116532   2.057   3.441   8.505 -2.8261 -1.6772 -3.6743
 1690SOL    HW216533   2.040   3.297   8.488 -0.6893  0.1669  1.1252
 1691SOL     OW16534   1.313   0.375  16.827 -0.3930 -0.4876  0.0799
 1691SOL    HW116535   1.331   0.466  16.802 -0.0993 -0.8708 -1.0864
 1691SOL    HW216536   1.222   0.365  16.799 -0.8681 -0.7833  1.7490
 1692SOL     OW16537   3.568   2.347   8.147 -0.3460 -0.0091 -0.1915
 1692SOL    HW116538   3.646   2.298   8.121 -2.1214 -2.9979  0.1323
 1692SOL    HW216539   3.509   2.315   8.079  1.2131  0.2983 -1.6786
 1693SOL     OW16540   4.600   4.573   5.218 -0.2243  0.2249  0.1467
 1693SOL    HW116541   4.627   4.631   5.289 -0.9542  2.5763 -1.5137
 1693SOL    HW216542   4.566   4.634   5.153  0.8536 -0.2146 -0.8401
 1694SOL     OW16543   0.075   4.510  10.539  0.1407  0.0409 -0.5977
 1694SOL    HW116544   4.707   4.476  10.529  0.8958 -1.5657 -1.7810
 1694SOL    HW216545   0.136   4.437  10.548  0.6530  0.6417  0.8568
 1695SOL     OW16546   3.558   0.365   0.943  0.0562 -1.0701  0.1858
 1695SOL    HW116547   3.486   0.313   0.908 -1.1511 -0.4013  1.6614
 1695SOL    HW216548   3.614   0.292   0.968  1.8757 -0.0342 -0.8213
 1696SOL     OW16549   2.732   3.170   6.568 -0.4663  0.3402 -0.3551
 1696SOL    HW116550   2.674   3.217   6.507  0.5306  1.5594 -0.3594
 1696SOL    HW216551   2.666   3.148   6.634 -0.3610  0.2848 -0.2702
 1697SOL     OW16552   0.295   1.159   6.747 -0.0778 -0.0256 -0.0377
 1697SOL    HW116553   0.356   1.120   6.810  0.0887 -1.4255 -1.0800
 1697SOL    HW216554   0.319   1.125   6.661 -0.3123 -0.0248 -0.1038
 1698SOL     OW16555   0.970   1.216   7.990  0.1467 -0.2837 -0.1661
 1698SOL    HW116556   1.023   1.294   8.007  0.2956 -0.2188 -0.9054
 1698SOL    HW216557   0.900   1.255   7.938  2.9475  2.5040 -1.8987
 1699SOL     OW16558   1.425   1.529   2.783 -0.1797 -0.3019 -0.1496
 1699SOL    HW116559   1.333   1.512   2.762 -0.7406  0.4465  1.7292
 1699SOL    HW216560   1.423   1.607   2.838 -0.5484 -0.5622  0.2101
 1700SOL     OW16561   4.338   3.350   3.695 -0.0135  0.0564  0.0736
 1700SOL    HW116562   4.382   3.310   3.770  0.3066 -2.0763 -1.2424
 1700SOL    HW216563   4.397   3.314   3.628  1.3936 -1.0804  1.9151
 1701SOL     OW16564   1.795   4.578  12.428 -0.3762 -0.6689 -0.0479
 1701SOL    HW116565   1.847   4.658  12.434  0.5730 -1.3464  0.8300
 1701SOL    HW216566   1.873   4.522  12.431 -0.4652 -0.8813 -1.9751
 1702SOL     OW16567   3.650   0.291   7.420 -0.3047 -0.2826  0.1753
 1702SOL    HW116568   3.631   0.218   7.361  1.5904 -1.3281  0.8754
 1702SOL    HW216569   3.706   0.242   7.479  2.2867  0.1391 -1.9086
 1703SOL     OW16570   0.207   0.286  13.941  0.2741  0.1923 -0.1446
 1703SOL    HW116571   0.284   0.230  13.944  2.1523  2.8586  0.7393
 1703SOL    HW216572   0.201   0.321  14.030 -0.5377 -2.0541  0.6982
 1704SOL     OW16573   3.363   1.298   3.151 -0.1183 -0.2338  0.4092
 1704SOL    HW116574   3.450   1.320   3.117  0.1500 -0.0210  1.2460
 1704SOL    HW216575   3.326   1.386   3.160 -0.8857 -0.3744 -1.2229
 1705SOL     OW16576   0.304   2.504  15.523  0.1080  0.1936 -0.8450
 1705SOL    HW116577   0.268   2.420  15.552 -1.2590 -0.1405 -3.5271
 1705SOL    HW216578   0.239   2.556  15.571  0.9292  1.3723 -0.9924
 1706SOL     OW16579   2.624   0.872   2.712 -0.6058 -0.7249  0.7101
 1706SOL    HW116580   2.634   0.778   2.730  1.2427 -1.0506 -1.8311
 1706SOL    HW216581   2.719   0.887   2.704 -0.9789  1.0720 -0.1365
 1707SOL     OW16582   1.643   0.552   2.531 -0.2686  0.2277  0.5686
 1707SOL    HW116583   1.600   0.492   2.591 -0.6821 -1.3424 -1.3217
 1707SOL    HW216584   1.735   0.550   2.559 -0.6103 -0.8290  1.6117
 1708SOL     OW16585   2.077   4.676  13.881  0.5951 -0.0418 -0.4953
 1708SOL    HW116586   1.982   4.674  13.873  0.6199  1.4071 -1.0870
 1708SOL    HW216587   2.104   4.627  13.803  1.5552  1.2023 -0.9360
 1709SOL     OW16588   2.075   0.222   6.781 -0.1331  0.1412  0.1078
 1709SOL    HW116589   2.110   0.296   6.731  1.1409 -0.8640 -0.5014
 1709SOL    HW216590   2.145   0.157   6.783  0.9090  1.2812  0.9021
 1710SOL     OW16591   1.490   2.736   1.195 -0.1539 -0.3360  0.5401
 1710SOL    HW116592   1.544   2.807   1.229 -1.1730  0.5411  0.3252
 1710SOL    HW216593   1.550   2.662   1.195  0.2885  0.0325  2.0349
 1711SOL     OW16594   2.126   1.141   2.959  0.0597  0.0526  0.7987
 1711SOL    HW116595   2.058   1.208   2.953  1.6984  1.6297 -0.1887
 1711SOL    HW216596   2.088   1.078   3.020  0.8932 -1.4682 -0.2521
 1712SOL     OW16597   3.191   0.188   6.399  0.2044 -0.3736  0.3970
 1712SOL    HW116598   3.154   0.275   6.391  0.5328 -0.2357  0.3744
 1712SOL    HW216599   3.229   0.203   6.485 -0.2446  2.2952  0.1290
 1713SOL     OW16600   2.639   3.100  15.041 -0.3472  0.4024 -0.4321
 1713SOL    HW116601   2.729   3.066  15.044 -0.2989  0.5621 -0.1388
 1713SOL    HW216602   2.647   3.182  14.992  4.0612 -0.9336 -1.9552
 1714SOL     OW16603   3.373   4.667   2.128 -0.9714 -0.1618  0.6016
 1714SOL    HW116604   3.282   4.674   2.100 -0.5692  2.5448 -0.0732
 1714SOL    HW216605   3.407   0.036   2.119  0.8706 -0.8356  0.8285
 1715SOL     OW16606   3.167   1.707  11.196 -0.1642 -0.6034  0.0093
 1715SOL    HW116607   3.112   1.700  11.118  2.2242 -2.7007 -1.5073
 1715SOL    HW216608   3.205   1.795  11.196  0.3760 -0.8272  2.0425
 1716SOL     OW16609   0.283   1.414   3.330  0.0028 -0.1238 -0.2764
 1716SOL    HW116610   0.344   1.389   3.399 -0.8183  1.0401  0.8711
 1716SOL    HW216611   0.314   1.504   3.325 -0.8784  0.2047  0.1161
 1717SOL     OW16612   0.603   4.293  10.932  0.1311 -0.2559  0.2808
 1717SOL    HW116613   0.586   4.238  11.008  2.2225  0.3399  1.1634
 1717SOL    HW216614   0.592   4.380  10.970  1.0432  0.4983 -1.1776
 1718SOL     OW16615   3.856   4.227   1.145 -0.2327  0.6448  0.7162
 1718SOL    HW116616   3.763   4.203   1.148  0.1907 -0.9400  1.0878
 1718SOL    HW216617   3.887   4.200   1.058 -0.1965  4.2484 -0.3596
 1719SOL     OW16618   3.150   1.675   8.134  0.1417 -0.2909  0.0693
 1719SOL    HW116619   3.116   1.588   8.114  0.9426 -0.6842  0.4241
 1719SOL    HW216620   3.159   1.671   8.229 -2.2580  0.7069  0.3409
 1720SOL     OW16621   4.365   3.379   2.212  0.0762 -0.0755 -0.1222
 1720SOL    HW116622   4.276   3.385   2.177  0.1577  1.4661 -0.0502
 1720SOL    HW216623   4.344   3.295   2.252  3.7266 -0.9181  0.0212
 1721SOL     OW16624   0.599   2.478   8.367 -0.2171 -0.0990  0.5614
 1721SOL    HW116625   0.532   2.462   8.300  0.5372  1.4998 -0.6048
 1721SOL    HW216626   0.673   2.438   8.322 -0.9769 -2.1870  1.1939
 1722SOL     OW16627   3.424   4.364  10.138 -0.3629  0.3671 -0.6182
 1722SOL    HW116628   3.419   4.457  10.116  1.4294  0.3352 -1.2402
 1722SOL    HW216629   3.516   4.352  10.114 -0.5263  0.4058 -1.2642
 1723SOL     OW16630   3.128   3.002   7.841  0.0527  0.0889 -0.0951
 1723SOL    HW116631   3.189   2.937   7.876 -0.8548 -1.0296 -0.6012
 1723SOL    HW216632   3.158   3.006   7.750  2.4027 -2.3595  0.5459
 1724SOL     OW16633   4.650   3.492   3.034 -0.3346  0.3693  0.2415
 1724SOL    HW116634   4.650   3.462   2.943 -1.9760  0.1041  0.3310
 1724SOL    HW216635   0.018   3.463   3.054 -0.3659 -0.4995 -0.9052
 1725SOL     OW16636   4.400   0.336  15.621  0.4220  0.4638  0.5442
 1725SOL    HW116637   4.494   0.352  15.620  0.2990  1.0776 -0.9235
 1725SOL    HW216638   4.385   0.249  15.584 -0.6244  0.6313  0.5648
 1726SOL     OW16639   2.980   1.977  10.531 -0.4458  0.4918  0.3341
 1726SOL    HW116640   2.998   1.916  10.459  2.2610  1.8281 -0.1210
 1726SOL    HW216641   2.938   2.055  10.497  0.1102  0.3224 -0.7608
 1727SOL     OW16642   3.153   3.670  11.581  0.0988  0.4443 -0.1504
 1727SOL    HW116643   3.158   3.645  11.489  3.7574  0.5234  0.0049
 1727SOL    HW216644   3.156   3.765  11.587  1.9054  0.1836  3.4091
 1728SOL     OW16645   2.311   0.314   7.672  0.1996 -0.4204  0.1660
 1728SOL    HW116646   2.348   0.321   7.760 -1.0336 -1.3384  0.7447
 1728SOL    HW216647   2.387   0.357   7.632  0.1648 -0.9605 -0.4787
 1729SOL     OW16648   0.393   2.717   9.663  0.5794  0.0419 -0.0713
 1729SOL    HW116649   0.377   2.790   9.602  0.7348  2.5448  2.8430
 1729SOL    HW216650   0.322   2.654   9.648  0.5842 -0.0745  0.4179
 1730SOL     OW16651   0.736   1.922  15.609 -0.4173  0.1295  0.2513
 1730SOL    HW116652   0.720   1.901  15.517 -2.3944 -0.3224  0.6951
 1730SOL    HW216653   0.668   1.863  15.642  0.0209 -1.3546 -1.5188
 1731SOL     OW16654   0.988   3.522   7.223 -0.1846 -0.7291 -0.0044
 1731SOL    HW116655   1.061   3.463   7.240 -0.2095 -0.7512  0.0257
 1731SOL    HW216656   0.992   3.522   7.127 -0.3380  1.0401 -0.0249
 1732SOL     OW16657   4.511   2.214   3.115  0.1892  0.2026  0.4084
 1732SOL    HW116658   4.597   2.173   3.104 -0.0343 -0.0191 -0.5551
 1732SOL    HW216659   4.454   2.181   3.045 -0.9860 -0.8969  1.9038
 1733SOL     OW16660   4.337   0.751   4.192 -0.4106 -0.5029 -0.2211
 1733SOL    HW116661   4.325   0.781   4.102 -0.5151  0.5651  0.1408
 1733SOL    HW216662   4.252   0.713   4.213  1.1755 -1.9925  3.5552
 1734SOL     OW16663   3.812   0.085  12.167 -0.1559 -0.1951  0.4989
 1734SOL    HW116664   3.852   0.012  12.214 -0.9930  0.4600  2.1997
 1734SOL    HW216665   3.864   0.162  12.190 -0.2269  0.3580 -1.1435
 1735SOL     OW16666   2.003   2.134   3.610 -0.2636  0.1845 -0.4944
 1735SOL    HW116667   1.938   2.186   3.656 -0.4192 -0.1141 -0.3726
 1735SOL    HW216668   2.058   2.198   3.565 -1.9340  0.9356 -1.4565
 1736SOL     OW16669   2.581   3.653   5.939 -0.4202  0.3248  0.7794
 1736SOL    HW116670   2.543   3.599   5.870  2.2198  0.2212 -0.5931
 1736SOL    HW216671   2.634   3.587   5.983  0.6103  1.8083  1.7521
 1737SOL     OW16672   0.349   2.414   9.801  0.1693 -0.1232 -0.4586
 1737SOL    HW116673   0.278   2.375   9.853  1.4110 -1.8072 -0.0304
 1737SOL    HW216674   0.343   2.508   9.818 -0.7277 -0.1039 -0.8707
 1738SOL     OW16675   2.286   3.120   2.325  0.1947  0.4769  0.0684
 1738SOL    HW116676   2.323   3.098   2.410 -1.8460 -0.0841  0.8333
 1738SOL    HW216677   2.339   3.055   2.278  0.4678  0.4772  0.3812
 1739SOL     OW16678   2.782   1.763   7.706 -0.0232  0.0824  0.3695
 1739SOL    HW116679   2.795   1.855   7.729  1.0338 -0.3258  1.4306
 1739SOL    HW216680   2.717   1.773   7.637  0.4464  0.6600  0.0108
 1740SOL     OW16681   3.843   3.037  10.837  0.0395  0.1486 -0.4392
 1740SOL    HW116682   3.883   3.050  10.751 -0.0369 -0.0491 -0.5059
 1740SOL    HW216683   3.874   2.949  10.858  0.0660 -0.2139 -1.9803
 1741SOL     OW16684   3.507   0.108   8.166  0.4305  0.5283 -0.5347
 1741SOL    HW116685   3.427   0.133   8.120  1.2096  0.6728 -1.8056
 1741SOL    HW216686   3.480   0.132   8.255 -1.6075 -2.4214 -0.3554
 1742SOL     OW16687   4.118   2.843  15.804 -0.1258  0.1480 -0.5042
 1742SOL    HW116688   4.207   2.811  15.790 -0.0953 -0.3960  0.8670
 1742SOL    HW216689   4.073   2.761  15.783  0.0382 -0.4728  1.4715
 1743SOL     OW16690   4.498   3.273   8.098 -0.1962 -0.3528 -0.1623
 1743SOL    HW116691   4.518   3.221   8.177  0.2730 -0.0360 -0.0755
 1743SOL    HW216692   4.583   3.310   8.073  0.0557 -0.7823  0.0452
 1744SOL     OW16693   3.151   1.108   3.165 -0.7114 -0.5879  0.4496
 1744SOL    HW116694   3.085   1.168   3.128 -2.0731 -2.2035  0.2298
 1744SOL    HW216695   3.227   1.166   3.165 -0.6009 -0.7324 -1.2549
 1745SOL     OW16696   2.023   3.275   6.981 -0.2253 -0.0167 -0.3444
 1745SOL    HW116697   1.958   3.208   6.959  1.2990 -1.3888 -0.6822
 1745SOL    HW216698   1.980   3.358   6.959 -0.5375 -0.3612 -1.0611
 1746SOL     OW16699   4.046   3.877   1.452 -0.1993 -0.1639 -0.0900
 1746SOL    HW116700   4.030   3.786   1.477  0.0439 -0.2455 -0.2330
 1746SOL    HW216701   4.128   3.895   1.498 -1.4733  0.4631  1.9133
 1747SOL     OW16702   2.401   2.650   7.671 -0.5856  0.3370  0.3017
 1747SOL    HW116703   2.431   2.708   7.741 -0.2582  0.2821  0.2033
 1747SOL    HW216704   2.486   2.609   7.655 -0.1914  1.4820 -0.5409
 1748SOL     OW16705   0.024   3.300   7.458 -0.6417 -0.4209 -0.2541
 1748SOL    HW116706   0.040   3.394   7.472 -0.7377 -0.0125 -2.9120
 1748SOL    HW216707   0.096   3.266   7.512 -0.2482  0.1374 -0.4246
 1749SOL     OW16708   2.096   3.976   8.681 -0.0933  0.2252  0.1211
 1749SOL    HW116709   2.040   3.965   8.758  1.2028 -0.7643  0.9242
 1749SOL    HW216710   2.104   4.071   8.672  0.3274  0.1288 -0.4617
 1750SOL     OW16711   3.107   3.412  11.625  0.1191 -0.2306 -0.1004
 1750SOL    HW116712   3.141   3.499  11.648  1.2131 -1.4386  2.9625
 1750SOL    HW216713   3.048   3.403  11.700  0.3321 -0.5410  0.0291
 1751SOL     OW16714   1.331   2.038   1.963  0.0752  0.3976  0.4689
 1751SOL    HW116715   1.323   2.075   1.874  3.3410 -2.7859 -1.1292
 1751SOL    HW216716   1.334   2.115   2.020  0.8530  1.8604 -1.5436
 1752SOL     OW16717   0.220   0.665   7.037  0.1972  0.3233  0.7960
 1752SOL    HW116718   0.212   0.723   6.961  1.4734 -2.6819 -1.6362
 1752SOL    HW216719   0.182   0.588   6.995  0.6844  0.8349 -0.5846
 1753SOL     OW16720   3.464   2.963   3.760 -0.0481 -0.1041 -0.0309
 1753SOL    HW116721   3.496   2.880   3.725 -1.6095 -0.1404 -1.3806
 1753SOL    HW216722   3.502   3.019   3.692  2.1609 -0.1739  1.1360
 1754SOL     OW16723   3.533   1.669   8.674  0.4486 -0.3122 -0.4512
 1754SOL    HW116724   3.625   1.693   8.657  0.3344  0.3615 -0.1146
 1754SOL    HW216725   3.507   1.626   8.593  0.2034 -0.8246 -0.1005
 1755SOL     OW16726   1.199   3.891   6.651  0.0658 -0.5646 -0.1906
 1755SOL    HW116727   1.130   3.849   6.599  1.5380  0.6428 -3.1695
 1755SOL    HW216728   1.192   3.981   6.617 -1.8052 -0.1780  1.1795
 1756SOL     OW16729   3.092   3.465   3.129 -0.1625  0.2690 -0.0845
 1756SOL    HW116730   3.180   3.481   3.164  0.3771 -0.7518 -0.9994
 1756SOL    HW216731   3.085   3.371   3.142  1.4030 -0.0215 -1.3154
 1757SOL     OW16732   3.397   3.328   4.938 -0.2344 -0.0632  0.5534
 1757SOL    HW116733   3.344   3.273   4.996  1.9659  0.3561  2.9450
 1757SOL    HW216734   3.387   3.415   4.977 -0.3287  1.2286 -2.3030
 1758SOL     OW16735   3.429   1.643   3.253  0.6482 -0.2994 -0.3687
 1758SOL    HW116736   3.450   1.697   3.177  1.9613  0.1607  0.3267
 1758SOL    HW216737   3.516   1.642   3.292  0.2993  1.0177  0.4655
 1759SOL     OW16738   3.617   1.688   6.097  0.2380 -0.1512 -0.3641
 1759SOL    HW116739   3.561   1.726   6.165 -0.7259 -0.3126 -1.0550
 1759SOL    HW216740   3.602   1.750   6.026 -1.1520 -0.4663 -0.3511
 1760SOL     OW16741   0.306   3.519   6.773 -0.3469  0.0236 -0.5695
 1760SOL    HW116742   0.378   3.581   6.790  0.2628 -0.7904 -0.1849
 1760SOL    HW216743   0.356   3.448   6.734 -0.2490 -1.2177  1.8321
 1761SOL     OW16744   4.518   0.608   9.123 -0.5547  0.1950 -0.0672
 1761SOL    HW116745   4.612   0.594   9.127 -0.6911 -0.9872 -0.9717
 1761SOL    HW216746   4.518   0.702   9.105 -0.1077  0.0186 -0.9932
 1762SOL     OW16747   4.103   4.248   8.782 -0.4341 -0.0334 -0.2447
 1762SOL    HW116748   4.075   4.211   8.866 -0.8849 -0.0959 -0.4260
 1762SOL    HW216749   4.085   4.341   8.798 -0.6293  0.1437 -1.5349
 1763SOL     OW16750   2.172   1.200   6.618  0.0158  0.2704  0.0359
 1763SOL    HW116751   2.116   1.123   6.610 -1.9956  1.7105  0.0079
 1763SOL    HW216752   2.249   1.178   6.566 -0.1461 -1.9679  0.7332
 1764SOL     OW16753   2.029   0.114   8.051  0.1241  0.8251  0.0093
 1764SOL    HW116754   2.040   0.117   7.956  3.0013 -0.7038  0.2880
 1764SOL    HW216755   1.992   0.201   8.067  0.1497  0.2920  3.0524
 1765SOL     OW16756   1.639   0.653  10.436  0.0365 -0.1115 -0.3818
 1765SOL    HW116757   1.708   0.662  10.501  0.9800 -1.3351 -1.1963
 1765SOL    HW216758   1.564   0.678  10.489 -0.0916  0.3304 -0.7711
 1766SOL     OW16759   4.186   4.509   6.973 -0.0858 -0.2745  0.5774
 1766SOL    HW116760   4.188   4.497   7.068 -0.4026  0.0232  0.6222
 1766SOL    HW216761   4.188   4.417   6.947 -2.5688 -0.3567  0.7283
 1767SOL     OW16762   1.383   1.123   1.418 -0.0495 -0.0270 -0.2842
 1767SOL    HW116763   1.356   1.037   1.450  2.2985 -1.1998 -1.4689
 1767SOL    HW216764   1.304   1.170   1.392  0.7116  0.5494 -1.5385
 1768SOL     OW16765   2.876   1.162   6.380 -0.4867  0.2318 -0.2117
 1768SOL    HW116766   2.855   1.235   6.438 -2.2895 -0.1298 -0.4053
 1768SOL    HW216767   2.905   1.205   6.300 -0.0462 -3.2385 -1.9481
 1769SOL     OW16768   0.956   2.899   2.511 -0.0785 -0.5656 -0.1085
 1769SOL    HW116769   0.903   2.978   2.525  1.0509  0.3998 -1.3212
 1769SOL    HW216770   0.994   2.917   2.425  2.2728 -0.0645  1.0305
 1770SOL     OW16771   1.185   0.013   4.438  0.5518  0.5514  0.3180
 1770SOL    HW116772   1.164   0.015   4.345 -0.0525  2.1264  0.4911
 1770SOL    HW216773   1.099   0.042   4.471  0.4725  0.0370  0.5715
 1771SOL     OW16774   1.510   4.499   6.612 -0.3413  0.0926 -0.0264
 1771SOL    HW116775   1.557   4.571   6.653 -0.9222  2.0200 -2.7278
 1771SOL    HW216776   1.517   4.534   6.523 -0.5144  3.5833  1.3515
 1772SOL     OW16777   3.534   2.096   0.487  0.4267 -0.0891  0.1299
 1772SOL    HW116778   3.566   2.008   0.508 -1.2127 -0.8917 -0.6741
 1772SOL    HW216779   3.542   2.079   0.393 -0.0507 -1.8224  0.4002
 1773SOL     OW16780   3.885   2.259  10.429 -0.0909  0.6735  0.0223
 1773SOL    HW116781   3.961   2.216  10.391 -0.1458  1.2772 -0.7752
 1773SOL    HW216782   3.845   2.172  10.435  1.1622 -0.0529 -2.3001
 1774SOL     OW16783   0.753   1.430   8.933  0.1092 -0.0485 -0.0850
 1774SOL    HW116784   0.764   1.342   8.897  1.0486 -0.1791  0.5447
 1774SOL    HW216785   0.703   1.468   8.861  0.5601 -0.1112 -0.4316
 1775SOL     OW16786   1.250   4.619   9.296 -0.2630 -0.2776 -0.2963
 1775SOL    HW116787   1.331   4.670   9.303  1.1671 -2.5566 -0.3190
 1775SOL    HW216788   1.180   4.677   9.327 -0.0208  1.2454 -2.5838
 1776SOL     OW16789   3.500   1.264   7.154 -0.2975  0.5503 -0.0701
 1776SOL    HW116790   3.567   1.312   7.104 -0.3601 -2.3498 -2.9434
 1776SOL    HW216791   3.425   1.290   7.100 -1.5219 -0.1592  1.3224
 1777SOL     OW16792   2.368   1.914   5.408  0.2335 -0.0771 -0.0630
 1777SOL    HW116793   2.429   1.921   5.334  1.1487 -1.0227  0.6017
 1777SOL    HW216794   2.286   1.932   5.362  0.3748 -0.0957 -0.3241
 1778SOL     OW16795   3.327   4.567  16.544  0.4239  0.2333 -0.7295
 1778SOL    HW116796   3.326   4.485  16.592  0.3363  0.7020  0.0603
 1778SOL    HW216797   3.232   4.583  16.547  0.6828  1.5274  0.5606
 1779SOL     OW16798   1.950   1.520   4.837 -0.0099  0.0434 -0.5622
 1779SOL    HW116799   1.998   1.594   4.801 -0.0163  0.3073 -0.0269
 1779SOL    HW216800   1.989   1.450   4.786  2.3297  0.4052  0.7233
 1780SOL     OW16801   3.983   2.823   3.491 -0.4179 -0.3655  0.2436
 1780SOL    HW116802   3.979   2.909   3.450 -2.1306 -1.5244 -2.0460
 1780SOL    HW216803   3.908   2.834   3.549  0.5213  0.7418  1.2443
 1781SOL     OW16804   2.792   4.561  14.326  0.0254  0.0031 -0.1424
 1781SOL    HW116805   2.701   4.535  14.339 -0.0746  0.0343 -0.8049
 1781SOL    HW216806   2.831   4.479  14.359 -1.6674 -1.1782 -1.0915
 1782SOL     OW16807   2.237   0.827   6.815  0.6787 -0.1789 -0.1022
 1782SOL    HW116808   2.313   0.783   6.855 -0.8061 -1.0716  1.7394
 1782SOL    HW216809   2.176   0.756   6.837 -1.6738  1.4114 -1.5845
 1783SOL     OW16810   4.515   2.485   5.167  0.3545 -0.5263 -0.5181
 1783SOL    HW116811   4.549   2.396   5.171  0.1048 -0.6648 -1.4968
 1783SOL    HW216812   4.429   2.461   5.202  0.1902 -0.2194 -0.7097
 1784SOL     OW16813   3.210   2.866  17.390 -0.7679 -0.0194  0.4177
 1784SOL    HW116814   3.197   2.907  17.475 -2.2109  0.1751  0.1089
 1784SOL    HW216815   3.220   2.776  17.420  0.3849  0.1661  0.5796
 1785SOL     OW16816   2.575   0.739   7.429 -0.4648  0.0614  0.5538
 1785SOL    HW116817   2.536   0.665   7.381  1.6515  0.2496 -1.4647
 1785SOL    HW216818   2.624   0.786   7.362  0.3352 -1.0308  0.3666
 1786SOL     OW16819   4.576   1.189   3.523 -0.0076  0.2528 -0.0400
 1786SOL    HW116820   4.612   1.163   3.437  1.3898 -1.2169  0.9781
 1786SOL    HW216821   4.537   1.105   3.548  3.1796 -1.2334  0.0085
 1787SOL     OW16822   3.980   4.341  12.216 -0.7953  0.3987 -0.9243
 1787SOL    HW116823   3.906   4.281  12.206 -0.2720 -0.2379 -1.0220
 1787SOL    HW216824   3.955   4.421  12.262  2.7497  0.6519  0.6151
 1788SOL     OW16825   4.460   0.474  15.074 -0.5251  0.5193 -0.0929
 1788SOL    HW116826   4.549   0.498  15.051  0.2145 -0.5583  1.6587
 1788SOL    HW216827   4.468   0.386  15.038 -1.7006  0.4521 -0.2060
 1789SOL     OW16828   4.319   2.122   6.248  0.2689 -0.1110 -0.2641
 1789SOL    HW116829   4.409   2.089   6.245  0.3655  0.1924 -0.7929
 1789SOL    HW216830   4.268   2.041   6.249  2.3776 -1.4205  0.6728
 1790SOL     OW16831   0.251   3.085  12.846 -0.0684  0.3577 -0.6642
 1790SOL    HW116832   0.289   3.107  12.761 -1.2849  0.1513 -1.2573
 1790SOL    HW216833   0.263   2.990  12.841  1.1566  0.4576  0.3888
 1791SOL     OW16834   0.010   0.017  10.657 -0.0065 -0.2781 -0.5145
 1791SOL    HW116835   0.088   0.072  10.657 -0.6240  0.6051  2.0966
 1791SOL    HW216836   0.041   4.652  10.628  0.4431 -0.5345  0.7054
 1792SOL     OW16837   0.307   0.024   5.246 -0.1332  0.4339  0.3868
 1792SOL    HW116838   0.374   4.677   5.262  1.6624  1.8355 -1.1035
 1792SOL    HW216839   0.245   0.019   5.318  1.1706 -2.0360  1.3803
 1793SOL     OW16840   2.252   4.086   2.544 -0.0857 -0.3365  0.7849
 1793SOL    HW116841   2.194   4.142   2.492  1.4322  1.5628  1.1507
 1793SOL    HW216842   2.331   4.083   2.491 -1.4813  2.8031 -1.4602
 1794SOL     OW16843   1.696   0.140   3.385  0.4717 -0.0564 -0.5487
 1794SOL    HW116844   1.608   0.178   3.385  0.0399 -1.0655  2.6931
 1794SOL    HW216845   1.667   0.049   3.382  0.0904  0.0914 -1.3387
 1795SOL     OW16846   0.662   3.768  10.169  0.0238  0.1725 -0.5652
 1795SOL    HW116847   0.638   3.831  10.102  0.8126  1.6488  0.5329
 1795SOL    HW216848   0.749   3.794  10.199 -0.5150 -0.3032  1.4436
 1796SOL     OW16849   2.246   2.952  14.313 -0.6034 -0.0253  0.0259
 1796SOL    HW116850   2.244   2.983  14.404  0.3135  1.7085 -0.5522
 1796SOL    HW216851   2.327   2.901  14.317 -0.2816  0.5829  1.1230
 1797SOL     OW16852   2.869   1.169   4.060  0.3506 -0.3728 -0.0968
 1797SOL    HW116853   2.777   1.193   4.053  0.1070 -1.3832 -0.4073
 1797SOL    HW216854   2.898   1.164   3.969  0.2568 -1.0238 -0.0951
 1798SOL     OW16855   3.942   1.599   5.680  0.1502  0.2681 -0.2541
 1798SOL    HW116856   4.000   1.578   5.606  2.0568  1.0430  1.0118
 1798SOL    HW216857   3.895   1.672   5.640 -1.6346 -2.0527 -2.3347
 1799SOL     OW16858   2.072   3.226   0.464  0.1790 -0.6322  0.3773
 1799SOL    HW116859   2.146   3.270   0.506  3.5008 -4.6046 -1.2567
 1799SOL    HW216860   2.083   3.249   0.371 -2.9115 -0.3957  0.0618
 1800SOL     OW16861   4.696   1.947   9.989  0.0818  0.2005  0.2787
 1800SOL    HW116862   4.665   1.927  10.077  0.2047  0.7971  0.4584
 1800SOL    HW216863   4.611   1.934   9.946  1.2111  0.7753 -2.1188
 1801SOL     OW16864   1.473   0.202  11.766  0.0424  0.0189  0.2542
 1801SOL    HW116865   1.500   0.253  11.690 -0.1739  0.1148  0.2403
 1801SOL    HW216866   1.481   0.114  11.728  0.5634 -0.2877  1.0740
 1802SOL     OW16867   1.722   3.292   3.857 -0.2923 -0.4010  0.0273
 1802SOL    HW116868   1.792   3.328   3.911 -0.5849  0.3536 -0.1003
 1802SOL    HW216869   1.767   3.214   3.825 -1.5914  0.4639 -3.9207
 1803SOL     OW16870   4.622   1.372   3.704 -0.0589  0.1230 -0.5426
 1803SOL    HW116871   4.715   1.385   3.686 -0.0277  0.6707  0.0338
 1803SOL    HW216872   4.610   1.308   3.634  1.0330 -1.3849  0.6450
 1804SOL     OW16873   0.028   4.696   7.514 -0.0004 -0.1524 -0.0213
 1804SOL    HW116874   0.052   0.039   7.582  0.7774  0.0877 -0.5278
 1804SOL    HW216875   0.061   0.016   7.434  0.8938  0.4098  0.6385
 1805SOL     OW16876   2.364   4.250   9.773  0.0437  0.0301  0.2991
 1805SOL    HW116877   2.313   4.319   9.730 -0.5493 -0.5409  0.0930
 1805SOL    HW216878   2.295   4.186   9.790 -0.1281 -0.4936 -2.2879
 1806SOL     OW16879   3.246   3.355   5.836  0.2352 -0.5505  0.7434
 1806SOL    HW116880   3.187   3.376   5.764 -0.0312  1.2415  1.4791
 1806SOL    HW216881   3.286   3.271   5.814  0.5698 -0.6053  1.5524
 1807SOL     OW16882   1.501   1.161  17.538 -0.1369 -0.6363 -0.0289
 1807SOL    HW116883   1.549   1.079  17.523 -1.3819 -1.5228  0.8483
 1807SOL    HW216884   1.475   1.136  17.627 -2.1734 -0.2106 -0.5067
 1808SOL     OW16885   2.163   3.205   4.072 -0.2691  0.8068  0.3454
 1808SOL    HW116886   2.097   3.137   4.085 -1.6142  1.5194 -2.6220
 1808SOL    HW216887   2.201   3.219   4.158 -3.9779  0.2241  2.0829
 1809SOL     OW16888   1.889   1.205  14.259  0.2177 -0.3073 -0.2706
 1809SOL    HW116889   1.829   1.267  14.218  2.8323  0.5469 -2.7801
 1809SOL    HW216890   1.831   1.130  14.267 -0.5985  0.3668  0.1792
 1810SOL     OW16891   0.888   4.558   3.427  0.1326 -0.3615  0.4400
 1810SOL    HW116892   0.815   4.587   3.372 -0.8922  1.0987  2.5956
 1810SOL    HW216893   0.920   4.646   3.448  1.1447  0.1543 -3.2965
 1811SOL     OW16894   0.210   0.201  10.211  0.0271 -0.0942  0.5047
 1811SOL    HW116895   0.117   0.200  10.236  0.5467  1.3380  2.4220
 1811SOL    HW216896   0.205   0.161  10.124 -0.4080  1.0948 -0.0069
 1812SOL     OW16897   0.840   2.649   8.677  0.1955 -0.2636 -0.0451
 1812SOL    HW116898   0.920   2.604   8.704  0.0058  1.6493  3.7079
 1812SOL    HW216899   0.876   2.727   8.634 -1.2527  1.4885  1.8652
 1813SOL     OW16900   3.087   1.858   4.284  1.3042  0.5611  0.1918
 1813SOL    HW116901   3.061   1.931   4.340  0.7693 -0.0035  0.6637
 1813SOL    HW216902   3.141   1.801   4.338 -1.4289 -0.6095  1.6316
 1814SOL     OW16903   1.866   0.210   1.581 -0.1171  0.2333 -0.0266
 1814SOL    HW116904   1.840   0.172   1.664 -1.3626  3.3227  0.9813
 1814SOL    HW216905   1.799   0.275   1.562 -0.4352  0.1950  1.0006
 1815SOL     OW16906   2.419   3.621  17.679  0.1399  0.7505  0.2730
 1815SOL    HW116907   2.444   3.588  17.593  3.1266 -0.9107  1.8054
 1815SOL    HW216908   2.370   3.702  17.665 -1.2165 -0.2974 -1.0877
 1816SOL     OW16909   3.041   4.068   7.338 -0.2222  0.0576  0.1985
 1816SOL    HW116910   2.946   4.078   7.327  0.2726  3.6736 -0.7221
 1816SOL    HW216911   3.034   4.018   7.420 -0.2489 -2.3826 -1.3071
 1817SOL     OW16912   0.036   2.039   7.528  0.7218  0.5088 -0.1418
 1817SOL    HW116913   0.009   2.129   7.546 -0.8899 -0.1223  0.5754
 1817SOL    HW216914   4.685   2.003   7.477  1.5701  0.5064 -1.3328
 1818SOL     OW16915   3.901   2.067   5.714  0.7567 -0.6776  0.1082
 1818SOL    HW116916   3.941   2.154   5.712 -0.9876  0.1605  1.5778
 1818SOL    HW216917   3.914   2.050   5.807  1.8899 -2.8899 -0.4395
 1819SOL     OW16918   3.932   2.566   1.683  0.2618 -0.1935 -0.5682
 1819SOL    HW116919   3.931   2.472   1.669 -0.5536 -0.2277 -0.2630
 1819SOL    HW216920   3.998   2.575   1.752  2.2776  1.4675 -2.6887
 1820SOL     OW16921   4.280   2.641  11.764  0.3666 -0.1594 -0.0382
 1820SOL    HW116922   4.209   2.620  11.704  2.4833 -2.2576 -1.8195
 1820SOL    HW216923   4.336   2.571  11.731 -0.7652 -0.7225 -0.7888
 1821SOL     OW16924   0.220   4.615   6.091 -0.2583  0.1039  0.1374
 1821SOL    HW116925   0.261   4.579   6.169  1.6141 -0.1016 -0.9491
 1821SOL    HW216926   0.269   4.583   6.015  1.9261 -0.3978  1.7664
 1822SOL     OW16927   3.155   3.052  16.535  0.1470  0.2430  0.4581
 1822SOL    HW116928   3.112   3.130  16.499  1.1047  1.6709  2.3829
 1822SOL    HW216929   3.235   3.047  16.481 -0.0606 -1.7226  0.3323
 1823SOL     OW16930   2.614   4.324   4.519  0.3200  0.1501  0.1152
 1823SOL    HW116931   2.615   4.406   4.470 -0.1376  0.2251  0.2379
 1823SOL    HW216932   2.649   4.348   4.605 -0.6885 -0.0675  0.5852
 1824SOL     OW16933   0.213   1.075  10.368  0.1746  0.2644  0.0594
 1824SOL    HW116934   0.212   1.035  10.281 -0.4605 -0.5882  0.4601
 1824SOL    HW216935   0.275   1.145  10.347 -0.5360  1.7221  2.8385
 1825SOL     OW16936   0.984   1.249   0.764  0.3576  0.1025  0.0311
 1825SOL    HW116937   0.988   1.345   0.762 -0.1832  0.1842  3.1541
 1825SOL    HW216938   0.897   1.241   0.803 -0.4777 -0.0536 -1.8300
 1826SOL     OW16939   2.372   1.518  17.002 -0.6624  0.0482 -0.0228
 1826SOL    HW116940   2.281   1.526  16.975 -0.1148  1.3942 -1.4960
 1826SOL    HW216941   2.374   1.426  17.026  1.5084 -0.4041 -1.9104
 1827SOL     OW16942   4.199   2.542   5.239  0.1793  0.3382  0.0431
 1827SOL    HW116943   4.217   2.632   5.210  1.4883  0.5560  1.5124
 1827SOL    HW216944   4.196   2.552   5.334  1.0441 -1.8286  0.3062
 1828SOL     OW16945   3.387   1.905   7.626 -1.4573 -0.4690  0.2521
 1828SOL    HW116946   3.400   1.999   7.615  0.2618 -0.9180 -1.4993
 1828SOL    HW216947   3.414   1.869   7.542  0.6270 -0.5104  0.9390
 1829SOL     OW16948   1.576   1.501  14.856  0.0121  0.1081  0.2681
 1829SOL    HW116949   1.599   1.520  14.765 -2.6889 -1.6529 -0.7933
 1829SOL    HW216950   1.583   1.589  14.892 -0.2719  1.1150 -2.1231
 1830SOL     OW16951   4.071   4.028   5.534 -0.0793  0.0279 -0.2152
 1830SOL    HW116952   4.097   4.014   5.625 -0.7128 -0.6630 -0.1427
 1830SOL    HW216953   4.037   3.942   5.509 -3.2188  1.6448 -1.5109
 1831SOL     OW16954   0.188   0.971   1.806 -0.7820 -0.0143 -0.5519
 1831SOL    HW116955   0.204   1.017   1.724  0.9743 -0.9699 -0.7584
 1831SOL    HW216956   0.245   0.895   1.801 -0.4753  0.0696  1.4235
 1832SOL     OW16957   1.478   0.277  17.127  0.6805 -0.2274  0.6354
 1832SOL    HW116958   1.391   0.238  17.122  0.8894 -0.3253 -2.1420
 1832SOL    HW216959   1.493   0.278  17.033 -2.2407  0.2256  0.1470
 1833SOL     OW16960   3.168   3.207   3.112  0.2138  0.1220 -0.0585
 1833SOL    HW116961   3.205   3.145   3.175  1.2325  0.7101 -0.0685
 1833SOL    HW216962   3.119   3.143   3.060  1.8327 -0.8367 -0.3864
 1834SOL     OW16963   0.294   2.813  12.889 -0.2973  0.2806  0.1696
 1834SOL    HW116964   0.380   2.781  12.863 -1.9716 -2.3423 -2.1442
 1834SOL    HW216965   0.234   2.761  12.835 -0.5663  0.9620 -0.1977
 1835SOL     OW16966   4.439   0.122   1.869  0.0934 -0.0448 -0.6098
 1835SOL    HW116967   4.452   0.207   1.912  0.6991 -1.7809  2.6014
 1835SOL    HW216968   4.374   0.092   1.932  0.6789 -0.5675 -0.2488
 1836SOL     OW16969   3.103   3.799   3.696  0.5099 -0.1531  0.8137
 1836SOL    HW116970   3.098   3.883   3.650  0.6166 -0.4090  0.3349
 1836SOL    HW216971   3.011   3.776   3.710 -0.3088  2.4374 -0.2248
 1837SOL     OW16972   4.385   2.422  11.665 -0.0941 -0.2211  0.3604
 1837SOL    HW116973   4.423   2.343  11.704  1.0162 -0.0998 -0.4558
 1837SOL    HW216974   4.330   2.396  11.591  0.1312  1.4591 -0.3907
 1838SOL     OW16975   1.799   2.279   7.061 -0.6123  0.4398  0.5301
 1838SOL    HW116976   1.878   2.320   7.025 -1.3314  0.0867 -1.4512
 1838SOL    HW216977   1.840   2.243   7.140 -0.3045  3.0138  1.5483
 1839SOL     OW16978   0.068   1.379   2.102  0.6114  0.1700  0.5607
 1839SOL    HW116979   0.096   1.420   2.183  0.7132  1.5022 -0.1620
 1839SOL    HW216980   0.067   1.462   2.054  0.3257  0.9868  1.9924
 1840SOL     OW16981   2.429   0.645  13.026  0.3746  0.0647  0.5359
 1840SOL    HW116982   2.447   0.615  12.937  0.4608  0.6487  0.3635
 1840SOL    HW216983   2.451   0.737  13.014 -0.5238  0.4476  1.8092
 1841SOL     OW16984   0.448   1.471  15.233  0.4678  0.3689 -0.6276
 1841SOL    HW116985   0.478   1.388  15.271 -0.9676  0.0401 -0.2326
 1841SOL    HW216986   0.438   1.525  15.311  1.7729 -0.5563  0.1874
 1842SOL     OW16987   0.098   3.416  13.612  0.0811 -0.5310 -0.2330
 1842SOL    HW116988   0.109   3.509  13.590 -1.6975 -0.4893 -1.0012
 1842SOL    HW216989   0.051   3.429  13.694  0.5277  1.3281 -0.2598
 1843SOL     OW16990   0.421   0.676  16.707  0.1195  0.0654  0.1492
 1843SOL    HW116991   0.354   0.700  16.642 -1.2841  1.8124  2.2195
 1843SOL    HW216992   0.509   0.691  16.673  0.1190 -2.0385 -0.7716
 1844SOL     OW16993   3.188   2.108   1.217  0.2196  0.0289 -0.3846
 1844SOL    HW116994   3.154   2.192   1.186  2.4340  0.2520 -2.2259
 1844SOL    HW216995   3.230   2.076   1.137  0.8316 -2.0825  0.8000
 1845SOL     OW16996   2.633   2.272   7.539  0.0347  0.1048  0.2878
 1845SOL    HW116997   2.562   2.274   7.603 -1.2125  1.4475 -1.1240
 1845SOL    HW216998   2.701   2.230   7.591  1.6773  3.2432  0.6664
 1846SOL     OW16999   3.649   1.612   0.090 -0.3146  0.0052  0.3441
 1846SOL    HW117000   3.665   1.520   0.109  3.0703  0.0106 -2.3460
 1846SOL    HW217001   3.727   1.658   0.122  2.1957 -1.5668 -3.4754
 1847SOL     OW17002   0.734   0.349   8.981 -0.6758  0.0682  0.3703
 1847SOL    HW117003   0.753   0.370   9.073 -1.4151  0.3516  0.4602
 1847SOL    HW217004   0.688   0.430   8.959 -0.9132 -0.4652 -1.0877
 1848SOL     OW17005   1.419   3.165   8.186  0.2402 -0.7435 -0.6969
 1848SOL    HW117006   1.383   3.089   8.140 -1.0056 -0.2715 -0.5160
 1848SOL    HW217007   1.441   3.223   8.113 -1.2194 -0.2878 -0.7882
 1849SOL     OW17008   3.662   1.120  13.758  0.4431 -0.5152  0.0879
 1849SOL    HW117009   3.607   1.060  13.707  0.4072 -1.5460  1.3229
 1849SOL    HW217010   3.661   1.199  13.706  1.2979 -0.8428 -0.4239
 1850SOL     OW17011   0.911   3.462   8.611  0.5837  0.5770 -0.1528
 1850SOL    HW117012   0.951   3.483   8.527  0.1864  0.4125 -0.3793
 1850SOL    HW217013   0.973   3.408   8.660 -1.1392 -2.1709 -1.0295
 1851SOL     OW17014   3.001   2.750   3.779  0.0475  0.0054 -0.3560
 1851SOL    HW117015   2.916   2.740   3.822  0.5118  0.8711  0.7392
 1851SOL    HW217016   3.040   2.665   3.798  1.5328  0.1218 -2.8264
 1852SOL     OW17017   0.859   0.402  11.359  0.0556 -0.0903 -0.3732
 1852SOL    HW117018   0.827   0.466  11.422 -1.4986 -1.0568 -0.1971
 1852SOL    HW217019   0.836   0.442  11.276 -3.6143 -0.6002  0.4305
 1853SOL     OW17020   3.771   0.948   4.071 -0.0776 -0.0418  1.3007
 1853SOL    HW117021   3.831   1.002   4.123  0.2000 -1.9789  3.0147
 1853SOL    HW217022   3.696   0.961   4.130 -1.3416 -0.1423 -0.2991
 1854SOL     OW17023   3.616   1.205   0.874  0.4467 -0.1603 -0.0455
 1854SOL    HW117024   3.637   1.260   0.950 -0.1043  0.5049 -0.3793
 1854SOL    HW217025   3.672   1.132   0.903  2.0465  1.1565  0.2089
 1855SOL     OW17026   2.823   4.344   7.285 -0.0424  0.5810 -0.9530
 1855SOL    HW117027   2.847   4.371   7.373  1.9736  0.0068 -1.3350
 1855SOL    HW217028   2.786   4.256   7.289  2.0671 -0.3068 -0.8738
 1856SOL     OW17029   4.682   1.882  12.671  0.1481 -0.3907 -0.0407
 1856SOL    HW117030   4.660   1.859  12.581  2.1189  1.2036 -0.9149
 1856SOL    HW217031   0.032   1.945  12.665  1.0042 -1.5800 -2.4365
 1857SOL     OW17032   1.554   3.369   3.222 -0.2530  0.0437  0.2985
 1857SOL    HW117033   1.536   3.275   3.223 -1.0520  0.2013 -0.3502
 1857SOL    HW217034   1.620   3.368   3.152 -0.6404 -2.0299 -0.0418
 1858SOL     OW17035   3.715   2.782   4.620  0.9835 -0.0356  0.0134
 1858SOL    HW117036   3.787   2.769   4.680  0.6586 -2.8347 -0.2241
 1858SOL    HW217037   3.669   2.848   4.673  1.1342 -0.1242  0.2494
 1859SOL     OW17038   1.066   2.530   3.502  0.0684  0.6096  0.4744
 1859SOL    HW117039   1.015   2.603   3.466 -1.9754 -0.6468  0.8525
 1859SOL    HW217040   1.106   2.580   3.574  1.2631  1.8740 -1.0537
 1860SOL     OW17041   0.982   3.086   2.018  0.2360 -0.0474 -0.5094
 1860SOL    HW117042   1.068   3.092   1.977 -0.2027  1.3626 -1.2181
 1860SOL    HW217043   0.973   3.177   2.045 -0.0423  0.0419 -0.8942
 1861SOL     OW17044   4.084   1.710   3.203  0.5966  0.4435 -0.2902
 1861SOL    HW117045   4.169   1.666   3.200  1.2979  1.7401  0.8411
 1861SOL    HW217046   4.022   1.638   3.189 -0.4915  0.9531  1.8543
 1862SOL     OW17047   2.372   2.463  10.324 -0.0913  0.5790  0.5572
 1862SOL    HW117048   2.429   2.536  10.349  1.3727 -0.8445  1.4019
 1862SOL    HW217049   2.434   2.392  10.341  0.0098  0.9780  1.8194
 1863SOL     OW17050   0.849   2.375   2.364 -0.3496 -0.2635 -0.2283
 1863SOL    HW117051   0.757   2.350   2.357 -0.4050 -0.2742  0.5393
 1863SOL    HW217052   0.841   2.471   2.364  2.4074 -0.0553 -1.5746
 1864SOL     OW17053   0.848   4.003   7.211  0.1858  0.7661 -0.0446
 1864SOL    HW117054   0.863   4.086   7.256 -0.6290  0.5178  0.6851
 1864SOL    HW217055   0.866   3.938   7.278 -4.3024 -0.3813  0.0646
 1865SOL     OW17056   2.157   2.342   3.519  0.7217  0.5716  0.3203
 1865SOL    HW117057   2.233   2.349   3.461  0.7407 -2.4906 -0.0067
 1865SOL    HW217058   2.150   2.425   3.566 -0.1679  0.6530  0.0431
 1866SOL     OW17059   0.535   2.435   4.803 -0.3755 -0.3059 -0.7523
 1866SOL    HW117060   0.629   2.421   4.793 -0.5527 -0.0538 -2.7352
 1866SOL    HW217061   0.513   2.516   4.757 -1.7010  0.4326  1.1811
 1867SOL     OW17062   1.064   3.224   2.739 -0.7854  0.4326  0.1221
 1867SOL    HW117063   1.110   3.146   2.708  1.0818  1.2872  0.8015
 1867SOL    HW217064   1.121   3.296   2.712  0.2620 -0.6146 -0.4769
 1868SOL     OW17065   3.631   1.441   5.460  0.1976 -0.0636  0.2856
 1868SOL    HW117066   3.677   1.378   5.516  1.0584 -0.7629 -1.1922
 1868SOL    HW217067   3.541   1.416   5.482  0.2891 -2.6405 -2.1899
 1869SOL     OW17068   2.566   0.564   4.630  0.1480 -0.1960 -0.9442
 1869SOL    HW117069   2.518   0.608   4.561  1.1579  1.8980 -0.3262
 1869SOL    HW217070   2.653   0.573   4.592  0.9511 -0.5487  0.8023
 1870SOL     OW17071   1.345   0.895   6.173  0.3426  0.2360 -0.3646
 1870SOL    HW117072   1.423   0.948   6.194  2.1850 -1.7666 -2.1576
 1870SOL    HW217073   1.345   0.895   6.078 -0.0001  1.0702 -0.3696
 1871SOL     OW17074   4.395   1.613   0.936 -0.1265 -0.2389 -0.0540
 1871SOL    HW117075   4.406   1.531   0.985 -0.1670 -0.0847  0.2155
 1871SOL    HW217076   4.423   1.680   0.998 -1.9173 -0.5673  1.1136
 1872SOL     OW17077   3.296   2.431   4.791 -0.0908 -0.1704 -0.0467
 1872SOL    HW117078   3.383   2.468   4.776 -0.7347  2.1857  1.9791
 1872SOL    HW217079   3.265   2.474   4.871 -2.4187 -1.6540 -0.1626
 1873SOL     OW17080   3.734   2.582   3.521  0.0993 -0.3443 -0.4148
 1873SOL    HW117081   3.670   2.592   3.591  0.3880  0.1018 -0.2145
 1873SOL    HW217082   3.804   2.547   3.576  2.1133  1.3197 -1.9120
 1874SOL     OW17083   1.281   2.960   5.138 -0.0789  0.2765  0.3193
 1874SOL    HW117084   1.352   2.909   5.100 -0.6420 -0.4088  0.1720
 1874SOL    HW217085   1.227   2.882   5.156 -0.6662  0.2099 -1.6743
 1875SOL     OW17086   3.606   0.139  15.015 -0.1186  0.7206 -0.1472
 1875SOL    HW117087   3.611   0.092  14.931 -4.5178 -1.1775  0.7137
 1875SOL    HW217088   3.628   0.065  15.072  2.4664  1.0700 -0.6474
 1876SOL     OW17089   1.850   2.400  12.989  0.1414 -0.2520  0.1223
 1876SOL    HW117090   1.906   2.328  13.016 -0.5071 -0.0676  1.9737
 1876SOL    HW217091   1.776   2.360  12.944  1.8036 -2.1280 -0.9362
 1877SOL     OW17092   1.246   0.967   2.340  0.4366  0.5755 -0.1495
 1877SOL    HW117093   1.240   0.899   2.273 -1.5443  2.0011 -1.4089
 1877SOL    HW217094   1.155   0.996   2.342  0.2860  0.0822  0.1889
 1878SOL     OW17095   1.575   2.835  11.847  0.0529 -0.4262 -0.3484
 1878SOL    HW117096   1.535   2.919  11.824  2.2291  0.3404 -1.3470
 1878SOL    HW217097   1.555   2.789  11.766 -2.3105  0.8852 -0.5163
 1879SOL     OW17098   0.541   2.022   8.780  0.2725 -0.2095  0.5988
 1879SOL    HW117099   0.611   2.085   8.800  0.2995 -0.1038  0.1747
 1879SOL    HW217100   0.516   2.056   8.695 -1.2534 -1.6181  0.4911
 1880SOL     OW17101   0.144   0.775   1.417  0.4561 -0.3455 -0.2567
 1880SOL    HW117102   0.101   0.797   1.335 -0.1513 -0.9716 -0.1019
 1880SOL    HW217103   0.188   0.693   1.395  0.5489 -0.4063  0.1481
 1881SOL     OW17104   4.199   0.992  10.891  0.0848 -0.3409 -0.4548
 1881SOL    HW117105   4.189   0.927  10.961  2.5763  0.5500  0.7377
 1881SOL    HW217106   4.186   1.070  10.945  0.0340 -0.4643 -0.2858
 1882SOL     OW17107   0.733   4.558   3.714  0.5306 -0.1047 -0.1299
 1882SOL    HW117108   0.694   4.604   3.640  0.9679 -1.3963 -1.1553
 1882SOL    HW217109   0.690   4.473   3.701  0.3164  0.1297 -0.9739
 1883SOL     OW17110   3.329   0.470   5.052 -0.4210  0.1859 -0.0443
 1883SOL    HW117111   3.235   0.463   5.041 -0.3157 -0.4081 -0.5987
 1883SOL    HW217112   3.335   0.564   5.071  1.6391  0.0748 -0.0875
 1884SOL     OW17113   3.127   0.764   5.624 -0.0645  0.2221 -0.0798
 1884SOL    HW117114   3.120   0.716   5.707 -0.2489 -0.6142 -0.5812
 1884SOL    HW217115   3.098   0.699   5.561 -2.5398  0.2736  0.9693
 1885SOL     OW17116   0.893   3.331   1.982  0.2651  0.2910  0.0861
 1885SOL    HW117117   0.942   3.382   1.917 -0.1670 -0.1523 -0.5892
 1885SOL    HW217118   0.812   3.374   2.006 -0.3730 -1.0720  0.4002
 1886SOL     OW17119   1.312   3.622  12.254 -0.0481 -0.0869  0.0981
 1886SOL    HW117120   1.236   3.629  12.197  0.0164 -1.1309 -0.1198
 1886SOL    HW217121   1.366   3.573  12.192 -1.5062 -0.7722 -0.6231
 1887SOL     OW17122   0.695   4.009   5.074 -0.6839 -0.1146 -0.3415
 1887SOL    HW117123   0.738   3.985   5.156 -0.5300 -0.3705 -0.4960
 1887SOL    HW217124   0.778   4.028   5.030 -0.3337  2.6779  1.5588
 1888SOL     OW17125   4.074   1.687   8.707 -0.3121 -0.1363  0.0817
 1888SOL    HW117126   4.015   1.633   8.759 -0.0583 -0.5552 -0.0606
 1888SOL    HW217127   4.107   1.630   8.637 -0.3029  0.7790 -0.6560
 1889SOL     OW17128   0.383   0.062   7.021 -0.3270 -0.2867 -0.2487
 1889SOL    HW117129   0.469   0.103   7.033  0.3311 -1.9718  0.7406
 1889SOL    HW217130   0.366   0.042   7.112 -2.8417 -0.1955 -0.7016
 1890SOL     OW17131   3.843   1.177   9.309  0.1375 -0.4532 -0.4487
 1890SOL    HW117132   3.913   1.113   9.327  1.6007  1.1386 -0.4386
 1890SOL    HW217133   3.855   1.189   9.215 -0.7419  1.2072 -0.3428
 1891SOL     OW17134   2.385   1.457   4.923 -0.1402 -0.2304 -0.5461
 1891SOL    HW117135   2.414   1.476   5.012  0.6805  0.3962 -0.9507
 1891SOL    HW217136   2.457   1.477   4.863  0.4887 -2.0894 -0.4013
 1892SOL     OW17137   4.313   3.592   2.419  0.4656  0.5783  0.3344
 1892SOL    HW117138   4.224   3.565   2.395  0.6145  0.7328 -0.4103
 1892SOL    HW217139   4.309   3.574   2.512 -0.9702 -1.1018 -0.0448
 1893SOL     OW17140   2.185   3.295  10.312  0.0646  0.0527  0.3316
 1893SOL    HW117141   2.131   3.369  10.284  0.0344  0.4641  1.4902
 1893SOL    HW217142   2.258   3.305  10.250  0.6738  0.9451  1.2032
 1894SOL     OW17143   0.942   4.102  11.063  0.5447 -0.2297  0.3213
 1894SOL    HW117144   0.920   4.045  11.137 -1.9489 -2.8345 -2.3909
 1894SOL    HW217145   0.906   4.183  11.099  0.9630 -0.5423  1.4495
 1895SOL     OW17146   1.526   2.880   6.590 -0.6920 -0.4092  0.1992
 1895SOL    HW117147   1.530   2.784   6.589  3.2611 -0.2389  0.4008
 1895SOL    HW217148   1.605   2.892   6.643  0.0943 -1.4938 -0.7276
 1896SOL     OW17149   0.828   2.241   6.374  0.0238 -0.2281 -0.2712
 1896SOL    HW117150   0.825   2.335   6.391 -0.2836 -1.0310  4.1154
 1896SOL    HW217151   0.770   2.229   6.299 -0.6133  0.2365  0.1495
 1897SOL     OW17152   1.999   3.976   4.460  0.0365  0.2073 -0.5860
 1897SOL    HW117153   2.048   3.893   4.454 -1.6369 -0.8632  0.6838
 1897SOL    HW217154   1.991   3.995   4.367 -2.0193 -1.9297 -0.8292
 1898SOL     OW17155   2.772   1.366   4.765  0.2391 -0.2592  0.0364
 1898SOL    HW117156   2.697   1.307   4.775 -0.2535  0.6116  1.4433
 1898SOL    HW217157   2.803   1.341   4.678  1.8866 -2.1507  1.1897
 1899SOL     OW17158   1.389   4.014   5.390  0.1639  0.3442  0.4682
 1899SOL    HW117159   1.426   4.060   5.465  1.5886 -1.0195  0.5830
 1899SOL    HW217160   1.394   3.923   5.420  0.3486  0.1682 -0.1061
 1900SOL     OW17161   2.742   1.730   8.309  0.3419 -0.4143  0.3170
 1900SOL    HW117162   2.674   1.728   8.378  1.5089  0.0570  1.4823
 1900SOL    HW217163   2.808   1.665   8.332  0.9075 -0.2685 -0.9039
 1901SOL     OW17164   3.571   1.729  16.646 -0.2415 -0.3549  0.2728
 1901SOL    HW117165   3.603   1.814  16.619 -3.4490  0.8832  0.3680
 1901SOL    HW217166   3.584   1.685  16.562  1.5531 -3.1603  2.0182
 1902SOL     OW17167   3.453   3.130  13.637  0.0569  0.1431 -0.3633
 1902SOL    HW117168   3.439   3.225  13.631 -2.2621 -0.1825 -0.1142
 1902SOL    HW217169   3.440   3.116  13.731  0.8445  1.9217  0.0109
 1903SOL     OW17170   3.550   3.251   3.948 -0.2067 -0.6414  0.5124
 1903SOL    HW117171   3.463   3.281   3.974 -0.2956  1.2253 -1.9363
 1903SOL    HW217172   3.551   3.269   3.854  1.1114 -1.7777  0.3075
 1904SOL     OW17173   1.170   1.859  13.609 -0.1430 -0.6686  0.5127
 1904SOL    HW117174   1.124   1.943  13.618  1.6914  0.4275 -0.3464
 1904SOL    HW217175   1.113   1.809  13.551 -0.9630 -0.9129  1.5185
 1905SOL     OW17176   2.639   3.772   3.389  0.3829 -0.4309  0.2169
 1905SOL    HW117177   2.552   3.765   3.349  1.4105  1.6828 -2.3622
 1905SOL    HW217178   2.660   3.865   3.386  0.5720 -0.3894  2.5699
 1906SOL     OW17179   2.214   2.316   4.119 -0.1401 -0.0702 -0.8763
 1906SOL    HW117180   2.242   2.295   4.030  0.3512  1.7478 -1.1372
 1906SOL    HW217181   2.266   2.248   4.162  2.3570  1.9552 -0.7038
 1907SOL     OW17182   2.072   4.068   3.159  0.1741  0.3293  0.9491
 1907SOL    HW117183   2.165   4.050   3.145 -0.0604 -0.1460  0.0055
 1907SOL    HW217184   2.042   4.034   3.075  0.3091 -1.0156  1.4446
 1908SOL     OW17185   1.226   3.218  10.100  0.0180 -0.5989 -0.2322
 1908SOL    HW117186   1.220   3.300  10.051 -2.2365 -0.8418 -0.3434
 1908SOL    HW217187   1.319   3.194  10.101  0.7728  2.4398  1.7401
 1909SOL     OW17188   0.737   1.749   9.283  0.2896 -0.1775  0.4625
 1909SOL    HW117189   0.682   1.700   9.223  1.1048  0.7609 -1.0366
 1909SOL    HW217190   0.820   1.728   9.240 -1.2945 -0.7610 -2.2877
 1910SOL     OW17191   3.845   0.697   6.984 -0.1856  0.1118 -0.5922
 1910SOL    HW117192   3.816   0.613   7.018 -0.7200  1.4791  2.3644
 1910SOL    HW217193   3.827   0.697   6.890  0.6081 -0.4013 -0.7407
 1911SOL     OW17194   3.439   0.933  16.306  0.6645 -0.8881 -0.3577
 1911SOL    HW117195   3.416   0.873  16.377  0.6620 -1.2737 -0.6896
 1911SOL    HW217196   3.505   0.982  16.355  0.3839 -0.1895 -0.6791
 1912SOL     OW17197   1.145   3.791   8.001  0.3515  0.4024 -0.2898
 1912SOL    HW117198   1.166   3.713   8.051  2.1176  2.1067  1.5976
 1912SOL    HW217199   1.080   3.834   8.057 -0.9747 -1.9952  0.0243
 1913SOL     OW17200   4.543   2.212   7.322 -0.4052  0.1550  0.2293
 1913SOL    HW117201   4.569   2.231   7.412  2.2924 -0.1115 -0.5024
 1913SOL    HW217202   4.482   2.138   7.323 -0.6010  0.3121  0.0688
 1914SOL     OW17203   2.420   0.267   5.862  0.3249  0.3102  0.4124
 1914SOL    HW117204   2.456   0.293   5.946 -1.9011  0.2417  1.3961
 1914SOL    HW217205   2.333   0.306   5.856  0.1940 -0.1573 -0.7549
 1915SOL     OW17206   1.218   1.633   7.295  0.1674 -0.4685 -0.2535
 1915SOL    HW117207   1.265   1.558   7.330 -0.4216 -0.9236 -0.4345
 1915SOL    HW217208   1.229   1.689   7.372 -2.3721  0.2336 -0.3714
 1916SOL     OW17209   0.166   3.178   2.964  0.1067  0.2118  0.1177
 1916SOL    HW117210   0.206   3.091   2.951  2.5646  1.8820 -3.4812
 1916SOL    HW217211   0.218   3.229   2.902  1.7853  1.3890  2.5150
 1917SOL     OW17212   0.204   3.922  10.362  0.0945  0.2587  0.5226
 1917SOL    HW117213   0.207   3.829  10.383  0.7796 -0.1402 -1.3116
 1917SOL    HW217214   0.269   3.922  10.292  0.3780  0.9170  0.7830
 1918SOL     OW17215   0.823   1.444   5.407 -0.1389  0.0408  0.5679
 1918SOL    HW117216   0.797   1.460   5.316 -1.4251 -1.3537  0.6900
 1918SOL    HW217217   0.858   1.531   5.423  2.2326 -0.6518 -0.8780
 1919SOL     OW17218   2.086   0.214  10.911  0.3165 -0.3968  0.6833
 1919SOL    HW117219   2.160   0.162  10.881 -0.2460 -1.7254  1.5851
 1919SOL    HW217220   2.094   0.196  11.005  2.0024 -0.5221  0.5059
 1920SOL     OW17221   1.521   3.772   7.617  0.0236  0.4778  0.1952
 1920SOL    HW117222   1.466   3.764   7.696  0.8152 -0.8249  0.6093
 1920SOL    HW217223   1.482   3.853   7.583 -1.2453 -0.3368 -0.2836
 1921SOL     OW17224   3.131   3.837   5.926  0.1233 -0.2149 -0.1096
 1921SOL    HW117225   3.115   3.778   5.853 -2.0863 -1.4355  1.3546
 1921SOL    HW217226   3.220   3.815   5.954 -0.6413 -0.1671  2.3983
 1922SOL     OW17227   1.149   1.114   3.307 -0.5948 -0.0791 -0.2565
 1922SOL    HW117228   1.209   1.071   3.368 -3.3643 -1.3044  1.6230
 1922SOL    HW217229   1.138   1.204   3.338 -0.9610 -0.1680 -0.1258
 1923SOL     OW17230   0.582   3.014   7.461 -0.2794 -0.1996 -0.1021
 1923SOL    HW117231   0.557   3.084   7.522  2.6227  1.2435 -0.5366
 1923SOL    HW217232   0.620   2.954   7.524 -2.3444  0.7737  2.0617
 1924SOL     OW17233   1.110   2.700  10.261 -0.3108  0.3237  0.1870
 1924SOL    HW117234   1.153   2.671  10.180 -2.3717  1.3049 -1.2643
 1924SOL    HW217235   1.051   2.631  10.290 -0.0836  0.3440  0.6846
 1925SOL     OW17236   2.908   0.903   5.192  0.3099 -0.2481 -0.0994
 1925SOL    HW117237   2.860   0.833   5.149 -1.7314  0.2339  1.3606
 1925SOL    HW217238   2.856   0.934   5.266  4.1137  0.0462  2.4460
 1926SOL     OW17239   2.491   0.860  15.113 -0.2564 -0.0407  0.0425
 1926SOL    HW117240   2.426   0.790  15.108 -0.1770 -0.1630  0.6720
 1926SOL    HW217241   2.538   0.860  15.030 -0.7822 -1.8747 -0.2405
 1927SOL     OW17242   2.828   3.082  10.334 -0.3196 -0.0960 -0.2278
 1927SOL    HW117243   2.897   3.146  10.349 -0.3401 -0.0021 -0.5400
 1927SOL    HW217244   2.800   3.094  10.243  1.6003  0.5423 -0.7315
 1928SOL     OW17245   2.846   1.380   4.266  0.8434 -0.2431 -0.2155
 1928SOL    HW117246   2.867   1.337   4.183 -1.2715  0.9640 -1.3627
 1928SOL    HW217247   2.864   1.471   4.242  0.9378 -0.7374 -2.0653
 1929SOL     OW17248   0.796   3.268   8.327 -0.7142  0.3415  0.0292
 1929SOL    HW117249   0.730   3.273   8.396 -1.0382  0.8688 -0.3190
 1929SOL    HW217250   0.838   3.185   8.348 -2.1664  0.2251  2.4988
 1930SOL     OW17251   0.521   0.110  15.011 -0.1250 -0.5081  0.1736
 1930SOL    HW117252   0.580   0.177  15.044  1.6193 -1.6509 -0.6229
 1930SOL    HW217253   0.570   0.064  14.942  0.6102 -0.0601  0.4002
 1931SOL     OW17254   4.092   3.453   3.776 -0.6296  0.1412 -0.7755
 1931SOL    HW117255   4.167   3.415   3.732 -0.1339  0.1571  0.0476
 1931SOL    HW217256   4.093   3.431   3.869 -0.2779 -0.6192 -0.9606
 1932SOL     OW17257   1.718   1.070   8.467  0.8282 -0.0011 -0.5896
 1932SOL    HW117258   1.672   1.107   8.542  0.2040  1.5342 -1.7291
 1932SOL    HW217259   1.666   0.991   8.451  4.2509 -2.0593 -1.5446
 1933SOL     OW17260   4.577   3.717   6.351 -0.8221  0.2757 -0.2576
 1933SOL    HW117261   4.636   3.651   6.387 -2.5932 -0.8857  0.5612
 1933SOL    HW217262   4.527   3.742   6.429  1.9547 -0.6410  1.7967
 1934SOL     OW17263   1.384   0.964   4.547 -0.0145  0.5728 -0.0304
 1934SOL    HW117264   1.456   0.999   4.494 -1.0880  1.3961 -0.9398
 1934SOL    HW217265   1.314   0.944   4.485 -0.4614  0.2858  0.5621
 1935SOL     OW17266   3.080   2.782   2.417 -0.1276  0.1611 -0.1486
 1935SOL    HW117267   3.159   2.763   2.366 -0.1644  1.4461 -0.6916
 1935SOL    HW217268   3.012   2.738   2.366 -0.2127 -0.9207  0.8929
 1936SOL     OW17269   2.234   4.089  15.054 -0.1456  0.0244  0.3748
 1936SOL    HW117270   2.261   4.000  15.079 -0.7523  0.1468  1.4816
 1936SOL    HW217271   2.303   4.141  15.093  0.7855  0.0304 -1.2690
 1937SOL     OW17272   0.390   4.114   5.688 -0.1662 -0.0098 -0.4992
 1937SOL    HW117273   0.305   4.073   5.702  0.5260 -0.9321  1.0756
 1937SOL    HW217274   0.367   4.172   5.616 -1.2859  0.8835  0.5754
 1938SOL     OW17275   3.215   4.427   8.761 -0.7391  0.4573  0.0279
 1938SOL    HW117276   3.224   4.522   8.770  0.8417  0.1664  1.5641
 1938SOL    HW217277   3.130   4.419   8.804 -1.4899  1.0088 -1.3627
 1939SOL     OW17278   2.971   0.798  15.234  0.0776  0.4040  0.1714
 1939SOL    HW117279   2.886   0.794  15.279  0.5286 -0.3600  0.9552
 1939SOL    HW217280   2.996   0.889  15.244  0.3214  0.3949 -0.3463
 1940SOL     OW17281   1.599   2.181   4.122  0.2330 -0.3143 -0.1977
 1940SOL    HW117282   1.547   2.226   4.189 -0.7173 -0.0227 -1.1261
 1940SOL    HW217283   1.680   2.232   4.126  0.6446 -1.0402  0.5848
 1941SOL     OW17284   0.196   2.170   9.297 -0.1125  0.0075 -0.8708
 1941SOL    HW117285   0.137   2.211   9.360 -0.8419 -1.2019 -0.7552
 1941SOL    HW217286   0.167   2.079   9.308  0.6423  0.4581  4.7766
 1942SOL     OW17287   1.404   2.136  13.115 -0.4801  0.1648  0.0228
 1942SOL    HW117288   1.379   2.228  13.105  1.5820  0.7150 -0.0494
 1942SOL    HW217289   1.412   2.110  13.023  1.3589 -0.3454  0.3352
 1943SOL     OW17290   3.816   4.196   2.535  0.9057 -0.2322  0.2838
 1943SOL    HW117291   3.860   4.264   2.586  1.3608 -0.0875 -0.3001
 1943SOL    HW217292   3.834   4.218   2.443  3.1894 -0.3613  0.7100
 1944SOL     OW17293   1.014   1.621   3.907 -0.5686  0.0488 -0.2564
 1944SOL    HW117294   0.943   1.642   3.846 -0.4128  1.8075  0.1590
 1944SOL    HW217295   0.993   1.664   3.989  4.2417  1.5483  0.2002
 1945SOL     OW17296   0.693   4.428  13.935  0.6492  0.2061 -0.0446
 1945SOL    HW117297   0.641   4.495  13.979  2.1562 -0.0889  2.2101
 1945SOL    HW217298   0.766   4.425  13.997  0.0537  0.3135  0.6620
 1946SOL     OW17299   0.749   2.228   6.676  0.0210  0.5098 -0.2654
 1946SOL    HW117300   0.794   2.230   6.591  1.0804 -1.7070  0.2434
 1946SOL    HW217301   0.698   2.149   6.658  1.1160 -0.5397  1.2732
 1947SOL     OW17302   1.829   4.318  12.107  0.5376  0.2103  0.1384
 1947SOL    HW117303   1.916   4.340  12.140  0.0187 -0.5330  2.0000
 1947SOL    HW217304   1.766   4.343  12.175  0.0683 -0.1872 -0.1511
 1948SOL     OW17305   4.056   3.887   9.514 -0.3022 -0.4230  0.0062
 1948SOL    HW117306   4.025   3.944   9.585  0.3209  1.3338 -1.1405
 1948SOL    HW217307   3.977   3.869   9.464  0.4886  0.2933 -1.5046
 1949SOL     OW17308   3.112   2.215   6.482 -0.2480 -0.4361  0.1069
 1949SOL    HW117309   3.159   2.193   6.563  0.3950  1.9809  0.3898
 1949SOL    HW217310   3.069   2.293   6.518 -0.3397 -0.7268  0.6269
 1950SOL     OW17311   3.938   4.190   2.201  0.1307  0.8490 -0.4179
 1950SOL    HW117312   4.006   4.257   2.208  1.0118  0.1361 -2.1525
 1950SOL    HW217313   3.997   4.115   2.206 -1.1571 -0.2889 -2.3517
 1951SOL     OW17314   2.442   3.947   6.183  0.4289  0.4504  0.2441
 1951SOL    HW117315   2.365   3.983   6.226  1.3862 -0.0746  2.3562
 1951SOL    HW217316   2.494   3.962   6.262  1.4922 -0.5188 -0.2773
 1952SOL     OW17317   1.057   0.175  11.029  0.4442  0.1682  0.3749
 1952SOL    HW117318   1.128   0.239  11.032 -0.1711  0.8269  0.8616
 1952SOL    HW217319   1.070   0.113  11.100 -0.4513 -2.1016 -1.4621
 1953SOL     OW17320   4.563   3.244   6.234  0.0816 -0.9785  0.6929
 1953SOL    HW117321   4.473   3.264   6.262 -0.4982  0.4965 -2.2519
 1953SOL    HW217322   4.606   3.249   6.319  1.1491 -1.7104  0.1954
 1954SOL     OW17323   3.039   3.504  15.349 -0.0332 -0.0292  0.1612
 1954SOL    HW117324   3.106   3.526  15.284 -0.1749  1.2443  0.4417
 1954SOL    HW217325   2.971   3.455  15.301 -1.5103 -1.0437  3.3237
 1955SOL     OW17326   3.574   2.075  10.675  0.3296  0.0637  0.8236
 1955SOL    HW117327   3.479   2.084  10.674  0.3686  0.3695 -1.0921
 1955SOL    HW217328   3.611   2.163  10.683  3.3585 -1.1683  0.6404
 1956SOL     OW17329   0.766   2.897   2.026  0.0226 -0.3246  0.2176
 1956SOL    HW117330   0.841   2.953   2.008 -0.4424  0.4131  0.5763
 1956SOL    HW217331   0.802   2.813   1.999  0.8087  1.2960 -3.7299
 1957SOL     OW17332   4.343   3.442  12.161 -0.0701  0.1325 -0.5025
 1957SOL    HW117333   4.427   3.447  12.117  0.7780 -1.1102  0.9810
 1957SOL    HW217334   4.283   3.421  12.090 -1.4915 -0.9355  0.9875
 1958SOL     OW17335   2.869   2.200  14.174  0.2884  0.2108  0.1468
 1958SOL    HW117336   2.877   2.216  14.080  0.9709 -0.9772  0.0015
 1958SOL    HW217337   2.932   2.266  14.203 -1.6374  1.6805  1.0369
 1959SOL     OW17338   3.817   1.939   1.238 -0.0389 -0.3562  0.0790
 1959SOL    HW117339   3.778   1.851   1.233  1.0805 -0.8664  0.1724
 1959SOL    HW217340   3.741   1.993   1.257 -2.1305 -3.1221 -0.3686
 1960SOL     OW17341   2.168   3.300   3.559  0.3734  0.5008  0.0757
 1960SOL    HW117342   2.202   3.314   3.470  1.9639 -0.7383  0.4973
 1960SOL    HW217343   2.166   3.385   3.604 -5.9915 -0.6346  1.9761
 1961SOL     OW17344   4.637   3.684   9.672  0.3346 -0.3294  0.1560
 1961SOL    HW117345   4.693   3.759   9.695  0.3040  0.2741 -1.7190
 1961SOL    HW217346   4.699   3.623   9.632  1.8317  0.3677  1.4322
 1962SOL     OW17347   1.714   3.381  13.516  0.0689 -0.7666 -0.0343
 1962SOL    HW117348   1.737   3.465  13.477 -0.3831 -0.3412  0.6175
 1962SOL    HW217349   1.796   3.356  13.558 -1.0683 -1.7099  1.6349
 1963SOL     OW17350   0.186   2.759   4.119  0.6001 -0.4321 -0.2867
 1963SOL    HW117351   0.196   2.849   4.088 -1.3738  0.1127  0.6619
 1963SOL    HW217352   0.161   2.776   4.210 -0.5424 -0.0785 -0.6534
 1964SOL     OW17353   2.319   0.988  12.193  1.0162 -0.0127 -0.2166
 1964SOL    HW117354   2.302   1.082  12.185  0.0107 -0.2689 -1.1918
 1964SOL    HW217355   2.249   0.951  12.139  0.9933 -0.2120 -0.0493
 1965SOL     OW17356   0.955   4.493   2.179 -0.4473 -0.1012  0.5368
 1965SOL    HW117357   1.002   4.445   2.111 -1.2176 -2.8670  1.9781
 1965SOL    HW217358   0.885   4.430   2.194  1.3498 -2.5812 -1.5746
 1966SOL     OW17359   0.620   2.504   3.120 -0.1376  0.7978  0.1845
 1966SOL    HW117360   0.681   2.577   3.130  1.2483 -0.3835  0.2954
 1966SOL    HW217361   0.629   2.459   3.205  0.0907  1.2248  0.3876
 1967SOL     OW17362   2.840   1.389   6.559  0.0646  0.0132  0.0573
 1967SOL    HW117363   2.911   1.416   6.617  1.1825  0.2298 -1.4032
 1967SOL    HW217364   2.759   1.398   6.610 -0.3298 -0.7949 -0.4336
 1968SOL     OW17365   3.930   3.451   5.236  0.0544 -0.1143 -0.1861
 1968SOL    HW117366   3.995   3.521   5.249  0.9363 -0.9302 -0.1717
 1968SOL    HW217367   3.859   3.485   5.290 -0.1526 -0.1865 -0.4176
 1969SOL     OW17368   3.140   0.180  12.119 -0.1739  0.2125 -0.1507
 1969SOL    HW117369   3.065   0.144  12.071 -1.1059  0.1174  1.3521
 1969SOL    HW217370   3.142   0.119  12.193 -0.0701 -1.0072 -1.1572
 1970SOL     OW17371   2.708   4.539   0.571  0.5398  0.9531 -0.8161
 1970SOL    HW117372   2.658   4.505   0.645  0.6094 -1.9354 -2.1019
 1970SOL    HW217373   2.642   4.585   0.518 -0.5975  0.5964  0.3042
 1971SOL     OW17374   1.798   1.668   8.535  0.0958  0.7310 -0.0622
 1971SOL    HW117375   1.776   1.753   8.575 -0.4993  0.4408  0.2236
 1971SOL    HW217376   1.891   1.670   8.512  0.1364  2.9442  0.2279
 1972SOL     OW17377   2.126   3.880  17.148 -0.0432  0.1586 -0.2687
 1972SOL    HW117378   2.187   3.905  17.079  0.6815 -0.4938  0.1339
 1972SOL    HW217379   2.173   3.810  17.193  0.1527  0.1063 -0.5535
 1973SOL     OW17380   4.029   2.912  11.560 -0.6515  0.0941  0.2641
 1973SOL    HW117381   4.046   2.992  11.510  0.3243 -0.6621 -0.6245
 1973SOL    HW217382   4.096   2.908  11.628 -0.8865  0.8021  0.5385
 1974SOL     OW17383   1.681   4.245  15.267 -0.3253  0.3721  0.2968
 1974SOL    HW117384   1.735   4.172  15.236  1.8623  2.1081 -0.0057
 1974SOL    HW217385   1.733   4.324  15.251 -1.8684  1.3555  0.1112
 1975SOL     OW17386   2.448   2.253   6.430 -0.5746 -0.8013  0.5069
 1975SOL    HW117387   2.393   2.190   6.476  0.6104 -0.0776  2.9235
 1975SOL    HW217388   2.428   2.331   6.483 -0.5535 -0.4733  0.0307
 1976SOL     OW17389   2.573   3.472   2.646 -0.2195  0.2838 -0.8159
 1976SOL    HW117390   2.668   3.486   2.642 -0.6043  3.7433  2.7206
 1976SOL    HW217391   2.565   3.378   2.632  0.8956 -0.2094  1.8171
 1977SOL     OW17392   1.624   1.400   3.834 -0.1223  0.3801  0.0189
 1977SOL    HW117393   1.560   1.412   3.764  0.8511  0.0720 -0.9250
 1977SOL    HW217394   1.598   1.478   3.882 -0.5546 -0.0870  0.5548
 1978SOL     OW17395   4.550   2.975   3.409 -0.0204 -0.2639  0.4506
 1978SOL    HW117396   4.466   3.020   3.403  1.4239  2.4128  0.5397
 1978SOL    HW217397   4.599   3.046   3.369 -1.0590 -0.5934 -1.4101
 1979SOL     OW17398   2.713   3.384  16.945  0.6020  0.9015  0.0824
 1979SOL    HW117399   2.742   3.411  16.858  1.0966 -1.7727 -0.5712
 1979SOL    HW217400   2.638   3.442  16.962 -0.1211  0.4733 -1.6322
 1980SOL     OW17401   1.086   0.901   9.903  0.2679  0.4143 -0.0981
 1980SOL    HW117402   1.131   0.824   9.867 -0.7260 -0.2633  0.1161
 1980SOL    HW217403   1.018   0.860   9.956 -0.5038 -0.0536 -1.4227
 1981SOL     OW17404   3.809   1.937   8.353 -0.3938  0.9853  0.0659
 1981SOL    HW117405   3.806   1.848   8.388 -1.4448  0.7343 -0.6871
 1981SOL    HW217406   3.758   1.984   8.418 -0.6560 -0.4514  0.8923
 1982SOL     OW17407   0.724   1.627   7.327 -0.6227  0.2035 -0.2094
 1982SOL    HW117408   0.643   1.674   7.307  0.0839  1.8150  0.7323
 1982SOL    HW217409   0.686   1.541   7.345 -1.6749  0.2401 -2.3060
 1983SOL     OW17410   1.223   4.122   4.896  0.1281  0.2539 -0.4997
 1983SOL    HW117411   1.269   4.106   4.814 -0.2100 -0.1482 -0.6114
 1983SOL    HW217412   1.183   4.208   4.887 -0.3121 -0.0654 -1.5754
 1984SOL     OW17413   2.192   1.893   4.456  0.4025 -0.4948 -0.0845
 1984SOL    HW117414   2.162   1.822   4.513  1.5405  1.0728  2.4661
 1984SOL    HW217415   2.267   1.846   4.420  1.4868  0.1525  1.2965
 1985SOL     OW17416   3.644   0.689   3.029 -0.2726 -0.1333  0.3753
 1985SOL    HW117417   3.554   0.686   3.062  0.4963  0.4930  2.4903
 1985SOL    HW217418   3.665   0.596   3.024  0.1780 -0.0044 -0.1690
 1986SOL     OW17419   1.210   0.488   7.201 -0.6056  0.5027  0.0225
 1986SOL    HW117420   1.243   0.576   7.184 -0.4676  0.8083  1.8676
 1986SOL    HW217421   1.130   0.502   7.252  0.0446  1.3168  0.8225
 1987SOL     OW17422   2.823   3.971   7.976 -0.2916 -0.1542  0.2979
 1987SOL    HW117423   2.898   4.017   7.938 -0.2867 -0.8913 -0.5741
 1987SOL    HW217424   2.789   3.934   7.895 -1.1662  1.1349  0.0749
 1988SOL     OW17425   3.021   4.343   4.356 -0.2895  0.0782 -0.9273
 1988SOL    HW117426   3.080   4.269   4.366 -1.3071 -0.4886  0.8801
 1988SOL    HW217427   2.937   4.298   4.348 -0.4488  0.0627  0.9094
 1989SOL     OW17428   3.989   1.802  11.316 -0.1448 -0.1155 -0.2238
 1989SOL    HW117429   4.083   1.790  11.331  0.3618  2.6400 -1.1185
 1989SOL    HW217430   3.989   1.894  11.289 -1.6843 -0.5510 -1.6700
 1990SOL     OW17431   3.520   2.431  16.646 -0.1131 -0.0614 -0.2633
 1990SOL    HW117432   3.570   2.513  16.644  1.8996 -1.2819  0.2833
 1990SOL    HW217433   3.444   2.475  16.684 -0.9655 -2.8237  1.2071
 1991SOL     OW17434   1.681   4.455   4.038  0.0575 -0.4085 -0.2737
 1991SOL    HW117435   1.633   4.527   4.078 -0.5665 -1.4196  0.7813
 1991SOL    HW217436   1.763   4.497   4.011 -0.0700 -0.4287 -0.6875
 1992SOL     OW17437   2.446   2.367   1.979 -0.2130  0.0624 -0.0293
 1992SOL    HW117438   2.403   2.301   1.926  5.6854 -2.5677 -1.5640
 1992SOL    HW217439   2.515   2.321   2.027 -1.1039 -0.9271  0.3025
 1993SOL     OW17440   2.236   2.348   6.816  0.5940 -0.2137 -0.2675
 1993SOL    HW117441   2.213   2.280   6.880 -0.2927  0.7617  0.4702
 1993SOL    HW217442   2.296   2.406   6.864 -2.6641  2.3072  0.7829
 1994SOL     OW17443   3.936   3.872  12.178 -0.0126 -0.6439  0.4567
 1994SOL    HW117444   3.899   3.942  12.233 -1.9929  0.0900 -1.8001
 1994SOL    HW217445   3.922   3.902  12.088  2.6920 -1.1492 -0.1330
 1995SOL     OW17446   4.561   4.539   7.837 -0.2438  0.2316  0.7290
 1995SOL    HW117447   4.654   4.559   7.835 -0.7484  2.6266  0.7764
 1995SOL    HW217448   4.511   4.566   7.759 -0.4808  0.7186  1.0455
 1996SOL     OW17449   4.110   0.340   3.661 -0.7904  0.8305 -0.0039
 1996SOL    HW117450   4.030   0.343   3.714 -0.8650 -0.5626 -0.0395
 1996SOL    HW217451   4.145   0.427   3.681 -0.0152  0.9207 -1.7746
 1997SOL     OW17452   1.542   3.011   3.887 -0.1100 -0.5299 -0.5409
 1997SOL    HW117453   1.637   2.996   3.883 -0.1634 -0.6041 -1.4935
 1997SOL    HW217454   1.521   3.021   3.794  0.3322  1.7242 -0.4111
 1998SOL     OW17455   1.152   4.213   2.537 -0.0948  0.4768 -0.4655
 1998SOL    HW117456   1.151   4.284   2.601  0.5368  0.0521  0.0128
 1998SOL    HW217457   1.243   4.203   2.510  0.0258  0.6102 -0.1136
 1999SOL     OW17458   4.476   1.458   9.385 -0.7956 -0.1427  0.3798
 1999SOL    HW117459   4.423   1.520   9.436  0.7602  0.7620  0.9025
 1999SOL    HW217460   4.523   1.409   9.452  0.7895 -0.4177 -0.9452
 2000SOL     OW17461   3.262   4.295   8.496  0.3886 -0.0437 -0.0654
 2000SOL    HW117462   3.259   4.346   8.577  0.1063 -1.6097  0.9008
 2000SOL    HW217463   3.173   4.293   8.462  1.0154  1.2978 -1.8035
 2001SOL     OW17464   2.965   2.129  16.606  0.0382 -0.1045 -0.5136
 2001SOL    HW117465   2.983   2.046  16.562 -0.3259 -0.9503  0.9436
 2001SOL    HW217466   3.016   2.194  16.557 -0.5377  0.6466 -0.1106
 2002SOL     OW17467   3.985   4.141  16.014 -0.0742  0.0308  0.2167
 2002SOL    HW117468   4.056   4.202  15.993  0.0647 -0.3965 -0.5697
 2002SOL    HW217469   3.941   4.204  16.071 -0.0695  2.4109 -2.4272
 2003SOL     OW17470   3.030   2.509   8.375  0.1713  0.9642 -0.2136
 2003SOL    HW117471   2.992   2.463   8.450  0.7291  0.5283 -0.1996
 2003SOL    HW217472   3.111   2.460   8.387  0.1139  1.1987  1.1628
 2004SOL     OW17473   1.098   1.250   3.057 -0.6225  0.0444  0.2720
 2004SOL    HW117474   1.136   1.333   3.088 -2.4149  1.9655 -2.6644
 2004SOL    HW217475   1.114   1.197   3.135  2.1548  1.9138  0.9556
 2005SOL     OW17476   0.944   1.955  16.860 -0.5848 -0.2288  0.0493
 2005SOL    HW117477   0.903   1.972  16.945  1.0020  2.0708  0.3597
 2005SOL    HW217478   1.013   1.898  16.890 -0.8406  0.5609  2.1250
 2006SOL     OW17479   3.137   0.715   7.298 -0.4121 -0.1723  0.0683
 2006SOL    HW117480   3.194   0.760   7.359 -0.2972 -1.6124  1.0260
 2006SOL    HW217481   3.192   0.696   7.222 -3.0721 -1.7384 -1.4799
 2007SOL     OW17482   3.595   4.318  16.809  0.2549  0.2317 -0.2067
 2007SOL    HW117483   3.574   4.240  16.861 -0.8229  0.3520 -0.4697
 2007SOL    HW217484   3.643   4.376  16.869  1.1894 -0.6824 -0.0643
 2008SOL     OW17485   0.477   2.189   4.658  0.2463 -0.3615  0.2205
 2008SOL    HW117486   0.492   2.278   4.691 -0.1934  0.6069 -2.1660
 2008SOL    HW217487   0.528   2.131   4.713 -0.7867 -0.5543  0.9808
 2009SOL     OW17488   1.495   2.900   6.315 -0.1556  0.1788  0.2784
 2009SOL    HW117489   1.494   2.883   6.409  0.4615 -0.0800  0.2399
 2009SOL    HW217490   1.414   2.951   6.310 -0.3577 -0.3002 -1.3280
 2010SOL     OW17491   4.013   3.058   9.803 -0.2189 -0.3416  0.1984
 2010SOL    HW117492   3.953   2.996   9.763 -0.7192  1.2958 -1.6019
 2010SOL    HW217493   4.082   3.002   9.839  1.1114  0.3300 -1.2944
 2011SOL     OW17494   1.285   4.499   7.629 -0.4111  0.2812  0.5881
 2011SOL    HW117495   1.198   4.529   7.602 -0.9627 -0.2788  1.7579
 2011SOL    HW217496   1.345   4.547   7.572 -2.1704  1.3253 -0.3823
 2012SOL     OW17497   1.553   0.705   3.862 -0.0492  0.8249  0.2620
 2012SOL    HW117498   1.507   0.685   3.781  1.2145  0.7142 -0.4297
 2012SOL    HW217499   1.592   0.790   3.842 -0.5158  1.1114  0.5710
 2013SOL     OW17500   0.680   0.674   7.584  0.2078  0.2782  0.2320
 2013SOL    HW117501   0.643   0.689   7.497 -0.3869  0.9275  0.6029
 2013SOL    HW217502   0.644   0.586   7.599  1.9231 -0.3787  0.4904
 2014SOL     OW17503   4.640   1.760   6.980 -0.1806 -0.6626 -0.7966
 2014SOL    HW117504   4.672   1.682   7.027  1.0002  1.3568  1.7532
 2014SOL    HW217505   4.715   1.809   6.950  0.4456 -1.1339 -0.0197
 2015SOL     OW17506   1.988   3.813  16.604  0.0198 -0.2725 -0.2981
 2015SOL    HW117507   1.953   3.860  16.528 -0.2577 -0.3365 -0.2093
 2015SOL    HW217508   1.949   3.864  16.675 -0.5058  0.0201 -0.7987
 2016SOL     OW17509   3.491   1.536   5.086 -0.0918 -0.3128 -0.4314
 2016SOL    HW117510   3.427   1.596   5.124 -0.8651 -0.7947 -0.9777
 2016SOL    HW217511   3.489   1.564   4.995 -0.8151  1.5519  0.1685
 2017SOL     OW17512   0.777   2.245  17.010  0.0373  0.1032 -0.1307
 2017SOL    HW117513   0.735   2.303  17.073  3.4594  1.5243  0.8454
 2017SOL    HW217514   0.796   2.314  16.946 -0.3217  1.1995  0.9435
 2018SOL     OW17515   1.740   4.250   5.822 -0.3872  0.1236 -0.2092
 2018SOL    HW117516   1.712   4.291   5.904  2.7605  1.7215  0.0710
 2018SOL    HW217517   1.692   4.304   5.759  0.9322  1.0234 -0.4491
 2019SOL     OW17518   0.921   0.232   7.307  0.1862  0.4661 -0.0421
 2019SOL    HW117519   0.884   0.145   7.295  1.0837  0.2993 -1.4965
 2019SOL    HW217520   0.885   0.288   7.239  0.1170 -0.4492 -0.7606
 2020SOL     OW17521   1.724   3.159   6.713 -0.3772 -0.1187  0.3500
 2020SOL    HW117522   1.726   3.065   6.693  0.0179 -0.4448  1.8846
 2020SOL    HW217523   1.806   3.192   6.677 -1.4785  1.1827 -0.9143
 2021SOL     OW17524   1.886   2.313  13.367 -0.3313  0.1641 -0.2756
 2021SOL    HW117525   1.795   2.329  13.393 -0.8332  0.0652 -1.9531
 2021SOL    HW217526   1.891   2.397  13.320  0.8478 -0.5131 -1.3702
 2022SOL     OW17527   1.208   3.687  12.979  0.0041 -0.3596 -0.0637
 2022SOL    HW117528   1.296   3.684  12.943 -0.4997  0.2763 -1.3384
 2022SOL    HW217529   1.228   3.747  13.050 -1.8715  0.4248 -0.1893
 2023SOL     OW17530   2.302   4.152   4.132  0.2075 -0.6144 -0.3408
 2023SOL    HW117531   2.268   4.063   4.135  0.5218 -0.8427 -3.8500
 2023SOL    HW217532   2.297   4.175   4.039  4.4599 -0.0753 -0.4788
 2024SOL     OW17533   4.024   4.549   5.020  0.2517 -0.1680  0.4135
 2024SOL    HW117534   3.986   4.621   4.968  0.7877 -0.2641 -0.1113
 2024SOL    HW217535   4.054   4.482   4.958 -1.8493 -0.6978 -0.0538
 2025SOL     OW17536   2.300   1.940   2.937  0.4137 -0.1265 -0.8478
 2025SOL    HW117537   2.347   1.884   2.875  4.3372  1.6362  0.5016
 2025SOL    HW217538   2.216   1.957   2.895  1.2404 -0.9522 -2.8009
 2026SOL     OW17539   3.457   4.085   3.459  1.2151  0.0070 -0.0386
 2026SOL    HW117540   3.534   4.029   3.470  0.6693 -0.4067  1.7327
 2026SOL    HW217541   3.494   4.173   3.449  0.0123  0.7500  2.1914
 2027SOL     OW17542   3.214   1.213   6.806  0.0411  0.3477 -0.0900
 2027SOL    HW117543   3.279   1.172   6.865  2.1391  2.2782 -1.0676
 2027SOL    HW217544   3.270   1.290   6.796  0.2667 -0.0596 -1.9361
 2028SOL     OW17545   1.241   3.119   1.904  0.2484 -0.9567  0.2603
 2028SOL    HW117546   1.249   3.208   1.940  2.5603 -1.5522  1.2265
 2028SOL    HW217547   1.283   3.126   1.818 -0.1661 -1.0057  0.0527
 2029SOL     OW17548   2.869   4.535   3.641  0.2347 -0.5448 -0.1431
 2029SOL    HW117549   2.896   4.526   3.550  0.8174 -2.7370  0.2413
 2029SOL    HW217550   2.952   4.513   3.682 -0.5004 -1.9342  0.6033
 2030SOL     OW17551   1.935   0.903   3.343  0.5658  0.7612  0.5210
 2030SOL    HW117552   1.995   0.895   3.269  0.6832  1.5662  0.5308
 2030SOL    HW217553   1.859   0.845   3.329 -0.1003  1.8085 -0.2562
 2031SOL     OW17554   4.405   2.645  16.986  0.3629 -0.0407  0.0921
 2031SOL    HW117555   4.465   2.626  17.058  1.2354  0.6619 -0.4507
 2031SOL    HW217556   4.321   2.620  17.025  0.3061 -0.6993 -0.4484
 2032SOL     OW17557   0.643   2.903   9.935 -0.2890 -0.3095 -0.2522
 2032SOL    HW117558   0.711   2.837   9.951  0.2617  0.6364  1.2725
 2032SOL    HW217559   0.680   2.972   9.989  0.3378 -0.9551  0.1359
 2033SOL     OW17560   2.966   1.132   7.303  0.4992 -0.4950  0.6223
 2033SOL    HW117561   2.950   1.226   7.292 -1.8293 -0.9439  0.1643
 2033SOL    HW217562   2.925   1.100   7.222  0.3647  1.7911 -0.2090
 2034SOL     OW17563   3.675   0.815  13.984 -0.0228 -0.1430 -0.3044
 2034SOL    HW117564   3.661   0.755  14.057  0.2931  1.9920  1.4925
 2034SOL    HW217565   3.653   0.894  14.032  1.7683  0.7157 -0.8967
 2035SOL     OW17566   4.637   0.679  16.785 -0.3080  0.0286  0.3918
 2035SOL    HW117567   4.715   0.644  16.740 -0.4920 -0.0812  0.1586
 2035SOL    HW217568   4.614   0.759  16.739  0.9881  0.3153  0.2396
 2036SOL     OW17569   3.525   3.533  11.090 -0.7380  0.1177  0.0024
 2036SOL    HW117570   3.609   3.578  11.080 -0.1003 -0.5082  2.6678
 2036SOL    HW217571   3.546   3.441  11.077 -0.4920  0.0973  0.5719
 2037SOL     OW17572   3.372   3.819   5.309 -0.0035  0.4665  0.3260
 2037SOL    HW117573   3.348   3.780   5.394 -1.9320  0.5652 -0.1592
 2037SOL    HW217574   3.388   3.906   5.345 -0.2279  1.1337 -1.1682
 2038SOL     OW17575   3.197   4.041  14.848 -0.2479 -0.5826  0.4755
 2038SOL    HW117576   3.112   4.035  14.892 -0.3158 -1.8269  0.1861
 2038SOL    HW217577   3.227   4.129  14.871 -2.9814 -0.2138  2.5891
 2039SOL     OW17578   2.487   1.873  17.175  0.5839 -0.2178 -0.4086
 2039SOL    HW117579   2.408   1.869  17.230  1.8844 -3.3492  1.2241
 2039SOL    HW217580   2.561   1.856  17.233  0.8087 -1.3532 -1.0396
 2040SOL     OW17581   3.863   4.062   6.499  0.0269  0.0622 -0.2255
 2040SOL    HW117582   3.779   4.017   6.510 -0.5354  0.8462 -1.4152
 2040SOL    HW217583   3.826   4.124   6.438 -0.5816  0.2132  0.2916
 2041SOL     OW17584   4.258   2.654  16.605  0.3983 -0.1973  0.6154
 2041SOL    HW117585   4.303   2.718  16.659  0.2105 -0.3877  1.0001
 2041SOL    HW217586   4.196   2.710  16.558  3.3596  1.7151 -0.9957
 2042SOL     OW17587   4.336   1.673   8.829  0.1055  0.9342  0.0958
 2042SOL    HW117588   4.394   1.749   8.837 -1.2824  1.9464  0.5752
 2042SOL    HW217589   4.248   1.711   8.838 -0.3089 -0.2662  1.1070
 2043SOL     OW17590   2.244   4.036   8.999 -0.4755  0.1645 -0.3997
 2043SOL    HW117591   2.309   4.081   9.053 -1.4185 -0.4529  1.2727
 2043SOL    HW217592   2.301   4.012   8.927  0.3670  0.3163  0.2159
 2044SOL     OW17593   3.983   1.095   0.095  0.0209  0.1288  0.7402
 2044SOL    HW117594   3.930   1.138   0.162 -2.4958 -0.5028 -0.8634
 2044SOL    HW217595   4.028   1.030   0.149  1.0921  1.7166  1.7922
 2045SOL     OW17596   3.355   2.722   3.176  0.0411 -0.4302  0.4275
 2045SOL    HW117597   3.418   2.787   3.144  1.5861 -1.6690  0.9846
 2045SOL    HW217598   3.410   2.652   3.210  1.0034  0.1800  0.1068
 2046SOL     OW17599   0.621   1.968   0.010  0.5205  0.6245 -0.2978
 2046SOL    HW117600   0.531   1.937   0.008  0.7522  0.0267 -1.3374
 2046SOL    HW217601   0.670   1.912  17.636 -1.6340 -0.4843 -1.0318
 2047SOL     OW17602   2.299   4.684   6.142  0.2788 -0.1722  0.0932
 2047SOL    HW117603   2.300   4.592   6.169  0.5270  0.2137  1.4406
 2047SOL    HW217604   2.274   4.676   6.050  0.3406 -0.2244  0.0814
 2048SOL     OW17605   2.745   1.644  12.522 -0.5366  0.1842 -0.6715
 2048SOL    HW117606   2.724   1.568  12.576 -3.2110  1.8485  0.6103
 2048SOL    HW217607   2.817   1.607  12.470 -0.9145 -1.1988 -0.2208
 2049SOL     OW17608   3.953   3.045  13.883 -0.0209 -0.8334 -0.1322
 2049SOL    HW117609   3.928   2.996  13.805  0.6192 -1.0690 -0.1836
 2049SOL    HW217610   3.866   3.085  13.893 -0.1305 -1.2332  0.5046
 2050SOL     OW17611   1.917   2.333   5.225 -0.1330  0.4016 -0.2208
 2050SOL    HW117612   1.932   2.284   5.144 -1.9622 -0.3776 -0.0996
 2050SOL    HW217613   1.998   2.314   5.273  0.1520 -0.1496 -0.9185
 2051SOL     OW17614   3.694   0.047   2.904 -0.6259 -0.3482  0.5372
 2051SOL    HW117615   3.709   0.132   2.945  1.7916  0.6427 -2.4159
 2051SOL    HW217616   3.772   4.714   2.921  0.6409  0.5055 -2.6045
 2052SOL     OW17617   2.793   0.557  14.146 -0.5479 -0.2160 -0.6090
 2052SOL    HW117618   2.826   0.626  14.202  1.9652  0.6164 -3.1701
 2052SOL    HW217619   2.762   0.493  14.210 -1.3482 -1.6710 -2.4469
 2053SOL     OW17620   3.386   2.269   6.949 -0.3422 -0.1507  0.2596
 2053SOL    HW117621   3.386   2.363   6.967  0.0264  0.2843 -1.9650
 2053SOL    HW217622   3.418   2.233   7.031  0.6253  1.7762  0.7437
 2054SOL     OW17623   0.231   1.126   7.496 -0.0326 -0.0567  0.3619
 2054SOL    HW117624   0.178   1.155   7.422 -1.7974  0.5463  1.8701
 2054SOL    HW217625   0.247   1.032   7.485 -1.8815 -0.4087  0.6725
 2055SOL     OW17626   4.411   3.406   8.439 -0.1457  1.0005  0.4750
 2055SOL    HW117627   4.415   3.326   8.491 -0.7739  1.0351  0.5831
 2055SOL    HW217628   4.379   3.464   8.508 -1.6434  1.0660 -0.2772
 2056SOL     OW17629   2.103   3.226   2.693  0.4873  0.4205  0.1056
 2056SOL    HW117630   2.130   3.153   2.638  0.2124 -1.0068  1.8656
 2056SOL    HW217631   2.178   3.231   2.751 -1.7043 -0.7735  3.0849
 2057SOL     OW17632   1.859   4.553   7.800 -0.4488 -0.0882  0.0138
 2057SOL    HW117633   1.948   4.529   7.773  0.1995  0.1307  1.9513
 2057SOL    HW217634   1.833   4.465   7.830 -0.8122  0.4789  1.3647
 2058SOL     OW17635   2.551   2.460  15.207  0.1311 -0.0339  0.0260
 2058SOL    HW117636   2.582   2.416  15.128 -0.8361  0.3537 -0.5710
 2058SOL    HW217637   2.584   2.550  15.198 -0.3457  0.1771  0.4036
 2059SOL     OW17638   4.612   0.939   4.097 -0.1288  0.1252  0.0155
 2059SOL    HW117639   4.521   0.925   4.121 -0.4394 -1.0905 -1.8752
 2059SOL    HW217640   4.645   0.965   4.183  2.2918  2.7567 -1.6904
 2060SOL     OW17641   0.652   0.928   6.606 -0.0838  0.2260 -0.2176
 2060SOL    HW117642   0.642   0.834   6.590  0.2834  0.0847  0.3849
 2060SOL    HW217643   0.734   0.949   6.562  2.2517 -1.3113  3.4420
 2061SOL     OW17644   2.919   1.553   5.183 -0.0316  0.3586 -0.4146
 2061SOL    HW117645   2.834   1.545   5.226 -0.2260  2.0477 -0.4867
 2061SOL    HW217646   2.924   1.461   5.156  0.4441  0.2372  0.0747
 2062SOL     OW17647   1.218   4.056   0.105  0.5750 -0.5665  0.1314
 2062SOL    HW117648   1.128   4.025   0.089  0.8607 -0.8605 -0.8895
 2062SOL    HW217649   1.249   4.057   0.015 -0.8606  1.1346 -0.3574
 2063SOL     OW17650   1.707   2.654  10.207  0.3380  0.4882 -0.0337
 2063SOL    HW117651   1.634   2.603  10.172  1.2818  0.6294 -2.2559
 2063SOL    HW217652   1.656   2.722  10.251  1.5078  1.1209  0.3421
 2064SOL     OW17653   2.324   0.054   8.998  0.6495 -0.2520  0.2860
 2064SOL    HW117654   2.345   4.681   8.991 -1.4176 -0.8609  1.8402
 2064SOL    HW217655   2.412   0.079   9.024  0.6571  1.9603 -1.9436
 2065SOL     OW17656   2.577   0.846  14.652  0.0028 -0.3614  0.3379
 2065SOL    HW117657   2.571   0.831  14.558  0.2338 -1.0862  0.4407
 2065SOL    HW217658   2.605   0.937  14.643 -1.0141 -0.0377  0.3693
 2066SOL     OW17659   3.038   4.019   6.939  0.2926 -0.0398 -0.1911
 2066SOL    HW117660   3.005   3.938   6.977 -0.6684  0.1865 -0.5609
 2066SOL    HW217661   3.131   3.994   6.944  0.4208  0.7482  1.4764
 2067SOL     OW17662   2.877   0.842   7.275  0.3524  0.1600 -0.1449
 2067SOL    HW117663   2.902   0.910   7.211 -0.4144  1.6216  1.0997
 2067SOL    HW217664   2.963   0.803   7.291  0.2599 -0.1098 -0.3044
 2068SOL     OW17665   1.179   0.691  10.252 -0.2148 -0.0163 -0.6322
 2068SOL    HW117666   1.087   0.683  10.224 -0.9050 -1.5520  2.1238
 2068SOL    HW217667   1.171   0.675  10.346  0.7449  1.4906 -0.2849
 2069SOL     OW17668   0.190   4.118   6.679  0.6360 -0.7358  0.0245
 2069SOL    HW117669   0.215   4.151   6.765 -1.5524  0.4259  0.2189
 2069SOL    HW217670   0.104   4.080   6.696  0.0502  1.1849  1.3058
 2070SOL     OW17671   2.205   0.775   1.755 -0.5018  0.6710 -0.2272
 2070SOL    HW117672   2.162   0.700   1.714 -0.1608  0.3125  0.0752
 2070SOL    HW217673   2.247   0.737   1.832 -1.1251 -0.2168 -0.3157
 2071SOL     OW17674   2.202   3.036   7.344  0.3587 -1.1135 -0.1143
 2071SOL    HW117675   2.111   3.008   7.336 -0.1376 -0.2891  2.4063
 2071SOL    HW217676   2.230   3.051   7.254  1.7645  2.3772  0.8875
 2072SOL     OW17677   2.819   0.563   3.435 -0.1168  0.3551 -0.1322
 2072SOL    HW117678   2.788   0.488   3.384 -0.6466  1.0262 -0.7888
 2072SOL    HW217679   2.772   0.632   3.389 -1.7452 -0.8011 -0.2347
 2073SOL     OW17680   0.426   1.292   4.603  0.0779 -1.6904 -0.0350
 2073SOL    HW117681   0.517   1.289   4.631  0.6165  0.4760 -1.5608
 2073SOL    HW217682   0.420   1.387   4.612 -1.0832 -1.8244  0.7244
 2074SOL     OW17683   2.303   2.739   4.781  0.4328  0.1897 -0.2583
 2074SOL    HW117684   2.215   2.773   4.798  0.9952  2.1925 -1.3940
 2074SOL    HW217685   2.315   2.669   4.845 -1.6205 -1.7501 -1.9645
 2075SOL     OW17686   0.322   2.123   1.459 -0.1648 -0.0989  0.3252
 2075SOL    HW117687   0.287   2.068   1.390 -0.7086 -0.0423  0.5569
 2075SOL    HW217688   0.399   2.167   1.422  0.0383 -0.2987  0.5076
 2076SOL     OW17689   0.851   1.547   2.252  0.3676  0.2423 -0.0009
 2076SOL    HW117690   0.845   1.487   2.177 -1.8087  0.9012 -0.3474
 2076SOL    HW217691   0.946   1.561   2.259 -0.1384  2.5878  2.1659
 2077SOL     OW17692   2.818   1.053  10.320 -0.1064  0.1708 -0.2855
 2077SOL    HW117693   2.834   1.063  10.414 -0.2621  1.5367 -0.4135
 2077SOL    HW217694   2.875   0.975  10.315 -0.5321 -0.2557  1.8169
 2078SOL     OW17695   2.683   1.836   8.045  0.4743 -0.1536 -0.5359
 2078SOL    HW117696   2.715   1.826   8.134 -2.2870 -0.4667  0.4417
 2078SOL    HW217697   2.656   1.744   8.038  1.2651 -0.5685  2.0214
 2079SOL     OW17698   4.482   2.193   4.934 -0.2471 -0.2120 -0.2043
 2079SOL    HW117699   4.546   2.123   4.934  0.1130  0.1140  0.1445
 2079SOL    HW217700   4.498   2.226   5.023 -0.4279  1.8343 -0.9125
 2080SOL     OW17701   1.309   3.807  10.643 -0.6197 -0.5598 -0.3982
 2080SOL    HW117702   1.314   3.712  10.632  2.2964 -0.3766 -0.7219
 2080SOL    HW217703   1.215   3.816  10.624 -0.5593  0.2658 -0.2631
 2081SOL     OW17704   2.730   0.941   1.433  0.4605  0.5860 -0.4765
 2081SOL    HW117705   2.650   0.969   1.477 -0.4070 -0.2642 -1.5306
 2081SOL    HW217706   2.766   1.030   1.428  0.9172  0.4113 -0.2987
 2082SOL     OW17707   2.813   3.896   1.199  0.0420  0.0589 -0.3237
 2082SOL    HW117708   2.833   3.862   1.287  0.0555  1.0116  0.0433
 2082SOL    HW217709   2.798   3.990   1.211 -1.1413 -0.0510 -0.9934
 2083SOL     OW17710   3.028   0.164   7.888  0.3353  0.7574  0.1046
 2083SOL    HW117711   3.003   0.149   7.796  1.4725  2.9019 -0.5527
 2083SOL    HW217712   3.061   0.254   7.889 -3.0180  2.0120 -1.3300
 2084SOL     OW17713   1.385   1.125  16.656  0.1369 -0.4078 -0.1098
 2084SOL    HW117714   1.303   1.080  16.637  1.6582 -1.8665 -3.1647
 2084SOL    HW217715   1.394   1.099  16.747  0.1005  1.4940  0.4526
 2085SOL     OW17716   1.309   1.796   6.053 -0.9018  0.0521  0.1151
 2085SOL    HW117717   1.392   1.836   6.080 -0.6099 -0.8025  0.5143
 2085SOL    HW217718   1.270   1.863   5.997 -1.0409 -0.7462 -0.7453
 2086SOL     OW17719   4.245   3.932   7.027 -0.3831  0.3749  0.1518
 2086SOL    HW117720   4.289   3.852   6.999 -0.8527  0.0121  0.4436
 2086SOL    HW217721   4.162   3.935   6.981 -0.3179  0.7911  0.0648
 2087SOL     OW17722   2.997   3.738  12.645  0.0093 -0.0519 -0.4245
 2087SOL    HW117723   3.091   3.747  12.631 -0.1542  1.0816 -0.8482
 2087SOL    HW217724   2.976   3.661  12.593  2.1119 -0.5917 -0.4355
 2088SOL     OW17725   2.213   4.644  11.190  0.2865 -0.0679 -0.3867
 2088SOL    HW117726   2.125   4.668  11.220  0.1642 -2.1126  0.8800
 2088SOL    HW217727   2.195   4.625  11.097 -0.1665  0.7422 -0.4660
 2089SOL     OW17728   2.190   4.101   7.422  0.0760  0.6476  0.5213
 2089SOL    HW117729   2.285   4.106   7.432 -0.0314  0.6481  1.4716
 2089SOL    HW217730   2.185   4.009   7.449  1.6419 -0.4026 -2.7773
 2090SOL     OW17731   3.486   4.389   7.561  0.4631 -0.1400  0.5871
 2090SOL    HW117732   3.441   4.446   7.624 -3.1555 -1.1763 -1.0937
 2090SOL    HW217733   3.579   4.403   7.578  1.0822  0.2260 -3.1924
 2091SOL     OW17734   2.655   3.984   8.677  0.8877 -0.0508 -0.0752
 2091SOL    HW117735   2.737   4.005   8.720 -0.2061  2.7338  0.6639
 2091SOL    HW217736   2.687   3.904   8.635 -3.8044 -2.4899  0.9351
 2092SOL     OW17737   1.391   1.273   4.761 -0.4262  0.0573  0.1183
 2092SOL    HW117738   1.329   1.330   4.716  0.9383  0.1689 -1.6086
 2092SOL    HW217739   1.354   1.187   4.740  2.1846 -1.3382  1.3287
 2093SOL     OW17740   4.428   2.185  11.812 -0.2631  0.4986 -0.3702
 2093SOL    HW117741   4.336   2.184  11.785  0.1690 -0.7155 -1.7753
 2093SOL    HW217742   4.425   2.172  11.907  1.4264  1.6007 -0.1717
 2094SOL     OW17743   1.802   2.802  11.552  0.1919  0.0507 -0.4228
 2094SOL    HW117744   1.745   2.821  11.477 -0.8604  0.2976  0.4323
 2094SOL    HW217745   1.763   2.731  11.603 -0.5606  0.7065 -0.0755
 2095SOL     OW17746   1.372   3.260  10.706  0.2904  0.3632 -0.0178
 2095SOL    HW117747   1.404   3.255  10.796 -0.2031 -1.2466  0.0653
 2095SOL    HW217748   1.354   3.167  10.695  2.3379  0.1884 -1.8305
 2096SOL     OW17749   1.021   4.132   7.627 -0.3523 -0.0470 -0.4679
 2096SOL    HW117750   1.008   4.042   7.658 -0.8223  0.6590  1.3704
 2096SOL    HW217751   0.934   4.171   7.624  0.5766  2.0768  0.0560
 2097SOL     OW17752   1.712   2.611  17.093 -0.0970  0.5973  0.8436
 2097SOL    HW117753   1.725   2.690  17.041  0.2576  0.9537  1.4651
 2097SOL    HW217754   1.772   2.551  17.048 -1.0534 -0.5310  1.0673
 2098SOL     OW17755   4.384   4.011   8.277  0.0743 -0.0226 -0.0337
 2098SOL    HW117756   4.382   4.104   8.297 -0.5652 -0.3608  1.4450
 2098SOL    HW217757   4.442   4.016   8.201  0.0272  2.6643  0.1200
 2099SOL     OW17758   2.194   2.191   7.030 -0.2809  0.3475  0.2727
 2099SOL    HW117759   2.201   2.095   7.025 -1.8708  0.3403 -1.5902
 2099SOL    HW217760   2.114   2.203   7.081  0.7013 -0.9974  2.1649
 2100SOL     OW17761   4.178   4.405   2.446 -0.2674  0.0365  0.2859
 2100SOL    HW117762   4.266   4.436   2.467 -0.6136  0.5869  0.9445
 2100SOL    HW217763   4.190   4.385   2.353  1.0120 -0.0618  0.4760
 2101SOL     OW17764   3.578   1.814   7.828  0.3645 -0.0741 -0.2414
 2101SOL    HW117765   3.520   1.846   7.758  0.2966 -1.5696 -0.8727
 2101SOL    HW217766   3.517   1.795   7.899 -0.9536  0.4531 -1.2294
 2102SOL     OW17767   0.081   1.643  10.910 -0.7390  0.2451  0.4408
 2102SOL    HW117768   0.172   1.671  10.901  0.6634 -3.7242  2.3620
 2102SOL    HW217769   0.098   1.549  10.919  1.8332  0.8098  1.5893
 2103SOL     OW17770   4.541   1.228   2.491  0.4792 -0.3330 -0.2908
 2103SOL    HW117771   4.582   1.214   2.406  0.8579  0.2360 -0.2065
 2103SOL    HW217772   4.450   1.242   2.464  0.4472 -1.3499 -0.7088
 2104SOL     OW17773   1.585   2.978   7.414 -0.0434  0.6356 -0.1385
 2104SOL    HW117774   1.608   3.010   7.326 -1.4335 -1.4466 -1.2646
 2104SOL    HW217775   1.493   3.003   7.418 -0.3648 -0.6674  0.8005
 2105SOL     OW17776   1.386   1.247   5.609  0.3696 -0.5197  0.4947
 2105SOL    HW117777   1.320   1.289   5.665  1.5868  0.1985  1.3876
 2105SOL    HW217778   1.411   1.312   5.544  2.0540 -0.5101  1.1505
 2106SOL     OW17779   0.133   2.167   3.516  0.6034  0.4848 -0.9852
 2106SOL    HW117780   0.045   2.204   3.519  0.3675 -0.1845  0.2512
 2106SOL    HW217781   0.175   2.238   3.563 -1.5120 -0.6055  2.5266
 2107SOL     OW17782   4.161   0.728   9.228  0.7888  0.2520 -0.1658
 2107SOL    HW117783   4.223   0.793   9.196  0.6144 -0.2072 -1.4860
 2107SOL    HW217784   4.217   0.671   9.280 -1.4526  0.0651  2.0393
 2108SOL     OW17785   3.366   2.853  11.428 -0.2105 -0.0601  0.1070
 2108SOL    HW117786   3.385   2.915  11.498  1.6747  0.3414 -0.7697
 2108SOL    HW217787   3.422   2.880  11.356  0.1815 -2.0473 -0.3170
 2109SOL     OW17788   2.457   0.355   9.851 -0.4427  0.4304 -0.3247
 2109SOL    HW117789   2.395   0.400   9.907 -0.0713 -0.3455  0.7028
 2109SOL    HW217790   2.435   0.385   9.763 -0.4908  2.6012  0.4453
 2110SOL     OW17791   3.621   3.865  10.873  0.3747  0.2674  0.2946
 2110SOL    HW117792   3.616   3.954  10.837 -1.3547 -0.1182 -0.4220
 2110SOL    HW217793   3.532   3.838  10.848  0.1110  0.1939  1.3164
 2111SOL     OW17794   2.987   3.111   2.686  0.6319  0.0818  0.3208
 2111SOL    HW117795   3.022   3.023   2.702 -0.2105 -0.6203 -1.6259
 2111SOL    HW217796   2.970   3.105   2.592  1.1057  0.4514  0.2120
 2112SOL     OW17797   2.577   3.016   3.368  0.4299 -0.2614 -0.4224
 2112SOL    HW117798   2.673   3.010   3.362  0.5945  2.1049  0.1411
 2112SOL    HW217799   2.565   3.052   3.455  0.0700  1.9349 -1.3776
 2113SOL     OW17800   0.575   2.883   3.980  0.0006  0.0478  0.4219
 2113SOL    HW117801   0.647   2.939   3.953  0.6214 -1.3435 -0.8107
 2113SOL    HW217802   0.536   2.925   4.057  1.1073 -1.4323  1.7813
 2114SOL     OW17803   2.990   2.015   1.509  0.7061  0.2489  0.4945
 2114SOL    HW117804   3.029   1.930   1.486 -2.6227 -0.7672 -1.3071
 2114SOL    HW217805   2.955   2.043   1.424  2.0834 -1.2172 -0.5541
 2115SOL     OW17806   3.514   2.206   4.213 -0.0038  0.3008 -0.2488
 2115SOL    HW117807   3.539   2.114   4.222 -2.3605 -0.1892  1.4440
 2115SOL    HW217808   3.595   2.251   4.237  1.4372 -3.3760  1.6586
 2116SOL     OW17809   2.648   1.571   3.510 -0.1882 -0.5023  0.0613
 2116SOL    HW117810   2.739   1.594   3.529 -0.3069  0.2132 -0.2286
 2116SOL    HW217811   2.660   1.525   3.427 -1.4801  3.3442 -2.2476
 2117SOL     OW17812   3.066   2.882   9.374 -0.1633  0.0696  0.2602
 2117SOL    HW117813   2.986   2.896   9.426 -1.9114 -2.3949 -1.8134
 2117SOL    HW217814   3.046   2.939   9.300 -2.3476 -1.1674 -0.0862
 2118SOL     OW17815   1.147   1.194  10.334  0.2047  0.5117 -0.6267
 2118SOL    HW117816   1.072   1.160  10.384  1.3107 -0.7234  0.1779
 2118SOL    HW217817   1.170   1.267  10.390 -1.1561  0.6814 -0.2865
 2119SOL     OW17818   3.303   3.189  14.741  0.0272 -0.0893 -0.7610
 2119SOL    HW117819   3.321   3.231  14.656 -0.3480  1.0897 -0.2681
 2119SOL    HW217820   3.284   3.103  14.705  1.7260 -1.1984  1.0471
 2120SOL     OW17821   3.987   4.425  12.543  0.4609  0.1133 -0.8275
 2120SOL    HW117822   4.075   4.432  12.506  0.1433  2.2967 -1.1673
 2120SOL    HW217823   3.983   4.332  12.566 -1.2384  0.5900  0.8108
 2121SOL     OW17824   0.680   1.686   3.100 -0.2307 -0.1178 -0.0957
 2121SOL    HW117825   0.764   1.701   3.142 -0.7600  0.3892  0.7973
 2121SOL    HW217826   0.690   1.594   3.076  0.4678  0.0999 -0.6206
 2122SOL     OW17827   0.372   2.764   3.755 -0.1368 -0.3398  0.0364
 2122SOL    HW117828   0.379   2.727   3.843  1.0048  0.2035  0.1655
 2122SOL    HW217829   0.461   2.763   3.721  0.0482 -2.3082  0.5229
 2123SOL     OW17830   0.965   0.769   2.440 -0.0301 -0.3505  0.3181
 2123SOL    HW117831   0.975   0.674   2.453  0.6589 -0.6772 -2.5925
 2123SOL    HW217832   0.916   0.774   2.358 -0.9155  0.8401  0.9120
 2124SOL     OW17833   2.705   1.248   0.397  0.1394 -0.0283  0.4648
 2124SOL    HW117834   2.765   1.175   0.382  2.1983  1.8943 -0.5606
 2124SOL    HW217835   2.620   1.223   0.361 -0.9079 -0.3182  3.1329
 2125SOL     OW17836   0.735   4.189   1.684  0.8033 -0.3024 -0.2848
 2125SOL    HW117837   0.733   4.239   1.602  0.3504 -1.0172 -0.7053
 2125SOL    HW217838   0.650   4.148   1.692  1.1374 -0.8548  0.4090
 2126SOL     OW17839   4.500   3.343  13.957 -0.0117  0.5631  0.1519
 2126SOL    HW117840   4.525   3.349  14.049 -1.7731  1.4196  0.5726
 2126SOL    HW217841   4.511   3.249  13.940 -1.0579  0.3006  0.9386
 2127SOL     OW17842   0.371   0.933   7.354  0.3756 -0.1422  0.1107
 2127SOL    HW117843   0.332   0.955   7.269  0.8163 -0.6802 -0.2345
 2127SOL    HW217844   0.349   0.841   7.368 -0.7081  0.0486 -0.3233
 2128SOL     OW17845   1.071   0.991  12.889 -0.5398  0.1529  0.2008
 2128SOL    HW117846   1.156   0.976  12.849  0.1658 -1.6004  2.3400
 2128SOL    HW217847   1.014   1.030  12.823 -0.2849  0.5212  0.1936
 2129SOL     OW17848   4.184   3.456  11.930  0.5003 -0.7181  0.2353
 2129SOL    HW117849   4.228   3.520  11.874 -1.1963  0.1335 -0.1346
 2129SOL    HW217850   4.124   3.513  11.978  2.5934  2.1730 -0.6071
 2130SOL     OW17851   0.439   0.974   2.145  0.6194  0.2732 -0.2200
 2130SOL    HW117852   0.354   0.976   2.188  0.6314 -0.4607 -0.1620
 2130SOL    HW217853   0.434   1.056   2.097 -1.4434  0.0490 -0.3649
 2131SOL     OW17854   2.560   2.915   8.939 -0.5655  0.1615  0.0519
 2131SOL    HW117855   2.507   2.837   8.957 -0.4366  0.3395  1.2219
 2131SOL    HW217856   2.627   2.872   8.886 -0.8961  1.6882 -1.5954
 2132SOL     OW17857   2.359   4.079   3.859  0.4846 -0.0008 -0.5572
 2132SOL    HW117858   2.413   4.003   3.839 -1.0776 -1.3730  0.4239
 2132SOL    HW217859   2.306   4.094   3.780 -1.7274  0.1993  0.9435
 2133SOL     OW17860   1.360   0.680   4.598 -0.2376 -0.3334  0.6406
 2133SOL    HW117861   1.344   0.773   4.582  1.7673 -0.0299  0.3880
 2133SOL    HW217862   1.426   0.666   4.530  0.6771  3.1325  0.8318
 2134SOL     OW17863   4.183   4.048   6.135  0.2937 -0.6246  0.5152
 2134SOL    HW117864   4.129   3.974   6.107 -0.6190  0.0547  0.4674
 2134SOL    HW217865   4.118   4.116   6.155 -2.7092 -2.5307 -2.7935
 2135SOL     OW17866   3.186   4.532   5.290  0.0748 -0.5354 -0.5624
 2135SOL    HW117867   3.225   4.618   5.305 -1.4979  0.2514 -0.9027
 2135SOL    HW217868   3.195   4.531   5.195  1.0886  1.1549 -0.4822
 2136SOL     OW17869   0.701   3.191   0.196 -0.4914  0.6786  0.2080
 2136SOL    HW117870   0.763   3.258   0.228  1.3028 -2.7471  3.8014
 2136SOL    HW217871   0.766   3.136   0.153 -0.1104  0.2950  1.2703
 2137SOL     OW17872   0.255   4.609  14.720 -0.1979 -0.1845  0.2268
 2137SOL    HW117873   0.201   4.624  14.798 -1.4950  1.2138 -0.9549
 2137SOL    HW217874   0.221   4.668  14.653  0.8645  1.7186  1.3453
 2138SOL     OW17875   2.380   0.866   6.593  0.6583  0.1161 -0.4402
 2138SOL    HW117876   2.369   0.957   6.564 -0.3102  0.0904 -0.1737
 2138SOL    HW217877   2.335   0.858   6.677  2.3357  0.8278  0.5001
 2139SOL     OW17878   1.421   1.928   8.425  0.6306 -0.1413  0.0950
 2139SOL    HW117879   1.328   1.929   8.402  0.7603 -0.5381 -0.4505
 2139SOL    HW217880   1.450   1.846   8.384  0.8480 -0.2260  0.4236
 2140SOL     OW17881   3.595   3.198  12.651  0.3532  0.4550  0.1754
 2140SOL    HW117882   3.667   3.150  12.692 -1.5384 -1.0340  1.7192
 2140SOL    HW217883   3.550   3.223  12.732  1.3641  0.2967  0.7877
 2141SOL     OW17884   3.683   1.860  13.495  0.0179 -0.1060 -0.1411
 2141SOL    HW117885   3.768   1.900  13.478 -0.9923  2.5996  1.2515
 2141SOL    HW217886   3.628   1.928  13.457 -2.6939 -2.7659 -0.9678
 2142SOL     OW17887   0.413   0.332   7.489 -0.8249  0.5082 -0.9781
 2142SOL    HW117888   0.471   0.388   7.542 -1.7860 -0.6138  1.2330
 2142SOL    HW217889   0.453   0.335   7.402 -0.4581  0.4034 -0.8125
 2143SOL     OW17890   4.693   1.823  13.756  0.4228  0.5057 -0.5869
 2143SOL    HW117891   0.066   1.807  13.756  0.1162 -1.3299 -2.4229
 2143SOL    HW217892   4.657   1.763  13.690  3.6713 -0.8400 -1.1254
 2144SOL     OW17893   0.267   1.947   4.829 -0.3816 -0.2039  0.2492
 2144SOL    HW117894   0.173   1.929   4.828 -0.2372 -0.8915 -0.8759
 2144SOL    HW217895   0.290   1.918   4.740  1.6566  2.0769  0.0203
 2145SOL     OW17896   2.424   4.678  16.498  0.3141  0.0502  0.3734
 2145SOL    HW117897   2.488   4.674  16.569 -1.1448  1.4653  1.7547
 2145SOL    HW217898   2.339   4.688  16.541 -0.9084 -1.4483 -1.6694
 2146SOL     OW17899   0.382   0.023  17.673  0.1577 -0.2073  0.2296
 2146SOL    HW117900   0.385   4.675  17.606  1.4440  0.3866 -0.3201
 2146SOL    HW217901   0.367   0.100  17.618  1.2588 -0.4541 -0.4189
 2147SOL     OW17902   0.287   0.015   4.953  0.0742 -0.3510 -0.6172
 2147SOL    HW117903   0.218   4.682   4.913  0.6140 -2.2741  1.0311
 2147SOL    HW217904   0.308   4.702   5.040 -2.4318 -0.8547 -0.2089
 2148SOL     OW17905   2.986   4.681   8.065 -0.4039 -0.4153 -0.1344
 2148SOL    HW117906   3.004   0.028   8.000  0.1008 -1.1357 -0.7518
 2148SOL    HW217907   3.063   4.692   8.120  2.2244 -0.8413 -3.6909
 2149SOL     OW17908   0.908   0.580   2.764  0.7088  0.4790  0.6299
 2149SOL    HW117909   0.816   0.563   2.745  0.5847 -0.2717  1.8865
 2149SOL    HW217910   0.900   0.664   2.809  0.0574  0.8990 -0.2934
 2150SOL     OW17911   4.534   1.066   5.757 -0.1498  0.4062 -0.1955
 2150SOL    HW117912   4.552   1.093   5.667  0.9093 -1.5308 -0.5723
 2150SOL    HW217913   4.445   1.033   5.749 -0.6780  1.3912  1.5623
 2151SOL     OW17914   2.662   4.565   4.418 -0.1366  0.0427  0.1584
 2151SOL    HW117915   2.740   4.616   4.395 -0.1576  0.5405  1.2120
 2151SOL    HW217916   2.648   4.610   4.501  0.0918  0.6580 -0.1361
 2152SOL     OW17917   2.776   3.067   8.493 -0.1391  0.0746  0.4211
 2152SOL    HW117918   2.858   3.017   8.485 -0.1522 -0.0748  1.2133
 2152SOL    HW217919   2.753   3.063   8.400 -3.0335 -0.7218  1.1658
 2153SOL     OW17920   1.408   4.692  12.218  0.1269  0.3239  0.1639
 2153SOL    HW117921   1.383   4.602  12.197  0.6756 -0.5473  3.2834
 2153SOL    HW217922   1.488   4.683  12.270  0.1474  0.7750  0.2073
 2154SOL     OW17923   2.556   2.864   9.636  0.4353  0.2820 -0.7223
 2154SOL    HW117924   2.601   2.920   9.699  0.9233 -1.8008  0.7804
 2154SOL    HW217925   2.553   2.789   9.695  2.0564 -0.7921 -2.0064
 2155SOL     OW17926   1.148   1.387   3.387 -0.6464 -0.2688 -0.3660
 2155SOL    HW117927   1.151   1.396   3.482 -1.2233 -0.6296 -0.3157
 2155SOL    HW217928   1.135   1.477   3.357  0.4004  0.1801  0.5333
 2156SOL     OW17929   2.141   2.260   7.827  0.2379 -0.0056 -0.3857
 2156SOL    HW117930   2.149   2.350   7.796 -1.0243  0.4836  0.7154
 2156SOL    HW217931   2.158   2.275   7.920 -0.4406 -1.7720  0.0303
 2157SOL     OW17932   2.224   3.555  16.106  0.0055  0.0583 -0.1042
 2157SOL    HW117933   2.269   3.482  16.150  0.9052 -0.2692 -1.5894
 2157SOL    HW217934   2.142   3.516  16.075  0.8853 -1.6445 -0.2914
 2158SOL     OW17935   2.411   3.000   6.963 -0.0721  0.3960 -0.0527
 2158SOL    HW117936   2.372   3.060   7.027 -2.8766 -1.4900  0.0097
 2158SOL    HW217937   2.349   2.927   6.970  3.9547 -2.9689  1.0052
 2159SOL     OW17938   3.707   1.497   6.409  0.0092  0.0908 -0.5078
 2159SOL    HW117939   3.686   1.410   6.442  1.3820 -0.2173 -0.4232
 2159SOL    HW217940   3.759   1.530   6.483 -1.9714 -0.8520  1.2972
 2160SOL     OW17941   1.558   0.770   6.892  0.2220  0.4156  0.4119
 2160SOL    HW117942   1.615   0.724   6.831  0.9356 -2.2167  3.0176
 2160SOL    HW217943   1.525   0.845   6.842  0.6302  0.7950  0.7132
 2161SOL     OW17944   3.103   0.861  17.050 -0.6652  0.2166 -0.2808
 2161SOL    HW117945   3.162   0.799  17.094 -0.8554  0.7620  0.7494
 2161SOL    HW217946   3.171   0.924  17.025 -1.7401  0.6923 -1.9632
 2162SOL     OW17947   2.466   3.931  12.196  0.4942  0.2234 -0.6082
 2162SOL    HW117948   2.461   3.859  12.133 -0.6955  0.0854 -0.3460
 2162SOL    HW217949   2.538   3.907  12.254  2.8338  1.0851 -3.1170
 2163SOL     OW17950   3.017   1.830  16.184 -0.3743 -0.7371 -0.0687
 2163SOL    HW117951   2.958   1.864  16.116  1.9379  0.0736 -1.6908
 2163SOL    HW217952   3.087   1.895  16.180 -0.0046 -1.0827  0.8285
 2164SOL     OW17953   0.348   3.315   3.668  0.0820  0.0634 -0.0926
 2164SOL    HW117954   0.297   3.236   3.652  0.5308 -0.3429  0.5020
 2164SOL    HW217955   0.289   3.373   3.620  0.7077  1.7558  1.1620
 2165SOL     OW17956   2.810   1.032   1.761  0.2293  0.3894  0.8810
 2165SOL    HW117957   2.752   1.108   1.765 -0.1073  0.2271 -0.8100
 2165SOL    HW217958   2.760   0.950   1.760  0.3768  0.3061  0.0409
 2166SOL     OW17959   0.720   0.962   8.143  0.0292  0.3947 -0.6588
 2166SOL    HW117960   0.797   0.929   8.190 -1.9223 -2.0759  0.8658
 2166SOL    HW217961   0.735   0.948   8.050  0.2790  1.7494 -0.8143
 2167SOL     OW17962   2.963   4.169   3.695 -0.1926  0.2455  0.5519
 2167SOL    HW117963   3.054   4.178   3.666 -0.3463  3.2125  0.9032
 2167SOL    HW217964   2.972   4.166   3.791  1.5723 -1.0940  0.3352
 2168SOL     OW17965   4.553   0.556  14.699  0.4775 -0.9252 -0.0993
 2168SOL    HW117966   4.514   0.629  14.747  0.6428 -0.0376 -1.2939
 2168SOL    HW217967   4.474   0.518  14.660 -0.6802 -0.2172  1.5993
 2169SOL     OW17968   4.533   0.187   0.781  0.1888  0.1377 -0.2146
 2169SOL    HW117969   4.531   0.106   0.833 -2.2386  0.7009  0.5472
 2169SOL    HW217970   4.463   0.170   0.718  1.0400 -1.7245 -0.6688
 2170SOL     OW17971   1.496   2.971   2.955  0.0374  0.2044  0.0861
 2170SOL    HW117972   1.456   2.893   2.917 -2.6038  0.7202  1.7617
 2170SOL    HW217973   1.585   2.937   2.946  0.0957  0.7508 -1.4213
 2171SOL     OW17974   3.058   1.967   0.704  0.2674  0.2698 -0.7143
 2171SOL    HW117975   3.026   1.921   0.626 -0.2966  0.7076 -0.7379
 2171SOL    HW217976   3.130   2.012   0.661  0.1280  1.2521  0.0796
 2172SOL     OW17977   0.317   1.451   8.322  0.4356  0.4013  0.4899
 2172SOL    HW117978   0.267   1.501   8.386 -0.1749  1.2805 -0.6818
 2172SOL    HW217979   0.289   1.490   8.239 -1.5069 -1.7024  0.1222
 2173SOL     OW17980   4.525   4.113  14.636 -0.7211 -0.0583 -0.1006
 2173SOL    HW117981   4.473   4.184  14.599  2.2299  2.7785  1.1262
 2173SOL    HW217982   4.476   4.082  14.712  0.7947  1.6130  1.5788
 2174SOL     OW17983   1.439   0.770   1.976  0.2354 -0.4503  0.3245
 2174SOL    HW117984   1.386   0.822   1.917 -0.9753 -1.2653  0.6938
 2174SOL    HW217985   1.397   0.786   2.061 -1.6933  0.0381 -0.7480
 2175SOL     OW17986   1.081   0.207   7.957  0.1518 -0.0466  0.1666
 2175SOL    HW117987   1.144   0.135   7.953 -0.5776 -0.6118 -1.0720
 2175SOL    HW217988   1.123   0.279   8.004  1.5041 -0.0444 -1.0465
 2176SOL     OW17989   2.697   2.284   8.297  0.1622 -0.0775  0.3966
 2176SOL    HW117990   2.763   2.265   8.230 -0.5047  1.0085 -0.5551
 2176SOL    HW217991   2.721   2.376   8.303 -0.1111 -0.1200  2.1889
 2177SOL     OW17992   4.165   0.363   9.518  0.2631  0.6463  0.0474
 2177SOL    HW117993   4.238   0.302   9.527 -1.0351 -0.8975  0.0602
 2177SOL    HW217994   4.125   0.353   9.604 -1.7502  1.7454 -0.7564
 2178SOL     OW17995   1.379   4.711  12.720  0.0534 -0.1124  0.0665
 2178SOL    HW117996   1.407   0.052  12.788  0.6556 -1.6885  1.2564
 2178SOL    HW217997   1.329   4.650  12.774  0.1593  0.3022  0.6332
 2179SOL     OW17998   3.805   4.335  11.248  0.2603 -0.0767  1.0745
 2179SOL    HW117999   3.874   4.370  11.192 -0.6268  0.1190  0.0964
 2179SOL    HW218000   3.750   4.413  11.248  0.2414 -0.0904  1.6447
 2180SOL     OW18001   1.273   3.635   1.090 -0.0926 -1.0041 -0.0189
 2180SOL    HW118002   1.301   3.547   1.065  1.0796 -1.2660  2.2125
 2180SOL    HW218003   1.257   3.622   1.184 -2.5971  1.6308 -0.0669
 2181SOL     OW18004   2.858   1.175   1.396  0.1144 -0.3003 -0.2000
 2181SOL    HW118005   2.947   1.197   1.426  0.0823  1.2037 -1.1813
 2181SOL    HW218006   2.865   1.218   1.311 -0.9050 -0.4655 -0.3660
 2182SOL     OW18007   4.312   0.971  10.226 -0.1112  0.1294  0.4084
 2182SOL    HW118008   4.343   1.038  10.165 -1.4120  1.0843  0.7779
 2182SOL    HW218009   4.335   0.892  10.178 -0.5433  0.3523 -0.1760
 2183SOL     OW18010   1.613   0.838   8.878  0.0998  0.0796  1.0003
 2183SOL    HW118011   1.634   0.753   8.839  0.6843  0.4528  0.4903
 2183SOL    HW218012   1.619   0.816   8.971  1.8056 -0.0296  0.8670
 2184SOL     OW18013   4.541   3.861   4.274 -0.6299  0.2649 -0.2108
 2184SOL    HW118014   4.447   3.877   4.283 -0.7065 -1.5805  2.4371
 2184SOL    HW218015   4.565   3.842   4.365 -0.8434 -2.0409 -0.6432
 2185SOL     OW18016   4.710   3.938  10.131  0.2504  0.1726  0.0289
 2185SOL    HW118017   0.010   3.961  10.040 -2.4446  0.0984 -0.5753
 2185SOL    HW218018   4.716   3.845  10.113 -0.5842  0.5281 -2.0660
 2186SOL     OW18019   3.781   3.539   6.162 -0.0256 -0.0525 -0.2238
 2186SOL    HW118020   3.857   3.541   6.221  0.4740  0.3615 -0.8765
 2186SOL    HW218021   3.741   3.624   6.180 -1.3020 -1.1256  2.1051
 2187SOL     OW18022   1.795   1.662  13.219 -0.1455  0.5382  0.2680
 2187SOL    HW118023   1.727   1.594  13.216 -0.6078  0.9839  0.5715
 2187SOL    HW218024   1.745   1.742  13.236 -1.2222  0.2663 -1.5464
 2188SOL     OW18025   3.694   3.648   1.618  0.1989  0.3031 -0.3220
 2188SOL    HW118026   3.603   3.678   1.608 -0.4241 -1.8915 -1.1561
 2188SOL    HW218027   3.690   3.623   1.711  0.9186  0.2572 -0.3025
 2189SOL     OW18028   1.452   3.137  10.451 -0.4537  0.0392  0.1393
 2189SOL    HW118029   1.362   3.171  10.455 -0.4188 -0.0596  1.5626
 2189SOL    HW218030   1.488   3.223  10.433  1.0981 -0.1808  2.2328
 2190SOL     OW18031   3.320   2.385   8.744 -0.0329 -0.5173 -0.1847
 2190SOL    HW118032   3.372   2.420   8.816 -0.6041 -0.2737  0.1031
 2190SOL    HW218033   3.375   2.396   8.666  2.0579 -3.6185  0.8542
 2191SOL     OW18034   4.159   0.596   3.796 -0.0823  0.2027 -0.1790
 2191SOL    HW118035   4.208   0.676   3.815 -0.1850  0.4257 -0.8788
 2191SOL    HW218036   4.118   0.604   3.710 -0.1076 -2.5073 -0.4039
 2192SOL     OW18037   4.284   2.268  11.350  0.1823  0.0895  0.3081
 2192SOL    HW118038   4.324   2.352  11.325  0.4349  0.1138  0.7736
 2192SOL    HW218039   4.360   2.212  11.366 -2.1740 -3.2811 -0.2720
 2193SOL     OW18040   2.356   3.286  17.046  0.3241 -0.0041 -0.1522
 2193SOL    HW118041   2.263   3.265  17.036  0.5094 -0.1293 -1.6317
 2193SOL    HW218042   2.368   3.252  17.135  0.6205  1.0622  0.2103
 2194SOL     OW18043   1.812   2.527  13.222  0.5045  0.2259 -0.0959
 2194SOL    HW118044   1.735   2.575  13.191  0.4312  0.3484  0.2649
 2194SOL    HW218045   1.828   2.477  13.143 -2.0672  0.6755 -0.9078
 2195SOL     OW18046   1.854   3.961  16.418 -0.4468  0.4591  0.5402
 2195SOL    HW118047   1.820   4.051  16.416  0.4722  0.7901 -0.4401
 2195SOL    HW218048   1.780   3.914  16.380 -1.4183  2.1783  0.3374
 2196SOL     OW18049   3.526   4.627   7.097 -0.2609  0.0282  0.0856
 2196SOL    HW118050   3.507   4.541   7.135 -0.7501 -0.1932 -0.6616
 2196SOL    HW218051   3.609   4.607   7.054 -0.1688 -1.1593  0.8072
 2197SOL     OW18052   3.361   2.254   8.320 -0.3441  0.0156  0.3589
 2197SOL    HW118053   3.437   2.297   8.280  1.3508 -0.5276  2.9829
 2197SOL    HW218054   3.397   2.172   8.354  0.3232 -0.7329 -2.1537
 2198SOL     OW18055   3.149   4.540   6.164 -0.1600 -0.3940  0.3222
 2198SOL    HW118056   3.162   4.516   6.256 -1.2697  1.9578  1.1005
 2198SOL    HW218057   3.240   4.556   6.138  0.6875  0.0258  3.4772
 2199SOL     OW18058   3.988   3.016   0.632  0.7289  0.6965 -0.1105
 2199SOL    HW118059   4.049   2.965   0.579  3.1910  2.0803  1.3934
 2199SOL    HW218060   3.925   2.944   0.640  0.8501  0.3758 -2.1265
 2200SOL     OW18061   3.632   1.613   8.933  0.9506  0.6974 -0.0358
 2200SOL    HW118062   3.617   1.698   8.974 -0.9583  0.3222  0.0446
 2200SOL    HW218063   3.606   1.629   8.842  1.2057 -0.8074 -0.3702
 2201SOL     OW18064   3.213   1.414   1.959 -0.3182 -0.6129 -0.0787
 2201SOL    HW118065   3.237   1.506   1.954 -2.1286 -0.2230 -1.5283
 2201SOL    HW218066   3.294   1.376   1.924  0.4855  0.8772  0.1630
 2202SOL     OW18067   3.414   0.749   7.937 -0.2313  0.1428  0.5513
 2202SOL    HW118068   3.465   0.811   7.989 -3.8656  1.8649  2.0395
 2202SOL    HW218069   3.327   0.776   7.966 -1.1084 -2.6386  0.4783
 2203SOL     OW18070   1.665   4.670   4.398 -0.0020 -0.7437 -0.2341
 2203SOL    HW118071   1.590   4.711   4.441  0.2553 -1.0862  0.5451
 2203SOL    HW218072   1.630   4.659   4.310  0.7344 -0.8871 -0.5096
 2204SOL     OW18073   2.321   0.327  15.790  0.5683 -0.2662 -0.1880
 2204SOL    HW118074   2.389   0.387  15.820  0.8430 -1.0956  0.8441
 2204SOL    HW218075   2.342   0.248  15.839  3.0477  0.3145 -0.3352
 2205SOL     OW18076   2.550   3.822   2.162  0.1049  0.2965  0.2614
 2205SOL    HW118077   2.460   3.855   2.167  0.4095  1.0725  0.5796
 2205SOL    HW218078   2.557   3.769   2.082  0.2853 -0.7326  0.9549
 2206SOL     OW18079   2.276   1.682   3.024  0.0378 -0.2595 -0.6672
 2206SOL    HW118080   2.285   1.774   3.000  1.9675 -0.0328  0.9108
 2206SOL    HW218081   2.183   1.681   3.050  0.8195 -0.4631  2.1652
 2207SOL     OW18082   0.975   0.375   5.613 -0.2633 -0.4315 -0.8587
 2207SOL    HW118083   0.927   0.301   5.577 -0.2615  0.4079 -2.5805
 2207SOL    HW218084   1.031   0.325   5.673  0.8447  2.3009  0.3853
 2208SOL     OW18085   2.301   2.151   2.575  0.2913  0.3273 -0.1650
 2208SOL    HW118086   2.311   2.161   2.481 -2.1801 -1.8816 -0.6541
 2208SOL    HW218087   2.325   2.237   2.609  0.0300 -0.4506  2.0223
 2209SOL     OW18088   2.496   1.342  13.316  0.1980  0.1519  0.2392
 2209SOL    HW118089   2.488   1.309  13.405 -0.7484  1.7588  0.7635
 2209SOL    HW218090   2.588   1.359  13.295  0.2824  2.0883  2.1456
 2210SOL     OW18091   1.244   3.468   1.664  0.5858 -0.1794 -0.7406
 2210SOL    HW118092   1.246   3.389   1.610  0.0411 -0.5374 -0.2319
 2210SOL    HW218093   1.329   3.468   1.708 -1.0113  0.3337  2.3363
 2211SOL     OW18094   3.093   0.072   6.151 -0.3709  0.2231 -0.0487
 2211SOL    HW118095   3.137   0.092   6.234  0.9379 -1.9019 -0.2453
 2211SOL    HW218096   3.102   4.697   6.149  4.2126  0.6310  0.0913
 2212SOL     OW18097   2.749   0.125   2.224  0.2525  0.3744  0.2202
 2212SOL    HW118098   2.754   0.034   2.195  1.1166 -0.1934  2.1461
 2212SOL    HW218099   2.655   0.141   2.230  0.1695 -0.1176  0.2284
 2213SOL     OW18100   4.347   2.380   4.823 -0.1943 -0.7820  0.0862
 2213SOL    HW118101   4.396   2.302   4.850 -0.0112 -0.5432  0.4393
 2213SOL    HW218102   4.316   2.364   4.733 -1.5519  0.3432  0.3601
 2214SOL     OW18103   1.480   2.204  16.226  0.0586 -0.1599  0.2351
 2214SOL    HW118104   1.481   2.300  16.225  1.0205 -0.1689 -0.2960
 2214SOL    HW218105   1.386   2.187  16.236 -0.2822  1.3940 -0.2354
 2215SOL     OW18106   2.081   3.237  12.972  0.2770 -0.4854  0.3576
 2215SOL    HW118107   2.134   3.274  12.902 -3.1805  1.4351 -1.2755
 2215SOL    HW218108   2.001   3.290  12.963  2.2342  2.0277 -2.0245
 2216SOL     OW18109   2.268   1.076   5.125 -0.3741  0.4280 -0.4713
 2216SOL    HW118110   2.219   1.141   5.176 -0.9847 -1.7610  1.7302
 2216SOL    HW218111   2.352   1.083   5.171 -0.4184 -3.1996  0.1042
 2217SOL     OW18112   1.229   2.513   9.926  0.9557 -0.0580 -0.7041
 2217SOL    HW118113   1.222   2.422   9.895  0.0159 -0.2986  0.2198
 2217SOL    HW218114   1.241   2.554   9.840 -3.0882  0.1303 -1.1546
 2218SOL     OW18115   1.331   2.610   7.991  0.2141 -0.6808  0.1292
 2218SOL    HW118116   1.399   2.637   8.052  0.1860 -1.6624  0.5824
 2218SOL    HW218117   1.378   2.624   7.908 -0.9640  0.6041 -0.3366
 2219SOL     OW18118   1.080   1.771   4.147  0.2878  1.0893  0.1911
 2219SOL    HW118119   1.129   1.822   4.212 -1.4747  1.0505  1.5473
 2219SOL    HW218120   1.136   1.796   4.073 -2.9035  3.4024 -1.4494
 2220SOL     OW18121   4.694   0.404   4.682 -0.0247  0.0983  0.0563
 2220SOL    HW118122   4.684   0.498   4.665 -1.7954  0.1435  1.2921
 2220SOL    HW218123   0.063   0.387   4.709  0.3028  2.4029  0.4381
 2221SOL     OW18124   0.474   0.440   9.321  0.0917  0.4327 -0.1899
 2221SOL    HW118125   0.439   0.513   9.270  1.7711  0.4435 -1.3147
 2221SOL    HW218126   0.560   0.429   9.280  0.1288  3.0460 -0.8341
 2222SOL     OW18127   2.099   2.635   8.399 -0.6498 -0.1110 -0.0223
 2222SOL    HW118128   2.192   2.615   8.385 -0.2310  0.5891  1.6305
 2222SOL    HW218129   2.051   2.555   8.381 -1.6585 -0.0472  2.3780
 2223SOL     OW18130   0.137   4.188   3.848  0.0771  0.2206 -0.4186
 2223SOL    HW118131   0.064   4.246   3.825 -1.0178 -0.4619  1.3321
 2223SOL    HW218132   0.100   4.101   3.832  0.9832 -0.1762 -0.3465
 2224SOL     OW18133   4.700   2.435  17.163  0.2924  0.3785  0.0179
 2224SOL    HW118134   4.671   2.430  17.072 -3.2087  1.6358  1.0484
 2224SOL    HW218135   4.618   2.461  17.205 -0.1205 -0.7092 -0.1142
 2225SOL     OW18136   0.080   0.567   7.822  0.1912  0.1531  0.1886
 2225SOL    HW118137   0.100   0.637   7.885 -1.3040  0.1258  0.6844
 2225SOL    HW218138   0.115   0.495   7.874  0.5122  1.3426  1.6277
 2226SOL     OW18139   4.010   4.568   5.824  0.1087  0.1491  0.0148
 2226SOL    HW118140   3.964   4.491   5.856  0.0358 -1.2346 -3.4544
 2226SOL    HW218141   3.977   4.570   5.734  1.4116 -2.9228 -0.5162
 2227SOL     OW18142   0.259   1.394   6.066  0.0526  0.2486 -0.7381
 2227SOL    HW118143   0.235   1.353   6.149  2.0018  0.9298  0.1794
 2227SOL    HW218144   0.173   1.408   6.027 -0.5961  1.7119  1.1670
 2228SOL     OW18145   0.277   2.758   8.931 -0.0920 -0.2964 -0.2192
 2228SOL    HW118146   0.210   2.692   8.948 -2.2277  1.4419 -1.9711
 2228SOL    HW218147   0.355   2.709   8.959 -0.9084 -1.1956  0.4553
 2229SOL     OW18148   4.130   0.859   2.385 -0.0997 -0.0571  0.8656
 2229SOL    HW118149   4.116   0.837   2.477  2.0711 -1.1195  0.9269
 2229SOL    HW218150   4.101   0.951   2.382 -0.8635 -0.2323  3.1418
 2230SOL     OW18151   3.922   0.442  10.751 -0.0744 -1.2021  0.8141
 2230SOL    HW118152   3.999   0.426  10.805  0.6183  1.2216  0.5159
 2230SOL    HW218153   3.959   0.455  10.664 -3.3606 -2.2098 -0.7568
 2231SOL     OW18154   0.501   2.848   2.300 -0.1813  0.3910  0.8538
 2231SOL    HW118155   0.529   2.920   2.244  0.5735 -0.7320 -0.2077
 2231SOL    HW218156   0.408   2.848   2.277 -0.0467 -0.8411  0.2956
 2232SOL     OW18157   2.513   4.290   5.738  0.2018 -0.0667 -0.1647
 2232SOL    HW118158   2.532   4.208   5.692  0.2336  0.0791 -0.4130
 2232SOL    HW218159   2.596   4.300   5.784  2.0502 -0.7472 -3.3131
 2233SOL     OW18160   0.191   2.278   4.602 -0.0266  0.5945  1.1568
 2233SOL    HW118161   0.282   2.253   4.621  0.4998  1.3207 -0.3851
 2233SOL    HW218162   0.206   2.349   4.539  0.9096 -1.6347 -1.1134
 2234SOL     OW18163   0.435   2.318   9.243 -0.1506  0.3897 -0.4960
 2234SOL    HW118164   0.353   2.275   9.268 -0.8577  1.2188 -1.3523
 2234SOL    HW218165   0.448   2.278   9.157  3.0506  0.1241  0.1228
 2235SOL     OW18166   1.311   1.734  14.519 -0.9085  0.5334 -0.3128
 2235SOL    HW118167   1.220   1.748  14.495 -1.2500 -0.5715  0.3401
 2235SOL    HW218168   1.308   1.669  14.590  1.5974  0.5146 -0.2330
 2236SOL     OW18169   2.337   2.776   2.561  0.4120  0.2005 -0.3835
 2236SOL    HW118170   2.279   2.700   2.549 -0.1284  0.4493  0.6481
 2236SOL    HW218171   2.424   2.737   2.562 -0.5149 -1.8114  1.4037
 2237SOL     OW18172   0.812   0.443   6.446  0.0839  0.4442 -0.7387
 2237SOL    HW118173   0.727   0.409   6.418  0.0211  0.7041 -0.8568
 2237SOL    HW218174   0.860   0.361   6.461  2.8175  2.1711 -0.1070
 2238SOL     OW18175   4.504   0.976  14.103 -0.1454 -0.3711 -0.9152
 2238SOL    HW118176   4.598   0.959  14.099 -0.0389 -0.1423  0.6223
 2238SOL    HW218177   4.488   0.923  14.181 -2.7147  0.8580 -0.6258
 2239SOL     OW18178   1.751   4.424   0.486  0.0789 -0.2743  0.5852
 2239SOL    HW118179   1.842   4.408   0.461 -0.6817 -0.6299 -1.9404
 2239SOL    HW218180   1.759   4.368   0.563  0.2827 -0.7413  0.2244
 2240SOL     OW18181   3.952   0.192   2.643 -0.2096  0.1357 -0.0735
 2240SOL    HW118182   4.025   0.178   2.704 -1.7498  1.2465  2.0090
 2240SOL    HW218183   3.928   0.101   2.622 -0.4671  0.2184 -0.1299
 2241SOL     OW18184   3.202   4.229  16.577 -0.1260 -0.6133  0.6029
 2241SOL    HW118185   3.182   4.168  16.648 -1.7095  1.5458  2.0102
 2241SOL    HW218186   3.183   4.313  16.618  0.2335 -0.6632  0.8780
 2242SOL     OW18187   2.379   4.086   1.544 -0.2324 -0.2967 -0.1451
 2242SOL    HW118188   2.333   4.121   1.468 -0.1739  0.1286  0.0168
 2242SOL    HW218189   2.392   3.995   1.518  0.4442 -1.1857  3.2329
 2243SOL     OW18190   2.660   0.005  12.182  0.0702 -0.1649  0.3283
 2243SOL    HW118191   2.564   0.005  12.175  0.0105 -2.5312  1.0678
 2243SOL    HW218192   2.666   0.042  12.271  0.2366  1.5504 -0.4033
 2244SOL     OW18193   1.537   2.487   4.653 -0.4822  0.5316 -0.5000
 2244SOL    HW118194   1.620   2.489   4.605  0.0631  0.0073  0.4078
 2244SOL    HW218195   1.481   2.433   4.597 -0.5977 -0.6580  0.7628
 2245SOL     OW18196   2.474   3.098  14.542  0.2990 -1.0343 -0.6121
 2245SOL    HW118197   2.469   3.065  14.632  0.0189 -0.7880 -0.5367
 2245SOL    HW218198   2.383   3.098  14.513 -0.3307 -0.0457  1.3315
 2246SOL     OW18199   1.618   1.415  13.659 -0.6234  0.3287 -0.5947
 2246SOL    HW118200   1.645   1.440  13.748 -1.5064 -0.6239 -0.0521
 2246SOL    HW218201   1.633   1.498  13.614  0.3732  0.1461 -0.5788
 2247SOL     OW18202   1.255   1.717   7.555  0.0150 -0.4308  0.6707
 2247SOL    HW118203   1.187   1.689   7.615 -0.3805  0.0182  0.4294
 2247SOL    HW218204   1.270   1.809   7.577 -0.3033 -0.2854  0.2858
 2248SOL     OW18205   0.232   4.297  10.668  0.1134 -0.4709 -0.3640
 2248SOL    HW118206   0.315   4.250  10.669 -0.3498 -1.3126 -2.2237
 2248SOL    HW218207   0.243   4.338  10.754 -0.5810  0.0156 -0.5018
 2249SOL     OW18208   4.695   1.540   6.039  0.3670  0.1247  0.5682
 2249SOL    HW118209   0.036   1.558   5.969 -0.3228 -0.6888 -0.2538
 2249SOL    HW218210   4.638   1.481   5.989  0.7330  0.0913  0.1870
 2250SOL     OW18211   2.157   1.925  17.678  0.0585  0.3661 -0.3824
 2250SOL    HW118212   2.185   1.939   0.083  0.5801 -1.0371 -0.3244
 2250SOL    HW218213   2.199   2.001  17.638 -0.2672  0.9346  0.3467
 2251SOL     OW18214   2.452   0.178   6.138 -0.5492 -0.4799 -0.2331
 2251SOL    HW118215   2.454   0.191   6.233 -0.9267 -0.9073 -0.1690
 2251SOL    HW218216   2.393   0.103   6.131 -1.7695  0.4223  0.2500
 2252SOL     OW18217   0.632   0.149   1.527  0.5882  0.3126  0.5486
 2252SOL    HW118218   0.569   0.108   1.468 -0.1847  0.4551  1.2582
 2252SOL    HW218219   0.571   0.213   1.564  0.0507 -0.5603  1.1894
 2253SOL     OW18220   2.368   1.407  17.373  0.7136 -0.5861  0.0493
 2253SOL    HW118221   2.446   1.415  17.428 -0.3965  0.7348  1.4521
 2253SOL    HW218222   2.299   1.374  17.430  1.9680 -2.1744  0.6271
 2254SOL     OW18223   3.069   2.182   3.914  0.4582  0.2435 -0.3920
 2254SOL    HW118224   3.153   2.146   3.885 -0.0040  1.2446 -2.8809
 2254SOL    HW218225   3.088   2.178   4.008  0.5595  0.3445 -0.4086
 2255SOL     OW18226   2.353   0.607   8.969 -0.5657 -0.2865 -0.4456
 2255SOL    HW118227   2.338   0.698   8.945  0.2436 -0.2811 -0.9055
 2255SOL    HW218228   2.273   0.571   8.931  1.0962 -2.5456 -1.7908
 2256SOL     OW18229   0.189   1.072   2.404 -0.2278  0.4032  0.1613
 2256SOL    HW118230   0.271   1.121   2.394 -0.8434  1.4450  0.2550
 2256SOL    HW218231   0.200   1.047   2.495 -0.1493  2.0091  0.5933
 2257SOL     OW18232   3.669   4.358   9.998  0.9635  0.0598  0.1523
 2257SOL    HW118233   3.665   4.267   9.969 -1.3788 -0.1734  1.1905
 2257SOL    HW218234   3.745   4.386   9.947  0.2433 -1.9377 -2.0118
 2258SOL     OW18235   4.021   4.151   1.384  0.3699  0.1615  0.4591
 2258SOL    HW118236   3.936   4.160   1.340  0.4857  1.4812  0.4937
 2258SOL    HW218237   4.020   4.063   1.422 -3.6231  1.4077  3.3282
 2259SOL     OW18238   0.406   0.195   0.516 -0.2300 -0.2071 -0.4539
 2259SOL    HW118239   0.437   0.127   0.456  0.0806 -0.3795 -0.1015
 2259SOL    HW218240   0.389   0.272   0.462 -2.6447 -0.0516  0.5202
 2260SOL     OW18241   4.248   4.358   6.602  0.3198  0.1266 -0.0641
 2260SOL    HW118242   4.298   4.284   6.567 -0.1624  0.3205 -1.1688
 2260SOL    HW218243   4.285   4.438   6.566  1.3045  0.3692  1.5122
 2261SOL     OW18244   3.820   4.499   1.491  0.1087  0.1673 -0.0862
 2261SOL    HW118245   3.844   4.574   1.545  0.9404 -1.1509  1.3834
 2261SOL    HW218246   3.749   4.542   1.443  2.1467  0.6637 -2.6842
 2262SOL     OW18247   0.403   0.047   0.749 -0.3041  0.2581  0.1318
 2262SOL    HW118248   0.405   0.097   0.668  0.9200 -0.2729 -0.1535
 2262SOL    HW218249   0.335   4.705   0.726 -0.7132  0.3649  1.0422
 2263SOL     OW18250   0.821   3.007   1.298  0.0212 -0.0363  0.1943
 2263SOL    HW118251   0.902   3.040   1.258  1.0966  0.7089  2.9876
 2263SOL    HW218252   0.854   3.031   1.384 -0.5712  2.9426 -0.4285
 2264SOL     OW18253   3.988   0.044   4.396  0.0205  0.0398 -0.0540
 2264SOL    HW118254   4.050   0.100   4.442 -0.6871 -1.4899  2.7602
 2264SOL    HW218255   4.007   4.686   4.447  2.7048  0.5772 -0.2237
 2265SOL     OW18256   3.294   1.369  17.373  0.0352 -0.6967  0.1986
 2265SOL    HW118257   3.238   1.406  17.305  0.4202 -1.8468 -0.7264
 2265SOL    HW218258   3.264   1.279  17.379 -0.6665 -0.4514  0.3790
 2266SOL     OW18259   3.562   0.667   5.025  0.0917 -0.1978  0.0333
 2266SOL    HW118260   3.479   0.714   5.022  1.6700  2.6547  0.5051
 2266SOL    HW218261   3.563   0.638   5.116  0.9903 -1.9894 -0.5588
 2267SOL     OW18262   0.537   0.915   9.914  0.5576  0.0530 -0.1471
 2267SOL    HW118263   0.517   0.982   9.849  0.1833  1.2461  1.2084
 2267SOL    HW218264   0.632   0.918   9.931  0.8531  0.8598 -1.9305
 2268SOL     OW18265   4.095   0.770   5.764 -0.7151  0.5289 -0.0189
 2268SOL    HW118266   4.026   0.756   5.700 -0.1781  1.7216 -0.8623
 2268SOL    HW218267   4.164   0.726   5.713 -0.9284  1.6644 -1.2911
 2269SOL     OW18268   2.188   1.613   6.163 -0.3934 -0.0792  0.1075
 2269SOL    HW118269   2.261   1.578   6.113 -1.7030  0.5709 -2.2308
 2269SOL    HW218270   2.131   1.653   6.098 -0.0054  1.8214  0.9494
 2270SOL     OW18271   2.757   0.265  14.566 -0.0620  0.3469  0.0378
 2270SOL    HW118272   2.820   0.213  14.516 -0.8584 -2.1121  1.5939
 2270SOL    HW218273   2.788   0.248  14.654 -0.5855 -0.5980  0.0410
 2271SOL     OW18274   2.561   2.779   7.452 -0.0646  0.3398 -0.1123
 2271SOL    HW118275   2.620   2.852   7.472 -1.3733  0.8640  1.7940
 2271SOL    HW218276   2.585   2.715   7.520  0.7024  0.5866 -0.1461
 2272SOL     OW18277   1.549   3.802  10.292  0.0316 -0.1447 -1.0216
 2272SOL    HW118278   1.572   3.767  10.378  0.4804  0.0804 -1.0508
 2272SOL    HW218279   1.574   3.893  10.308 -2.2286  0.2050  0.5459
 2273SOL     OW18280   3.166   4.295  11.038  0.7124  0.4537 -0.0568
 2273SOL    HW118281   3.136   4.210  11.007 -2.0088  0.6951  1.8939
 2273SOL    HW218282   3.193   4.339  10.958  1.9728  0.7271  0.5116
 2274SOL     OW18283   1.032   1.566   4.828 -0.2516 -0.1578  0.0825
 2274SOL    HW118284   1.012   1.615   4.748 -2.2213 -0.5141  0.3567
 2274SOL    HW218285   0.993   1.483   4.800  0.8116 -0.9921  1.0674
 2275SOL     OW18286   0.454   0.828   8.405  0.1603  0.4219  0.6912
 2275SOL    HW118287   0.549   0.839   8.399  0.3139 -0.9726  0.5112
 2275SOL    HW218288   0.423   0.918   8.416 -2.8452 -0.5235 -0.2280
 2276SOL     OW18289   3.756   1.825   2.242 -0.0710 -0.6832  0.2108
 2276SOL    HW118290   3.716   1.907   2.270 -1.0966 -0.4896 -1.8552
 2276SOL    HW218291   3.692   1.759   2.270 -2.2240  1.4457  0.2845
 2277SOL     OW18292   2.561   1.272  10.432 -0.5092  0.4430  0.5702
 2277SOL    HW118293   2.612   1.327  10.493 -1.8522  2.0463  0.2536
 2277SOL    HW218294   2.489   1.226  10.476 -0.3226 -1.1915 -0.8402
 2278SOL     OW18295   3.037   0.851   4.665  0.0038  0.4650  0.1426
 2278SOL    HW118296   3.114   0.795   4.659 -1.4397 -1.5938  0.8730
 2278SOL    HW218297   3.054   0.912   4.593  0.6948 -0.2796 -0.3157
 2279SOL     OW18298   2.464   4.623   7.353 -0.0059 -0.5279 -0.0715
 2279SOL    HW118299   2.515   4.639   7.274 -1.1892  0.6190 -0.5977
 2279SOL    HW218300   2.518   4.661   7.422 -2.4564  0.8276  1.1259
 2280SOL     OW18301   1.681   0.333  17.627 -0.2414 -0.2233  0.2200
 2280SOL    HW118302   1.737   0.260  17.655  2.3872  2.1361  1.1764
 2280SOL    HW218303   1.595   0.292  17.622 -0.9427  1.4159 -1.3208
 2281SOL     OW18304   4.088   2.143   0.990 -0.0168  0.4469  0.3217
 2281SOL    HW118305   4.132   2.068   0.950  1.1657 -0.2226  2.8975
 2281SOL    HW218306   4.017   2.159   0.928  0.4995  0.8150 -0.1815
 2282SOL     OW18307   0.310   2.373   6.689  0.4312  0.7689 -0.3945
 2282SOL    HW118308   0.307   2.310   6.617  1.6220  0.2602  0.0086
 2282SOL    HW218309   0.404   2.378   6.702  0.2607  0.5566  0.8982
 2283SOL     OW18310   2.171   4.660   5.440 -0.3217  0.4437  0.1356
 2283SOL    HW118311   2.150   4.590   5.503 -2.7866  0.1860 -1.0121
 2283SOL    HW218312   2.179   4.609   5.360 -0.3522  0.0439  0.3877
 2284SOL     OW18313   0.647   0.816   2.653 -0.5167  0.0073 -0.0288
 2284SOL    HW118314   0.676   0.897   2.610  0.0622 -0.1478  0.0796
 2284SOL    HW218315   0.656   0.838   2.745 -1.0992  0.1128  0.0077
 2285SOL     OW18316   4.563   0.265   7.829  0.1210 -0.0011 -0.1295
 2285SOL    HW118317   4.475   0.241   7.858  1.4593 -2.6807  1.7777
 2285SOL    HW218318   4.557   0.331   7.761  1.5923  0.5866  0.3018
 2286SOL     OW18319   1.221   0.902   2.608  0.0115  0.4705 -0.3271
 2286SOL    HW118320   1.281   0.871   2.541  1.2900  2.4935 -0.1361
 2286SOL    HW218321   1.148   0.928   2.551  0.8881 -0.1073 -1.7177
 2287SOL     OW18322   0.442   2.630  13.682  0.1273 -0.5183 -0.1092
 2287SOL    HW118323   0.352   2.616  13.713 -0.4742  1.6072 -0.8999
 2287SOL    HW218324   0.436   2.569  13.609  1.2273 -0.4552 -0.2473
 2288SOL     OW18325   1.020   2.641   2.261 -0.6409 -0.0620 -0.1726
 2288SOL    HW118326   1.039   2.735   2.258  3.1752 -0.8028  1.0295
 2288SOL    HW218327   0.924   2.645   2.263 -0.6258  0.5671 -0.5110
 2289SOL     OW18328   3.223   1.770   1.499 -0.1221  0.3557  0.9512
 2289SOL    HW118329   3.202   1.679   1.477  0.8596  0.4725 -0.4416
 2289SOL    HW218330   3.258   1.793   1.413  1.6554 -2.4693  0.9321
 2290SOL     OW18331   4.099   1.696  11.028  0.8126  0.2033 -0.3832
 2290SOL    HW118332   4.018   1.716  10.982  0.0821 -0.5710  0.5844
 2290SOL    HW218333   4.076   1.742  11.109  1.2090  1.8885 -1.2283
 2291SOL     OW18334   1.396   0.202  17.626 -0.0197 -0.4196 -0.4894
 2291SOL    HW118335   1.330   0.271  17.620  0.9315  0.5220 -0.1863
 2291SOL    HW218336   1.419   0.197   0.033  0.0839  0.8227 -0.4384
 2292SOL     OW18337   1.944   3.831  17.480  0.4247  0.5165 -0.0462
 2292SOL    HW118338   1.966   3.819  17.573  0.1671 -0.1817 -0.0763
 2292SOL    HW218339   1.877   3.896  17.497  1.3012  1.4146 -0.0342
 2293SOL     OW18340   1.171   3.615   3.124  0.1859 -0.1369  0.3383
 2293SOL    HW118341   1.171   3.555   3.199  2.2226  0.9411  1.1935
 2293SOL    HW218342   1.199   3.697   3.166 -0.1409  0.8886 -1.4358
 2294SOL     OW18343   0.072   0.721   9.687  0.4199  0.4886 -0.4418
 2294SOL    HW118344   0.035   0.805   9.657  3.2463  1.4706 -1.1512
 2294SOL    HW218345   0.018   0.704   9.764  0.0914  2.0917 -0.2982
 2295SOL     OW18346   0.155   1.347   7.873 -0.0688  0.0415 -0.5397
 2295SOL    HW118347   0.068   1.353   7.910 -0.0733  1.6740 -0.8041
 2295SOL    HW218348   0.156   1.255   7.846 -0.1068 -1.0026  2.9949
 2296SOL     OW18349   4.246   0.164   7.019  0.2257  0.2826 -0.2978
 2296SOL    HW118350   4.197   0.095   6.974  3.5966 -1.8344 -0.8181
 2296SOL    HW218351   4.203   0.242   6.985 -0.3662 -0.1588 -0.5491
 2297SOL     OW18352   2.034   4.480   4.762  0.1638 -0.4331 -0.2543
 2297SOL    HW118353   2.001   4.401   4.718 -0.9245  0.2623 -0.6935
 2297SOL    HW218354   2.032   4.454   4.854 -1.0354  0.5279 -0.0225
 2298SOL     OW18355   0.680   0.618  16.583  0.2275  0.1617  0.5198
 2298SOL    HW118356   0.643   0.529  16.588  0.7023  0.0963  2.8743
 2298SOL    HW218357   0.731   0.618  16.502 -1.5495 -0.2454 -0.6039
 2299SOL     OW18358   2.084   0.690   4.893 -0.6595  0.0189  0.5566
 2299SOL    HW118359   2.056   0.762   4.837 -0.3519  0.1630  0.5873
 2299SOL    HW218360   2.163   0.654   4.851  0.0445 -1.1699  2.8965
 2300SOL     OW18361   0.997   1.179   8.283  0.1262  0.5468  0.3242
 2300SOL    HW118362   1.079   1.227   8.297  1.2718 -1.7688  1.6271
 2300SOL    HW218363   0.975   1.194   8.191 -0.9502 -0.0781  0.4761
 2301SOL     OW18364   4.157   2.936   1.846  0.9738  0.0639  0.0703
 2301SOL    HW118365   4.249   2.942   1.872  0.5151  2.2665  1.2112
 2301SOL    HW218366   4.136   3.026   1.822  2.0574 -0.2447 -2.0542
 2302SOL     OW18367   0.225   2.084   8.716  0.3382  0.3131 -0.1894
 2302SOL    HW118368   0.186   2.092   8.803  1.1149 -0.6383  0.2382
 2302SOL    HW218369   0.251   2.175   8.699  0.8801  0.2179  0.1402
 2303SOL     OW18370   0.380   2.466   8.155 -0.2152  0.0242 -0.7278
 2303SOL    HW118371   0.289   2.436   8.164 -0.7518  1.9697  0.3633
 2303SOL    HW218372   0.423   2.402   8.099 -0.0016 -0.3517 -0.1303
 2304SOL     OW18373   1.078   2.413   7.808 -0.4959 -0.5144 -0.7737
 2304SOL    HW118374   1.161   2.368   7.822 -1.1574 -0.6409  2.7152
 2304SOL    HW218375   1.114   2.457   7.730  0.3536 -2.0025 -1.2191
 2305SOL     OW18376   3.947   1.429  15.314 -0.3364  0.1592 -0.2030
 2305SOL    HW118377   3.936   1.340  15.348  0.3064  0.2988  0.3692
 2305SOL    HW218378   4.042   1.443  15.315  0.1769 -3.3585 -1.3117
 2306SOL     OW18379   0.052   4.240  14.651 -0.1276  0.0177 -0.2118
 2306SOL    HW118380   0.015   4.321  14.617  2.3736  0.4513 -1.9507
 2306SOL    HW218381   4.693   4.188  14.655 -0.6867  0.9772  1.2094
 2307SOL     OW18382   0.644   3.590   5.151 -0.1454 -0.4725  0.1026
 2307SOL    HW118383   0.610   3.541   5.075  1.3888 -0.1545 -0.7871
 2307SOL    HW218384   0.739   3.593   5.140 -0.4709  1.1079 -2.3140
 2308SOL     OW18385   2.746   2.212  10.238 -0.0100  0.2375 -0.4777
 2308SOL    HW118386   2.752   2.118  10.253  0.3537  0.7809  2.6927
 2308SOL    HW218387   2.796   2.239  10.314 -0.1590 -1.6619  0.3042
 2309SOL     OW18388   2.159   0.686   6.113 -0.1182 -0.3645 -0.2310
 2309SOL    HW118389   2.183   0.777   6.098  1.1278 -0.8900 -1.4784
 2309SOL    HW218390   2.195   0.654   6.030 -0.1122 -2.5605  0.6188
 2310SOL     OW18391   0.007   1.991   5.121 -0.3264 -0.3568 -0.7175
 2310SOL    HW118392   4.648   1.966   5.074 -1.2243  2.2105 -0.5414
 2310SOL    HW218393   0.028   1.902   5.151  1.2538  0.6068  1.0657
 2311SOL     OW18394   0.570   0.279   6.372 -0.2055 -0.5467 -0.4969
 2311SOL    HW118395   0.599   0.273   6.281  2.3369  1.6585  0.1819
 2311SOL    HW218396   0.525   0.197   6.394 -1.1622 -0.2238 -1.2388
 2312SOL     OW18397   1.607   4.242   2.197 -0.2842  0.0242  0.0814
 2312SOL    HW118398   1.683   4.209   2.245 -1.0422  0.1372  1.3507
 2312SOL    HW218399   1.592   4.180   2.125 -1.0360  0.2445  0.0438
 2313SOL     OW18400   3.612   1.467  13.964  0.0521  0.0197 -0.1316
 2313SOL    HW118401   3.675   1.461  13.891 -1.7078  2.9219 -1.9216
 2313SOL    HW218402   3.525   1.453  13.927  0.7615  1.0511 -2.2228
 2314SOL     OW18403   0.866   3.847   2.045  0.4814 -0.3285 -0.1686
 2314SOL    HW118404   0.932   3.903   2.086  0.1495 -1.0503  1.3565
 2314SOL    HW218405   0.858   3.881   1.956  3.1854 -0.2654 -0.3810
 2315SOL     OW18406   1.366   3.049   5.380  0.2526 -0.0737 -0.3928
 2315SOL    HW118407   1.455   3.020   5.400  0.1338 -0.4261 -0.3683
 2315SOL    HW218408   1.350   3.002   5.298  2.4178 -2.2989  0.4550
 2316SOL     OW18409   4.273   3.877  11.840 -1.0848  0.1218  0.1239
 2316SOL    HW118410   4.179   3.888  11.824 -1.3377 -1.8620  0.3080
 2316SOL    HW218411   4.283   3.794  11.793 -0.6000  0.7764 -0.9265
 2317SOL     OW18412   1.168   2.849   6.129 -0.1038 -0.3614 -0.3706
 2317SOL    HW118413   1.207   2.892   6.204 -2.5439 -0.4029  0.9156
 2317SOL    HW218414   1.103   2.916   6.109  0.9306  0.8044  0.1350
 2318SOL     OW18415   2.956   3.207   4.058 -0.0486  0.3530 -0.0524
 2318SOL    HW118416   2.971   3.230   3.966 -0.3247 -0.7278 -0.3686
 2318SOL    HW218417   2.988   3.118   4.066 -0.3151  0.0467 -2.4296
 2319SOL     OW18418   1.823   3.535   8.633 -0.1555  0.6588 -0.3405
 2319SOL    HW118419   1.838   3.458   8.687  0.8897  0.7954 -0.4385
 2319SOL    HW218420   1.730   3.514   8.622  0.4701 -1.3596 -1.6394
 2320SOL     OW18421   1.451   0.151  13.171  0.3953 -0.2276 -0.0802
 2320SOL    HW118422   1.445   0.068  13.124  0.3025  0.0967 -0.6358
 2320SOL    HW218423   1.465   0.119  13.261  1.1711  1.9870  0.5739
 2321SOL     OW18424   1.426   1.676   8.332 -0.1591  0.8250 -0.4567
 2321SOL    HW118425   1.473   1.599   8.364 -0.0526  0.7664 -0.7578
 2321SOL    HW218426   1.340   1.635   8.320 -1.1703  2.6859  0.4130
 2322SOL     OW18427   1.115   1.813   6.782  0.6763 -0.0782  0.1860
 2322SOL    HW118428   1.103   1.813   6.877 -1.8046  1.1620 -0.1509
 2322SOL    HW218429   1.034   1.845   6.744  0.8450 -0.6320 -0.6357
 2323SOL     OW18430   2.576   1.021   0.204  0.0212 -0.5478 -0.7618
 2323SOL    HW118431   2.547   0.982   0.121 -0.1661 -1.0436 -0.4617
 2323SOL    HW218432   2.493   1.035   0.251 -0.4383  0.7227 -1.9494
 2324SOL     OW18433   1.412   0.686  17.028 -0.1082 -0.4401 -0.4834
 2324SOL    HW118434   1.475   0.648  17.090 -0.7757  0.8302  0.9448
 2324SOL    HW218435   1.478   0.710  16.963  1.7283  2.1910  2.3120
 2325SOL     OW18436   2.828   2.574  14.986  0.4631  0.7866  0.1816
 2325SOL    HW118437   2.863   2.523  14.913  2.0289  2.9617 -0.5966
 2325SOL    HW218438   2.766   2.632  14.941 -0.1076  0.2946  0.3293
 2326SOL     OW18439   1.024   3.211   7.999  0.6966 -0.0638  0.4025
 2326SOL    HW118440   1.016   3.176   8.088 -0.9939 -2.0557 -0.5162
 2326SOL    HW218441   0.959   3.159   7.952  0.4219  1.5453 -0.9519
 2327SOL     OW18442   1.714   0.224  14.682  0.1869 -0.8105  0.4201
 2327SOL    HW118443   1.653   0.277  14.734 -1.6198 -2.2448 -0.2114
 2327SOL    HW218444   1.670   0.139  14.693 -0.5073 -0.5824 -0.6391
 2328SOL     OW18445   1.973   2.963   0.314  0.1330  0.3421  0.0603
 2328SOL    HW118446   1.917   2.886   0.320  2.8654 -1.5686  0.7239
 2328SOL    HW218447   1.932   3.022   0.378  1.0349  2.2696 -1.1601
 2329SOL     OW18448   3.669   2.655  10.115 -0.3836 -0.5242 -0.7152
 2329SOL    HW118449   3.731   2.694  10.054 -0.1759  0.6926  0.2923
 2329SOL    HW218450   3.710   2.570  10.131 -0.2337 -0.8696 -2.9064
 2330SOL     OW18451   4.468   0.052   3.826  0.4332  0.1362 -0.1994
 2330SOL    HW118452   4.484   0.143   3.851  1.8264 -0.3881  0.8075
 2330SOL    HW218453   4.403   0.036   3.895  0.4336  0.2099 -0.1821
 2331SOL     OW18454   4.424   0.131  12.913  0.1686 -0.2771  0.2783
 2331SOL    HW118455   4.483   0.191  12.867 -2.1728  1.7627 -0.0384
 2331SOL    HW218456   4.348   0.144  12.857  1.4371 -0.5244 -1.5201
 2332SOL     OW18457   1.396   1.911   5.161 -0.2267 -0.2437 -0.8314
 2332SOL    HW118458   1.470   1.936   5.217 -2.2437  1.2955  1.1804
 2332SOL    HW218459   1.335   1.984   5.176 -1.7264 -1.7306  0.2582
 2333SOL     OW18460   4.019   0.786   6.033  0.3773 -0.1435  0.2433
 2333SOL    HW118461   3.933   0.827   6.022  0.6402  0.9239  2.3134
 2333SOL    HW218462   4.055   0.797   5.945  1.3660 -0.1650  0.6462
 2334SOL     OW18463   3.494   1.851   8.917 -0.4271 -0.3999 -0.7915
 2334SOL    HW118464   3.546   1.916   8.870 -0.0926 -0.4461 -0.4809
 2334SOL    HW218465   3.419   1.849   8.857 -0.1038 -0.0152 -1.2058
 2335SOL     OW18466   0.528   1.078   2.975 -0.2954 -0.1724 -0.2569
 2335SOL    HW118467   0.443   1.060   3.015  0.3742  0.7798  1.5631
 2335SOL    HW218468   0.495   1.155   2.929  1.4795  0.2935 -0.7240
 2336SOL     OW18469   0.857   4.045   0.942  0.0386  0.0938 -0.0041
 2336SOL    HW118470   0.900   3.968   0.978 -1.4706 -0.9472 -0.4377
 2336SOL    HW218471   0.897   4.114   0.994 -1.4259  1.2225 -0.3720
 2337SOL     OW18472   4.474   4.454   4.554 -0.9060 -0.1480 -0.5080
 2337SOL    HW118473   4.493   4.438   4.462 -1.1451  0.0502 -0.5910
 2337SOL    HW218474   4.453   4.547   4.559 -1.3285 -0.2653 -0.0700
 2338SOL     OW18475   0.578   4.134  11.129  0.3106 -0.0462 -0.4987
 2338SOL    HW118476   0.651   4.158  11.185 -0.3234  0.2460  0.2076
 2338SOL    HW218477   0.528   4.095  11.201  0.8898 -1.1056 -0.6578
 2339SOL     OW18478   3.604   4.317   4.623 -0.1809 -0.0931 -0.1805
 2339SOL    HW118479   3.631   4.238   4.575 -0.3932 -0.4548  0.2873
 2339SOL    HW218480   3.530   4.289   4.678 -0.2179  1.4374  0.5368
 2340SOL     OW18481   3.467   0.366   6.958 -0.1174 -0.4663 -0.0689
 2340SOL    HW118482   3.553   0.399   6.933 -0.9025  1.1057 -0.6410
 2340SOL    HW218483   3.440   0.435   7.018  1.8211  0.3366 -0.1177
 2341SOL     OW18484   0.030   1.575   3.145  0.6739 -0.3308  0.2923
 2341SOL    HW118485   0.123   1.553   3.134  0.5264 -1.0834  0.5409
 2341SOL    HW218486   0.035   1.652   3.201 -1.2293 -0.4106  0.5564
 2342SOL     OW18487   4.618   2.547   5.769 -0.6524 -0.2457  0.0343
 2342SOL    HW118488   4.681   2.480   5.743  1.9045  1.7296  1.1064
 2342SOL    HW218489   4.559   2.541   5.694  1.2105  1.2837 -1.5390
 2343SOL     OW18490   0.479   3.740   4.561  0.1563 -0.0307  0.0685
 2343SOL    HW118491   0.520   3.792   4.631 -1.0966 -1.4481  1.8613
 2343SOL    HW218492   0.536   3.664   4.570  1.4770  0.7246 -1.8510
 2344SOL     OW18493   1.819   4.639   1.450 -0.1728 -0.3956 -0.1028
 2344SOL    HW118494   1.823   0.010   1.477  0.8826 -0.7176  0.8422
 2344SOL    HW218495   1.726   4.615   1.445  0.0738 -0.8997 -2.1829
 2345SOL     OW18496   1.014   2.253   8.807  0.2389  0.4473  0.0961
 2345SOL    HW118497   1.090   2.218   8.854 -0.0893 -1.3869 -0.7491
 2345SOL    HW218498   1.069   2.302   8.746 -1.8888 -0.8597 -2.8696
 2346SOL     OW18499   3.683   0.616   2.737  0.2065  0.0022  0.2814
 2346SOL    HW118500   3.749   0.678   2.707 -0.1831 -1.4931 -3.6641
 2346SOL    HW218501   3.744   0.555   2.778  3.2864  1.7442 -1.7096
 2347SOL     OW18502   0.554   2.210   2.688  0.6238 -0.7640 -0.2004
 2347SOL    HW118503   0.642   2.226   2.722 -0.2890  1.2862  1.2183
 2347SOL    HW218504   0.512   2.154   2.753 -0.0639 -0.1512 -0.1132
 2348SOL     OW18505   4.573   3.042   7.487 -0.3163  0.2301 -0.0473
 2348SOL    HW118506   4.547   3.057   7.578  0.7640  1.2349  0.1004
 2348SOL    HW218507   4.607   3.128   7.461 -1.5574  0.6216 -0.3839
 2349SOL     OW18508   3.701   3.195   4.884  0.0985 -0.8652  0.3662
 2349SOL    HW118509   3.744   3.198   4.970 -0.9373 -2.5285  0.9362
 2349SOL    HW218510   3.612   3.218   4.911 -0.1891 -1.1669 -0.3324
 2350SOL     OW18511   0.581   3.361  11.318 -0.0180 -0.0488 -0.0013
 2350SOL    HW118512   0.490   3.330  11.318 -0.5009  1.3381 -0.9536
 2350SOL    HW218513   0.608   3.337  11.229  1.4514  1.5328  0.0092
 2351SOL     OW18514   4.389   2.518  17.608  0.0947  0.2545 -0.2665
 2351SOL    HW118515   4.333   2.440  17.615  1.5597 -0.5328  2.5458
 2351SOL    HW218516   4.355   2.575  17.676 -1.4620  0.0352 -0.8517
 2352SOL     OW18517   4.127   1.768   8.322 -0.6476  0.0267  0.7656
 2352SOL    HW118518   4.073   1.698   8.357 -0.4255  0.5310  2.1165
 2352SOL    HW218519   4.140   1.817   8.404 -0.5638  1.6198 -0.1878
 2353SOL     OW18520   0.044   1.040  10.586 -0.3475  0.1930  0.3291
 2353SOL    HW118521   0.104   1.056  10.512 -0.1708 -0.5549  0.3124
 2353SOL    HW218522   4.720   0.964  10.551  2.0069 -0.9890 -0.1445
 2354SOL     OW18523   3.306   2.086  10.690 -0.6205  0.5831  0.2160
 2354SOL    HW118524   3.219   2.077  10.728 -0.5022 -0.0756  0.3172
 2354SOL    HW218525   3.314   2.180  10.668 -1.2606  1.2003  2.7063
 2355SOL     OW18526   3.144   0.814   0.344  0.1136  0.5400 -0.3979
 2355SOL    HW118527   3.199   0.741   0.372  1.1660  1.9884  1.2662
 2355SOL    HW218528   3.075   0.807   0.410 -0.8624  1.1666 -1.3485
 2356SOL     OW18529   1.820   3.474  12.130  0.3774  0.1993 -0.1532
 2356SOL    HW118530   1.780   3.561  12.127 -1.0317 -0.3967  1.5015
 2356SOL    HW218531   1.794   3.438  12.045 -0.1404 -3.4499  1.5319
 2357SOL     OW18532   3.637   2.660  16.666  0.3060 -0.0453 -0.2980
 2357SOL    HW118533   3.578   2.735  16.661  0.8048  0.2607 -1.8390
 2357SOL    HW218534   3.722   2.693  16.694  1.3391 -1.2323 -1.9944
 2358SOL     OW18535   2.361   1.339   4.454  0.1448  0.8163 -0.0477
 2358SOL    HW118536   2.441   1.353   4.404 -0.4397 -1.2428 -1.5465
 2358SOL    HW218537   2.381   1.253   4.492 -0.2338 -0.3228 -2.4197
 2359SOL     OW18538   0.143   4.026   5.112 -0.7686 -0.1342  0.7953
 2359SOL    HW118539   0.136   4.057   5.022  1.8220 -0.5209  0.4414
 2359SOL    HW218540   0.062   4.060   5.149  0.4182  1.7921  1.6178
 2360SOL     OW18541   4.090   1.088   3.388  0.1331  0.2825 -0.3628
 2360SOL    HW118542   4.095   1.174   3.345 -1.9261 -0.2875 -1.7524
 2360SOL    HW218543   4.002   1.091   3.426  0.0597 -1.6598 -0.3642
 2361SOL     OW18544   2.330   3.581  11.952 -0.5298  0.5613 -0.8002
 2361SOL    HW118545   2.410   3.628  11.976 -0.4483  0.9764 -1.8634
 2361SOL    HW218546   2.334   3.515  12.021 -0.1607  0.3509 -1.0250
 2362SOL     OW18547   4.482   4.104   0.900  0.2267 -0.0000  0.1519
 2362SOL    HW118548   4.406   4.084   0.955  0.2990  1.5460  0.8117
 2362SOL    HW218549   4.474   4.038   0.831 -0.6427 -0.8256  1.0509
 2363SOL     OW18550   2.644   1.068   6.191  0.5403  0.7989  0.0341
 2363SOL    HW118551   2.665   1.027   6.275  1.5372  1.8314  0.2818
 2363SOL    HW218552   2.679   1.014   6.120  2.3757  2.2448 -0.1460
 2364SOL     OW18553   4.285   0.626  16.014 -0.5669  0.1435 -0.2935
 2364SOL    HW118554   4.273   0.558  15.948  0.8727 -0.0645 -0.3502
 2364SOL    HW218555   4.337   0.693  15.970 -0.7046  1.2119  1.1493
 2365SOL     OW18556   1.828   2.515  16.698  0.2175  0.8788 -0.9068
 2365SOL    HW118557   1.913   2.483  16.725 -0.4600  0.6716  0.9473
 2365SOL    HW218558   1.847   2.573  16.624 -0.6262  2.7821  0.3781
 2366SOL     OW18559   0.711   1.055   1.888  0.1037 -0.0872 -0.3590
 2366SOL    HW118560   0.681   1.133   1.842  1.8597  0.3075 -0.8485
 2366SOL    HW218561   0.703   0.991   1.817 -2.0693 -1.5652  1.2082
 2367SOL     OW18562   4.433   1.267   5.426  0.2469  0.1052  0.3896
 2367SOL    HW118563   4.422   1.277   5.331 -0.3138 -0.8225  0.3645
 2367SOL    HW218564   4.391   1.349   5.454 -1.8367 -0.5205 -0.8945
 2368SOL     OW18565   0.224   0.403   2.182  0.1953  0.3939  0.0400
 2368SOL    HW118566   0.148   0.411   2.241  0.6097 -0.8652  0.7532
 2368SOL    HW218567   0.178   0.354   2.114  0.0183 -1.1663  1.2689
 2369SOL     OW18568   2.934   3.754   4.521  0.7445  0.2742 -0.0082
 2369SOL    HW118569   2.908   3.662   4.515 -0.1369  0.4886  0.5174
 2369SOL    HW218570   3.022   3.751   4.482  0.6519  0.6154 -0.2459
 2370SOL     OW18571   1.424   0.912  11.999  0.1439 -0.2289  0.3863
 2370SOL    HW118572   1.334   0.939  12.018 -0.6371 -0.5191 -2.8360
 2370SOL    HW218573   1.473   0.973  12.054  0.4505  0.9002 -1.1396
 2371SOL     OW18574   4.422   2.777   5.552  0.0193  0.1412  0.1628
 2371SOL    HW118575   4.413   2.837   5.626  1.0222  0.8295 -0.2760
 2371SOL    HW218576   4.354   2.815   5.496 -0.6303  0.0658  0.8916
 2372SOL     OW18577   4.344   4.687  10.218 -0.3632  0.1175  0.0927
 2372SOL    HW118578   4.413   4.667  10.280 -0.2720  0.1403 -0.0004
 2372SOL    HW218579   4.272   4.642  10.263 -0.8275  1.3198  0.5260
 2373SOL     OW18580   0.707   4.383   7.840 -0.3752  0.5166  0.0032
 2373SOL    HW118581   0.790   4.367   7.885  1.2948  1.7991 -2.5980
 2373SOL    HW218582   0.735   4.375   7.749 -0.8360  0.2439 -0.1162
 2374SOL     OW18583   1.377   3.996   4.400 -0.0258  0.3585 -0.6998
 2374SOL    HW118584   1.451   3.935   4.393  0.2436  0.4359  1.3636
 2374SOL    HW218585   1.415   4.068   4.350 -0.6836  0.0829 -1.5992
 2375SOL     OW18586   1.395   4.071   7.927  0.4788 -0.2434 -0.0148
 2375SOL    HW118587   1.422   4.129   7.856  1.8977 -1.3083 -0.3546
 2375SOL    HW218588   1.308   4.109   7.937  0.7796  0.0720  1.3951
 2376SOL     OW18589   2.274   2.451   4.533 -0.5484  0.5148  0.2217
 2376SOL    HW118590   2.354   2.422   4.577  0.5042  1.3655 -1.1149
 2376SOL    HW218591   2.319   2.512   4.474 -0.0347 -1.3924 -1.3780
 2377SOL     OW18592   2.021   0.749   0.785 -0.1042 -0.0731 -0.1271
 2377SOL    HW118593   2.045   0.666   0.826  1.0598 -0.9242 -2.5232
 2377SOL    HW218594   2.038   0.731   0.693  2.1788 -0.3661  0.3629
 2378SOL     OW18595   1.627   0.563  14.792 -0.1916  0.2499  0.0818
 2378SOL    HW118596   1.567   0.594  14.724 -1.2047 -1.0524  0.3841
 2378SOL    HW218597   1.593   0.474  14.794  0.1960  0.0865 -0.5509
 2379SOL     OW18598   0.874   0.223   3.711 -0.0162 -0.2297  0.0972
 2379SOL    HW118599   0.913   0.165   3.645  0.5096  2.2309 -1.7615
 2379SOL    HW218600   0.944   0.219   3.777 -1.9146 -0.4871  2.0880
 2380SOL     OW18601   1.279   0.450   2.400 -0.7369 -0.0418  0.1413
 2380SOL    HW118602   1.185   0.465   2.396 -0.6675  0.2084 -0.6724
 2380SOL    HW218603   1.298   0.476   2.490 -0.2698  0.6477 -0.1636
 2381SOL     OW18604   2.770   2.110   6.774 -0.5138  0.6232  0.4813
 2381SOL    HW118605   2.727   2.196   6.766  1.1518  1.4778  0.7612
 2381SOL    HW218606   2.829   2.125   6.700 -0.7975 -2.1650 -0.2778
 2382SOL     OW18607   3.141   0.654   3.163  0.2672 -0.1624 -0.3066
 2382SOL    HW118608   3.103   0.566   3.167  1.4515 -0.7028 -1.0167
 2382SOL    HW218609   3.174   0.660   3.253 -1.0135 -1.3415  0.2338
 2383SOL     OW18610   1.555   0.061   0.172 -0.2079 -0.1513 -0.4312
 2383SOL    HW118611   1.570   4.713   0.237  3.1432  0.2436 -0.7882
 2383SOL    HW218612   1.549   0.148   0.211  1.8244  0.4464 -1.4087
 2384SOL     OW18613   2.945   3.861   0.265  0.5810 -0.4276 -0.3745
 2384SOL    HW118614   2.939   3.896   0.354  1.6088 -2.2794  0.4057
 2384SOL    HW218615   3.035   3.831   0.258  0.7836 -0.3781  1.8407
 2385SOL     OW18616   1.673   0.012  13.014  0.2268  0.2533 -0.1576
 2385SOL    HW118617   1.691   0.058  12.933  2.4277  0.6962  0.5800
 2385SOL    HW218618   1.583   0.046  13.023 -0.5221 -1.1699 -2.4054
 2386SOL     OW18619   0.192   0.822   2.745  0.2366  0.7894  0.5955
 2386SOL    HW118620   0.158   0.888   2.806  2.1413 -0.3823  2.8887
 2386SOL    HW218621   0.262   0.873   2.705 -0.4252 -1.2002 -3.1422
 2387SOL     OW18622   4.377   0.652   9.371  0.5575  0.3711 -0.7292
 2387SOL    HW118623   4.455   0.653   9.427  1.6086 -1.6998 -2.1187
 2387SOL    HW218624   4.416   0.635   9.285  2.2002 -0.6027  0.2066
 2388SOL     OW18625   1.326   0.526  16.045 -0.1592 -0.1180 -0.1228
 2388SOL    HW118626   1.240   0.484  16.047 -1.0246  1.6711  0.1730
 2388SOL    HW218627   1.390   0.459  16.021  1.4895  0.6148  2.1371
 2389SOL     OW18628   4.125   0.122   6.621 -0.0337 -0.6732 -0.2373
 2389SOL    HW118629   4.108   0.029   6.636 -0.6600 -0.3559  0.9977
 2389SOL    HW218630   4.066   0.168   6.680 -0.3687  0.5069 -1.4894
 2390SOL     OW18631   1.489   2.559   5.480 -0.2939  0.2677 -0.2164
 2390SOL    HW118632   1.551   2.515   5.422 -0.2077 -1.2538  1.0052
 2390SOL    HW218633   1.412   2.564   5.423 -0.3868  1.1539 -0.0156
 2391SOL     OW18634   0.506   3.609  10.307 -0.3652  0.8204 -0.1930
 2391SOL    HW118635   0.557   3.673  10.257 -2.1983  0.3616 -2.6345
 2391SOL    HW218636   0.546   3.625  10.393 -0.5018 -0.3586  0.0827
 2392SOL     OW18637   0.311   0.277   2.616  0.3074  0.0476 -0.0988
 2392SOL    HW118638   0.286   0.285   2.708 -1.0044  3.6576 -0.7581
 2392SOL    HW218639   0.322   0.369   2.593 -0.1347  0.9050  3.1026
 2393SOL     OW18640   3.442   1.415   8.278  0.8536 -0.8234  0.6107
 2393SOL    HW118641   3.431   1.465   8.197  0.9543 -1.1301  0.4053
 2393SOL    HW218642   3.382   1.341   8.275 -0.2212  0.0633  0.2636
 2394SOL     OW18643   3.583   0.563   5.313 -0.3206 -0.6943 -0.2621
 2394SOL    HW118644   3.544   0.478   5.290  0.5185 -0.6991 -1.6967
 2394SOL    HW218645   3.506   0.601   5.355 -1.5862 -2.1760 -1.2136
 2395SOL     OW18646   3.337   0.792  15.938  0.6330 -0.4017  0.7334
 2395SOL    HW118647   3.372   0.879  15.954 -0.6773  0.1270  0.7329
 2395SOL    HW218648   3.242   0.796  15.925  0.6699 -2.4111 -0.2466
 2396SOL     OW18649   0.997   2.022  13.906  0.1190 -0.0762  0.0066
 2396SOL    HW118650   1.010   2.084  13.834  0.2700  1.5739  1.4519
 2396SOL    HW218651   0.930   1.966  13.868 -0.0337  0.0676  0.0633
 2397SOL     OW18652   3.944   1.457  10.914 -0.0917 -0.0129  0.4627
 2397SOL    HW118653   3.952   1.400  10.991 -2.1564  0.4397  1.0146
 2397SOL    HW218654   4.016   1.517  10.931 -0.0398  0.1220 -0.2538
 2398SOL     OW18655   2.962   2.731  13.591  0.2792  0.0927 -0.0136
 2398SOL    HW118656   2.973   2.696  13.679 -0.5881 -0.9176 -0.3059
 2398SOL    HW218657   2.903   2.803  13.615  1.2105  1.2724 -1.2467
 2399SOL     OW18658   2.756   2.139   1.041  0.0918  0.4854 -0.2999
 2399SOL    HW118659   2.702   2.090   0.978 -0.4359  1.6816 -0.7802
 2399SOL    HW218660   2.820   2.169   0.977  0.4077 -0.2035 -0.3025
 2400SOL     OW18661   3.665   0.136   3.624  0.5168 -0.0790 -0.1106
 2400SOL    HW118662   3.626   0.085   3.694 -1.6414  0.4766 -0.9269
 2400SOL    HW218663   3.725   0.178   3.686 -0.4646 -0.7434  1.2676
 2401SOL     OW18664   3.055   1.519   0.634 -0.1931 -0.4878  0.2366
 2401SOL    HW118665   3.035   1.480   0.719  2.3600  0.9830  1.5135
 2401SOL    HW218666   3.133   1.572   0.647 -0.0508 -1.1671  2.1303
 2402SOL     OW18667   0.192   4.306   3.006  0.4593  0.3877  0.3410
 2402SOL    HW118668   0.286   4.325   3.000  0.2180  1.1104 -1.3473
 2402SOL    HW218669   0.194   4.288   3.100 -0.5557  1.0968  0.4938
 2403SOL     OW18670   0.386   4.333   5.472  0.4419 -0.1603  0.0111
 2403SOL    HW118671   0.419   4.409   5.424  2.5663 -0.7141  0.5546
 2403SOL    HW218672   0.321   4.376   5.526  0.6921 -1.9243  1.7294
 2404SOL     OW18673   3.308   1.217  10.144 -0.3437  0.0257 -0.5452
 2404SOL    HW118674   3.347   1.237  10.229  0.3912 -2.6917 -0.2382
 2404SOL    HW218675   3.379   1.259  10.096  0.3526 -1.1129 -0.5121
 2405SOL     OW18676   1.602   2.179  13.310 -0.1907  0.3003 -0.1401
 2405SOL    HW118677   1.571   2.172  13.220 -0.3434 -0.6234 -0.0135
 2405SOL    HW218678   1.524   2.211  13.356 -2.5825 -2.2339 -2.4531
 2406SOL     OW18679   0.391   3.873   3.854 -0.1619 -0.1505  0.1398
 2406SOL    HW118680   0.323   3.850   3.791  0.4654 -1.8534  0.1009
 2406SOL    HW218681   0.421   3.785   3.876  3.4364  1.1098  0.2319
 2407SOL     OW18682   4.481   0.939   6.064 -0.1006 -0.2739 -0.2299
 2407SOL    HW118683   4.471   0.979   5.978  1.1322 -0.2202 -0.3500
 2407SOL    HW218684   4.461   1.014   6.119  1.6543  0.4343 -0.5591
 2408SOL     OW18685   0.220   1.011   7.077  0.0381  0.8787  0.4709
 2408SOL    HW118686   0.151   1.022   7.012  0.4284  1.9052  0.2243
 2408SOL    HW218687   0.304   1.007   7.033 -0.5456  0.2776 -0.5719
 2409SOL     OW18688   2.400   0.771   3.882  0.1412 -0.6571 -0.0442
 2409SOL    HW118689   2.446   0.820   3.813  1.2117 -1.9510 -0.2403
 2409SOL    HW218690   2.308   0.781   3.857  0.0488 -1.4138 -0.0035
 2410SOL     OW18691   0.731   1.027   5.828  0.6534 -0.1402 -0.1872
 2410SOL    HW118692   0.780   0.953   5.863  1.4694  1.3254  1.8117
 2410SOL    HW218693   0.779   1.045   5.748  2.3808  1.0907  1.1198
 2411SOL     OW18694   0.522   0.833   7.713  0.1869 -0.2459 -0.4295
 2411SOL    HW118695   0.550   0.754   7.666 -1.2345 -1.0513  0.0791
 2411SOL    HW218696   0.558   0.903   7.658 -0.3769  1.0198  0.8158
 2412SOL     OW18697   0.861   4.262   1.920  0.4234  0.2137  0.3703
 2412SOL    HW118698   0.840   4.250   1.828  2.1236 -0.2154  0.0417
 2412SOL    HW218699   0.835   4.354   1.923  1.5522  0.4857  2.2432
 2413SOL     OW18700   1.013   0.156   3.176 -0.1496 -0.3619  0.3116
 2413SOL    HW118701   1.067   0.184   3.249 -0.2476  2.0069 -0.5115
 2413SOL    HW218702   1.030   0.226   3.112  1.7680 -0.4615  0.7053
 2414SOL     OW18703   2.516   4.425  16.477 -0.3601 -0.1462  0.2551
 2414SOL    HW118704   2.435   4.374  16.477 -1.7899  2.0775  1.8896
 2414SOL    HW218705   2.488   4.517  16.478  0.0769 -0.0093 -1.3155
 2415SOL     OW18706   4.070   2.814  11.952  0.8097  0.1532  0.0644
 2415SOL    HW118707   4.119   2.873  11.895  1.5437 -0.0825  0.4497
 2415SOL    HW218708   4.120   2.814  12.034  0.2412 -1.2091  0.4075
 2416SOL     OW18709   3.868   3.015   6.386 -0.4239  0.2138 -0.2306
 2416SOL    HW118710   3.786   3.027   6.339 -0.7768 -2.4213 -0.2473
 2416SOL    HW218711   3.841   2.974   6.468 -0.4661 -1.8584 -1.2932
 2417SOL     OW18712   0.417   2.288  10.089 -0.3352  0.1115 -0.1136
 2417SOL    HW118713   0.449   2.378  10.089 -1.7505  0.6188 -0.6008
 2417SOL    HW218714   0.436   2.252  10.002  0.1102 -3.6184  1.5273
 2418SOL     OW18715   0.806   4.521   1.866 -0.4425  0.4590  0.2980
 2418SOL    HW118716   0.844   4.608   1.876  0.8640 -0.0535 -0.1627
 2418SOL    HW218717   0.756   4.533   1.786 -0.3128  0.9298  0.2883
 2419SOL     OW18718   2.898   0.080   6.627 -0.5022  0.1346  0.2791
 2419SOL    HW118719   2.915   0.174   6.622  0.9300 -0.0781  1.1830
 2419SOL    HW218720   2.979   0.052   6.670 -0.4001  1.2962  0.8312
 2420SOL     OW18721   2.372   2.885  16.006  0.2751 -0.1062 -0.0684
 2420SOL    HW118722   2.419   2.842  15.934  0.1237  1.7999 -1.2959
 2420SOL    HW218723   2.418   2.968  16.021  0.6731 -0.4340  0.5258
 2421SOL     OW18724   0.247   0.593   8.688 -0.6941  0.4923 -0.3731
 2421SOL    HW118725   0.177   0.534   8.659  0.6260 -1.5495  0.6403
 2421SOL    HW218726   0.277   0.551   8.768  0.4834 -2.0473 -2.1517
 2422SOL     OW18727   4.351   1.073   3.760 -0.1763  0.2972 -0.3325
 2422SOL    HW118728   4.311   1.065   3.673 -0.5201 -2.0883  0.0418
 2422SOL    HW218729   4.334   1.165   3.780 -0.7605  0.1067  0.0468
 2423SOL     OW18730   3.324   0.382  14.524 -1.1274 -0.0792 -0.1832
 2423SOL    HW118731   3.237   0.348  14.546 -1.5215 -0.5222 -2.4424
 2423SOL    HW218732   3.380   0.337  14.588 -0.2257  0.3307 -0.6878
 2424SOL     OW18733   3.187   1.466   4.209 -0.1175  0.3157  0.6149
 2424SOL    HW118734   3.219   1.526   4.142  1.1162  0.3798  1.2658
 2424SOL    HW218735   3.207   1.525   4.282  0.5891 -0.7641  1.2914
 2425SOL     OW18736   1.307   2.935  10.219 -0.1657  0.8855 -0.0068
 2425SOL    HW118737   1.216   2.964  10.216 -0.4264  0.1113  0.7028
 2425SOL    HW218738   1.308   2.877  10.143 -0.2033  0.6297  0.1885
 2426SOL     OW18739   1.787   2.846  10.531 -0.4051  0.0445 -0.7895
 2426SOL    HW118740   1.723   2.789  10.574 -1.1266  1.1004 -0.4488
 2426SOL    HW218741   1.729   2.914  10.497 -0.0745  0.7485  0.0651
 2427SOL     OW18742   1.892   1.551  12.022  0.5373 -0.9526  0.2082
 2427SOL    HW118743   1.838   1.474  12.004  1.5008 -1.9066  1.4443
 2427SOL    HW218744   1.863   1.564  12.112  0.3120 -4.4758  0.6609
 2428SOL     OW18745   1.866   1.113   3.524  0.0595  0.8526 -0.0093
 2428SOL    HW118746   1.940   1.120   3.585 -0.9613  1.7079  1.1421
 2428SOL    HW218747   1.854   1.018   3.524 -1.5616  1.0533  2.4385
 2429SOL     OW18748   2.479   4.603  14.090  0.1576 -0.6612  0.5926
 2429SOL    HW118749   2.395   4.631  14.126 -0.4367 -2.0727  0.3031
 2429SOL    HW218750   2.544   4.630  14.155  1.7436  1.1238 -1.7451
 2430SOL     OW18751   2.189   0.791   3.510 -0.1700  0.6184 -0.1422
 2430SOL    HW118752   2.231   0.875   3.490  2.6909 -0.8293 -0.1800
 2430SOL    HW218753   2.120   0.779   3.445  0.9486 -2.5590 -0.7329
 2431SOL     OW18754   3.731   0.197  10.091  0.3641  0.2905 -0.0186
 2431SOL    HW118755   3.812   0.246  10.106  1.0014 -1.3872  2.1428
 2431SOL    HW218756   3.764   0.109  10.074 -1.5944 -0.3069 -0.7736
 2432SOL     OW18757   2.575   1.957  10.804  0.0457 -0.1747 -0.0630
 2432SOL    HW118758   2.594   1.863  10.813  0.4479 -0.3292 -2.4944
 2432SOL    HW218759   2.488   1.959  10.765  0.1228 -0.6430 -0.2656
 2433SOL     OW18760   1.268   1.754   5.500  0.3563  0.1019  0.4933
 2433SOL    HW118761   1.186   1.710   5.477  1.2914 -0.5695 -1.5986
 2433SOL    HW218762   1.244   1.841   5.531 -2.5480  0.2270 -2.1128
 2434SOL     OW18763   3.087   4.083   3.086  0.6600  0.7148 -0.2747
 2434SOL    HW118764   3.171   4.089   3.131  0.8077 -2.9022 -0.1332
 2434SOL    HW218765   3.098   4.162   3.032  1.2200  1.0227  0.2865
 2435SOL     OW18766   2.841   2.605   8.879  0.4038  0.5697  0.3952
 2435SOL    HW118767   2.798   2.569   8.956 -0.3564  1.4178  0.3712
 2435SOL    HW218768   2.908   2.543   8.850  0.4637  1.1363 -0.7031
 2436SOL     OW18769   2.687   4.698   7.526  0.4227  0.7745 -0.1310
 2436SOL    HW118770   2.775   4.701   7.490 -0.0456 -1.1872 -1.4120
 2436SOL    HW218771   2.703   4.720   7.618  0.6137  3.4932 -0.8112
 2437SOL     OW18772   2.250   3.354   0.604  0.3784  0.0201 -0.2674
 2437SOL    HW118773   2.345   3.344   0.593  0.6251 -0.0413  2.0570
 2437SOL    HW218774   2.247   3.317   0.692  2.1943  0.5789  0.0302
 2438SOL     OW18775   2.273   3.137  13.941  0.0043 -0.2435 -0.2190
 2438SOL    HW118776   2.337   3.187  13.890  1.3708  0.3192  2.0712
 2438SOL    HW218777   2.314   3.052  13.959 -1.1544 -0.7852 -0.1583
 2439SOL     OW18778   1.421   0.727  10.168  0.7181 -0.0647  0.2983
 2439SOL    HW118779   1.335   0.701  10.200  1.2242 -0.3978  1.3799
 2439SOL    HW218780   1.467   0.645  10.149  0.6796 -0.3632  1.4800
 2440SOL     OW18781   0.508   0.006  11.254 -0.5509  0.0225 -0.5420
 2440SOL    HW118782   0.460   0.089  11.259 -1.9806 -0.7763 -0.9101
 2440SOL    HW218783   0.566   0.013  11.329 -1.1749  1.0980 -0.1591
 2441SOL     OW18784   0.923   2.291  12.314 -0.4013  0.1774  0.0692
 2441SOL    HW118785   1.009   2.308  12.276  0.9180  1.7540  3.7124
 2441SOL    HW218786   0.874   2.346  12.254  0.1300  1.0594  0.4377
 2442SOL     OW18787   0.292   4.454   1.597 -0.2579 -0.1410 -0.0615
 2442SOL    HW118788   0.243   4.371   1.596 -1.2293  0.4306  0.0961
 2442SOL    HW218789   0.244   4.510   1.659 -1.5383 -2.5652  1.1466
 2443SOL     OW18790   3.139   1.889   8.828  0.1534 -0.2672 -0.1769
 2443SOL    HW118791   3.147   1.956   8.760 -0.2438 -1.6249 -1.5675
 2443SOL    HW218792   3.046   1.885   8.850 -0.1913 -1.9456 -1.9054
 2444SOL     OW18793   3.193   2.654  15.169 -0.2383  0.3367 -0.0010
 2444SOL    HW118794   3.124   2.602  15.210  0.8622  0.4132  1.9249
 2444SOL    HW218795   3.226   2.592  15.103 -1.5027  1.6134 -1.8202
 2445SOL     OW18796   0.839   4.247   6.229 -0.3856 -0.1111  0.0319
 2445SOL    HW118797   0.847   4.256   6.134 -0.0595 -0.1168  0.0611
 2445SOL    HW218798   0.924   4.212   6.254 -0.7005 -1.3842 -0.6496
 2446SOL     OW18799   3.211   0.564   6.350  0.0729 -0.1784 -0.1240
 2446SOL    HW118800   3.304   0.554   6.370 -0.2477  0.0117  1.4533
 2446SOL    HW218801   3.204   0.514   6.269  0.6541 -0.9076  0.2801
 2447SOL     OW18802   3.150   0.862   0.074  0.6206 -0.2127 -0.0542
 2447SOL    HW118803   3.134   0.845   0.167 -0.9783 -1.6672 -0.5862
 2447SOL    HW218804   3.228   0.917   0.066  0.1967  0.6149  1.4500
 2448SOL     OW18805   3.396   2.745  13.736 -0.0837  0.5515 -0.1978
 2448SOL    HW118806   3.342   2.815  13.773  0.2424  0.0069  1.2987
 2448SOL    HW218807   3.481   2.778  13.767 -0.4264  0.7780  0.5031
 2449SOL     OW18808   1.949   3.011   7.252  0.6137 -0.4557  0.4656
 2449SOL    HW118809   1.933   3.103   7.233 -0.1860 -0.7692 -0.3459
 2449SOL    HW218810   1.861   2.982   7.229  0.3279  0.5046  0.3724
 2450SOL     OW18811   3.219   2.484   0.823 -0.3564  0.6514  0.2140
 2450SOL    HW118812   3.154   2.518   0.884  0.8763  1.0980  1.2766
 2450SOL    HW218813   3.159   2.436   0.765 -0.4743  0.4551  0.4967
 2451SOL     OW18814   2.636   1.995   5.858  0.5617  0.0899 -0.3771
 2451SOL    HW118815   2.599   1.973   5.773 -1.0686  0.5088  0.2098
 2451SOL    HW218816   2.625   1.920   5.917 -0.8501  0.4068 -0.2287
 2452SOL     OW18817   0.591   4.133   8.540  0.3789  0.4607 -0.0109
 2452SOL    HW118818   0.630   4.084   8.468 -0.5070 -3.3300  2.0916
 2452SOL    HW218819   0.498   4.150   8.524  0.6600  1.2491 -0.7910
 2453SOL     OW18820   0.437   0.360   3.546 -0.4010 -0.5582 -0.6078
 2453SOL    HW118821   0.378   0.293   3.511 -1.7829  0.4485 -0.1901
 2453SOL    HW218822   0.495   0.302   3.597 -0.8269 -0.7483 -0.3324
 2454SOL     OW18823   1.330   3.057   7.388  0.3926 -0.3563 -0.1060
 2454SOL    HW118824   1.291   3.022   7.308 -0.6211  0.1862  0.1506
 2454SOL    HW218825   1.317   3.150   7.370  0.3186 -1.0714 -3.8403
 2455SOL     OW18826   4.605   1.054   3.843  0.7637 -0.3610 -0.1463
 2455SOL    HW118827   4.522   1.046   3.795  1.3308 -1.4688 -0.9394
 2455SOL    HW218828   4.603   0.981   3.904 -1.6614  0.0621  0.3004
 2456SOL     OW18829   3.342   3.904   4.954  0.1193 -0.9156  0.2014
 2456SOL    HW118830   3.301   3.878   4.872  0.0057 -1.0409  0.2961
 2456SOL    HW218831   3.276   3.965   4.988  1.2763 -0.5959  1.9027
 2457SOL     OW18832   2.226   1.182  11.881 -0.3042  0.4399 -0.6226
 2457SOL    HW118833   2.321   1.188  11.873 -0.3967  0.8763 -1.3505
 2457SOL    HW218834   2.211   1.157  11.972 -1.0823  1.0323 -0.5908
 2458SOL     OW18835   0.045   4.701  17.088 -0.0944  0.3675 -0.0762
 2458SOL    HW118836   0.119   4.655  17.127 -0.3494  1.0476  1.2246
 2458SOL    HW218837   4.696   4.681  17.151  2.0590 -1.4232  1.7078
 2459SOL     OW18838   4.044   3.320   4.652  0.0383 -0.0271  0.4520
 2459SOL    HW118839   4.063   3.385   4.585 -1.8444 -0.0735 -0.1211
 2459SOL    HW218840   3.962   3.348   4.691 -0.2607 -3.0943  2.0494
 2460SOL     OW18841   1.440   1.485  14.355 -0.1713 -0.4607  0.5288
 2460SOL    HW118842   1.424   1.568  14.399 -0.7638 -0.7245  0.8073
 2460SOL    HW218843   1.459   1.508  14.264  2.6434 -0.1369  1.2114
 2461SOL     OW18844   1.254   3.304   3.813 -0.4519 -0.5740 -0.1755
 2461SOL    HW118845   1.180   3.358   3.786  0.6805  1.4882  0.8669
 2461SOL    HW218846   1.325   3.366   3.795 -0.8547 -0.1305 -0.2279
 2462SOL     OW18847   0.982   3.735   4.565  0.0868  0.0617  0.5003
 2462SOL    HW118848   1.077   3.729   4.569  0.1541  0.1772 -0.9487
 2462SOL    HW218849   0.969   3.822   4.603 -0.5411  0.3328 -0.3515
 2463SOL     OW18850   0.609   2.157  12.152  0.3561 -0.1589 -0.2817
 2463SOL    HW118851   0.639   2.247  12.138 -0.8907 -0.0162 -1.9652
 2463SOL    HW218852   0.517   2.165  12.126  0.3476 -1.9216 -0.7554
 2464SOL     OW18853   3.821   3.049   4.331 -0.5466  0.7722 -0.3966
 2464SOL    HW118854   3.876   3.000   4.393  0.1276  2.0829  0.0443
 2464SOL    HW218855   3.758   2.978   4.329  0.7060 -0.3285 -0.7421
 2465SOL     OW18856   0.604   0.483   8.516  0.8482  0.0160 -0.1923
 2465SOL    HW118857   0.563   0.545   8.577  0.5198  0.4499 -0.8603
 2465SOL    HW218858   0.699   0.488   8.531  1.1949  1.4604 -3.0383
 2466SOL     OW18859   0.068   3.000   6.216 -0.0280  0.4419  0.0005
 2466SOL    HW118860   0.059   3.014   6.122  1.6303 -0.3798 -0.2839
 2466SOL    HW218861   0.118   2.919   6.222 -0.5772 -0.1773 -3.7210
 2467SOL     OW18862   4.693   1.973  14.897 -0.4205 -0.3120  0.4711
 2467SOL    HW118863   4.694   2.065  14.873  1.0817 -0.3650  0.3479
 2467SOL    HW218864   0.048   1.939  14.849 -1.5881 -1.2901 -0.7153
 2468SOL     OW18865   3.508   3.459  10.629  0.1561  0.5352 -0.1019
 2468SOL    HW118866   3.557   3.381  10.656 -0.7826  0.3692  1.1576
 2468SOL    HW218867   3.584   3.515  10.614  1.0287 -1.2823 -2.3868
 2469SOL     OW18868   2.686   2.808   5.936 -0.1375  0.3784  0.1727
 2469SOL    HW118869   2.689   2.774   6.025  0.2684  0.9632  0.3812
 2469SOL    HW218870   2.781   2.815   5.925 -0.0183  0.5945  1.3440
 2470SOL     OW18871   1.797   1.870  15.870  0.0088 -0.2780 -0.3849
 2470SOL    HW118872   1.758   1.955  15.853  1.1605  0.4016  0.3888
 2470SOL    HW218873   1.739   1.824  15.809 -2.0046  0.0784  1.2813
 2471SOL     OW18874   1.080   2.348   1.822  0.1148  0.5373 -0.4466
 2471SOL    HW118875   1.085   2.399   1.903  0.6070 -1.0373  0.5061
 2471SOL    HW218876   1.171   2.367   1.800 -0.4252  0.8202 -2.4922
 2472SOL     OW18877   4.534   0.607   4.885  0.4933  0.1898 -0.2242
 2472SOL    HW118878   4.529   0.639   4.975  0.6330 -0.3381 -0.0242
 2472SOL    HW218879   4.627   0.628   4.882  0.3321  0.9124 -0.0484
 2473SOL     OW18880   3.821   1.984   3.296 -0.1418  0.3701 -0.5523
 2473SOL    HW118881   3.889   2.043   3.329 -0.3939  0.0868  0.4661
 2473SOL    HW218882   3.846   1.965   3.205 -1.4007  0.4126 -0.9164
 2474SOL     OW18883   4.555   0.223   5.609  0.2719 -0.3286 -0.3200
 2474SOL    HW118884   4.509   0.289   5.558  0.8798  0.0873 -0.3303
 2474SOL    HW218885   4.623   0.211   5.543  0.9338  0.7222  0.1704
 2475SOL     OW18886   3.107   4.285   2.932  0.0951  0.5312  0.3314
 2475SOL    HW118887   3.109   4.235   2.851  0.5623  0.4400  0.3995
 2475SOL    HW218888   3.154   4.363   2.902  1.4420 -1.0847 -1.7844
 2476SOL     OW18889   0.348   1.672   3.326  0.0777  0.1625  0.0049
 2476SOL    HW118890   0.411   1.694   3.394  1.0616 -0.0473 -0.8414
 2476SOL    HW218891   0.364   1.748   3.271  2.7666 -0.2538  0.2079
 2477SOL     OW18892   1.991   3.079  15.385 -0.3570 -0.3317 -0.2581
 2477SOL    HW118893   1.975   3.173  15.387 -2.5227 -0.7100  1.1575
 2477SOL    HW218894   2.024   3.057  15.298  2.9044 -0.9781  1.1372
 2478SOL     OW18895   2.009   3.525   5.257 -0.3237 -0.5794 -0.9725
 2478SOL    HW118896   1.976   3.540   5.345  0.1314  1.3604 -1.1498
 2478SOL    HW218897   2.093   3.489   5.286 -0.2111  1.6100  1.3889
 2479SOL     OW18898   3.120   1.615   8.421  0.0591  0.6594 -0.1198
 2479SOL    HW118899   3.041   1.567   8.396  0.2850  0.4467 -0.4323
 2479SOL    HW218900   3.158   1.563   8.492  0.9805  0.6201 -0.6388
 2480SOL     OW18901   0.225   3.579   9.871  0.2894  0.1899  0.3263
 2480SOL    HW118902   0.206   3.658   9.920 -2.1158 -1.2352  1.6852
 2480SOL    HW218903   0.143   3.530   9.877  1.2093 -1.1135  2.0635
 2481SOL     OW18904   3.438   0.077   5.839  0.5216 -0.5703  0.6524
 2481SOL    HW118905   3.509   0.013   5.834  0.6061 -0.5600  1.6777
 2481SOL    HW218906   3.478   0.163   5.857  1.4884 -0.3963 -2.3855
 2482SOL     OW18907   1.712   2.378   5.738 -0.3833 -0.0600 -0.1777
 2482SOL    HW118908   1.623   2.369   5.770  0.5423 -1.7049  1.9651
 2482SOL    HW218909   1.735   2.470   5.752 -0.2838  0.4165 -3.4140
 2483SOL     OW18910   3.513   3.405  13.681 -0.2238  0.4154  1.0124
 2483SOL    HW118911   3.588   3.399  13.739  0.5565  1.6757  0.1083
 2483SOL    HW218912   3.493   3.498  13.685  1.0148  0.6719  1.1461
 2484SOL     OW18913   0.767   2.311   4.297 -0.0371  0.1872 -0.4382
 2484SOL    HW118914   0.690   2.255   4.303  1.6056 -2.2027 -2.0133
 2484SOL    HW218915   0.736   2.379   4.357  0.1255  1.8076 -2.1837
 2485SOL     OW18916   4.221   1.148  13.683 -0.3032 -0.7695 -0.3128
 2485SOL    HW118917   4.246   1.131  13.774 -0.8806 -1.4536 -0.2805
 2485SOL    HW218918   4.164   1.071  13.676  1.1960 -1.7321 -2.0777
 2486SOL     OW18919   3.771   3.740   4.484 -0.6669  0.2758  0.0788
 2486SOL    HW118920   3.856   3.740   4.528  1.2387 -1.3384 -3.6210
 2486SOL    HW218921   3.703   3.718   4.549 -1.4122 -0.1839 -0.8570
 2487SOL     OW18922   0.826   0.085   5.179 -0.0334 -0.1034  0.2982
 2487SOL    HW118923   0.755   0.095   5.116 -0.0441  1.4436  0.5575
 2487SOL    HW218924   0.798   0.037   5.258 -2.1469 -1.1505 -1.0879
 2488SOL     OW18925   2.924   1.059  10.560 -0.6423  0.5736 -0.1081
 2488SOL    HW118926   2.873   0.996  10.611 -0.2271  0.7417  0.5158
 2488SOL    HW218927   3.004   1.015  10.532 -0.4371  0.1601  1.1037
 2489SOL     OW18928   0.958   1.349   5.777  0.1904  0.1647  0.4079
 2489SOL    HW118929   0.959   1.256   5.801 -2.0848 -0.2980 -1.2933
 2489SOL    HW218930   0.888   1.353   5.712 -0.7913  0.0079  1.4574
 2490SOL     OW18931   4.026   3.661  11.994  0.4655 -0.1565 -0.5441
 2490SOL    HW118932   4.003   3.716  12.068  0.6978 -0.5337 -0.1905
 2490SOL    HW218933   4.032   3.730  11.928 -2.0232 -0.4188 -1.0251
 2491SOL     OW18934   2.861   0.043   2.480 -0.2567 -0.3624  0.7508
 2491SOL    HW118935   2.796   0.096   2.436 -0.3071 -0.9526  0.1117
 2491SOL    HW218936   2.862   0.079   2.568 -1.2618 -1.1101  1.0698
 2492SOL     OW18937   1.053   0.061   9.738 -0.0782 -0.1480  0.7337
 2492SOL    HW118938   1.079   0.043   9.828 -0.2100 -1.8760  0.4277
 2492SOL    HW218939   0.997   4.707   9.721 -0.3318  0.3660 -0.6502
 2493SOL     OW18940   4.013   2.617  14.602 -0.1840  0.2311 -0.5095
 2493SOL    HW118941   4.094   2.589  14.645 -0.2449  1.2071  0.2401
 2493SOL    HW218942   4.009   2.712  14.619 -2.9546 -0.0648  0.4374
 2494SOL     OW18943   1.364   0.506   3.320 -0.2614 -0.0222  0.0850
 2494SOL    HW118944   1.342   0.561   3.245 -1.2854  1.4471  1.4725
 2494SOL    HW218945   1.456   0.531   3.331 -0.2433  1.4099 -3.3046
 2495SOL     OW18946   3.886   2.201   1.889  0.2517 -0.4611  0.2975
 2495SOL    HW118947   3.955   2.261   1.916 -0.6725 -0.3778  2.4513
 2495SOL    HW218948   3.888   2.218   1.795  1.0157 -0.3685  0.3273
 2496SOL     OW18949   4.293   3.420   9.526 -0.0883 -0.7057  0.4476
 2496SOL    HW118950   4.248   3.504   9.532 -3.6900 -2.3695 -3.5644
 2496SOL    HW218951   4.301   3.407   9.621 -0.0151 -3.7868  0.0102
 2497SOL     OW18952   0.892   3.271  10.749 -0.2679 -0.0047 -0.1143
 2497SOL    HW118953   0.824   3.294  10.686 -0.3442 -2.3180 -0.8491
 2497SOL    HW218954   0.956   3.340  10.730  2.5465 -2.8784 -1.0620
 2498SOL     OW18955   2.421   0.916   1.613 -0.0602  0.3713 -0.2887
 2498SOL    HW118956   2.345   0.871   1.648  0.1627  0.4807  0.3235
 2498SOL    HW218957   2.476   0.841   1.594  0.8824  0.9663  0.1080
 2499SOL     OW18958   4.423   0.460   8.047  0.4983 -0.4621  0.5536
 2499SOL    HW118959   4.501   0.415   8.080  0.3751 -0.8878  0.2620
 2499SOL    HW218960   4.464   0.521   7.986 -0.6777 -0.1034  0.1195
 2500SOL     OW18961   1.997   3.749  16.112  0.4337 -0.1021  0.3486
 2500SOL    HW118962   2.071   3.717  16.163  1.0792 -0.0998 -0.5927
 2500SOL    HW218963   2.035   3.763  16.025  0.0533 -0.6121  0.1020
 2501SOL     OW18964   4.142   1.994   6.470  0.1785 -0.7867  0.2183
 2501SOL    HW118965   4.065   2.046   6.448  0.6343  0.0535  0.5796
 2501SOL    HW218966   4.095   1.937   6.531  0.2074  0.6485  1.6172
 2502SOL     OW18967   0.504   0.985  14.784 -0.4441  0.3757  0.1569
 2502SOL    HW118968   0.466   0.903  14.753 -0.4239  0.3002  0.3324
 2502SOL    HW218969   0.579   0.946  14.830 -1.3921 -0.7487  0.7438
 2503SOL     OW18970   4.630   2.061   2.823  0.2627 -0.0564 -0.7028
 2503SOL    HW118971   4.697   2.104   2.770 -0.2577  0.2629 -1.1055
 2503SOL    HW218972   4.687   1.993   2.858 -0.2820  0.0781  0.4298
 2504SOL     OW18973   2.575   1.824   6.689  0.0440 -0.3168  0.0273
 2504SOL    HW118974   2.488   1.805   6.654  0.4422 -0.7428 -0.7417
 2504SOL    HW218975   2.591   1.919   6.685  1.5080 -0.5290  0.6050
 2505SOL     OW18976   0.490   1.689   6.796 -0.0284  0.0664  0.0263
 2505SOL    HW118977   0.412   1.660   6.749 -0.9390 -0.1738  1.6874
 2505SOL    HW218978   0.469   1.779   6.820  2.2947  0.3613  0.8990
 2506SOL     OW18979   1.699   1.443   9.803 -0.1487  0.4562  0.3984
 2506SOL    HW118980   1.606   1.427   9.785 -0.3187  1.9889 -0.1029
 2506SOL    HW218981   1.726   1.362   9.845  0.3193  2.0788  3.1599
 2507SOL     OW18982   3.899   3.492   1.919 -0.2658 -0.1315  0.0726
 2507SOL    HW118983   3.805   3.503   1.906 -0.4892  0.3296  2.0966
 2507SOL    HW218984   3.913   3.399   1.901  1.4907 -0.3036  2.2983
 2508SOL     OW18985   0.460   3.120  13.743  0.6073 -0.3834 -0.5415
 2508SOL    HW118986   0.478   3.027  13.724  2.6778 -0.0188 -0.4192
 2508SOL    HW218987   0.376   3.126  13.698  0.7818 -1.7085 -1.0711
 2509SOL     OW18988   1.348   3.657   3.870  0.0237  0.1677  0.3412
 2509SOL    HW118989   1.428   3.665   3.922 -0.6999 -1.3981  1.7031
 2509SOL    HW218990   1.378   3.610   3.792 -1.6354  0.2916 -0.3729
 2510SOL     OW18991   4.641   3.819   0.517 -0.1554 -0.0647  0.0838
 2510SOL    HW118992   4.665   3.727   0.506  0.1879  0.1583 -0.9929
 2510SOL    HW218993   0.002   3.855   0.552  0.0192 -1.9377  1.5985
 2511SOL     OW18994   2.695   3.097   8.217  0.0679 -0.6026 -0.0732
 2511SOL    HW118995   2.752   3.123   8.145  1.4942  0.6402  1.4977
 2511SOL    HW218996   2.615   3.138   8.185 -0.7987 -2.5448 -0.3778
 2512SOL     OW18997   1.675   0.667   5.104  0.1370 -0.1184  0.1378
 2512SOL    HW118998   1.628   0.645   5.024  0.6858 -1.4148  0.1713
 2512SOL    HW218999   1.762   0.634   5.082 -0.5131 -1.1222 -0.9563
 2513SOL     OW19000   1.464   2.796   2.608 -0.2085 -0.1490 -0.1630
 2513SOL    HW119001   1.505   2.829   2.528  1.0379 -1.1577  0.0763
 2513SOL    HW219002   1.415   2.724   2.569 -1.7027  0.3252  0.7919
 2514SOL     OW19003   0.491   1.950  13.690 -0.4333  0.0621 -0.3661
 2514SOL    HW119004   0.479   2.039  13.724 -0.7838 -0.2315  0.2853
 2514SOL    HW219005   0.399   1.941  13.663 -0.8114  2.2789  0.1275
 2515SOL     OW19006   3.325   2.762   9.440 -0.6249  0.2819 -0.1877
 2515SOL    HW119007   3.318   2.752   9.535  3.1327  3.3721  0.4726
 2515SOL    HW219008   3.237   2.792   9.418  0.0821  2.7324  0.2667
 2516SOL     OW19009   2.216   3.825   4.712  0.4127 -0.1927 -0.1100
 2516SOL    HW119010   2.171   3.902   4.746  1.7953  0.1792  0.9145
 2516SOL    HW219011   2.299   3.830   4.760  1.6341  0.9793 -2.3480
 2517SOL     OW19012   2.370   0.269  17.482 -1.2173 -0.3332 -0.3281
 2517SOL    HW119013   2.377   0.338  17.548  0.9068 -0.0851 -0.8249
 2517SOL    HW219014   2.413   0.200  17.532  3.5584  2.3674 -0.6802
 2518SOL     OW19015   0.718   2.893  13.951 -0.4119  0.1837 -0.2817
 2518SOL    HW119016   0.682   2.809  13.923 -0.1848  0.6392 -1.9761
 2518SOL    HW219017   0.751   2.923  13.866  1.4358  0.2861  0.4689
 2519SOL     OW19018   3.699   3.267   7.501  0.3011  1.1049  0.2935
 2519SOL    HW119019   3.685   3.351   7.544  0.2803  0.2617  1.9338
 2519SOL    HW219020   3.626   3.217   7.537 -0.1981 -0.3845 -2.7287
 2520SOL     OW19021   3.509   3.114  15.201  0.2491 -0.7807  0.2498
 2520SOL    HW119022   3.439   3.069  15.246  0.3744 -1.5766 -0.3449
 2520SOL    HW219023   3.580   3.079  15.255  1.4968  0.0727 -0.8033
 2521SOL     OW19024   2.525   3.794  11.400 -0.2788  0.3530 -0.4250
 2521SOL    HW119025   2.580   3.855  11.353  1.4046 -1.7467 -1.2006
 2521SOL    HW219026   2.459   3.779  11.333  0.2282 -1.2305 -0.5664
 2522SOL     OW19027   1.902   0.657   6.255  0.2679 -0.8047  0.1276
 2522SOL    HW119028   1.891   0.611   6.172 -0.2501  0.7622 -0.6769
 2522SOL    HW219029   1.995   0.678   6.255  0.9908 -4.1556 -1.6949
 2523SOL     OW19030   2.712   4.622   4.744  0.1790  0.1749 -0.8585
 2523SOL    HW119031   2.634   4.656   4.700 -2.2728 -1.5699  2.1125
 2523SOL    HW219032   2.730   4.685   4.814 -0.9551 -1.7397  1.1553
 2524SOL     OW19033   2.412   0.819   4.892 -0.5717  0.1114 -0.0526
 2524SOL    HW119034   2.475   0.837   4.962  2.6698  0.5025 -3.0710
 2524SOL    HW219035   2.417   0.724   4.889 -3.5286 -0.0175 -0.4378
 2525SOL     OW19036   2.656   2.487  13.090  0.2275 -0.1310 -0.2559
 2525SOL    HW119037   2.709   2.502  13.169  2.9180  0.6624 -2.2243
 2525SOL    HW219038   2.658   2.574  13.050  0.9040  0.0944  0.2659
 2526SOL     OW19039   0.883   4.272   7.255  0.1689 -0.8355  0.4348
 2526SOL    HW119040   0.807   4.326   7.235  0.3469  0.2736  2.7898
 2526SOL    HW219041   0.954   4.319   7.212 -1.4912  0.1307 -1.2317
 2527SOL     OW19042   2.489   3.748   1.124 -0.4277 -0.0510  0.0458
 2527SOL    HW119043   2.554   3.683   1.150 -1.2767 -0.7237  0.4698
 2527SOL    HW219044   2.432   3.688   1.075  1.0294 -2.0774  0.8944
 2528SOL     OW19045   4.155   0.476  10.962 -0.1404  0.1587 -0.2118
 2528SOL    HW119046   4.140   0.384  10.982 -0.6778  0.8946  2.8331
 2528SOL    HW219047   4.247   0.471  10.936 -0.6763 -1.6872 -1.7673
 2529SOL     OW19048   0.486   4.245   2.967  0.1711  0.0208 -0.5036
 2529SOL    HW119049   0.449   4.170   3.013 -0.3886  0.1729 -0.7120
 2529SOL    HW219050   0.463   4.223   2.877 -1.2014 -0.3673 -0.0614
 2530SOL     OW19051   2.454   2.773   4.138 -0.2294  0.2813 -0.0498
 2530SOL    HW119052   2.470   2.739   4.050 -0.4936  0.0193  0.0020
 2530SOL    HW219053   2.386   2.710   4.163  0.2368 -0.3514 -0.3768
 2531SOL     OW19054   1.136   0.372   5.903  0.2900 -0.0206 -0.3629
 2531SOL    HW119055   1.119   0.285   5.866  0.0714 -1.3060  2.7670
 2531SOL    HW219056   1.174   0.356   5.989  0.7708 -0.8238 -0.7325
 2532SOL     OW19057   2.067   3.023   0.063 -0.1650  0.6036  0.3110
 2532SOL    HW119058   2.080   3.110   0.102  2.6514  1.2586 -2.1015
 2532SOL    HW219059   2.036   2.979   0.142 -1.4192 -0.1346 -0.5950
 2533SOL     OW19060   4.673   4.375   4.738  0.2607 -0.1156  0.9106
 2533SOL    HW119061   4.597   4.366   4.679  0.4234 -1.2933  0.8667
 2533SOL    HW219062   0.011   4.411   4.672 -2.0274  1.9443 -0.0244
 2534SOL     OW19063   1.662   4.434   6.029  0.0272  0.3784  0.3570
 2534SOL    HW119064   1.602   4.395   6.093 -0.5313  2.7594  1.2849
 2534SOL    HW219065   1.614   4.506   5.990  0.9806 -0.4532 -2.3093
 2535SOL     OW19066   1.643   2.245   4.996 -0.1996  0.9949 -0.1046
 2535SOL    HW119067   1.661   2.164   5.044 -1.3160  0.9526  0.2540
 2535SOL    HW219068   1.710   2.243   4.928  1.0587 -3.0599  1.2166
 2536SOL     OW19069   0.280   0.569   6.598 -0.1974  0.1916  0.4466
 2536SOL    HW119070   0.295   0.527   6.513  2.3663  1.8874  0.0438
 2536SOL    HW219071   0.292   0.496   6.658 -0.3943  0.3139  0.6352
 2537SOL     OW19072   0.710   2.448  12.943  0.0310 -0.1379  0.1667
 2537SOL    HW119073   0.796   2.411  12.961 -0.1630 -1.5305 -1.8158
 2537SOL    HW219074   0.655   2.376  12.973  0.6414 -2.0845 -3.3676
 2538SOL     OW19075   2.616   2.488   5.525  0.0529 -0.0552 -0.1017
 2538SOL    HW119076   2.682   2.526   5.467 -0.8296  0.8028 -0.5530
 2538SOL    HW219077   2.590   2.406   5.483 -0.1109 -0.4365  0.7426
 2539SOL     OW19078   0.009   2.982   3.838  0.0458  0.2632 -0.0684
 2539SOL    HW119079   0.043   3.067   3.864  0.1942  0.4476 -0.8800
 2539SOL    HW219080   0.074   2.922   3.874 -0.0580  0.7805  0.9953
 2540SOL     OW19081   4.236   4.398   9.065  0.1474  0.3623 -0.1845
 2540SOL    HW119082   4.267   4.313   9.035 -0.6884  0.0085 -0.0625
 2540SOL    HW219083   4.291   4.461   9.019  0.7761  0.7344  1.0791
 2541SOL     OW19084   2.283   0.973   8.288  0.1740  0.0562  0.1973
 2541SOL    HW119085   2.210   1.034   8.281  2.0006  2.0697 -1.2360
 2541SOL    HW219086   2.263   0.933   8.204 -1.4573  0.2552  0.4931
 2542SOL     OW19087   1.045   4.450   7.901  0.1291  0.2725 -0.3963
 2542SOL    HW119088   1.069   4.475   7.811  2.4429 -1.8833 -0.3772
 2542SOL    HW219089   1.018   4.532   7.942  0.0499  0.8320 -1.5455
 2543SOL     OW19090   0.392   0.752  14.779  0.4528  0.7061  0.8489
 2543SOL    HW119091   0.431   0.683  14.832 -0.1990 -0.0807  0.2930
 2543SOL    HW219092   0.300   0.728  14.781  0.2363  1.6747  2.5760
 2544SOL     OW19093   0.011   3.314  13.373  0.3394  0.2838  0.1147
 2544SOL    HW119094   0.082   3.300  13.311  1.4951  0.8235  1.3309
 2544SOL    HW219095   0.054   3.321  13.458  0.8490 -2.6890  0.1005
 2545SOL     OW19096   2.311   3.222   4.936 -0.3703  0.0933 -0.1213
 2545SOL    HW119097   2.228   3.177   4.952  0.2785 -0.6528  1.1263
 2545SOL    HW219098   2.352   3.209   5.022 -1.3883  2.0664  0.6552
 2546SOL     OW19099   2.411   4.638   4.066  0.0315  0.8527 -0.5993
 2546SOL    HW119100   2.341   4.573   4.076 -0.3512  1.6180  1.5631
 2546SOL    HW219101   2.481   4.590   4.109  1.3756  1.3758 -2.1956
 2547SOL     OW19102   3.262   1.589  17.533 -0.3765 -0.2913 -0.4419
 2547SOL    HW119103   3.323   1.596  17.606 -2.7527 -0.3366  1.5302
 2547SOL    HW219104   3.299   1.523  17.474  2.0590 -1.6107  2.5794
 2548SOL     OW19105   4.584   1.329   8.650  0.2867 -0.6757 -0.8406
 2548SOL    HW119106   4.558   1.248   8.606 -0.1268 -1.1576  0.2893
 2548SOL    HW219107   4.524   1.391   8.608  0.2660 -1.0001 -1.2896
 2549SOL     OW19108   1.381   0.148   6.001  0.4227  0.4494  0.0295
 2549SOL    HW119109   1.443   0.196   6.057 -1.5726 -0.4221  2.9606
 2549SOL    HW219110   1.307   0.127   6.057  0.2789  0.8197 -0.0215
 2550SOL     OW19111   0.083   2.404   7.381 -0.1122 -0.0474  0.7820
 2550SOL    HW119112   0.107   2.388   7.472  0.1064  2.4217  1.1787
 2550SOL    HW219113   0.010   2.462   7.402 -1.2874 -0.7385 -1.3720
 2551SOL     OW19114   0.763   3.997   2.792  0.9176 -0.5941  0.0919
 2551SOL    HW119115   0.680   3.961   2.762  0.0241  0.7561  0.9187
 2551SOL    HW219116   0.810   4.042   2.722 -1.5806  1.3542 -0.3093
 2552SOL     OW19117   3.016   0.248   3.302  0.4077 -0.3486 -0.5250
 2552SOL    HW119118   3.102   0.286   3.284  0.2385 -0.0052 -0.6009
 2552SOL    HW219119   3.026   0.154   3.285 -0.5213 -0.2320 -1.7070
 2553SOL     OW19120   3.663   1.249   0.511  0.4161  0.6573 -0.4566
 2553SOL    HW119121   3.704   1.310   0.572  3.6905 -2.6928  0.6748
 2553SOL    HW219122   3.609   1.186   0.558  0.7575  0.8020  0.1214
 2554SOL     OW19123   3.683   3.690  14.955  0.2887 -0.0863 -0.0087
 2554SOL    HW119124   3.588   3.693  14.950  0.2725 -1.5278 -0.7144
 2554SOL    HW219125   3.714   3.718  14.869 -1.3414  0.3567 -0.4528
 2555SOL     OW19126   4.124   2.211   8.753  0.1338 -0.0187 -0.2249
 2555SOL    HW119127   4.165   2.132   8.789  1.9095  0.6494 -0.7536
 2555SOL    HW219128   4.053   2.227   8.815  1.1623 -0.4958  1.0759
 2556SOL     OW19129   2.828   1.016   0.331 -0.0614 -0.1727 -0.0075
 2556SOL    HW119130   2.812   0.929   0.368 -0.9771  0.3110  0.7190
 2556SOL    HW219131   2.750   1.013   0.275  1.2483  1.5802 -1.9540
 2557SOL     OW19132   3.479   1.303   8.809 -0.0051 -0.3526 -0.3401
 2557SOL    HW119133   3.504   1.339   8.724  0.0709 -1.7726 -0.9249
 2557SOL    HW219134   3.461   1.386   8.852 -0.2919 -1.0586  0.9039
 2558SOL     OW19135   1.400   4.463  16.686  0.3899  0.8034  0.0109
 2558SOL    HW119136   1.355   4.460  16.601  0.9259  1.7430 -0.3065
 2558SOL    HW219137   1.443   4.378  16.692  0.4332  0.7975 -0.3981
 2559SOL     OW19138   0.784   2.347   2.810  0.1217  0.2425 -0.2725
 2559SOL    HW119139   0.816   2.386   2.891 -2.2949  1.2911  0.1604
 2559SOL    HW219140   0.827   2.261   2.817 -1.0995 -0.1684  2.1530
 2560SOL     OW19141   4.556   1.573  17.408 -0.3128  0.0321 -0.3871
 2560SOL    HW119142   4.543   1.479  17.412  0.8135 -0.1094  0.0636
 2560SOL    HW219143   4.615   1.593  17.335  0.5612  1.2605  0.6440
 2561SOL     OW19144   1.767   0.172   6.338 -0.3408 -0.4231  0.1589
 2561SOL    HW119145   1.804   0.189   6.424  1.0128  2.5608 -0.9887
 2561SOL    HW219146   1.841   0.172   6.277 -0.6535 -2.1114 -0.2226
 2562SOL     OW19147   4.183   0.719   9.561 -0.1028 -0.4161  0.3547
 2562SOL    HW119148   4.248   0.756   9.621 -0.6239  1.4686 -0.2645
 2562SOL    HW219149   4.242   0.692   9.491  0.7134  0.9176  0.5284
 2563SOL     OW19150   1.428   0.502   4.774 -0.2576  0.0818 -0.6188
 2563SOL    HW119151   1.511   0.458   4.754 -1.2335 -2.0014  0.0679
 2563SOL    HW219152   1.416   0.565   4.702 -0.4971 -1.1205 -1.6167
 2564SOL     OW19153   0.439   3.298  15.955  0.7735 -0.5479 -0.2667
 2564SOL    HW119154   0.396   3.369  15.906  0.1447  0.2995  1.5379
 2564SOL    HW219155   0.442   3.348  16.037 -1.2641 -0.1500 -0.4284
 2565SOL     OW19156   4.442   1.233  14.200  0.2283 -0.2483  0.0082
 2565SOL    HW119157   4.476   1.148  14.172  1.0467 -0.0086  0.2832
 2565SOL    HW219158   4.423   1.217  14.292  0.4974  1.0397  0.2874
 2566SOL     OW19159   4.456   4.020  11.212  0.4645  0.7141 -0.3430
 2566SOL    HW119160   4.426   4.089  11.271  2.7387  0.0151  1.6480
 2566SOL    HW219161   4.536   3.989  11.255 -0.4310 -1.4851 -0.2612
 2567SOL     OW19162   3.603   3.532   7.571  0.2735 -0.4138  0.1188
 2567SOL    HW119163   3.552   3.545   7.490  0.8231 -1.9463 -0.4759
 2567SOL    HW219164   3.555   3.571   7.644 -1.1451 -0.3931 -0.8182
 2568SOL     OW19165   4.644   2.857  11.610  0.1377 -0.4050 -0.1046
 2568SOL    HW119166   4.674   2.851  11.519  0.4772  1.9376 -0.1279
 2568SOL    HW219167   4.549   2.849  11.601  0.1142 -0.7577  0.4200
 2569SOL     OW19168   1.262   0.238   9.200  0.0363  0.6609 -0.3230
 2569SOL    HW119169   1.197   0.213   9.266 -2.0778  0.0126 -2.6268
 2569SOL    HW219170   1.235   0.178   9.130  0.9003  0.3719 -0.4082
 2570SOL     OW19171   2.398   2.177  16.355 -0.4772  0.2811 -0.1771
 2570SOL    HW119172   2.415   2.092  16.395  0.0112  1.7832  2.8591
 2570SOL    HW219173   2.366   2.234  16.425 -1.3093 -1.3433  0.7807
 2571SOL     OW19174   0.545   2.236   1.362 -0.0536 -0.1978 -0.2119
 2571SOL    HW119175   0.632   2.248   1.399 -0.5287 -0.0960  0.8833
 2571SOL    HW219176   0.559   2.160   1.306  0.1515 -0.8303  0.6948
 2572SOL     OW19177   3.885   2.253  11.822  0.0915 -0.2276  0.2502
 2572SOL    HW119178   3.859   2.340  11.850 -0.4215 -0.9624  2.0397
 2572SOL    HW219179   3.895   2.207  11.905 -0.4927 -1.1523 -0.1870
 2573SOL     OW19180   1.697   2.884   3.239  0.0611  0.0213 -0.4332
 2573SOL    HW119181   1.610   2.893   3.277  0.8969  1.8880  1.0098
 2573SOL    HW219182   1.704   2.788   3.242 -1.4844 -0.1511 -2.1336
 2574SOL     OW19183   2.802   0.762   8.378  0.3871  0.4765  0.3043
 2574SOL    HW119184   2.727   0.704   8.362 -0.4108  1.1859  1.4935
 2574SOL    HW219185   2.772   0.849   8.404 -1.1858  0.2468 -0.7336
 2575SOL     OW19186   3.706   3.850  12.538 -0.1285  0.6173 -0.6653
 2575SOL    HW119187   3.664   3.847  12.624  0.8529 -0.8951 -0.2506
 2575SOL    HW219188   3.716   3.758  12.513  0.7537 -0.0607  2.2424
 2576SOL     OW19189   3.963   1.757   4.771 -0.3054 -0.3783  0.0812
 2576SOL    HW119190   4.008   1.835   4.804 -1.5517 -1.6183  4.6619
 2576SOL    HW219191   4.041   1.706   4.749  0.9412  1.5094  0.0933
 2577SOL     OW19192   3.858   1.714   9.203 -0.7441  0.9963 -0.5924
 2577SOL    HW119193   3.810   1.656   9.263 -1.3326 -1.1232 -3.1240
 2577SOL    HW219194   3.918   1.649   9.166  0.3191  1.9501 -0.5458
 2578SOL     OW19195   2.059   1.156   0.204  0.1571 -0.0218 -0.6330
 2578SOL    HW119196   2.075   1.130   0.114 -0.6177  1.5452 -1.2118
 2578SOL    HW219197   2.129   1.219   0.224  0.0326  0.0703 -0.4841
 2579SOL     OW19198   2.548   1.505   4.698 -0.3035  0.1464 -0.6338
 2579SOL    HW119199   2.529   1.444   4.627 -3.0529  1.2265 -0.8398
 2579SOL    HW219200   2.641   1.485   4.709 -0.0112  1.0210 -1.5061
 2580SOL     OW19201   0.196   4.606   0.658  0.1745 -0.5579 -0.6256
 2580SOL    HW119202   0.218   4.580   0.569 -2.3343 -0.3188 -1.3193
 2580SOL    HW219203   0.148   4.531   0.694  1.8388 -1.9060 -1.2101
 2581SOL     OW19204   2.922   0.448   9.676 -0.4035  0.3985 -0.2069
 2581SOL    HW119205   2.980   0.463   9.751 -2.4099  0.6015  1.3085
 2581SOL    HW219206   2.962   0.499   9.607  0.8041 -0.0873  0.1367
 2582SOL     OW19207   3.101   2.396  10.628 -0.3591  0.0573  0.2763
 2582SOL    HW119208   3.138   2.463  10.686 -0.2002  2.1566 -2.2560
 2582SOL    HW219209   3.171   2.384  10.565  0.7291  0.3413  1.4327
 2583SOL     OW19210   0.508   2.716   8.003 -0.8756  0.3302  0.1798
 2583SOL    HW119211   0.497   2.773   8.079 -2.4600  0.7936 -0.3854
 2583SOL    HW219212   0.540   2.642   8.054 -0.3513  2.1841  2.5412
 2584SOL     OW19213   4.530   3.675   6.078 -0.0982  0.2978 -0.2092
 2584SOL    HW119214   4.543   3.668   6.173 -0.1531  2.6020 -0.0238
 2584SOL    HW219215   4.513   3.769   6.073 -3.7610 -0.3551 -0.3205
 2585SOL     OW19216   3.084   4.545   7.230  0.6255  0.0555 -0.1532
 2585SOL    HW119217   3.130   4.575   7.151 -0.2955 -0.6743 -0.9675
 2585SOL    HW219218   3.059   4.455   7.211  2.1375 -0.6591  1.2582
 2586SOL     OW19219   2.000   2.594   4.248 -0.0771  0.5964 -0.1691
 2586SOL    HW119220   1.969   2.530   4.184 -0.2650 -0.9319  1.4635
 2586SOL    HW219221   1.950   2.674   4.232 -0.1949  0.6137  0.2997
 2587SOL     OW19222   2.229   1.548   2.780 -0.3957  0.0459 -0.0305
 2587SOL    HW119223   2.244   1.591   2.864  0.1716  0.6039 -0.4163
 2587SOL    HW219224   2.219   1.457   2.807  0.3047  0.2446  0.8704
 2588SOL     OW19225   4.332   0.520   5.664 -1.1670 -0.0989  0.2040
 2588SOL    HW119226   4.389   0.477   5.601  0.1318 -0.7052  1.7904
 2588SOL    HW219227   4.353   0.611   5.644  0.9315 -0.8599 -0.9976
 2589SOL     OW19228   4.576   2.260   8.767 -0.0249  0.0999 -0.4178
 2589SOL    HW119229   4.597   2.218   8.850  2.7610 -0.9031 -1.6519
 2589SOL    HW219230   4.553   2.346   8.803  1.8454  0.6905 -0.6519
 2590SOL     OW19231   1.518   2.580   3.637 -0.2318 -0.0950 -0.3664
 2590SOL    HW119232   1.499   2.607   3.726 -3.0595 -0.7754 -0.7523
 2590SOL    HW219233   1.561   2.660   3.607 -1.5574  0.2356 -1.3624
 2591SOL     OW19234   1.288   3.582   8.123 -0.1797 -0.1130 -0.5182
 2591SOL    HW119235   1.248   3.519   8.062  0.8249  0.4902 -1.8106
 2591SOL    HW219236   1.300   3.527   8.200  0.8534  0.9240  0.0549
 2592SOL     OW19237   1.265   2.884   3.918 -0.3720 -0.3760 -0.6919
 2592SOL    HW119238   1.216   2.881   4.000  3.3582  1.4409  1.6136
 2592SOL    HW219239   1.304   2.971   3.921 -1.4371  0.0593  0.6867
 2593SOL     OW19240   2.464   2.900  13.052 -0.5367 -0.1935  0.3536
 2593SOL    HW119241   2.428   2.975  13.004  0.7939  0.2590  0.0629
 2593SOL    HW219242   2.493   2.947  13.130 -0.3376  0.9507 -0.4009
 2594SOL     OW19243   2.822   4.393   7.586  0.0336  0.0653 -0.5113
 2594SOL    HW119244   2.882   4.330   7.626  0.1772  0.6785  0.2409
 2594SOL    HW219245   2.819   4.455   7.659  0.2334 -0.5528  0.0279
 2595SOL     OW19246   4.230   0.749   6.696  0.1341 -0.3942 -0.4052
 2595SOL    HW119247   4.221   0.685   6.625 -0.8730  0.6687 -1.2255
 2595SOL    HW219248   4.200   0.828   6.652 -0.3578  2.2675  4.6919
 2596SOL     OW19249   0.066   2.937   5.911 -1.2251 -0.1357 -0.3001
 2596SOL    HW119250   0.154   2.907   5.933 -0.6233  2.7833  1.2574
 2596SOL    HW219251   0.091   3.003   5.846  0.2195  1.0625  1.4838
 2597SOL     OW19252   0.885   2.916   1.006  0.0981 -0.3007 -0.4058
 2597SOL    HW119253   0.974   2.896   1.038 -1.0588 -1.6709  1.9319
 2597SOL    HW219254   0.834   2.851   1.055  2.0497 -1.3613  0.2302
 2598SOL     OW19255   0.528   3.828   5.178  0.4993  0.2533 -0.0680
 2598SOL    HW119256   0.545   3.736   5.156 -0.8449 -0.1426  0.5631
 2598SOL    HW219257   0.585   3.886   5.129 -0.5616  1.2152 -0.1559
 2599SOL     OW19258   1.931   1.810   3.767 -0.5194  0.1797  0.0469
 2599SOL    HW119259   2.008   1.854   3.730  0.9653 -1.7977  0.7395
 2599SOL    HW219260   1.970   1.724   3.782  0.3033  0.5082 -0.1773
 2600SOL     OW19261   0.408   0.511   2.866  0.2502 -0.3094 -0.3587
 2600SOL    HW119262   0.431   0.419   2.879  4.0147  0.6778  0.0285
 2600SOL    HW219263   0.391   0.548   2.952 -0.8178 -1.1847 -0.1909
 2601SOL     OW19264   4.649   3.102   2.368  0.3467  0.1979 -0.0314
 2601SOL    HW119265   4.591   3.117   2.442  0.3779  0.6337 -0.1001
 2601SOL    HW219266   4.634   3.176   2.309 -1.4256  0.1972  0.4341
 2602SOL     OW19267   1.504   0.542   2.284  0.3726 -0.2688  0.2422
 2602SOL    HW119268   1.435   0.500   2.335 -1.5055  0.9675 -1.2761
 2602SOL    HW219269   1.570   0.532   2.353  0.7844  1.0513  0.0377
 2603SOL     OW19270   2.912   4.028   9.481 -0.4218 -0.1071  0.3446
 2603SOL    HW119271   2.825   4.008   9.515 -0.6491 -0.8411 -0.6787
 2603SOL    HW219272   2.946   3.941   9.460 -3.3098 -0.9894 -0.6168
 2604SOL     OW19273   4.581   4.492  13.452  0.2732  0.0609 -0.1223
 2604SOL    HW119274   4.514   4.460  13.393 -0.9072 -1.3832  2.0260
 2604SOL    HW219275   4.657   4.511  13.395  0.3028 -0.3111 -0.2042
 2605SOL     OW19276   0.113   1.022   1.226 -0.4079  0.1831 -0.0628
 2605SOL    HW119277   0.119   1.075   1.147  0.1452  3.0692  1.9242
 2605SOL    HW219278   0.206   1.014   1.249 -0.3357  1.0904 -0.0327
 2606SOL     OW19279   2.956   1.358   1.960  0.1697  0.0381 -0.4254
 2606SOL    HW119280   2.940   1.452   1.972 -2.3380 -0.4917  0.2884
 2606SOL    HW219281   3.043   1.350   1.998  0.3361  0.8327 -0.6346
 2607SOL     OW19282   3.760   1.141  17.144 -0.6107  0.0159  0.7296
 2607SOL    HW119283   3.727   1.180  17.062  1.6381 -1.2797 -0.8075
 2607SOL    HW219284   3.821   1.075  17.110 -1.0699 -0.7863  1.4928
 2608SOL     OW19285   1.093   0.763  16.849  0.0315 -0.3598  0.2695
 2608SOL    HW119286   1.111   0.708  16.926 -1.7460 -0.1862  0.7993
 2608SOL    HW219287   1.053   0.844  16.881  1.5866 -0.3021  2.1085
 2609SOL     OW19288   2.268   2.161  17.584 -0.2269 -0.1820 -0.0933
 2609SOL    HW119289   2.195   2.198  17.632 -1.8857 -0.8263 -2.1023
 2609SOL    HW219290   2.331   2.203  17.642  1.8625  0.6518 -2.9783
 2610SOL     OW19291   2.867   0.671  13.160 -0.6741 -0.0858  0.2432
 2610SOL    HW119292   2.817   0.752  13.156 -1.8605 -0.8118  0.4142
 2610SOL    HW219293   2.918   0.702  13.236 -0.9400 -1.1235  0.8468
 2611SOL     OW19294   0.814   4.165   8.982 -0.2907  0.1672 -0.2273
 2611SOL    HW119295   0.824   4.194   8.891  0.6991 -1.4847 -0.6353
 2611SOL    HW219296   0.718   4.164   8.987 -0.1439 -1.6291  1.8852
 2612SOL     OW19297   0.106   0.360   7.262 -0.0962 -0.0861  0.2883
 2612SOL    HW119298   0.082   0.355   7.354  0.5376  0.8609  0.5053
 2612SOL    HW219299   0.047   0.290   7.235  0.9896 -0.5350 -0.9407
 2613SOL     OW19300   0.801   2.412   4.840  0.4611 -0.3230  0.0702
 2613SOL    HW119301   0.854   2.386   4.765  1.0781  0.3002  0.2965
 2613SOL    HW219302   0.855   2.367   4.905  0.0003 -2.1263 -0.7864
 2614SOL     OW19303   4.459   2.946   4.086 -0.5860 -0.0601  0.6283
 2614SOL    HW119304   4.495   3.034   4.094  0.4787 -0.3178 -1.4535
 2614SOL    HW219305   4.505   2.912   4.009 -1.3173  0.8465 -0.2128
 2615SOL     OW19306   1.721   2.591   7.778  0.9002 -0.3911  0.0932
 2615SOL    HW119307   1.697   2.579   7.686  0.1358 -0.2395  0.2707
 2615SOL    HW219308   1.719   2.686   7.791 -0.3806 -0.4537  0.3716
 2616SOL     OW19309   3.200   0.028   8.249  0.2518  0.0506  0.0148
 2616SOL    HW119310   3.165   0.112   8.281 -3.9803 -2.0046  0.8166
 2616SOL    HW219311   3.225   4.707   8.332  1.9240 -0.4740 -0.7629
 2617SOL     OW19312   2.640   1.205   1.571  0.1105  0.5964  0.0096
 2617SOL    HW119313   2.657   1.252   1.652 -0.1193 -1.9544  1.5299
 2617SOL    HW219314   2.722   1.211   1.521  0.1409 -1.2314 -0.1775
 2618SOL     OW19315   4.106   3.486   7.477 -0.1964  0.3171 -0.2593
 2618SOL    HW119316   4.151   3.510   7.558 -0.8111 -2.3903  0.8954
 2618SOL    HW219317   4.064   3.405   7.506  1.1509 -0.5699 -0.8187
 2619SOL     OW19318   1.073   2.192   2.292  0.4229  0.2866  0.1274
 2619SOL    HW119319   1.024   2.181   2.211 -2.9285  2.4687  1.8658
 2619SOL    HW219320   1.011   2.243   2.344 -3.4766 -2.2173 -2.1463
 2620SOL     OW19321   3.089   0.346   0.833 -0.3251 -0.2707  0.0365
 2620SOL    HW119322   3.149   0.270   0.832 -0.6531 -0.5676  3.2802
 2620SOL    HW219323   3.033   0.315   0.762  0.6148 -1.5074 -0.1824
 2621SOL     OW19324   2.528   2.237  17.641 -0.0657  0.0151 -0.2483
 2621SOL    HW119325   2.573   2.321  17.628 -1.5167  0.9650  0.9240
 2621SOL    HW219326   2.540   2.183  17.563 -1.0365 -0.1440 -0.2776
 2622SOL     OW19327   3.027   3.011   2.999 -0.1737  0.0595 -0.0472
 2622SOL    HW119328   3.012   2.979   2.910 -1.6922 -1.4335  0.7658
 2622SOL    HW219329   3.030   2.939   3.061  3.1600  0.5610  0.3779
 2623SOL     OW19330   1.711   3.329   2.976 -0.3184  0.3324 -0.7668
 2623SOL    HW119331   1.787   3.315   2.918 -0.1337  0.9433 -0.6660
 2623SOL    HW219332   1.715   3.242   3.016  0.7698  0.0002 -1.5751
 2624SOL     OW19333   1.267   4.331  17.226 -0.1889 -0.8536 -0.4082
 2624SOL    HW119334   1.197   4.269  17.245  0.6156 -0.8296  2.6613
 2624SOL    HW219335   1.307   4.345  17.312  1.4588  0.4137 -1.3577
 2625SOL     OW19336   0.497   3.880   6.797  0.7749 -0.0630 -0.4005
 2625SOL    HW119337   0.511   3.791   6.831 -1.3924 -1.0649 -2.1025
 2625SOL    HW219338   0.411   3.910   6.826  1.1871  1.0858 -0.3732
 2626SOL     OW19339   3.005   1.306   6.998 -0.4874 -0.2592 -0.3598
 2626SOL    HW119340   3.046   1.279   6.916 -0.3377  0.2220 -0.4386
 2626SOL    HW219341   2.913   1.308   6.973 -0.0628 -1.1269 -1.9732
 2627SOL     OW19342   1.839   0.149   4.505  0.0085 -0.6666  0.3753
 2627SOL    HW119343   1.756   0.144   4.550 -1.2238  1.2639 -1.6787
 2627SOL    HW219344   1.826   0.064   4.463  1.3385  0.3881 -2.1912
 2628SOL     OW19345   4.381   2.806  16.780 -0.3293 -0.2089 -0.5837
 2628SOL    HW119346   4.462   2.856  16.791 -0.2671 -0.1589 -1.2818
 2628SOL    HW219347   4.392   2.754  16.860  0.7245 -1.0257 -1.2516
 2629SOL     OW19348   1.139   3.412   5.680 -0.6794 -1.0563 -0.1487
 2629SOL    HW119349   1.106   3.324   5.661  0.4700 -1.6744  0.7026
 2629SOL    HW219350   1.148   3.463   5.599 -2.5525 -0.1029  0.2478
 2630SOL     OW19351   2.851   1.909  15.957  0.1951  0.1487  0.1224
 2630SOL    HW119352   2.763   1.898  15.922  0.0246  2.0402 -0.0164
 2630SOL    HW219353   2.890   1.951  15.880 -0.3646  1.5545  0.6048
 2631SOL     OW19354   1.127   0.544   4.524  0.6117 -0.0540  0.3070
 2631SOL    HW119355   1.203   0.583   4.566  1.1071 -1.9571  1.1406
 2631SOL    HW219356   1.058   0.610   4.536  0.1655 -0.9828  2.6857
 2632SOL     OW19357   3.550   4.300  14.947 -0.6269  0.2967 -0.2369
 2632SOL    HW119358   3.550   4.235  14.877 -0.2905  0.5868 -0.5077
 2632SOL    HW219359   3.459   4.294  14.976 -0.7933 -1.2707 -1.0839
 2633SOL     OW19360   3.250   1.032   7.020  0.3659 -0.2121 -0.1229
 2633SOL    HW119361   3.303   0.953   7.034  0.9470  0.0828 -0.6402
 2633SOL    HW219362   3.240   1.061   7.111  0.7252  0.2197 -0.2211
 2634SOL     OW19363   1.480   0.638   4.362 -0.0649  0.5809  0.7541
 2634SOL    HW119364   1.429   0.576   4.311 -0.1987 -0.4367  2.1067
 2634SOL    HW219365   1.511   0.703   4.299 -0.1767  1.9217  2.0644
 2635SOL     OW19366   0.303   4.538   0.406 -0.2267  0.3438  0.3427
 2635SOL    HW119367   0.271   4.476   0.341  0.6239 -0.3153  0.5480
 2635SOL    HW219368   0.314   4.614   0.348 -0.0775  1.3320  1.6563
 2636SOL     OW19369   1.478   1.832   5.745  0.2578 -0.1735  0.3436
 2636SOL    HW119370   1.415   1.887   5.791  0.3079  1.5263 -1.6272
 2636SOL    HW219371   1.475   1.744   5.782 -0.7341  1.0640  3.2144
 2637SOL     OW19372   2.063   4.333   7.387  0.3326 -0.1061 -0.3029
 2637SOL    HW119373   2.148   4.374   7.403 -0.7122  2.7814 -2.0053
 2637SOL    HW219374   2.097   4.245   7.376  2.6130  0.9912 -1.9373
 2638SOL     OW19375   1.022   3.436   5.411 -0.0199 -0.0543  0.2922
 2638SOL    HW119376   1.053   3.476   5.329  3.7049  1.6396  2.5141
 2638SOL    HW219377   1.011   3.346   5.380 -0.0305 -0.2620  0.8956
 2639SOL     OW19378   3.768   0.561   4.138  0.0476 -0.3662  0.4238
 2639SOL    HW119379   3.863   0.557   4.133  0.1302  0.7648  1.0821
 2639SOL    HW219380   3.735   0.510   4.063 -0.6011  0.3480  0.2167
 2640SOL     OW19381   0.683   3.034  16.098  0.0914 -0.4889  0.2147
 2640SOL    HW119382   0.738   3.109  16.080  2.0366 -1.5957  1.5121
 2640SOL    HW219383   0.600   3.079  16.116 -0.4607 -0.6448 -1.9687
 2641SOL     OW19384   3.201   1.082   6.198 -0.3875 -0.1826 -0.0963
 2641SOL    HW119385   3.264   1.105   6.267 -0.2051  0.9734 -0.6477
 2641SOL    HW219386   3.249   1.011   6.156  0.4411 -0.3152  1.0509
 2642SOL     OW19387   0.309   3.440  15.094  0.5687  0.2061 -0.6426
 2642SOL    HW119388   0.372   3.470  15.028  0.1893 -0.4630 -1.3080
 2642SOL    HW219389   0.354   3.443  15.178  0.0348 -1.2964 -0.3046
 2643SOL     OW19390   2.281   4.412   4.192  0.1691 -0.5952 -0.0284
 2643SOL    HW119391   2.303   4.319   4.201 -2.2823 -1.2234 -0.5113
 2643SOL    HW219392   2.251   4.420   4.282 -0.9255 -0.4290 -0.4006
 2644SOL     OW19393   0.738   1.942   5.429  0.1869  0.5348  0.6488
 2644SOL    HW119394   0.761   1.923   5.338 -0.3952 -0.8115  0.7852
 2644SOL    HW219395   0.645   1.966   5.423 -0.0379 -0.5615 -0.3432
 2645SOL     OW19396   4.122   1.268   2.967  1.1266 -0.3978 -0.1084
 2645SOL    HW119397   4.175   1.263   2.887  1.1387  0.6141 -0.1557
 2645SOL    HW219398   4.052   1.208   2.939 -0.2661  1.8380 -1.4130
 2646SOL     OW19399   1.659   2.008  16.997 -0.4732  0.1411  0.1914
 2646SOL    HW119400   1.679   1.925  16.954 -0.5923  0.3483 -0.2553
 2646SOL    HW219401   1.621   1.992  17.084  1.2733 -1.5068  0.6488
 2647SOL     OW19402   0.633   1.603  10.094  0.2940 -0.1292  0.6598
 2647SOL    HW119403   0.616   1.587  10.187  1.7993  0.5469  1.0487
 2647SOL    HW219404   0.624   1.515  10.057  0.0029 -0.5623  1.7654
 2648SOL     OW19405   2.804   0.460   2.553 -0.3012  0.1707  0.2756
 2648SOL    HW119406   2.857   0.536   2.529  0.3985 -0.5472 -0.4798
 2648SOL    HW219407   2.875   0.396   2.563  1.8251  2.0846 -2.5862
 2649SOL     OW19408   4.555   0.633   9.927 -0.2244  0.6638 -0.0325
 2649SOL    HW119409   4.630   0.573   9.938 -1.7964 -1.7857 -2.6718
 2649SOL    HW219410   4.504   0.595   9.856  0.4141  1.1916 -0.7808
 2650SOL     OW19411   1.995   2.568   4.935 -0.1395 -0.6260 -1.0234
 2650SOL    HW119412   1.911   2.546   4.976  1.2943  1.1130  2.8991
 2650SOL    HW219413   1.966   2.624   4.862  1.8872  0.8566 -0.6819
 2651SOL     OW19414   4.225   4.505   5.415  0.0084  0.4492 -0.7931
 2651SOL    HW119415   4.185   4.437   5.470 -1.0389  1.4830 -0.2672
 2651SOL    HW219416   4.149   4.523   5.360 -1.8951 -2.3130  0.9051
 2652SOL     OW19417   1.084   3.214  16.526  0.7525  0.2016  0.3013
 2652SOL    HW119418   1.130   3.147  16.576  0.9835 -0.5596 -0.9378
 2652SOL    HW219419   1.054   3.170  16.447  0.7859  0.1595  0.3121
 2653SOL     OW19420   0.817   1.653   2.773 -0.2440 -0.0845 -0.1930
 2653SOL    HW119421   0.760   1.606   2.713 -0.1192 -1.9389  1.1386
 2653SOL    HW219422   0.807   1.746   2.755  0.7006  0.2620  1.0436
 2654SOL     OW19423   0.128   0.535   8.300 -0.3422 -0.5787 -0.3504
 2654SOL    HW119424   0.212   0.565   8.266  0.0760  0.4650  1.6252
 2654SOL    HW219425   0.092   0.615   8.337  0.4681 -0.9533  1.2348
 2655SOL     OW19426   4.655   0.406   1.954  0.3107 -0.3514 -0.0403
 2655SOL    HW119427   4.633   0.482   2.008 -1.0797 -1.0854  0.4181
 2655SOL    HW219428   4.573   0.361   1.974  1.1768 -0.9366  2.2238
 2656SOL     OW19429   0.919   2.050   4.607  0.2767  0.2770  0.3440
 2656SOL    HW119430   0.848   2.061   4.671  0.2890  1.9351  0.0759
 2656SOL    HW219431   0.908   2.139   4.572 -0.4717 -0.0559 -0.2745
 2657SOL     OW19432   2.946   3.164   5.961  0.1129  0.0274  0.0431
 2657SOL    HW119433   2.955   3.257   5.981  2.5331 -0.3894  0.8443
 2657SOL    HW219434   2.966   3.129   6.047 -3.0397 -0.4157  0.6062
 2658SOL     OW19435   3.121   3.209   9.015 -0.4535  0.1119 -0.3348
 2658SOL    HW119436   3.084   3.262   8.944 -1.1756  0.2675  0.1563
 2658SOL    HW219437   3.202   3.261   9.016 -0.0565 -0.5191 -0.0435
 2659SOL     OW19438   1.271   1.468  16.812  0.2822  0.8431  0.3755
 2659SOL    HW119439   1.316   1.549  16.789  1.5668 -0.5405 -1.9627
 2659SOL    HW219440   1.273   1.469  16.908 -0.1753 -1.1335  0.3938
 2660SOL     OW19441   2.008   2.612  13.387  0.1410 -0.0325 -0.2087
 2660SOL    HW119442   1.918   2.625  13.355 -0.3745 -0.9096  0.8593
 2660SOL    HW219443   2.052   2.692  13.362  0.8280  0.6363  3.1869
 2661SOL     OW19444   3.962   1.442   3.833  0.0941 -0.1316  0.0490
 2661SOL    HW119445   3.917   1.367   3.794  0.6876 -0.4706  0.0189
 2661SOL    HW219446   3.981   1.395   3.915  0.2499 -0.8451 -0.3952
 2662SOL     OW19447   1.491   2.417   1.881 -0.2857 -0.2326  0.2372
 2662SOL    HW119448   1.434   2.437   1.808 -1.6545 -1.1198  1.0656
 2662SOL    HW219449   1.572   2.398   1.834  1.6269  1.1321  2.9707
 2663SOL     OW19450   3.234   4.277  16.976  0.1846  0.3115 -0.6491
 2663SOL    HW119451   3.320   4.236  16.987 -0.7371 -1.4462  0.0825
 2663SOL    HW219452   3.209   4.217  16.905  0.6499 -1.3748  0.6069
 2664SOL     OW19453   2.797   3.672   0.718  0.0964 -0.2742  0.1238
 2664SOL    HW119454   2.739   3.731   0.670 -0.4260 -1.1528 -0.3149
 2664SOL    HW219455   2.767   3.700   0.804  1.3682  1.2510  0.0755
 2665SOL     OW19456   4.486   4.589  13.037 -0.4335 -0.0608 -0.2327
 2665SOL    HW119457   4.445   4.672  13.015 -0.8594  0.0716  1.0757
 2665SOL    HW219458   4.449   4.547  13.115 -0.1137 -3.3983 -1.8487
 2666SOL     OW19459   1.915   0.819   7.598  0.4450  0.0955  0.2477
 2666SOL    HW119460   1.967   0.740   7.607 -0.7086 -1.0528 -2.9878
 2666SOL    HW219461   1.933   0.858   7.512  0.2683  0.6166  0.4457
 2667SOL     OW19462   0.008   4.333   7.271  0.2442  0.0258  0.1103
 2667SOL    HW119463   4.635   4.314   7.271  0.4848 -1.1629  0.0354
 2667SOL    HW219464   0.008   4.393   7.196 -0.7368  0.7377  0.6715
 2668SOL     OW19465   3.392   3.568   3.935  0.0078 -0.7432  0.2371
 2668SOL    HW119466   3.331   3.497   3.957  0.0434 -1.9407 -3.4481
 2668SOL    HW219467   3.438   3.582   4.018 -0.7964 -0.4003  0.6238
 2669SOL     OW19468   3.282   4.193   4.340 -0.0159 -0.1472  0.5291
 2669SOL    HW119469   3.290   4.114   4.394 -0.6022  0.8453  2.0783
 2669SOL    HW219470   3.294   4.138   4.263  0.4846  1.4177 -0.5090
 2670SOL     OW19471   2.399   1.799   2.726 -0.2270 -0.0255 -0.5547
 2670SOL    HW119472   2.334   1.819   2.658 -0.8729 -0.8514 -0.1689
 2670SOL    HW219473   2.379   1.706   2.730  0.6070 -0.0509  2.6734
 2671SOL     OW19474   2.578   2.511   7.971  0.5333  0.0071  0.0777
 2671SOL    HW119475   2.638   2.580   7.943  0.2794  0.3794  0.4673
 2671SOL    HW219476   2.545   2.558   8.047  1.4607 -0.1596  0.5774
 2672SOL     OW19477   3.482   3.425  12.536 -0.0260  0.3849  0.2249
 2672SOL    HW119478   3.505   3.382  12.454 -3.2099 -1.9418  0.6005
 2672SOL    HW219479   3.500   3.359  12.603 -0.4751 -0.1097 -0.1469
 2673SOL     OW19480   1.259   2.812  15.230  0.0379  0.0008 -0.6510
 2673SOL    HW119481   1.248   2.876  15.160 -0.9255  0.3838 -0.1589
 2673SOL    HW219482   1.269   2.734  15.175 -2.1286 -0.6816 -0.0789
 2674SOL     OW19483   0.589   3.725   9.825  0.7216  0.2422 -0.1464
 2674SOL    HW119484   0.527   3.664   9.786 -1.3772  2.7858 -0.8608
 2674SOL    HW219485   0.625   3.678   9.900  3.3378  1.2290 -0.8124
 2675SOL     OW19486   2.044   0.265  17.537  0.2197  0.3624 -0.2658
 2675SOL    HW119487   2.033   0.208  17.613  2.3850 -0.2593 -0.4121
 2675SOL    HW219488   2.086   0.204  17.476  1.4291 -1.7383  2.6989
 2676SOL     OW19489   0.738   3.914   3.563 -0.3781  0.7722 -1.0025
 2676SOL    HW119490   0.824   3.926   3.602  0.0822 -0.3597 -1.6903
 2676SOL    HW219491   0.679   3.942   3.633  1.6937  0.1787  0.9765
 2677SOL     OW19492   2.119   2.004   2.782 -0.3149  0.2408 -0.5907
 2677SOL    HW119493   2.050   2.062   2.751 -0.2346  1.0358  0.7310
 2677SOL    HW219494   2.185   2.023   2.715  0.1037 -1.0771 -0.5636
 2678SOL     OW19495   2.365   0.225   0.871  0.0969 -0.2152 -0.3941
 2678SOL    HW119496   2.272   0.246   0.880  0.8509  3.4878 -1.3719
 2678SOL    HW219497   2.386   0.205   0.962  0.9192  0.0786 -0.5175
 2679SOL     OW19498   2.847   0.349   2.972  0.1050  0.2941  0.5067
 2679SOL    HW119499   2.870   0.256   2.972  1.1822  0.5466 -1.8194
 2679SOL    HW219500   2.899   0.381   2.898  0.8539  1.1947  1.4096
 2680SOL     OW19501   2.854   1.628   0.843  0.2622 -0.4761  0.5662
 2680SOL    HW119502   2.844   1.634   0.938 -0.1258  0.5849  0.4664
 2680SOL    HW219503   2.762   1.631   0.815  0.4508  0.0497 -0.0034
 2681SOL     OW19504   2.856   2.842   3.310  0.7401 -0.0287  0.1487
 2681SOL    HW119505   2.942   2.823   3.271  0.6909 -0.0020  0.0271
 2681SOL    HW219506   2.878   2.923   3.356 -0.8958  0.7639 -0.4826
 2682SOL     OW19507   2.903   4.515  12.674  0.1009 -0.5767 -0.2716
 2682SOL    HW119508   2.861   4.430  12.690  1.7936 -1.3031  0.2745
 2682SOL    HW219509   2.875   4.552  12.757  1.4808 -0.6010  0.1942
 2683SOL     OW19510   3.766   4.657  10.003 -0.4964  0.0506 -0.0623
 2683SOL    HW119511   3.829   4.639  10.073 -0.2504  0.1181 -0.2690
 2683SOL    HW219512   3.702   4.586  10.008  0.1323 -0.3141  3.2666
 2684SOL     OW19513   2.141   4.699   1.215 -0.2766  0.4116  0.4683
 2684SOL    HW119514   2.176   4.612   1.233 -0.1412 -0.0268 -1.8844
 2684SOL    HW219515   2.218   0.028   1.187  1.1590 -1.0260  1.8441
 2685SOL     OW19516   0.662   3.562  11.945  0.2151 -0.0874  0.0138
 2685SOL    HW119517   0.636   3.489  12.001 -0.6996  1.4044  1.5067
 2685SOL    HW219518   0.742   3.584  11.994  0.1200  1.6769 -0.6042
 2686SOL     OW19519   3.308   0.081   3.046 -0.2710  0.2742  0.0487
 2686SOL    HW119520   3.364   0.013   3.008 -1.3039  0.3653 -1.6520
 2686SOL    HW219521   3.263   0.034   3.117  0.9602 -0.3541  0.4125
 2687SOL     OW19522   4.456   0.746   5.600 -0.5215  0.5408  0.3895
 2687SOL    HW119523   4.519   0.754   5.672 -0.0500 -1.9748  0.2366
 2687SOL    HW219524   4.462   0.835   5.563  2.2433 -0.3176 -1.2611
 2688SOL     OW19525   2.307   0.655   1.441  0.4738  0.3078  0.2429
 2688SOL    HW119526   2.281   0.586   1.502 -1.0328  0.3829 -0.3356
 2688SOL    HW219527   2.393   0.671   1.480  0.7162 -0.1861 -0.0907
 2689SOL     OW19528   0.245   3.058  16.186  0.2588  0.0872 -0.4059
 2689SOL    HW119529   0.188   3.004  16.241 -0.1305  0.8859 -0.0370
 2689SOL    HW219530   0.296   2.987  16.146 -0.3252  0.2954 -1.5440
 2690SOL     OW19531   3.747   4.483   7.605  0.4789 -0.2624 -0.8976
 2690SOL    HW119532   3.756   4.501   7.698  0.0148  0.2717 -0.9542
 2690SOL    HW219533   3.821   4.428   7.579 -1.0111 -1.7882 -1.9082
 2691SOL     OW19534   2.199   1.142   7.974 -0.2877  0.3698  0.8870
 2691SOL    HW119535   2.161   1.226   7.947  1.4612  1.5631  2.1457
 2691SOL    HW219536   2.136   1.124   8.043 -1.5627  2.2116  0.2111
 2692SOL     OW19537   3.733   3.502  12.782  0.0487 -1.0562 -0.0691
 2692SOL    HW119538   3.650   3.456  12.795 -0.3152 -0.2327  0.5075
 2692SOL    HW219539   3.718   3.593  12.807  1.4485  0.0023 -3.0613
 2693SOL     OW19540   0.040   4.647   2.367  0.1061  0.3162 -0.5731
 2693SOL    HW119541   0.129   4.671   2.345 -0.0285  2.1687  0.9432
 2693SOL    HW219542   0.042   4.624   2.460  1.1723  0.9278 -0.4518
 2694SOL     OW19543   3.895   2.641   6.249  0.1128 -0.0887 -0.6146
 2694SOL    HW119544   3.898   2.545   6.252  0.6028 -0.1168 -1.9011
 2694SOL    HW219545   3.802   2.656   6.266 -0.2209  0.9049 -3.3214
 2695SOL     OW19546   4.138   4.478   4.065 -0.6566 -0.5812 -0.6306
 2695SOL    HW119547   4.115   4.400   4.015 -0.7659 -1.2735  0.5113
 2695SOL    HW219548   4.057   4.526   4.051  0.3272  0.5408 -2.5019
 2696SOL     OW19549   2.728   2.007   7.356 -0.4434  0.7515  0.0910
 2696SOL    HW119550   2.669   2.045   7.421 -1.3599 -0.0781 -0.2534
 2696SOL    HW219551   2.812   2.049   7.375  0.0151  0.8220 -2.1187
 2697SOL     OW19552   2.697   0.088  13.948  0.1029  0.0571 -0.5896
 2697SOL    HW119553   2.655   0.004  13.929  1.1051 -0.0729 -2.2153
 2697SOL    HW219554   2.684   0.103  14.042  0.5768  1.5672 -0.7751
 2698SOL     OW19555   0.329   2.377   3.323 -0.2599 -0.4187  0.1370
 2698SOL    HW119556   0.372   2.374   3.409 -1.3539 -0.3314  0.6880
 2698SOL    HW219557   0.261   2.443   3.337  1.1979  0.7165  1.9873
 2699SOL     OW19558   2.492   0.621   6.494  0.1614 -0.3075  0.6849
 2699SOL    HW119559   2.465   0.555   6.557  0.2470 -0.3912  0.6331
 2699SOL    HW219560   2.435   0.696   6.515  2.0097  0.5152  2.7844
 2700SOL     OW19561   2.026   3.735  11.605  0.1705 -0.0171  0.4214
 2700SOL    HW119562   2.086   3.808  11.618 -1.1434  1.4077 -1.5135
 2700SOL    HW219563   2.096   3.675  11.630 -0.7360 -1.9079 -1.5469
 2701SOL     OW19564   3.864   1.601   6.582  0.7067 -0.0872  0.0984
 2701SOL    HW119565   3.873   1.632   6.672 -1.4568 -1.4386  0.7990
 2701SOL    HW219566   3.941   1.547   6.568  0.1698 -1.2688  1.8273
 2702SOL     OW19567   0.193   2.434   0.742 -0.0774 -0.0661  0.2530
 2702SOL    HW119568   0.136   2.399   0.810  0.4304 -0.8159  0.2945
 2702SOL    HW219569   0.274   2.442   0.793  0.4930 -1.6108 -0.4199
 2703SOL     OW19570   4.625   4.482   9.143 -0.2431 -0.0856  0.2114
 2703SOL    HW119571   4.677   4.476   9.224 -0.2145 -0.5086  0.1578
 2703SOL    HW219572   4.605   4.389   9.130  0.5364 -0.7141  3.4194
 2704SOL     OW19573   3.672   2.320  10.690  0.2300  0.1529 -0.7145
 2704SOL    HW119574   3.753   2.358  10.725 -0.9349  1.4347  0.5707
 2704SOL    HW219575   3.662   2.361  10.605  1.1889  0.3537 -0.7271
 2705SOL     OW19576   0.037   2.821   2.817 -0.5244 -0.0004  0.4300
 2705SOL    HW119577   0.117   2.870   2.838 -0.2212 -0.4713  0.3720
 2705SOL    HW219578   0.020   2.856   2.730  0.5074  0.1469  0.2858
 2706SOL     OW19579   3.038   2.247   7.765 -0.3571 -0.0601 -0.0949
 2706SOL    HW119580   3.093   2.183   7.720 -2.1244 -0.3244 -1.8764
 2706SOL    HW219581   3.069   2.233   7.854 -1.6497 -1.9512  0.0656
 2707SOL     OW19582   3.167   2.119   4.995 -0.5670  0.6408  0.1077
 2707SOL    HW119583   3.191   2.062   5.068 -0.5759 -0.1607 -0.5169
 2707SOL    HW219584   3.241   2.112   4.935 -2.1642 -0.2626 -1.7436
 2708SOL     OW19585   4.687   3.497  13.847 -0.4663  0.3286 -0.5105
 2708SOL    HW119586   4.718   3.578  13.886  0.5746  0.9287 -2.5954
 2708SOL    HW219587   4.615   3.459  13.899  0.3213 -0.0729  0.2873
 2709SOL     OW19588   4.443   2.337  10.741  0.5523  0.0144  0.1442
 2709SOL    HW119589   4.348   2.346  10.752  0.5089 -1.8891  1.2525
 2709SOL    HW219590   4.476   2.360  10.828 -0.5153  2.9485 -0.2123
 2710SOL     OW19591   2.770   2.052  13.091 -0.0122 -0.2619  0.5728
 2710SOL    HW119592   2.708   1.988  13.125  0.9796 -0.0624  2.7714
 2710SOL    HW219593   2.723   2.134  13.081  1.0505  0.2901  0.0635
 2711SOL     OW19594   4.672   0.800  10.472 -0.1354 -0.3079 -0.8074
 2711SOL    HW119595   4.579   0.803  10.494 -0.0397  0.5016 -0.5099
 2711SOL    HW219596   4.668   0.786  10.377 -1.2099 -1.4937 -0.5821
 2712SOL     OW19597   2.204   2.935  12.859 -0.3075 -0.4732  0.3655
 2712SOL    HW119598   2.205   2.860  12.919 -0.4265 -1.3990 -0.7845
 2712SOL    HW219599   2.131   2.989  12.888 -0.4031  0.3521 -1.3895
 2713SOL     OW19600   0.597   0.252   0.105 -0.4192 -0.1398  0.4502
 2713SOL    HW119601   0.526   0.195   0.077 -1.3274 -0.0680  2.5752
 2713SOL    HW219602   0.557   0.338   0.090 -0.8298 -0.3105  0.5800
 2714SOL     OW19603   2.077   4.308   6.163 -0.3058  0.3389 -0.3344
 2714SOL    HW119604   1.995   4.291   6.209  1.6112 -1.7342  2.2912
 2714SOL    HW219605   2.040   4.385   6.120 -0.8885  1.6762  2.6048
 2715SOL     OW19606   0.200   4.136   1.952 -0.1557 -0.2361 -0.3502
 2715SOL    HW119607   0.276   4.192   1.933 -0.6463 -0.3348 -2.6486
 2715SOL    HW219608   0.143   4.163   1.880 -2.1757  2.7001  2.3934
 2716SOL     OW19609   4.339   1.322   7.045 -0.4737  0.2310  0.2061
 2716SOL    HW119610   4.324   1.338   6.951 -0.7969  1.6063  0.4999
 2716SOL    HW219611   4.287   1.241   7.048  0.9914 -0.6481  1.7065
 2717SOL     OW19612   2.210   3.620  16.991  0.5668 -0.0652  0.8573
 2717SOL    HW119613   2.155   3.541  16.989  0.6726 -0.0685 -1.2131
 2717SOL    HW219614   2.212   3.640  17.085  1.4608  2.5509  0.2685
 2718SOL     OW19615   1.037   0.265   4.025  0.2897 -0.1006  0.6119
 2718SOL    HW119616   1.094   0.308   4.088  1.6111  0.5154 -1.0263
 2718SOL    HW219617   0.958   0.253   4.079  0.2455  0.2022  0.6156
 2719SOL     OW19618   2.468   2.439  10.884  0.2750  0.0775  0.1114
 2719SOL    HW119619   2.426   2.509  10.834 -2.0735 -2.1235 -0.9508
 2719SOL    HW219620   2.433   2.360  10.843  0.5068 -0.0543  0.1693
 2720SOL     OW19621   1.337   0.790  17.674 -0.0915  0.3121 -0.7758
 2720SOL    HW119622   1.313   0.784  17.581 -2.0860  1.7662 -0.3324
 2720SOL    HW219623   1.254   0.809   0.031  0.9483  0.6440  1.1046
 2721SOL     OW19624   3.308   3.626  12.841 -0.0714 -0.6711  0.4463
 2721SOL    HW119625   3.237   3.628  12.904 -0.5893 -0.0502 -0.1544
 2721SOL    HW219626   3.263   3.608  12.758 -1.9735  1.8248  0.9374
 2722SOL     OW19627   3.420   0.137   8.970 -0.4203  0.0813 -0.2066
 2722SOL    HW119628   3.389   0.200   9.035  0.5118 -0.9565  1.2334
 2722SOL    HW219629   3.501   0.117   9.018 -0.1568  2.3478  0.3198
 2723SOL     OW19630   3.151   1.249   3.784  0.1054 -0.1574  0.0872
 2723SOL    HW119631   3.219   1.296   3.831 -0.8980 -0.7253  2.1296
 2723SOL    HW219632   3.172   1.159   3.811 -0.5183 -0.7111 -1.2838
 2724SOL     OW19633   0.753   4.569   0.520 -0.6350  0.3287  0.1175
 2724SOL    HW119634   0.671   4.543   0.562 -1.4711  3.3932  0.3285
 2724SOL    HW219635   0.795   4.626   0.585  1.9064  0.2912 -1.5154
 2725SOL     OW19636   4.425   1.083   4.307  0.3598 -0.2634  0.6948
 2725SOL    HW119637   4.370   1.020   4.355 -2.5824  1.2522 -0.7200
 2725SOL    HW219638   4.496   1.105   4.367 -0.4435  2.9352  0.4495
 2726SOL     OW19639   4.385   3.003   4.365  0.1365 -0.6775  0.4462
 2726SOL    HW119640   4.328   3.079   4.355 -0.5142 -1.5993 -2.8329
 2726SOL    HW219641   4.417   2.985   4.277  3.6955  0.6512  1.4693
 2727SOL     OW19642   2.521   3.665   4.109 -0.1767  0.2965 -0.4959
 2727SOL    HW119643   2.609   3.634   4.129  0.1902  1.9542  0.5515
 2727SOL    HW219644   2.535   3.758   4.090 -0.9383  0.2960 -1.0851
 2728SOL     OW19645   4.631   3.104   9.212 -0.5075  0.0550  0.0144
 2728SOL    HW119646   4.595   3.178   9.261  0.5837 -1.2417  2.7763
 2728SOL    HW219647   4.681   3.061   9.281  0.6819  1.1069 -0.1931
 2729SOL     OW19648   2.846   1.705   4.231  0.5315  0.5202  0.0283
 2729SOL    HW119649   2.849   1.654   4.150  0.3055 -1.6080  1.3620
 2729SOL    HW219650   2.930   1.751   4.220  0.2800  0.9045 -0.2916
 2730SOL     OW19651   2.281   2.991   5.416 -0.0725  0.3111  0.2879
 2730SOL    HW119652   2.251   2.991   5.507 -1.1737 -2.2313 -0.0654
 2730SOL    HW219653   2.313   2.900   5.413 -0.0670  0.3539 -0.9139
 2731SOL     OW19654   4.633   0.730   5.119  0.0949 -0.0579  0.7687
 2731SOL    HW119655   4.628   0.701   5.210  0.6371  1.9303  1.4473
 2731SOL    HW219656   0.002   0.765   5.113  0.2528 -0.2935  1.7143
 2732SOL     OW19657   1.672   3.763  16.636  0.2840  0.1110  0.2955
 2732SOL    HW119658   1.637   3.811  16.560  0.4434 -0.7535 -0.3155
 2732SOL    HW219659   1.702   3.845  16.676  0.2136 -0.1450  0.8810
 2733SOL     OW19660   0.789   0.491   9.204 -0.0350  0.8036 -0.2033
 2733SOL    HW119661   0.854   0.554   9.175 -1.9527  3.2939  0.9237
 2733SOL    HW219662   0.813   0.484   9.296 -0.2354  0.4675 -0.1732
 2734SOL     OW19663   0.662   1.877   7.924  0.2202 -0.8590  0.0079
 2734SOL    HW119664   0.688   1.839   7.840 -0.1426 -1.0727 -0.0064
 2734SOL    HW219665   0.581   1.827   7.937 -0.0773 -0.3994 -0.0802
 2735SOL     OW19666   2.669   2.464  12.314 -0.0258  0.3324 -0.1325
 2735SOL    HW119667   2.754   2.497  12.344  0.5370 -1.2464  0.0193
 2735SOL    HW219668   2.650   2.400  12.383 -0.0622  1.3126  0.7621
 2736SOL     OW19669   4.363   1.388  13.992 -0.0488 -0.4265  0.4103
 2736SOL    HW119670   4.390   1.354  14.078 -2.4797 -1.6048  0.7041
 2736SOL    HW219671   4.312   1.464  14.019  2.3516  1.5281 -0.5197
 2737SOL     OW19672   2.388   2.690   8.781  0.5153 -0.3946  0.4284
 2737SOL    HW119673   2.297   2.680   8.754 -0.2318 -0.3141  2.8552
 2737SOL    HW219674   2.373   2.682   8.875  0.3020  0.6988  0.4957
 2738SOL     OW19675   4.040   1.159  11.997 -1.0386  0.5239  0.1061
 2738SOL    HW119676   4.093   1.086  11.964 -4.1280 -1.4344 -0.5307
 2738SOL    HW219677   3.954   1.144  11.957 -0.2854 -3.4407 -0.0151
 2739SOL     OW19678   0.056   0.673   4.698  0.1982 -0.2809  0.1613
 2739SOL    HW119679   0.022   0.701   4.612  2.4427  2.0603  0.0360
 2739SOL    HW219680   0.122   0.737   4.725 -0.7068  0.0019  1.7013
 2740SOL     OW19681   1.758   3.232   1.137  0.3567  0.2603 -0.7961
 2740SOL    HW119682   1.759   3.303   1.073  2.2295 -0.0283 -1.0861
 2740SOL    HW219683   1.666   3.238   1.163  0.2365 -0.0416 -1.1489
 2741SOL     OW19684   0.615   3.578  14.262 -0.1162  0.5920 -0.0216
 2741SOL    HW119685   0.628   3.544  14.350  1.2605 -1.2738 -0.9294
 2741SOL    HW219686   0.626   3.497  14.211 -0.3993  0.6117 -0.1170
 2742SOL     OW19687   2.282   3.663   1.923  0.0381 -0.5025 -0.3342
 2742SOL    HW119688   2.292   3.637   1.832 -0.3389  1.7710 -1.0315
 2742SOL    HW219689   2.192   3.696   1.927 -0.2386 -1.2022 -0.8253
 2743SOL     OW19690   1.102   4.022   3.882 -0.1787  0.0840 -0.4079
 2743SOL    HW119691   1.187   4.023   3.926 -0.8685 -1.8634  0.9588
 2743SOL    HW219692   1.087   3.927   3.880  1.1312 -0.0999 -2.5615
 2744SOL     OW19693   1.580   0.276   6.184  0.4178  0.2360 -0.0291
 2744SOL    HW119694   1.618   0.250   6.267 -1.0413 -1.0536  0.2298
 2744SOL    HW219695   1.579   0.372   6.182 -1.0141  0.1556 -3.1093
 2745SOL     OW19696   2.041   4.320  17.332  0.4522 -0.2257  0.4045
 2745SOL    HW119697   2.052   4.225  17.329  1.8324 -0.0549  0.1805
 2745SOL    HW219698   2.029   4.329  17.427 -1.7529  0.5511  0.0528
 2746SOL     OW19699   0.590   2.319   9.711  0.5130 -0.2087  0.5349
 2746SOL    HW119700   0.495   2.330   9.710  0.4714 -0.6302 -0.3791
 2746SOL    HW219701   0.618   2.401   9.751 -1.7679  0.1993  1.2616
 2747SOL     OW19702   0.172   0.127   0.329 -0.5063 -0.1383 -0.3347
 2747SOL    HW119703   0.254   0.092   0.294 -0.9935 -1.0518 -0.5547
 2747SOL    HW219704   0.120   0.086   0.260  1.3051 -2.4407 -0.3367
 2748SOL     OW19705   0.337   4.459   3.719 -0.1233 -0.2977  0.3756
 2748SOL    HW119706   0.372   4.434   3.805 -1.4342 -0.7703  0.7627
 2748SOL    HW219707   0.383   4.542   3.706 -1.3552  1.1102  5.1331
 2749SOL     OW19708   4.246   2.470   6.795 -0.1497 -0.1775  0.2422
 2749SOL    HW119709   4.275   2.498   6.708  1.0345 -2.3285 -0.0433
 2749SOL    HW219710   4.211   2.547   6.841 -2.1423 -0.9718  0.0336
 2750SOL     OW19711   2.846   0.637   2.007 -0.0945  0.4108  0.1619
 2750SOL    HW119712   2.836   0.542   2.014  0.7194  0.3589  0.6668
 2750SOL    HW219713   2.933   0.635   1.967 -0.2981 -0.3976 -0.2491
 2751SOL     OW19714   3.447   1.087   0.681  0.2551 -0.3473  0.1357
 2751SOL    HW119715   3.515   1.025   0.653 -0.4075 -1.2122  0.4593
 2751SOL    HW219716   3.499   1.129   0.750  0.3311 -0.5916  0.2298
 2752SOL     OW19717   4.003   1.282   4.042  0.2218 -0.0309 -0.4729
 2752SOL    HW119718   4.074   1.223   4.069  0.5048  0.6381  0.2341
 2752SOL    HW219719   3.928   1.248   4.091 -0.8173 -1.5442 -3.0950
 2753SOL     OW19720   0.169   1.584   4.427  0.5387 -0.0418 -0.1136
 2753SOL    HW119721   0.209   1.528   4.360  1.3986 -0.0350  0.3959
 2753SOL    HW219722   0.190   1.673   4.398  1.0843  0.1819  0.9733
 2754SOL     OW19723   2.543   2.669   2.421  0.5142 -0.0347 -0.7622
 2754SOL    HW119724   2.513   2.638   2.336  1.9491 -1.0223 -0.9171
 2754SOL    HW219725   2.575   2.584   2.451 -1.3227 -1.0011 -1.5857
 2755SOL     OW19726   2.035   2.892   4.750 -0.0119  0.0568  0.1339
 2755SOL    HW119727   1.995   2.972   4.715  0.0836  0.4582  0.9521
 2755SOL    HW219728   1.983   2.820   4.714  2.1599 -1.6764  0.4521
 2756SOL     OW19729   2.232   2.955   5.672  0.0933 -0.2888  0.1367
 2756SOL    HW119730   2.259   3.027   5.728  0.5404 -0.6128  0.3301
 2756SOL    HW219731   2.263   2.878   5.719  0.8686 -1.0925 -1.6800
 2757SOL     OW19732   4.678   1.998   2.199  0.3290 -0.0600 -0.7441
 2757SOL    HW119733   4.673   1.902   2.203 -1.5217  0.0387 -0.6349
 2757SOL    HW219734   0.047   2.021   2.222 -0.4715  0.3868  1.9916
 2758SOL     OW19735   3.483   4.542  16.314  0.4768  0.2098  0.0018
 2758SOL    HW119736   3.546   4.612  16.296 -0.1125  0.4238 -1.2056
 2758SOL    HW219737   3.431   4.564  16.390  2.3274 -0.0323  1.3493
 2759SOL     OW19738   4.691   4.137   8.738  0.3423 -0.4395  0.4834
 2759SOL    HW119739   4.625   4.172   8.679  1.8043 -0.0821 -0.9449
 2759SOL    HW219740   4.673   4.045   8.717 -0.6245 -0.4157  1.2471
 2760SOL     OW19741   3.563   4.121   8.729  0.0095 -0.0813 -0.1106
 2760SOL    HW119742   3.563   4.029   8.705  3.1084 -0.1284  0.1170
 2760SOL    HW219743   3.653   4.129   8.758  0.0438 -1.0424  0.0554
 2761SOL     OW19744   1.396   4.352   0.133  0.3560  0.8151  0.1362
 2761SOL    HW119745   1.359   4.417   0.074  1.1836  0.3677 -0.8768
 2761SOL    HW219746   1.314   4.325   0.175  0.0457  0.9602 -0.3752
 2762SOL     OW19747   4.164   3.879   9.783 -0.0484 -0.4098  0.1509
 2762SOL    HW119748   4.144   3.857   9.692 -0.1059  0.4350 -0.0336
 2762SOL    HW219749   4.255   3.848   9.789 -0.0618 -0.4599  0.1000
 2763SOL     OW19750   1.623   1.881   4.401 -0.2722  0.0536  0.8687
 2763SOL    HW119751   1.604   1.787   4.410 -0.9619  0.0333 -0.8759
 2763SOL    HW219752   1.613   1.886   4.306  1.9971  0.9919  0.6730
 2764SOL     OW19753   4.039   3.910   8.187 -0.0915 -0.6826  0.1827
 2764SOL    HW119754   3.948   3.910   8.158  0.1494  0.8228 -0.5952
 2764SOL    HW219755   4.073   3.827   8.155 -2.3372 -0.6911 -2.1642
 2765SOL     OW19756   4.146   2.839  15.505  0.3427  0.5398  0.1126
 2765SOL    HW119757   4.234   2.876  15.499  0.7940 -0.4684  0.6202
 2765SOL    HW219758   4.164   2.746  15.517 -1.8979  0.0479 -0.3620
 2766SOL     OW19759   0.840   3.820   8.219  0.0013  1.2356  0.0006
 2766SOL    HW119760   0.818   3.727   8.226 -2.0825  1.8363  1.3826
 2766SOL    HW219761   0.912   3.820   8.281  0.0567 -0.8225 -0.0598
 2767SOL     OW19762   1.090   3.692   5.748  1.1585  0.3231  0.0247
 2767SOL    HW119763   1.106   3.721   5.838  1.0190  0.5891 -0.0382
 2767SOL    HW219764   1.113   3.599   5.743  0.1120  0.0233  0.6469
 2768SOL     OW19765   1.774   3.057   9.181  0.4968  0.8267 -0.1802
 2768SOL    HW119766   1.711   3.064   9.110  0.1017  0.0425  0.0960
 2768SOL    HW219767   1.782   3.147   9.211 -1.0981  0.2929  1.8122
 2769SOL     OW19768   4.174   3.200  13.541 -0.5840  0.3309  0.2551
 2769SOL    HW119769   4.147   3.288  13.567 -0.9382  0.5542 -0.8487
 2769SOL    HW219770   4.180   3.160  13.628 -0.1267  0.2210  0.1697
 2770SOL     OW19771   4.211   2.945   5.467 -0.2190 -0.1360  0.6407
 2770SOL    HW119772   4.269   3.015   5.436 -0.2484 -0.7833 -0.8727
 2770SOL    HW219773   4.193   2.890   5.390 -0.0126 -0.5000  0.8524
 2771SOL     OW19774   2.186   2.939   3.920  0.3741  0.1622 -0.6540
 2771SOL    HW119775   2.184   3.000   3.846  0.4352 -0.2669 -1.0125
 2771SOL    HW219776   2.275   2.903   3.911  1.9594  4.2071 -1.1986
 2772SOL     OW19777   1.171   4.677   7.391  0.0622 -0.1185  0.2836
 2772SOL    HW119778   1.265   4.663   7.391  0.0220 -0.4741  2.4055
 2772SOL    HW219779   1.146   4.645   7.305  0.9516  1.1854 -0.4544
 2773SOL     OW19780   1.481   1.207  10.362  0.1404  0.0643 -0.2056
 2773SOL    HW119781   1.556   1.150  10.382 -0.4161 -0.9054 -0.8635
 2773SOL    HW219782   1.485   1.260  10.442  0.5673  0.8529 -0.7587
 2774SOL     OW19783   4.451   0.395   7.607 -0.1267  0.0933 -0.3820
 2774SOL    HW119784   4.358   0.372   7.616  0.3362 -0.4383  2.8650
 2774SOL    HW219785   4.475   0.344   7.529  2.8384  0.6708  0.1454
 2775SOL     OW19786   2.502   1.582   6.498  0.0914 -0.9193  0.5981
 2775SOL    HW119787   2.450   1.521   6.551 -0.4563  2.0802  3.4736
 2775SOL    HW219788   2.588   1.540   6.500 -0.0945 -1.4218 -1.3582
 2776SOL     OW19789   0.987   3.904   7.742  0.0985 -0.3306  0.0423
 2776SOL    HW119790   0.901   3.871   7.717 -1.2095  1.0470  2.6861
 2776SOL    HW219791   0.971   3.910   7.837  4.0430  0.0496  0.7101
 2777SOL     OW19792   3.003   3.804   2.226 -0.4900  0.2384  0.2928
 2777SOL    HW119793   2.969   3.871   2.166 -0.3025  0.5919  0.5840
 2777SOL    HW219794   3.072   3.765   2.172 -1.4600  1.4978 -1.8493
 2778SOL     OW19795   2.488   1.036   7.450  0.1912 -0.7218 -0.2883
 2778SOL    HW119796   2.398   1.023   7.421 -0.0731  0.6527 -0.0864
 2778SOL    HW219797   2.506   0.962   7.508 -1.0826 -0.4081  0.5229
 2779SOL     OW19798   3.936   1.995  12.518 -0.3986  0.6435  0.1124
 2779SOL    HW119799   3.977   1.957  12.440  2.8786  2.2317  1.0975
 2779SOL    HW219800   3.985   1.946  12.583 -0.1126  0.4207 -0.2722
 2780SOL     OW19801   1.863   4.268   2.355  0.3500 -0.4423  0.3224
 2780SOL    HW119802   1.955   4.273   2.327  1.1894 -0.1187  3.1190
 2780SOL    HW219803   1.859   4.173   2.365  0.1054 -0.5813 -1.1697
 2781SOL     OW19804   0.888   3.333   1.376 -0.1610  0.5454 -0.1679
 2781SOL    HW119805   0.843   3.259   1.416  1.1236  0.9996  2.1265
 2781SOL    HW219806   0.922   3.287   1.299 -1.6270  1.3444 -1.2803
 2782SOL     OW19807   4.322   3.193   7.887  0.0273 -0.7216  0.5150
 2782SOL    HW119808   4.403   3.172   7.839  0.4676 -0.9184  1.3554
 2782SOL    HW219809   4.358   3.218   7.972 -0.0529 -1.2580  0.6997
 2783SOL     OW19810   3.653   0.788   6.511  0.0604 -0.4119  0.6174
 2783SOL    HW119811   3.575   0.818   6.463  0.9318 -1.3427 -1.3891
 2783SOL    HW219812   3.688   0.873   6.537  1.3389 -0.5680 -0.5863
 2784SOL     OW19813   4.631   4.175   5.122  0.0138 -0.3939 -0.5378
 2784SOL    HW119814   4.544   4.194   5.159  0.1814  1.7850 -1.2766
 2784SOL    HW219815   4.610   4.142   5.035  1.8763  0.3103 -1.2445
 2785SOL     OW19816   3.675   2.144  12.374  0.0439  0.3715  0.1980
 2785SOL    HW119817   3.606   2.109  12.431  0.0565  0.0238 -0.0009
 2785SOL    HW219818   3.685   2.229  12.416  0.5592  0.7582 -0.7230
 2786SOL     OW19819   2.459   2.466   6.973  0.9802  0.3951 -0.1280
 2786SOL    HW119820   2.464   2.439   7.065 -1.2007  0.4239  0.0028
 2786SOL    HW219821   2.429   2.556   6.983  1.2497  0.5054 -0.2944
 2787SOL     OW19822   4.111   3.029   2.961  0.0099  0.4179 -0.2999
 2787SOL    HW119823   4.146   2.941   2.947 -0.4847  0.3035 -0.7913
 2787SOL    HW219824   4.085   3.051   2.872 -0.0822 -0.7762 -0.5762
 2788SOL     OW19825   0.307   4.517   6.325  0.4697 -0.3782 -0.2927
 2788SOL    HW119826   0.373   4.456   6.355  0.0747 -1.2002 -1.0945
 2788SOL    HW219827   0.363   4.595   6.326 -0.1614  0.0267  2.1736
 2789SOL     OW19828   0.627   3.809   7.110 -0.3263  0.1744 -0.3479
 2789SOL    HW119829   0.679   3.822   7.031  0.3371 -0.0421  0.0562
 2789SOL    HW219830   0.603   3.901   7.125 -2.6548 -0.6605  1.0508
 2790SOL     OW19831   2.995   4.281  16.388  0.5317  0.3607  0.1089
 2790SOL    HW119832   3.044   4.346  16.338 -0.8605 -0.1736 -1.9449
 2790SOL    HW219833   3.068   4.252  16.443  1.6908 -1.4284 -2.3534
 2791SOL     OW19834   3.210   0.703   8.659 -0.1012  0.7475 -0.2568
 2791SOL    HW119835   3.240   0.778   8.710 -1.8929  0.8301  0.6937
 2791SOL    HW219836   3.159   0.668   8.732 -0.0047 -0.6298 -0.8628
 2792SOL     OW19837   1.052   1.307   1.903 -0.0171  0.1338 -0.5611
 2792SOL    HW119838   1.124   1.279   1.960 -0.3655  0.8077  0.2213
 2792SOL    HW219839   1.099   1.321   1.821  2.5967  1.1385  1.1171
 2793SOL     OW19840   2.519   1.155  11.865 -0.3251  0.0400  0.7513
 2793SOL    HW119841   2.522   1.222  11.933 -1.5385  1.6646 -0.8196
 2793SOL    HW219842   2.599   1.173  11.815  0.8189  1.4944  3.0870
 2794SOL     OW19843   1.416   2.649  11.194  0.2796 -0.4935 -0.0131
 2794SOL    HW119844   1.488   2.695  11.237 -1.3987  2.1071 -0.0095
 2794SOL    HW219845   1.438   2.655  11.101  0.6486  0.1087  0.1149
 2795SOL     OW19846   1.276   3.468   4.444 -0.4053  0.1065 -0.2226
 2795SOL    HW119847   1.272   3.552   4.399 -0.2661 -0.8442 -2.0122
 2795SOL    HW219848   1.352   3.430   4.400 -1.1509 -0.8953 -0.6408
 2796SOL     OW19849   4.653   4.168   1.766 -0.6124  0.0062 -0.0789
 2796SOL    HW119850   4.631   4.089   1.814  1.5485 -1.0564 -0.8465
 2796SOL    HW219851   4.570   4.189   1.723 -0.5515 -1.4437 -0.9116
 2797SOL     OW19852   0.790   1.986  17.073 -0.0262  0.0666 -0.1900
 2797SOL    HW119853   0.803   2.079  17.056  1.8719 -0.1327  0.2029
 2797SOL    HW219854   0.703   1.972  17.035 -0.1744  3.0053 -0.9028
 2798SOL     OW19855   1.523   0.972  10.532  0.0492  0.5854  0.5685
 2798SOL    HW119856   1.431   0.951  10.520  0.4507 -1.7346  1.6020
 2798SOL    HW219857   1.566   0.951  10.449 -1.9166 -0.4229 -0.1791
 2799SOL     OW19858   1.915   4.369   2.058 -0.5000  0.5476 -0.0704
 2799SOL    HW119859   1.947   4.437   2.117 -1.7862  0.8497  0.2894
 2799SOL    HW219860   1.899   4.423   1.981 -0.6820 -1.2001 -1.2599
 2800SOL     OW19861   2.196   2.287   5.312  0.0835  0.4488  0.0909
 2800SOL    HW119862   2.207   2.381   5.325  2.2753  0.3262 -0.9814
 2800SOL    HW219863   2.222   2.280   5.220  0.8007  2.0706  0.1815
 2801SOL     OW19864   4.461   3.838   5.034 -0.6142  0.7453 -0.0440
 2801SOL    HW119865   4.518   3.861   5.107 -0.6643  0.8275 -0.0299
 2801SOL    HW219866   4.399   3.779   5.077  0.2982 -0.1083  0.0845
 2802SOL     OW19867   1.710   4.430   2.594  0.0391  0.1847  0.0721
 2802SOL    HW119868   1.630   4.445   2.543 -0.7148  0.9707  1.4537
 2802SOL    HW219869   1.778   4.404   2.532  0.3025  1.6787 -0.2764
 2803SOL     OW19870   1.060   3.102  13.682  0.1446  0.2102 -0.0357
 2803SOL    HW119871   1.129   3.156  13.643  1.6327 -1.0313  0.9255
 2803SOL    HW219872   1.083   3.021  13.638  0.5091  0.6038 -0.5730
 2804SOL     OW19873   0.909   2.142   6.019 -0.3212 -0.1144  0.0052
 2804SOL    HW119874   0.830   2.188   6.047 -0.9355 -0.8010 -0.5738
 2804SOL    HW219875   0.879   2.079   5.952  0.2113 -1.3346  0.9230
 2805SOL     OW19876   1.224   0.172   1.941 -1.3107 -0.1256 -0.1042
 2805SOL    HW119877   1.300   0.118   1.959 -0.0593  1.2019 -1.4735
 2805SOL    HW219878   1.220   0.223   2.022 -1.3941  1.0141 -0.8300
 2806SOL     OW19879   1.771   0.438   3.832 -0.8552  0.2971  0.3145
 2806SOL    HW119880   1.735   0.396   3.910 -4.6505  0.5463 -1.2882
 2806SOL    HW219881   1.815   0.510   3.877 -2.8380  0.5939  1.7982
 2807SOL     OW19882   1.870   4.357   9.354  0.4785  0.0588  0.7152
 2807SOL    HW119883   1.794   4.311   9.389  0.4536 -0.8876 -0.5935
 2807SOL    HW219884   1.928   4.283   9.338  0.2679 -0.4224  2.1914
 2808SOL     OW19885   1.232   4.279   6.090  0.0891 -0.0327 -0.3114
 2808SOL    HW119886   1.137   4.284   6.078  0.1570  3.2774  0.5095
 2808SOL    HW219887   1.252   4.225   6.013 -1.4236  0.1755 -0.8483
 2809SOL     OW19888   3.006   3.115   5.198  0.2866 -0.3287  0.6091
 2809SOL    HW119889   2.916   3.139   5.219  0.5744  1.2110  0.0824
 2809SOL    HW219890   3.045   3.108   5.285  1.3756  0.1102  0.1561
 2810SOL     OW19891   0.522   3.578   1.191  0.6156  0.1498 -0.5796
 2810SOL    HW119892   0.570   3.613   1.266  1.0632  0.4011 -0.9857
 2810SOL    HW219893   0.501   3.493   1.229  0.2094 -0.3590 -1.9226
 2811SOL     OW19894   1.444   3.854   8.205 -0.2345  0.0944  0.2963
 2811SOL    HW119895   1.371   3.814   8.158  0.2031 -1.1167  0.6569
 2811SOL    HW219896   1.401   3.936   8.230  0.3333 -0.0348  1.7031
 2812SOL     OW19897   1.099   1.943   2.769 -0.1598  0.3338  0.4582
 2812SOL    HW119898   1.179   1.981   2.732  0.3565 -1.1262  0.0832
 2812SOL    HW219899   1.052   1.919   2.689  0.4728 -1.1576  0.5432
 2813SOL     OW19900   0.482   0.272   5.561  0.1131 -0.2543 -0.7851
 2813SOL    HW119901   0.405   0.299   5.610  0.3992  1.3488 -1.1958
 2813SOL    HW219902   0.551   0.331   5.592  0.6852 -1.2833 -0.0913
 2814SOL     OW19903   2.448   0.705  17.682 -0.3794  0.6155 -0.3400
 2814SOL    HW119904   2.390   0.645  17.636 -0.6113  1.5399 -1.2676
 2814SOL    HW219905   2.530   0.696  17.632 -0.9341  0.7608 -1.2838
 2815SOL     OW19906   0.159   2.111   5.883 -0.1266  0.3735 -0.3560
 2815SOL    HW119907   0.115   2.026   5.881  0.6955 -0.0123 -1.8882
 2815SOL    HW219908   0.237   2.073   5.842  0.2743  0.6207  0.1880
 2816SOL     OW19909   0.193   3.280   8.481 -0.1743  0.9151 -0.1523
 2816SOL    HW119910   0.267   3.339   8.469  1.2516 -1.2475 -2.0526
 2816SOL    HW219911   0.237   3.197   8.462  0.4747  1.7262 -2.2377
 2817SOL     OW19912   2.061   1.520  14.883 -0.8951  0.3523 -0.4374
 2817SOL    HW119913   1.996   1.570  14.834 -1.9601 -2.0693 -1.5214
 2817SOL    HW219914   2.072   1.441  14.830 -1.0282  0.4396 -0.5959
 2818SOL     OW19915   2.817   2.183   6.502 -0.0038 -0.3032 -0.6715
 2818SOL    HW119916   2.790   2.274   6.500 -0.3139 -0.3720  0.2740
 2818SOL    HW219917   2.784   2.147   6.419 -1.1861  3.2118 -1.7095
 2819SOL     OW19918   1.564   4.184   3.028  0.0806 -0.2396 -0.2712
 2819SOL    HW119919   1.592   4.166   2.938  0.3915 -1.1508  0.0037
 2819SOL    HW219920   1.474   4.212   3.014 -0.4698 -1.7735  0.1725
 2820SOL     OW19921   4.198   2.916  13.958  0.3163 -0.1613 -1.0584
 2820SOL    HW119922   4.103   2.929  13.956  0.1878 -0.8752  0.8731
 2820SOL    HW219923   4.226   2.975  14.027 -1.6986  1.5273 -1.6792
 2821SOL     OW19924   4.160   0.367  16.121  1.0208 -0.8339  0.0219
 2821SOL    HW119925   4.109   0.447  16.124  0.3674 -1.3502  2.7206
 2821SOL    HW219926   4.203   0.380  16.036  2.1408 -0.5403  0.6267
 2822SOL     OW19927   2.558   3.460   3.115  0.1529 -0.3505  0.1438
 2822SOL    HW119928   2.652   3.478   3.117  0.1228 -0.3021  1.1127
 2822SOL    HW219929   2.545   3.414   3.032  2.1843 -0.1559 -0.2806
 2823SOL     OW19930   1.297   1.483  13.597  0.3138  0.1332  0.1977
 2823SOL    HW119931   1.360   1.529  13.653 -0.3501  0.7548  0.4390
 2823SOL    HW219932   1.224   1.544  13.609 -0.3040 -0.4521 -0.6769
 2824SOL     OW19933   1.669   1.794   3.909  0.5116 -0.3663  0.2509
 2824SOL    HW119934   1.611   1.772   3.836 -0.6724  2.8292  0.2397
 2824SOL    HW219935   1.758   1.791   3.875  0.4211  0.1633 -0.0329
 2825SOL     OW19936   4.255   4.385  12.235 -0.0785 -0.3442  0.3223
 2825SOL    HW119937   4.283   4.400  12.326  1.3823 -2.5106  0.2415
 2825SOL    HW219938   4.161   4.400  12.235 -0.0074  0.0810 -2.1086
 2826SOL     OW19939   4.096   2.615  10.156 -0.6318 -0.4099 -0.5205
 2826SOL    HW119940   4.112   2.643  10.245 -0.9886 -2.2160  0.1258
 2826SOL    HW219941   4.128   2.525  10.162 -1.6088 -0.6169  1.6040
 2827SOL     OW19942   3.131   1.132   8.492 -0.1681  0.6639 -0.1570
 2827SOL    HW119943   3.173   1.141   8.577 -0.4858 -1.8442  0.2638
 2827SOL    HW219944   3.047   1.088   8.506  0.4271 -0.6326 -0.6857
 2828SOL     OW19945   2.221   2.146  11.616 -0.2280 -0.0318  0.4565
 2828SOL    HW119946   2.149   2.152  11.678 -1.1588  0.4448 -0.6725
 2828SOL    HW219947   2.255   2.235  11.617  1.2437 -0.6044  1.6819
 2829SOL     OW19948   3.795   3.303   4.420  0.1097  0.0783 -0.0227
 2829SOL    HW119949   3.707   3.317   4.455 -0.5750  0.9354 -2.0887
 2829SOL    HW219950   3.792   3.213   4.389 -0.6021  0.1286 -0.0912
 2830SOL     OW19951   4.718   2.430   6.661  0.0967  0.2295  0.1196
 2830SOL    HW119952   4.707   2.503   6.601 -1.8765 -1.2611 -1.3310
 2830SOL    HW219953   0.087   2.397   6.652 -0.4714 -1.3725  0.3980
 2831SOL     OW19954   4.217   0.154  12.717  0.2288 -0.0324 -0.1028
 2831SOL    HW119955   4.269   0.089  12.670 -1.6277 -1.4835 -0.1873
 2831SOL    HW219956   4.176   0.189  12.638 -0.4738 -1.5619 -0.4240
 2832SOL     OW19957   2.698   4.242  16.335  0.1255  0.2309  0.6766
 2832SOL    HW119958   2.771   4.300  16.357  0.1902  0.1306  0.7237
 2832SOL    HW219959   2.622   4.299  16.348 -0.6776 -0.4212 -1.2102
 2833SOL     OW19960   3.177   0.336   6.964  0.7669 -0.0663  0.3077
 2833SOL    HW119961   3.259   0.378   6.938 -0.7800  2.4449 -0.5609
 2833SOL    HW219962   3.194   0.245   6.986 -0.7836 -0.8877 -1.8522
 2834SOL     OW19963   1.994   0.359   5.310 -0.1690 -0.2664 -0.0341
 2834SOL    HW119964   2.003   0.389   5.219 -0.2983 -0.9561 -0.2729
 2834SOL    HW219965   1.899   0.358   5.316  0.0038 -4.0320  2.0402
 2835SOL     OW19966   4.370   1.973   6.784 -0.1051 -0.2091 -0.0914
 2835SOL    HW119967   4.441   2.035   6.799 -0.9244  0.8324 -0.5136
 2835SOL    HW219968   4.387   1.942   6.695  0.7864 -0.4257  0.1595
 2836SOL     OW19969   2.926   3.672   9.213  0.5378 -0.2006  0.8896
 2836SOL    HW119970   2.947   3.601   9.152 -0.2299 -0.7181  1.2291
 2836SOL    HW219971   2.831   3.684   9.207  0.8179  1.6774  0.2222
 2837SOL     OW19972   3.894   3.127   7.782  0.0341  0.2357  0.5258
 2837SOL    HW119973   3.960   3.180   7.826  0.9579  0.2216 -0.8473
 2837SOL    HW219974   3.812   3.153   7.824 -0.5237  1.1339 -1.1289
 2838SOL     OW19975   4.357   4.140   9.578 -0.3409 -0.0999  0.0840
 2838SOL    HW119976   4.354   4.117   9.486  0.6949  1.4216 -0.3161
 2838SOL    HW219977   4.275   4.186   9.595 -0.7198 -0.0706 -1.9191
 2839SOL     OW19978   2.643   1.221   7.617  0.1641  0.0755 -0.6769
 2839SOL    HW119979   2.689   1.290   7.569  1.4152 -0.6123 -0.4751
 2839SOL    HW219980   2.591   1.175   7.551 -1.2847  0.3042  0.2991
 2840SOL     OW19981   3.746   0.903  12.954  0.6335 -0.2195 -0.0833
 2840SOL    HW119982   3.769   0.854  12.876  0.9447  1.2849 -0.9330
 2840SOL    HW219983   3.744   0.838  13.024 -1.7315  1.1505  1.1320
 2841SOL     OW19984   3.736   4.387   5.401  0.0316  0.2115 -0.2111
 2841SOL    HW119985   3.772   4.396   5.312  1.2671  2.8631  0.5429
 2841SOL    HW219986   3.755   4.295   5.419 -0.5606  0.3482  1.0853
 2842SOL     OW19987   2.980   1.536  17.455 -0.3456 -0.8340 -0.4071
 2842SOL    HW119988   3.065   1.543  17.499 -2.0224 -2.3565  3.0898
 2842SOL    HW219989   2.967   1.625  17.421  2.6743 -0.4313 -0.5373
 2843SOL     OW19990   3.242   0.656   3.399 -0.6260  0.5632 -0.2254
 2843SOL    HW119991   3.166   0.639   3.455 -1.7603  0.2979 -1.8550
 2843SOL    HW219992   3.305   0.661   3.472 -0.5845 -3.3864 -0.0120
 2844SOL     OW19993   2.859   1.162  14.560  0.1386  0.1509 -0.5120
 2844SOL    HW119994   2.772   1.138  14.593 -0.5205  0.1413 -2.2711
 2844SOL    HW219995   2.877   1.238  14.616  0.1954  0.3224 -0.7651
 2845SOL     OW19996   1.658   0.262   3.996 -0.1759 -0.4077  0.3832
 2845SOL    HW119997   1.598   0.253   4.070 -0.3594  0.6820  0.3733
 2845SOL    HW219998   1.619   0.194   3.941  0.0904 -0.2585  0.0136
 2846SOL     OW19999   1.788   3.596   6.547 -0.0537  0.0458  0.5709
 2846SOL    HW120000   1.829   3.667   6.497 -2.3966  2.4445  2.0670
 2846SOL    HW220001   1.701   3.611   6.510 -0.5937 -0.1231  1.7829
 2847SOL     OW20002   2.300   1.690   7.168 -0.3921 -0.8103  0.1936
 2847SOL    HW120003   2.280   1.690   7.262  0.4133  2.6914  0.3668
 2847SOL    HW220004   2.299   1.785   7.154  0.0651 -1.0361 -1.3954
 2848SOL     OW20005   2.426   4.491   9.011  0.4240  0.2131 -0.2137
 2848SOL    HW120006   2.460   4.411   8.971  1.3372  0.1765  0.6427
 2848SOL    HW220007   2.475   4.499   9.092 -1.0681 -1.1437  0.8336
 2849SOL     OW20008   4.506   2.185   3.834  0.0758  0.1545 -0.2498
 2849SOL    HW120009   4.559   2.216   3.760  1.6374  0.7120  1.0911
 2849SOL    HW220010   4.553   2.217   3.911 -0.3855  1.6087 -0.5642
 2850SOL     OW20011   0.242   1.955   2.033  0.0212 -0.1398  0.2586
 2850SOL    HW120012   0.225   1.930   2.124  0.2174 -3.5705 -0.6379
 2850SOL    HW220013   0.330   1.921   2.020  0.4053  0.4755  1.3158
 2851SOL     OW20014   4.175   4.604  11.496  0.1731 -0.3947 -0.5071
 2851SOL    HW120015   4.165   4.557  11.579 -0.1651 -0.3570 -0.5275
 2851SOL    HW220016   4.217   4.686  11.520 -0.8053 -0.0361 -0.0301
 2852SOL     OW20017   4.505   4.460   2.834  0.4037 -0.1389  0.5151
 2852SOL    HW120018   4.585   4.412   2.812  1.0202  0.5366  1.3290
 2852SOL    HW220019   4.547   4.543   2.857 -0.7588  0.8940 -1.0944
 2853SOL     OW20020   0.462   4.444   7.781  0.1753 -0.1953 -0.1909
 2853SOL    HW120021   0.408   4.371   7.810 -0.2254  0.8374  1.6864
 2853SOL    HW220022   0.550   4.408   7.784  0.6798  1.2004  1.7910
 2854SOL     OW20023   1.474   0.759   2.797  0.1309  0.1155 -0.0550
 2854SOL    HW120024   1.440   0.740   2.709  0.8177  3.0958 -0.9719
 2854SOL    HW220025   1.536   0.831   2.784  1.5233 -1.0633  0.0930
 2855SOL     OW20026   0.780   3.555   4.597  0.2890 -0.3715 -0.2255
 2855SOL    HW120027   0.800   3.561   4.691 -0.3386  0.0656 -0.1162
 2855SOL    HW220028   0.852   3.614   4.574 -1.5056  1.5056 -1.0766
 2856SOL     OW20029   3.673   3.869  11.940 -0.5154 -0.2119  0.1183
 2856SOL    HW120030   3.661   3.908  11.854 -2.2756 -0.3990  0.2908
 2856SOL    HW220031   3.730   3.934  11.983 -0.4283  0.4089 -0.9474
 2857SOL     OW20032   0.175   3.749   2.414 -0.4038 -0.0628  0.0971
 2857SOL    HW120033   0.223   3.781   2.490  0.4850 -0.2626 -0.3873
 2857SOL    HW220034   0.124   3.826   2.387  1.3735  2.0376  2.6383
 2858SOL     OW20035   4.095   3.898   1.760 -0.0154 -0.2630 -0.5898
 2858SOL    HW120036   4.009   3.870   1.730  0.2910  0.3286 -2.0088
 2858SOL    HW220037   4.112   3.841   1.836 -0.8302  1.0988  0.6206
 2859SOL     OW20038   1.275   0.783   7.481 -0.6523 -0.0311 -0.1666
 2859SOL    HW120039   1.223   0.817   7.555  0.8426 -0.2042  0.9652
 2859SOL    HW220040   1.274   0.689   7.501  0.2904 -0.6046 -2.8723
 2860SOL     OW20041   4.409   1.732   3.264  0.0898  0.4583 -0.3332
 2860SOL    HW120042   4.343   1.670   3.296  0.8289  0.1911  0.6507
 2860SOL    HW220043   4.421   1.794   3.336 -3.1830  1.5244 -0.6908
 2861SOL     OW20044   3.077   4.299   6.388  0.5520 -0.2141 -0.0395
 2861SOL    HW120045   3.156   4.351   6.404  1.3023 -1.6790  0.9870
 2861SOL    HW220046   3.063   4.263   6.475 -0.6216  4.3662  1.6519
 2862SOL     OW20047   0.832   0.041  12.559 -0.3241  0.2455  0.2086
 2862SOL    HW120048   0.782   0.083  12.628 -0.3979  0.1676  0.2030
 2862SOL    HW220049   0.869   4.692  12.612 -0.9827 -2.4106 -2.7748
 2863SOL     OW20050   0.272   3.931   9.427 -0.4900 -0.4707  0.5050
 2863SOL    HW120051   0.179   3.953   9.415 -0.4101 -0.7874 -0.6755
 2863SOL    HW220052   0.279   3.845   9.384 -0.6427  0.2500 -0.9610
 2864SOL     OW20053   3.515   0.734  14.202  0.3846 -0.3811  0.4415
 2864SOL    HW120054   3.481   0.679  14.132 -2.4949 -0.2629  1.7431
 2864SOL    HW220055   3.431   0.773  14.225  0.1006 -0.5013 -0.4144
 2865SOL     OW20056   0.545   1.029  11.642 -0.2079  0.4025 -0.1010
 2865SOL    HW120057   0.452   1.052  11.636 -1.0645 -2.9070  0.4312
 2865SOL    HW220058   0.555   1.004  11.734  0.7792 -1.7333 -0.7889
 2866SOL     OW20059   0.017   2.786   1.133  0.6243 -0.0724 -0.3399
 2866SOL    HW120060   0.084   2.720   1.114 -1.6224 -2.3200 -0.4992
 2866SOL    HW220061   4.710   2.764   1.222  0.9527 -1.1078 -0.4891
 2867SOL     OW20062   1.521   1.312   2.384 -0.3083  0.1454 -0.4199
 2867SOL    HW120063   1.505   1.225   2.420 -1.5007  0.0966 -1.0916
 2867SOL    HW220064   1.510   1.292   2.291 -1.9019  1.2684 -0.4724
 2868SOL     OW20065   3.730   3.749   4.222 -0.3082  0.3276  0.3907
 2868SOL    HW120066   3.760   3.736   4.312 -0.0440  0.2894  0.2964
 2868SOL    HW220067   3.799   3.702   4.175 -1.2584 -1.6414  0.9911
 2869SOL     OW20068   4.510   1.063  12.204  0.2596  0.4370  0.2698
 2869SOL    HW120069   4.461   1.019  12.135 -1.8488  3.3857 -0.1376
 2869SOL    HW220070   4.448   1.025  12.266  0.1791  0.9954  0.5360
 2870SOL     OW20071   4.298   1.975   5.895 -0.3588  0.7373 -1.0227
 2870SOL    HW120072   4.348   2.024   5.960  0.8438 -0.9091 -0.7190
 2870SOL    HW220073   4.258   1.906   5.948 -2.1369  2.4956 -0.0474
 2871SOL     OW20074   1.572   1.197  12.675  0.1755  0.3704  0.2826
 2871SOL    HW120075   1.517   1.217  12.599  0.7208  0.8907  0.0319
 2871SOL    HW220076   1.514   1.201  12.751 -1.3532 -0.6863 -0.8303
 2872SOL     OW20077   2.061   2.546   2.761  0.0437 -0.0059  0.4485
 2872SOL    HW120078   1.997   2.515   2.825  0.0538  0.2998  0.6086
 2872SOL    HW220079   2.041   2.640   2.764 -0.6821 -0.1117 -0.8132
 2873SOL     OW20080   1.839   2.608   5.886 -0.2736  0.1357  0.0559
 2873SOL    HW120081   1.932   2.622   5.869 -0.5294 -0.5430 -2.0087
 2873SOL    HW220082   1.842   2.595   5.980  1.3287 -1.3038 -0.1916
 2874SOL     OW20083   0.427   2.144   8.224 -0.1749  0.6992  0.2002
 2874SOL    HW120084   0.371   2.179   8.293  0.6364 -0.9811  1.7017
 2874SOL    HW220085   0.355   2.123   8.163  0.7821 -0.0917 -0.6675
 2875SOL     OW20086   0.791   3.915   8.571  0.0048  0.7301  0.0468
 2875SOL    HW120087   0.768   3.968   8.648 -1.7686 -0.7937  0.6019
 2875SOL    HW220088   0.835   3.844   8.618 -1.2201 -1.1030 -1.6068
 2876SOL     OW20089   1.780   3.489   0.998  0.6017  0.1859  0.2545
 2876SOL    HW120090   1.871   3.485   0.970  0.5221  2.6584 -0.2897
 2876SOL    HW220091   1.736   3.453   0.921 -1.0525  2.1929  0.2630
 2877SOL     OW20092   0.763   4.343   0.869  0.0061  0.0164 -0.2367
 2877SOL    HW120093   0.747   4.276   0.936  2.4449  1.5763  1.8915
 2877SOL    HW220094   0.686   4.400   0.876  0.3853  0.4866  0.0770
 2878SOL     OW20095   3.971   2.045   2.168  0.0891  0.6261  0.0353
 2878SOL    HW120096   3.920   1.967   2.191 -0.2013  0.8332  0.0983
 2878SOL    HW220097   4.015   2.009   2.091  0.0155 -1.3885  0.9234
 2879SOL     OW20098   2.935   1.601   6.999  0.0644  0.2298 -0.0767
 2879SOL    HW120099   2.964   1.665   7.063 -0.8940 -1.4277  2.0242
 2879SOL    HW220100   2.844   1.629   6.987 -0.4684 -1.5376 -0.1324
 2880SOL     OW20101   0.024   3.762  16.650 -0.3410  0.5216 -0.0084
 2880SOL    HW120102   0.112   3.760  16.611 -0.1010  2.0610  0.4536
 2880SOL    HW220103   4.706   3.682  16.616  2.2269 -1.1202  0.9313
 2881SOL     OW20104   0.085   0.691  10.679  0.3615 -0.0952 -0.3087
 2881SOL    HW120105   0.169   0.663  10.643  0.3053  0.0693 -0.5749
 2881SOL    HW220106   0.039   0.734  10.606  0.5485  4.7303  2.4406
 2882SOL     OW20107   3.804   1.466  12.759  0.0334  0.3834 -0.3939
 2882SOL    HW120108   3.761   1.552  12.760  0.2983  0.5287 -1.4851
 2882SOL    HW220109   3.749   1.426  12.826 -0.4908 -0.1144 -1.1223
 2883SOL     OW20110   1.062   0.878   3.981  0.2316  0.1936 -0.7759
 2883SOL    HW120111   1.150   0.845   3.961 -0.5628 -1.7411 -1.0670
 2883SOL    HW220112   1.016   0.820   3.922  1.4505 -1.6785  0.1183
 2884SOL     OW20113   1.732   0.040  14.897  0.3963  0.1058  0.0121
 2884SOL    HW120114   1.688   0.016  14.815  0.9039 -1.4353  0.1853
 2884SOL    HW220115   1.672   0.113  14.914  0.4893  0.5007 -1.3879
 2885SOL     OW20116   2.072   4.603   4.405  0.0309 -0.5378  0.0566
 2885SOL    HW120117   2.033   4.615   4.318  3.0375 -1.6627 -1.4475
 2885SOL    HW220118   2.014   4.537   4.444 -0.4567 -0.7482 -1.0217
 2886SOL     OW20119   3.326   2.308   7.372  0.2668  0.0908  0.1758
 2886SOL    HW120120   3.309   2.262   7.290 -0.2029 -1.5764  1.1938
 2886SOL    HW220121   3.418   2.333   7.372 -0.0148  1.1062 -0.4126
 2887SOL     OW20122   0.657   2.208   5.819  0.1560 -0.1800 -0.2579
 2887SOL    HW120123   0.724   2.262   5.777  0.8742 -0.6767  0.2501
 2887SOL    HW220124   0.701   2.127   5.847  1.2520  0.6100  0.3287
 2888SOL     OW20125   2.286   2.555   4.229  0.3503  0.0739  0.0859
 2888SOL    HW120126   2.313   2.479   4.179 -0.9751 -1.1832  1.2624
 2888SOL    HW220127   2.195   2.526   4.235  0.3442 -0.1146 -1.0531
 2889SOL     OW20128   2.836   2.664   9.692 -0.0617  0.3335 -0.0004
 2889SOL    HW120129   2.879   2.595   9.742 -0.5295 -1.3550 -1.9058
 2889SOL    HW220130   2.761   2.692   9.745  0.0503 -0.1861  0.4221
 2890SOL     OW20131   3.876   0.324   6.389 -0.2259 -0.3490  0.8895
 2890SOL    HW120132   3.865   0.230   6.381 -0.5612 -0.2169 -0.2100
 2890SOL    HW220133   3.900   0.344   6.298 -2.0718 -0.4545  0.3866
 2891SOL     OW20134   4.156   3.465   6.553 -1.1439 -0.2311 -0.1298
 2891SOL    HW120135   4.194   3.473   6.641  0.6748  0.6724 -1.0097
 2891SOL    HW220136   4.208   3.389   6.530 -0.3099  0.5389 -0.8000
 2892SOL     OW20137   3.257   1.766   6.027 -0.2422  0.3553 -0.0699
 2892SOL    HW120138   3.324   1.831   6.049 -0.2317  0.9667 -1.8770
 2892SOL    HW220139   3.214   1.751   6.111  2.1571 -1.6688  0.8106
 2893SOL     OW20140   3.455   0.068   5.184 -0.0788 -0.1784 -0.7986
 2893SOL    HW120141   3.383   0.010   5.158  0.0048 -1.4587  1.9015
 2893SOL    HW220142   3.536   0.024   5.158  0.9840  0.3491  1.6408
 2894SOL     OW20143   0.134   4.057  15.641  0.5388  0.0384  0.5948
 2894SOL    HW120144   0.210   4.044  15.584  1.4773  1.9412  1.4317
 2894SOL    HW220145   0.158   4.129  15.698  0.0111  1.3605 -0.8590
 2895SOL     OW20146   3.846   4.358   6.860 -0.3970 -0.5628 -0.1639
 2895SOL    HW120147   3.893   4.328   6.782  0.4925  2.9368 -0.9743
 2895SOL    HW220148   3.797   4.279   6.881 -0.8572  0.2279  1.7370
 2896SOL     OW20149   1.773   2.284   6.547  0.3660 -0.8680 -0.2041
 2896SOL    HW120150   1.695   2.241   6.583 -0.1812  0.7701  0.5619
 2896SOL    HW220151   1.739   2.372   6.533 -0.0110 -0.8307  0.8922
 2897SOL     OW20152   3.100   0.194  11.713  0.1164 -0.6296  0.1090
 2897SOL    HW120153   3.174   0.203  11.652  0.1725 -1.7390  0.0141
 2897SOL    HW220154   3.082   0.101  11.701 -0.7060 -0.0705 -2.9261
 2898SOL     OW20155   2.571   2.279  10.437  0.1650  0.5690 -0.1906
 2898SOL    HW120156   2.631   2.234  10.498 -1.4605 -0.8137  0.3860
 2898SOL    HW220157   2.621   2.269  10.356 -0.6476 -0.0020 -0.6195
 2899SOL     OW20158   3.412   4.199   4.775 -0.5389 -0.4306  0.1802
 2899SOL    HW120159   3.376   4.116   4.744 -0.3649 -0.6707  0.6235
 2899SOL    HW220160   3.340   4.239   4.825 -0.6297  0.8776 -0.9963
 2900SOL     OW20161   0.031   3.229   5.009 -0.5510 -0.0607 -0.2706
 2900SOL    HW120162   0.078   3.306   5.040 -0.5329 -1.5143  3.3216
 2900SOL    HW220163   0.060   3.163   5.073  1.1333  1.3182  0.3915
 2901SOL     OW20164   0.747   4.349   2.589  0.0100 -0.2005 -0.5685
 2901SOL    HW120165   0.798   4.416   2.636 -1.2852 -0.5448  1.3199
 2901SOL    HW220166   0.789   4.268   2.618  1.2576  1.2807  1.7986
 2902SOL     OW20167   0.156   1.240   9.819  0.0176 -0.2632 -0.2177
 2902SOL    HW120168   0.250   1.254   9.830  0.1083 -0.2886 -0.9143
 2902SOL    HW220169   0.115   1.314   9.863 -0.4157  0.4340 -1.7811
 2903SOL     OW20170   1.757   3.044  10.159 -0.4187  0.0376  0.2617
 2903SOL    HW120171   1.849   3.064  10.177 -0.3204  0.6007 -0.8559
 2903SOL    HW220172   1.759   3.015  10.068  0.5455 -0.4316  0.4250
 2904SOL     OW20173   4.571   3.212   3.636 -0.1935 -0.3669  0.2504
 2904SOL    HW120174   4.659   3.198   3.671 -0.2434 -0.6277  0.2751
 2904SOL    HW220175   4.523   3.147   3.689 -3.9566  0.8162 -1.6968
 2905SOL     OW20176   2.249   1.090   4.063  0.1920 -0.2461  0.2073
 2905SOL    HW120177   2.272   1.001   4.036  2.0059  0.2932 -0.0523
 2905SOL    HW220178   2.276   1.082   4.155  1.0494  2.6129  0.2243
 2906SOL     OW20179   0.398   4.398  14.807 -0.1881 -0.2543  0.4719
 2906SOL    HW120180   0.338   4.463  14.770 -0.1468  0.4902  1.7251
 2906SOL    HW220181   0.367   4.317  14.766  1.4270 -0.5047 -0.2729
 2907SOL     OW20182   0.194   4.254   6.921 -0.8312  0.0445 -0.1687
 2907SOL    HW120183   0.100   4.264   6.907 -0.6077 -0.0898 -1.7425
 2907SOL    HW220184   0.225   4.343   6.937 -0.9048 -0.0516  0.5379
 2908SOL     OW20185   2.436   2.513   3.129 -0.5023  0.8709  0.2490
 2908SOL    HW120186   2.528   2.487   3.132 -0.8697 -0.5038 -0.4179
 2908SOL    HW220187   2.448   2.602   3.097  0.2477  0.0525 -1.6870
 2909SOL     OW20188   1.616   4.391  13.687  0.1095  0.0276 -0.6717
 2909SOL    HW120189   1.642   4.447  13.614  1.0720 -1.5832 -1.5660
 2909SOL    HW220190   1.600   4.465  13.746  2.0467  0.8124 -1.1318
 2910SOL     OW20191   2.256   0.313  12.079 -0.0926 -0.9020  0.2758
 2910SOL    HW120192   2.332   0.284  12.131  0.5555  2.2020  1.0805
 2910SOL    HW220193   2.291   0.401  12.066  0.4422 -1.0731  0.5408
 2911SOL     OW20194   2.270   1.268  12.159  0.8194 -0.4948  0.2319
 2911SOL    HW120195   2.325   1.311  12.224 -0.9318  1.7720  0.2369
 2911SOL    HW220196   2.219   1.338  12.119 -2.6172 -1.6538  2.5239
 2912SOL     OW20197   0.402   0.718  11.560  0.1230  0.2347 -0.4729
 2912SOL    HW120198   0.488   0.757  11.545 -0.3977  2.3182  1.9280
 2912SOL    HW220199   0.428   0.669  11.637 -1.5478 -0.7242 -0.5209
 2913SOL     OW20200   3.306   0.515   3.772  0.3257 -0.1728  0.0163
 2913SOL    HW120201   3.298   0.603   3.734 -0.6704  0.9765  2.9017
 2913SOL    HW220202   3.222   0.479   3.800 -0.3674  1.3749 -0.0280
 2914SOL     OW20203   3.090   0.186   2.928  0.8356 -0.8220 -0.4923
 2914SOL    HW120204   3.173   0.159   2.966  1.3970 -0.8470 -1.7346
 2914SOL    HW220205   3.067   0.106   2.881 -1.2392  0.0927 -1.0419
 2915SOL     OW20206   3.283   0.845  15.482 -0.4867  0.2136  0.2903
 2915SOL    HW120207   3.224   0.915  15.452 -0.1228  0.5174  0.2777
 2915SOL    HW220208   3.359   0.901  15.495 -0.5989  1.0452 -2.5317
 2916SOL     OW20209   0.145   2.277  10.626 -0.2058  0.0842  0.2695
 2916SOL    HW120210   0.217   2.240  10.678  0.1348 -0.4373 -0.5727
 2916SOL    HW220211   0.124   2.354  10.678  0.0291 -1.7853  3.1530
 2917SOL     OW20212   4.224   1.596   6.114  0.4415 -0.2860  0.6452
 2917SOL    HW120213   4.181   1.655   6.053 -1.0729  0.0064  1.9903
 2917SOL    HW220214   4.197   1.507   6.090 -0.2005 -0.2582  1.2355
 2918SOL     OW20215   2.022   0.174   2.031 -0.1926  0.5290  0.0838
 2918SOL    HW120216   2.050   0.173   2.123 -3.3018  0.5631  1.0090
 2918SOL    HW220217   2.074   0.103   1.992  1.2077  2.5832 -1.7748
 2919SOL     OW20218   2.756   4.650   8.640  0.0226 -0.1652 -0.3047
 2919SOL    HW120219   2.698   4.608   8.576  2.3121 -1.5792 -1.4517
 2919SOL    HW220220   2.791   0.013   8.611  0.7013 -0.8968 -1.6301
 2920SOL     OW20221   2.855   2.539   4.456 -0.1201  1.1986  0.3098
 2920SOL    HW120222   2.804   2.569   4.380 -0.1761  0.0689 -0.1028
 2920SOL    HW220223   2.904   2.621   4.463  2.3097 -0.2869  0.7051
 2921SOL     OW20224   3.205   1.562  10.945 -0.3008  0.4247 -0.1940
 2921SOL    HW120225   3.150   1.634  10.914 -0.3460  0.7514  0.6552
 2921SOL    HW220226   3.286   1.607  10.922  1.1099 -1.2967  1.4919
 2922SOL     OW20227   4.591   3.297  14.670  0.1069 -0.4789 -0.5560
 2922SOL    HW120228   4.613   3.349  14.747  0.6602 -1.7311  0.1211
 2922SOL    HW220229   4.508   3.338  14.647  1.2795  1.8370 -0.7297
 2923SOL     OW20230   2.544   0.962   9.972 -0.1114 -0.0629  0.2712
 2923SOL    HW120231   2.565   0.980  10.063 -0.2526  0.9679  0.0988
 2923SOL    HW220232   2.562   1.047   9.933 -1.0572  0.9192  1.9896
 2924SOL     OW20233   0.005   1.802   3.297 -0.9513 -0.7190  0.0574
 2924SOL    HW120234   4.675   1.774   3.373 -0.5719  2.2264  1.3984
 2924SOL    HW220235   0.081   1.836   3.344 -0.0727 -0.7828 -1.3347
 2925SOL     OW20236   2.810   3.247  15.547 -0.0430  0.7399 -0.3939
 2925SOL    HW120237   2.718   3.247  15.572 -0.0236 -0.2684 -0.3250
 2925SOL    HW220238   2.855   3.220  15.627  1.8714  1.8025 -1.1114
 2926SOL     OW20239   4.590   0.707   3.821  0.1738  0.2188 -0.1565
 2926SOL    HW120240   4.649   0.782   3.813  0.9612 -0.3697  0.1170
 2926SOL    HW220241   4.658   0.643   3.844 -0.6291  0.0851  1.8446
 2927SOL     OW20242   1.689   1.217   4.043 -0.2038  0.6406  0.4373
 2927SOL    HW120243   1.690   1.284   3.976  1.5683  1.8132  1.6595
 2927SOL    HW220244   1.723   1.269   4.116 -0.4750 -1.0097  1.7398
 2928SOL     OW20245   1.085   2.444   2.077  0.2484  0.3871 -0.4195
 2928SOL    HW120246   0.997   2.481   2.074  0.2011  0.2502 -0.7084
 2928SOL    HW220247   1.113   2.511   2.139 -0.1886 -0.5330  0.7551
 2929SOL     OW20248   3.472   2.164   6.519 -0.2988  0.8377  0.0888
 2929SOL    HW120249   3.444   2.180   6.429 -1.6742 -0.3778  0.2917
 2929SOL    HW220250   3.397   2.160   6.578 -0.3704 -3.8497 -0.3119
 2930SOL     OW20251   0.567   2.912   6.309  0.2672  0.0527  0.4369
 2930SOL    HW120252   0.558   2.982   6.374  0.9155  0.2295  0.3365
 2930SOL    HW220253   0.541   2.836   6.362 -0.2167 -0.6131 -0.7621
 2931SOL     OW20254   2.096   4.458   5.038 -0.1831 -0.1097 -0.0591
 2931SOL    HW120255   2.043   4.492   5.111  1.2019 -0.7304  1.2317
 2931SOL    HW220256   2.161   4.523   5.010 -1.0650  1.1326  0.7838
 2932SOL     OW20257   1.067   4.385   7.449  0.7685 -0.1217 -0.1589
 2932SOL    HW120258   1.147   4.358   7.404  0.8321  0.9516 -0.6843
 2932SOL    HW220259   1.013   4.401   7.371 -1.3733 -1.4861  1.0289
 2933SOL     OW20260   4.056   3.377  15.730  0.8675  0.1414 -0.0337
 2933SOL    HW120261   4.044   3.456  15.677 -0.0476 -0.0107 -0.0515
 2933SOL    HW220262   3.971   3.374  15.773  0.7808  1.0108 -0.1340
 2934SOL     OW20263   1.481   2.886   6.960 -0.5984  0.4403  0.3511
 2934SOL    HW120264   1.501   2.979   6.961  1.4799  0.0064  1.2913
 2934SOL    HW220265   1.406   2.887   6.901  0.6975  1.8656 -1.2553
 2935SOL     OW20266   1.486   4.028   6.613  0.2193 -0.7391 -0.2299
 2935SOL    HW120267   1.404   4.027   6.661  0.9967 -1.0055  1.0850
 2935SOL    HW220268   1.487   4.109   6.561  0.1922 -1.0821 -0.7646
 2936SOL     OW20269   1.578   2.827   5.434 -0.4963  0.3267 -0.4900
 2936SOL    HW120270   1.632   2.773   5.376 -0.9207  0.4590 -1.0001
 2936SOL    HW220271   1.553   2.755   5.493  2.5863 -1.0707 -0.8873
 2937SOL     OW20272   1.398   1.569   5.848 -0.2173  0.0801 -0.3886
 2937SOL    HW120273   1.486   1.532   5.857 -0.6232 -1.0798 -1.2781
 2937SOL    HW220274   1.356   1.559   5.933 -1.5394 -1.0440 -1.1757
 2938SOL     OW20275   1.673   2.470  14.812 -0.2410 -0.1853 -0.3673
 2938SOL    HW120276   1.695   2.405  14.745  3.1261  1.6829 -1.0454
 2938SOL    HW220277   1.725   2.440  14.887 -2.0653  1.4106  1.5215
 2939SOL     OW20278   1.999   3.540  13.393  0.5262  0.0250 -0.1492
 2939SOL    HW120279   1.978   3.622  13.348 -0.5096  0.3645  0.9570
 2939SOL    HW220280   1.992   3.575  13.482 -2.4678 -3.0311  0.7980
 2940SOL     OW20281   4.510   1.807   4.128  0.1568 -0.2109 -0.6606
 2940SOL    HW120282   4.562   1.886   4.138 -2.4296  1.2390  1.1249
 2940SOL    HW220283   4.419   1.833   4.119 -0.6651 -1.7636  3.0820
 2941SOL     OW20284   4.112   1.130   5.432 -0.2312 -0.1592  0.7068
 2941SOL    HW120285   4.149   1.147   5.345 -1.8227  0.9932  0.2624
 2941SOL    HW220286   4.131   1.037   5.445 -2.0618 -0.8344 -1.4965
 2942SOL     OW20287   2.874   2.739  12.654  0.0660  0.0826 -0.4909
 2942SOL    HW120288   2.846   2.825  12.684 -0.5461 -1.0619  2.2494
 2942SOL    HW220289   2.958   2.754  12.610 -0.7319  0.2127 -1.9669
 2943SOL     OW20290   0.538   0.421  15.913  0.5454 -0.7221 -0.2462
 2943SOL    HW120291   0.624   0.463  15.912 -0.3502  1.1779  2.7930
 2943SOL    HW220292   0.563   0.333  15.941 -0.8368 -0.7846  0.7656
 2944SOL     OW20293   1.687   1.255   4.777  0.1259  0.5243 -0.5172
 2944SOL    HW120294   1.595   1.279   4.786  0.1240  1.3477 -2.6904
 2944SOL    HW220295   1.697   1.160   4.789 -1.0593  0.6450  1.4864
 2945SOL     OW20296   2.500   4.434   1.554  0.5584 -0.2000  0.4228
 2945SOL    HW120297   2.420   4.464   1.596  1.0858  0.9312  0.6203
 2945SOL    HW220298   2.497   4.479   1.470 -2.3094  2.2209  1.8345
 2946SOL     OW20299   1.881   3.065   2.698 -0.2227 -0.1296 -0.2074
 2946SOL    HW120300   1.957   3.122   2.695 -0.7045  0.5494  0.2796
 2946SOL    HW220301   1.803   3.122   2.700 -1.5688 -1.9378 -0.8308
 2947SOL     OW20302   2.732   2.995   4.293 -0.3129  0.9329  0.3527
 2947SOL    HW120303   2.755   2.953   4.210 -0.4392  0.0198  0.7839
 2947SOL    HW220304   2.815   3.007   4.338 -0.2932 -1.0210  0.8313
 2948SOL     OW20305   0.909   1.102   1.637 -1.0899 -0.3393 -0.0316
 2948SOL    HW120306   0.975   1.056   1.688  1.2138  2.0381 -0.8692
 2948SOL    HW220307   0.908   1.193   1.666  0.1218 -0.9826  1.9971
 2949SOL     OW20308   4.702   1.300   1.863 -0.3096  0.1445 -0.0313
 2949SOL    HW120309   0.009   1.389   1.838  1.2017 -0.4586 -0.4845
 2949SOL    HW220310   0.015   1.308   1.953  1.4142  0.9962 -0.7497
 2950SOL     OW20311   4.129   3.479  14.394 -0.2381  0.2083  0.1654
 2950SOL    HW120312   4.041   3.454  14.366  0.0154 -0.3375 -0.1683
 2950SOL    HW220313   4.147   3.544  14.326  0.3757 -2.4576 -2.2471
 2951SOL     OW20314   1.175   3.265   1.519  0.3328  0.3989 -0.4265
 2951SOL    HW120315   1.196   3.172   1.510 -0.7865  0.1185 -0.1728
 2951SOL    HW220316   1.087   3.264   1.480  1.2396 -2.0076 -2.3558
 2952SOL     OW20317   0.887   0.638   4.886 -0.3857  1.0047  0.3749
 2952SOL    HW120318   0.794   0.657   4.899 -0.8555 -0.8856 -0.1575
 2952SOL    HW220319   0.891   0.546   4.913  3.8149 -0.0430 -3.8131
 2953SOL     OW20320   2.036   1.616   8.036  0.2564  1.2896  0.2139
 2953SOL    HW120321   2.107   1.681   8.035  0.2560  1.2939  0.4008
 2953SOL    HW220322   1.979   1.663   8.097 -1.9948  0.2405 -1.0879
 2954SOL     OW20323   4.672   0.958   9.346  0.5162  0.3372 -0.2077
 2954SOL    HW120324   4.719   1.010   9.280  1.6885 -1.8060 -1.0895
 2954SOL    HW220325   4.704   0.994   9.429 -1.1464  0.1478  0.5039
 2955SOL     OW20326   3.410   2.985   6.486 -0.5448  0.1816 -0.1911
 2955SOL    HW120327   3.464   2.943   6.553  0.2242  0.2859 -0.7477
 2955SOL    HW220328   3.346   2.914   6.480  0.2412 -0.4892 -0.6875
 2956SOL     OW20329   2.010   4.161   9.106  0.1547 -0.1339  0.5963
 2956SOL    HW120330   2.049   4.230   9.159  0.2622 -0.0772  0.4438
 2956SOL    HW220331   2.088   4.115   9.077 -0.1965 -0.0829 -0.4350
 2957SOL     OW20332   2.831   3.409   7.002 -0.5452 -0.1529  0.4250
 2957SOL    HW120333   2.801   3.450   6.921 -2.5163  0.2134  1.3414
 2957SOL    HW220334   2.922   3.392   6.979 -1.5936 -2.1514 -2.2878
 2958SOL     OW20335   1.853   2.699   6.503 -0.5132 -0.2357 -0.2237
 2958SOL    HW120336   1.934   2.704   6.453 -0.0240  0.1287  0.6059
 2958SOL    HW220337   1.810   2.632   6.449 -0.7461  0.5972 -1.0539
 2959SOL     OW20338   2.087   0.292   3.978 -0.2450 -0.3003 -0.0493
 2959SOL    HW120339   2.118   0.381   3.960  0.0422 -0.3430  0.2431
 2959SOL    HW220340   2.021   0.313   4.043  1.4932 -0.7493  1.8665
 2960SOL     OW20341   3.752   4.284   6.355  0.1819  0.3724 -0.4740
 2960SOL    HW120342   3.708   4.319   6.432 -1.2604  0.6349 -1.4347
 2960SOL    HW220343   3.676   4.254   6.305 -0.8991 -0.2977  1.5846
 2961SOL     OW20344   0.774   4.424  10.765  0.1999 -0.1361 -0.1614
 2961SOL    HW120345   0.730   4.423  10.679 -2.0291  0.2462  0.9634
 2961SOL    HW220346   0.712   4.370  10.814 -1.9834  2.5059  0.0411
 2962SOL     OW20347   3.171   3.638   4.837  0.7262 -0.1054  0.2591
 2962SOL    HW120348   3.095   3.579   4.840  1.7199 -1.4516 -0.7137
 2962SOL    HW220349   3.154   3.708   4.900 -0.6475 -0.6015  0.4412
 2963SOL     OW20350   1.812   0.528  16.182  0.0541 -0.1416 -0.2761
 2963SOL    HW120351   1.748   0.468  16.144 -0.7182  1.2749 -1.1735
 2963SOL    HW220352   1.814   0.601  16.120  1.8097  1.2171  1.3906
 2964SOL     OW20353   4.540   1.472   7.704  0.1513  0.0222  0.4609
 2964SOL    HW120354   4.561   1.396   7.649  1.6903  0.0486  1.0417
 2964SOL    HW220355   4.456   1.508   7.674  0.5105 -0.5841 -1.2842
 2965SOL     OW20356   0.633   3.573   0.944  0.3068  0.0246 -0.7947
 2965SOL    HW120357   0.609   3.595   1.035  1.6606  0.7464 -0.6117
 2965SOL    HW220358   0.696   3.502   0.959  1.6825  1.4635  0.2290
 2966SOL     OW20359   3.411   0.827   4.425 -0.5554 -0.8237 -0.2384
 2966SOL    HW120360   3.487   0.793   4.379 -1.4516 -0.5124 -1.9630
 2966SOL    HW220361   3.455   0.864   4.502 -0.7895 -0.3583 -0.3264
 2967SOL     OW20362   3.066   0.299   2.538 -0.3295 -0.7875 -0.5594
 2967SOL    HW120363   3.071   0.236   2.466  1.2890  1.2241 -2.2378
 2967SOL    HW220364   3.156   0.287   2.568  0.7235  0.5693 -3.1670
 2968SOL     OW20365   0.124   3.559   4.441 -0.2532  0.1684  0.2602
 2968SOL    HW120366   0.067   3.572   4.517  0.3660  0.7268  0.6228
 2968SOL    HW220367   0.123   3.463   4.445 -2.7017  0.0863 -2.1461
 2969SOL     OW20368   3.826   2.646  11.450 -0.1115 -0.0034  0.5777
 2969SOL    HW120369   3.815   2.671  11.359 -0.1287  0.2395  0.6469
 2969SOL    HW220370   3.815   2.551  11.449 -0.8184  0.1060 -1.1519
 2970SOL     OW20371   1.104   1.940   5.620  0.1158 -0.1325 -0.4487
 2970SOL    HW120372   1.033   1.993   5.584 -0.1413  1.0860  1.8729
 2970SOL    HW220373   1.051   1.862   5.637 -0.6977  0.3441 -0.7877
 2971SOL     OW20374   2.905   4.492  11.682  0.0601 -0.2208  0.8416
 2971SOL    HW120375   2.835   4.504  11.746  1.2972 -2.3486  2.6073
 2971SOL    HW220376   2.891   4.566  11.624  2.4762 -0.9159 -0.6188
 2972SOL     OW20377   1.909   3.620  10.755 -0.2639 -0.2748 -0.1217
 2972SOL    HW120378   1.995   3.610  10.794  0.1132 -2.1339 -1.4092
 2972SOL    HW220379   1.926   3.599  10.663  2.3999 -1.8921  0.7514
 2973SOL     OW20380   1.174   0.038   6.207 -0.4346 -0.1016  0.5791
 2973SOL    HW120381   1.135   0.123   6.227 -0.6035 -0.0468  0.0378
 2973SOL    HW220382   1.097   4.707   6.183 -0.6178 -0.9858  3.1773
 2974SOL     OW20383   4.673   0.723   2.779  0.0756 -0.0341  0.7392
 2974SOL    HW120384   4.625   0.763   2.707  1.1886 -1.7527 -0.9589
 2974SOL    HW220385   0.039   0.755   2.754  0.4026 -0.4342  1.3464
 2975SOL     OW20386   1.646   0.386   1.553  0.6897 -0.0293  0.0434
 2975SOL    HW120387   1.700   0.464   1.567  1.6499 -1.1027  2.3606
 2975SOL    HW220388   1.623   0.361   1.643  1.6879  1.1201  0.6140
 2976SOL     OW20389   0.291   2.724  10.464 -0.0557 -0.0982 -0.6243
 2976SOL    HW120390   0.313   2.714  10.556  1.0447 -3.0926 -1.2240
 2976SOL    HW220391   0.276   2.818  10.466  1.1583  0.0420  1.8392
 2977SOL     OW20392   4.133   0.345   2.460 -0.2140  0.1907 -0.3135
 2977SOL    HW120393   4.091   0.347   2.546  0.5234 -1.0531  0.0779
 2977SOL    HW220394   4.061   0.339   2.398  0.4135  0.5425 -1.0836
 2978SOL     OW20395   4.332   2.191   4.055  0.2361  0.5716 -0.0305
 2978SOL    HW120396   4.324   2.098   4.075  0.8252  0.3975 -0.6113
 2978SOL    HW220397   4.383   2.191   3.974 -0.7332  0.9948 -0.6434
 2979SOL     OW20398   3.787   1.944   9.049 -0.5721  0.9318  0.0312
 2979SOL    HW120399   3.765   1.910   8.963  0.5736  0.3834 -0.0450
 2979SOL    HW220400   3.799   1.870   9.109  1.5448  1.8696  0.7893
 2980SOL     OW20401   2.236   2.900   7.573  0.1386 -0.0463  0.2201
 2980SOL    HW120402   2.297   2.850   7.519 -0.5134 -0.8470  0.2197
 2980SOL    HW220403   2.225   2.974   7.513  1.3975  0.3299  0.4531
 2981SOL     OW20404   3.445   0.664  11.559  0.4011 -0.3819  0.5449
 2981SOL    HW120405   3.458   0.663  11.653 -0.6278 -1.6257  0.6614
 2981SOL    HW220406   3.377   0.601  11.535  1.0846 -1.4121  1.3653
 2982SOL     OW20407   3.335   0.572  13.103 -0.5423  0.0034  0.5304
 2982SOL    HW120408   3.428   0.551  13.097 -0.9719 -1.4703 -0.8501
 2982SOL    HW220409   3.295   0.499  13.055 -0.2411 -0.8758  1.6031
 2983SOL     OW20410   4.681   2.277   9.044 -0.5976 -0.4099 -0.5754
 2983SOL    HW120411   4.627   2.218   9.097 -0.7496  0.1517 -0.1015
 2983SOL    HW220412   4.627   2.356   9.049  0.8681  0.5598  0.1217
 2984SOL     OW20413   1.809   4.234   5.050 -0.1591 -0.1874  0.1986
 2984SOL    HW120414   1.874   4.169   5.073  1.0966  1.0362  0.1191
 2984SOL    HW220415   1.799   4.282   5.133  0.4554 -0.2699  0.3196
 2985SOL     OW20416   2.718   2.235   5.123  0.1495  0.5808 -0.2732
 2985SOL    HW120417   2.710   2.159   5.066  0.1872 -1.2155  2.1480
 2985SOL    HW220418   2.813   2.243   5.132  0.2120 -2.4742  1.6092
 2986SOL     OW20419   1.162   3.755  11.470 -0.3764 -0.1318  0.9814
 2986SOL    HW120420   1.078   3.711  11.462  0.2483 -1.4439  1.6260
 2986SOL    HW220421   1.183   3.775  11.379 -0.6511 -0.0032  0.9459
 2987SOL     OW20422   4.223   2.657   8.673  0.0614  0.5797 -0.5902
 2987SOL    HW120423   4.158   2.721   8.701 -0.7824  0.4507 -2.2798
 2987SOL    HW220424   4.266   2.663   8.758 -2.0764  2.1448  0.3804
 2988SOL     OW20425   2.474   1.977  14.175  0.4534 -0.0259 -0.4257
 2988SOL    HW120426   2.396   1.932  14.205  0.9698 -0.4173  0.3408
 2988SOL    HW220427   2.520   1.906  14.130 -0.7549  0.6571 -2.7143
 2989SOL     OW20428   0.616   1.538   9.140 -0.1225  0.1076  0.2012
 2989SOL    HW120429   0.526   1.531   9.107  0.1284 -0.3461 -0.3676
 2989SOL    HW220430   0.657   1.503   9.062 -1.3321 -1.5292  0.3017
 2990SOL     OW20431   2.752   2.446  10.100  0.2018 -0.6047 -0.1586
 2990SOL    HW120432   2.770   2.461  10.007  1.2931  1.0230  0.3094
 2990SOL    HW220433   2.722   2.355  10.109 -1.6235 -0.0756 -0.7976
 2991SOL     OW20434   0.093   3.827   6.618 -0.3434 -0.2162  0.0108
 2991SOL    HW120435   0.071   3.748   6.567 -2.6391  1.0905 -1.0013
 2991SOL    HW220436   0.119   3.893   6.553 -2.1809  0.2645 -0.2443
 2992SOL     OW20437   1.205   0.642   2.729  0.2833 -0.4886  0.0653
 2992SOL    HW120438   1.127   0.599   2.694 -2.2860  2.5389  2.0252
 2992SOL    HW220439   1.192   0.733   2.701 -0.8676 -0.4796  0.6225
 2993SOL     OW20440   1.057   1.447   1.283 -0.1372 -0.0937  0.4858
 2993SOL    HW120441   1.060   1.505   1.207 -0.7313 -0.3289  0.2858
 2993SOL    HW220442   1.123   1.491   1.338 -0.3893 -0.9967  1.5007
 2994SOL     OW20443   4.581   1.297   5.125 -0.3421  0.5048 -0.1585
 2994SOL    HW120444   4.519   1.369   5.136 -0.9370 -0.2822  1.5602
 2994SOL    HW220445   4.539   1.225   5.078  0.9488 -1.5709  1.8572
 2995SOL     OW20446   4.128   2.506   4.981 -0.2408  0.3965  0.3900
 2995SOL    HW120447   4.199   2.463   4.934  1.2797  1.8775  1.3160
 2995SOL    HW220448   4.158   2.529   5.069 -1.6569 -0.4401  1.0898
 2996SOL     OW20449   1.630   3.407   7.208  0.0302 -0.4261 -0.2300
 2996SOL    HW120450   1.550   3.403   7.155  1.1341  1.1905 -2.0211
 2996SOL    HW220451   1.605   3.367   7.291 -1.6963  0.9203 -0.1056
 2997SOL     OW20452   0.846   4.302   4.866  0.0844 -0.1886 -0.3127
 2997SOL    HW120453   0.760   4.269   4.841 -0.5103  0.2857  1.0912
 2997SOL    HW220454   0.825   4.392   4.893 -1.8080 -0.6415 -0.2885
 2998SOL     OW20455   3.821   4.185   8.815  0.4905 -0.1697  0.2907
 2998SOL    HW120456   3.836   4.266   8.862  1.0690  0.6971 -1.3873
 2998SOL    HW220457   3.838   4.125   8.888 -1.3377 -0.3010  0.6120
 2999SOL     OW20458   4.562   1.941   1.949  0.4231 -0.3102 -0.2435
 2999SOL    HW120459   4.603   1.995   1.882 -0.2392 -0.2438 -0.5997
 2999SOL    HW220460   4.619   1.962   2.023 -0.8297  1.9015  0.1236
 3000SOL     OW20461   3.912   1.830   3.020  0.0789  0.8300  0.3289
 3000SOL    HW120462   3.907   1.778   2.940 -0.5088  2.0608 -0.4354
 3000SOL    HW220463   3.953   1.769   3.081  0.8127  1.5389  0.5401
 3001SOL     OW20464   4.569   0.020   4.921  0.1185  0.7599  0.3970
 3001SOL    HW120465   4.633   0.002   4.852  1.5776 -1.7123  2.4174
 3001SOL    HW220466   4.602   0.106   4.946  0.5685  0.7288 -0.0912
 3002SOL     OW20467   0.981   0.382   0.436 -0.1623 -0.0236  0.0981
 3002SOL    HW120468   0.904   0.334   0.405  1.1464 -1.5299 -0.8529
 3002SOL    HW220469   0.989   0.442   0.362  0.9237 -1.1275 -0.6954
 3003SOL     OW20470   1.748   3.477   7.765 -0.2791 -0.1711 -0.5139
 3003SOL    HW120471   1.834   3.519   7.767 -1.9519  3.2830 -0.8554
 3003SOL    HW220472   1.689   3.543   7.802  0.1026 -0.1093 -0.0215
 3004SOL     OW20473   4.338   1.054   2.105  0.2069 -0.1601 -0.0756
 3004SOL    HW120474   4.254   1.024   2.070 -0.0762  1.2371 -0.5727
 3004SOL    HW220475   4.309   1.142   2.129  1.4092 -0.3580  2.1434
 3005SOL     OW20476   0.245   1.437   6.386  0.0388 -0.5559 -0.9240
 3005SOL    HW120477   0.217   1.348   6.408  0.2297 -0.2289  0.6433
 3005SOL    HW220478   0.338   1.435   6.364 -0.0489 -0.9140 -1.2642
 3006SOL     OW20479   2.750   3.225   4.548 -0.0900 -0.2751 -0.1877
 3006SOL    HW120480   2.768   3.132   4.565  0.5816 -0.0275  0.4075
 3006SOL    HW220481   2.698   3.229   4.628  0.6564 -1.5149  0.3502
 3007SOL     OW20482   0.296   0.480  10.582  0.0723 -0.7031 -0.0863
 3007SOL    HW120483   0.261   0.418  10.647  1.8736 -0.5387  1.0419
 3007SOL    HW220484   0.363   0.527  10.632 -1.6564  1.8425 -0.1368
 3008SOL     OW20485   1.949   0.288  17.107 -0.2674  0.3590 -0.2611
 3008SOL    HW120486   1.987   0.357  17.160  0.0492  0.0122 -0.0364
 3008SOL    HW220487   1.861   0.323  17.099  0.1580  0.8631 -2.7394
 3009SOL     OW20488   1.769   4.023  15.150  0.1222 -0.0760  0.1976
 3009SOL    HW120489   1.827   3.976  15.089 -1.8226  0.9145 -2.4376
 3009SOL    HW220490   1.724   3.949  15.189 -0.8708  0.5942  0.3131
 3010SOL     OW20491   1.724   4.039  10.855  0.3428 -0.3218  0.4527
 3010SOL    HW120492   1.785   3.969  10.879 -1.1407 -2.0825 -0.9425
 3010SOL    HW220493   1.781   4.097  10.804  1.6894  1.0964  3.5742
 3011SOL     OW20494   2.160   2.412   6.560  0.2234  0.3165  0.4189
 3011SOL    HW120495   2.088   2.354   6.538 -0.0359  0.1792  1.6634
 3011SOL    HW220496   2.197   2.368   6.637 -0.1729  0.2868  0.5896
 3012SOL     OW20497   3.974   4.541   2.824 -0.4412 -0.1383  0.1000
 3012SOL    HW120498   3.970   4.458   2.777 -0.7916 -0.1887  0.2182
 3012SOL    HW220499   3.908   4.518   2.890 -0.3110  0.7000  0.5176
 3013SOL     OW20500   0.396   2.689  12.063 -0.6020  0.2000  0.8200
 3013SOL    HW120501   0.350   2.759  12.017  2.3788  1.5062 -0.1876
 3013SOL    HW220502   0.416   2.616  12.003  1.3889  0.3267  1.3282
 3014SOL     OW20503   0.187   3.799   7.669  0.8537  0.1896 -0.1717
 3014SOL    HW120504   0.096   3.813   7.640  1.0982  0.5443 -0.7867
 3014SOL    HW220505   0.235   3.847   7.601 -0.4919  1.9955  0.1264
 3015SOL     OW20506   0.608   2.085   0.507 -0.1072 -0.5647 -0.0403
 3015SOL    HW120507   0.567   2.014   0.457 -1.6706  0.0245  0.3786
 3015SOL    HW220508   0.667   2.120   0.440  0.0598 -0.5997  0.0907
 3016SOL     OW20509   3.823   4.467   3.865 -0.6903  0.3645  0.4517
 3016SOL    HW120510   3.860   4.391   3.820 -2.3560  0.6651 -1.4342
 3016SOL    HW220511   3.762   4.425   3.925 -0.4328  0.1413  0.5580
 3017SOL     OW20512   3.776   4.425   8.914  0.3044 -0.2836  0.3838
 3017SOL    HW120513   3.753   4.408   9.005  3.0218 -0.3490  1.0711
 3017SOL    HW220514   3.697   4.410   8.862  0.1302 -1.1804  0.9208
 3018SOL     OW20515   1.144   0.715  17.450 -0.2808 -0.4217 -0.5019
 3018SOL    HW120516   1.073   0.676  17.399 -1.7076  1.7943 -0.2099
 3018SOL    HW220517   1.183   0.762  17.376  2.4988  1.7562  2.3254
 3019SOL     OW20518   2.387   0.381   8.165  0.0189  0.0674 -0.5916
 3019SOL    HW120519   2.390   0.288   8.190 -0.7374  0.6856  1.7891
 3019SOL    HW220520   2.375   0.423   8.250 -0.6141  2.9173 -2.0867
 3020SOL     OW20521   3.043   0.573   3.579 -0.0841  0.0880 -0.2006
 3020SOL    HW120522   3.023   0.532   3.663  3.2402  1.0038  1.0301
 3020SOL    HW220523   2.960   0.560   3.534 -0.3948 -0.4595  0.5396
 3021SOL     OW20524   4.216   4.149   8.551  0.0902 -0.3102 -0.5361
 3021SOL    HW120525   4.160   4.158   8.474  0.5092  1.9518 -0.5822
 3021SOL    HW220526   4.168   4.201   8.615  2.1120  0.0771  0.6894
 3022SOL     OW20527   0.721   1.640   1.567 -0.2689  0.1964  0.5507
 3022SOL    HW120528   0.646   1.670   1.516  1.5288  0.5835 -1.8499
 3022SOL    HW220529   0.683   1.660   1.653 -0.6782 -1.0945  0.6757
 3023SOL     OW20530   0.066   2.749   4.384  0.3293  0.0831  0.2365
 3023SOL    HW120531   4.704   2.705   4.366 -0.3899  0.1249  3.5159
 3023SOL    HW220532   0.046   2.842   4.376  0.3044  0.0836  0.3051
 3024SOL     OW20533   1.302   2.733   2.860  0.2666  0.1824 -0.0152
 3024SOL    HW120534   1.223   2.738   2.807 -0.2253 -1.5433  0.5718
 3024SOL    HW220535   1.327   2.642   2.846  0.2109  0.2844 -0.7585
 3025SOL     OW20536   1.119   0.148   5.734  0.1707  0.2363  0.1960
 3025SOL    HW120537   1.079   0.088   5.797 -1.4870  1.2705  0.1152
 3025SOL    HW220538   1.100   0.108   5.650  1.8692  1.1048 -0.6025
 3026SOL     OW20539   3.068   3.332   9.437 -0.4256 -0.2032  0.5311
 3026SOL    HW120540   2.987   3.281   9.431  0.0650 -0.5626 -2.8527
 3026SOL    HW220541   3.043   3.420   9.410 -1.1061 -0.0173  1.7933
 3027SOL     OW20542   4.190   3.453  12.413  0.3333 -0.1362 -0.7072
 3027SOL    HW120543   4.245   3.444  12.335  1.0135 -2.5431  0.0256
 3027SOL    HW220544   4.155   3.541  12.406  2.5453  0.9168  1.6009
 3028SOL     OW20545   1.284   1.546   4.546 -0.0199  0.0022 -0.1418
 3028SOL    HW120546   1.229   1.535   4.468  2.0813 -1.5355 -1.3975
 3028SOL    HW220547   1.257   1.633   4.574  3.0787  0.7271  0.5665
 3029SOL     OW20548   4.164   1.288  11.715 -0.3233  0.1716 -0.3122
 3029SOL    HW120549   4.210   1.231  11.654  0.1348  1.7425 -1.4338
 3029SOL    HW220550   4.199   1.250  11.796  1.2609  1.7788 -0.2322
 3030SOL     OW20551   3.103   0.173   8.715 -0.9952  0.1426 -0.7027
 3030SOL    HW120552   3.104   0.255   8.664  0.2193  0.3277 -0.3839
 3030SOL    HW220553   3.103   0.102   8.651 -1.2383  0.9162 -1.5699
 3031SOL     OW20554   2.757   1.022  12.217 -0.1040 -0.5204  0.0140
 3031SOL    HW120555   2.812   0.946  12.233  2.3414  1.3118  0.2881
 3031SOL    HW220556   2.685   0.991  12.161 -1.0387  0.9297  0.4112
 3032SOL     OW20557   3.620   4.551  15.077 -0.1753 -0.5511  0.2354
 3032SOL    HW120558   3.571   4.469  15.087 -0.7798 -0.3178 -0.7718
 3032SOL    HW220559   3.647   4.531  14.987  1.5035  0.9265  0.4022
 3033SOL     OW20560   2.024   3.586   3.035 -0.2292  0.2194 -0.2248
 3033SOL    HW120561   2.071   3.529   3.095 -0.0233 -1.3169 -1.8367
 3033SOL    HW220562   2.029   3.545   2.948 -2.9337 -0.7776  0.1104
 3034SOL     OW20563   0.726   3.206   6.178 -0.4165 -0.1746 -0.0168
 3034SOL    HW120564   0.684   3.251   6.104 -0.2974 -0.3951 -0.2164
 3034SOL    HW220565   0.690   3.117   6.178  1.6540 -1.0174 -2.2955
 3035SOL     OW20566   1.545   0.113  15.177  0.2003  0.3091  0.1778
 3035SOL    HW120567   1.514   0.025  15.196 -0.3272  0.4778  0.0903
 3035SOL    HW220568   1.536   0.120  15.082 -4.0440  3.2521  0.8246
 3036SOL     OW20569   3.981   3.865   1.179 -0.2821  0.0280 -0.5718
 3036SOL    HW120570   4.056   3.806   1.171 -1.6163 -1.5181 -1.5954
 3036SOL    HW220571   3.998   3.902   1.266  1.5933  0.1456 -0.9960
 3037SOL     OW20572   0.379   1.871  14.975 -0.4148  0.1517  0.2944
 3037SOL    HW120573   0.437   1.796  14.970 -1.0623 -0.2171 -1.9259
 3037SOL    HW220574   0.324   1.864  14.896  0.6062  1.3786 -0.5307
 3038SOL     OW20575   3.374   1.370   5.540  0.1459 -0.4012  0.2419
 3038SOL    HW120576   3.365   1.293   5.596  1.5320 -0.3693  0.5121
 3038SOL    HW220577   3.285   1.406   5.532  0.3738  0.1101  0.0158
 3039SOL     OW20578   4.467   2.494   9.152  0.0849  0.2869 -0.3835
 3039SOL    HW120579   4.523   2.564   9.185  1.6834 -0.9761 -0.4378
 3039SOL    HW220580   4.459   2.433   9.226 -1.1809 -3.0174 -3.2108
 3040SOL     OW20581   2.582   1.571   7.966  0.0314 -0.1497  0.1141
 3040SOL    HW120582   2.566   1.486   7.926  0.3620  0.0293 -0.4057
 3040SOL    HW220583   2.535   1.570   8.049  0.1538  0.3791  0.1925
 3041SOL     OW20584   0.420   3.107   7.961 -0.4135  0.2854 -0.1131
 3041SOL    HW120585   0.385   3.192   7.934  1.6163  1.7982  2.0118
 3041SOL    HW220586   0.458   3.080   7.878  0.1125  0.3427  0.1137
 3042SOL     OW20587   2.029   0.872   7.282 -0.1890  0.4164 -0.2254
 3042SOL    HW120588   2.047   0.778   7.288  1.8398  0.7316 -1.2278
 3042SOL    HW220589   2.119   0.904   7.285  0.8798 -2.5919 -0.0425
 3043SOL     OW20590   2.782   4.097   7.713  0.8640  0.0471 -0.1528
 3043SOL    HW120591   2.727   4.019   7.701 -1.0258  0.7958  3.3694
 3043SOL    HW220592   2.861   4.070   7.666  0.5428 -0.6843 -0.2758
 3044SOL     OW20593   3.490   2.516   0.864  0.3708 -0.0790 -0.3858
 3044SOL    HW120594   3.398   2.487   0.863 -0.0065  1.0634  0.3237
 3044SOL    HW220595   3.476   2.609   0.885 -0.2536 -0.7234  2.0463
 3045SOL     OW20596   4.485   3.379  13.632  0.3652 -0.3269 -0.0946
 3045SOL    HW120597   4.575   3.367  13.663 -0.0138  1.7086  1.7883
 3045SOL    HW220598   4.452   3.305  13.683 -0.0519  1.2839  1.9617
 3046SOL     OW20599   3.296   1.378  10.599  0.0098  0.2685 -0.3763
 3046SOL    HW120600   3.333   1.449  10.651  0.1367 -1.0681  1.3699
 3046SOL    HW220601   3.208   1.370  10.636 -0.2810 -1.5488 -1.4238
 3047SOL     OW20602   0.276   4.597   4.114 -0.1779  0.1693  0.3227
 3047SOL    HW120603   0.347   4.546   4.075  1.0855  1.4877  0.8579
 3047SOL    HW220604   0.210   4.585   4.046 -0.8665  0.0187  1.0162
 3048SOL     OW20605   3.305   0.580   6.779 -0.4834 -0.1130  0.3028
 3048SOL    HW120606   3.363   0.654   6.795  0.1257 -0.3420 -0.8621
 3048SOL    HW220607   3.224   0.616   6.815  0.3550  0.7498  1.3099
 3049SOL     OW20608   3.197   0.102   5.393  0.0527 -0.3986 -0.0314
 3049SOL    HW120609   3.281   0.112   5.437 -0.8544  0.7562  1.4267
 3049SOL    HW220610   3.141   0.065   5.461  0.6770  0.7637  1.0952
 3050SOL     OW20611   2.130   4.353   3.980 -0.1891  0.6976  0.4599
 3050SOL    HW120612   2.185   4.386   4.052  0.5814  0.8724 -0.2040
 3050SOL    HW220613   2.060   4.320   4.036  0.1309 -0.4896  0.1615
 3051SOL     OW20614   0.553   0.426   6.612  0.3627 -0.2805  0.6159
 3051SOL    HW120615   0.549   0.514   6.574  3.8040 -0.5199 -0.2788
 3051SOL    HW220616   0.516   0.374   6.541  0.9358 -0.8251  0.7188
 3052SOL     OW20617   1.587   1.058  11.339  0.0705 -0.4527  0.1318
 3052SOL    HW120618   1.675   1.068  11.303  0.9331  1.2000  2.7009
 3052SOL    HW220619   1.593   1.062  11.435  1.3213 -0.1692  0.0411
 3053SOL     OW20620   0.679   3.401   3.086  0.6639  0.1118  0.1334
 3053SOL    HW120621   0.668   3.486   3.043 -1.3458 -0.7325 -0.9999
 3053SOL    HW220622   0.742   3.352   3.033 -0.7740 -1.6994  0.1278
 3054SOL     OW20623   3.808   2.330   0.770  0.4875  0.1781 -0.2747
 3054SOL    HW120624   3.859   2.259   0.730  0.5921  0.0695  0.0547
 3054SOL    HW220625   3.770   2.363   0.689 -0.5935 -0.4798 -0.0215
 3055SOL     OW20626   0.418   0.021   0.237  0.5677 -0.3552 -0.0339
 3055SOL    HW120627   0.412   0.009   0.142  1.2869  1.0085 -0.2549
 3055SOL    HW220628   0.509   0.048   0.251  0.3562 -0.9253  2.4108
 3056SOL     OW20629   0.368   1.030   2.650  0.2325  0.4887  0.1947
 3056SOL    HW120630   0.462   1.025   2.633  0.5305  0.1306  1.9660
 3056SOL    HW220631   0.363   1.117   2.691  0.1631 -0.7583  2.8511
 3057SOL     OW20632   3.761   2.828  12.859 -0.2972  0.6284 -0.6270
 3057SOL    HW120633   3.803   2.775  12.927 -0.8165  0.6187 -0.3107
 3057SOL    HW220634   3.811   2.908  12.878 -2.2032  1.7109 -0.2187
 3058SOL     OW20635   0.382   3.062   6.075 -0.1643  0.4762  0.3069
 3058SOL    HW120636   0.345   3.141   6.036 -0.8533  0.2374  0.4752
 3058SOL    HW220637   0.351   3.072   6.165 -1.9296 -3.6423  0.1729
 3059SOL     OW20638   3.527   0.644  16.711  0.3800 -0.2490  1.0422
 3059SOL    HW120639   3.495   0.694  16.637  0.2956 -0.9179  0.6261
 3059SOL    HW220640   3.471   0.693  16.771  2.2835  2.1618  0.8595
 3060SOL     OW20641   0.356   3.885   6.073 -0.2561  0.0179  0.2160
 3060SOL    HW120642   0.377   3.894   6.166 -1.6376 -2.5482  0.7512
 3060SOL    HW220643   0.418   3.949   6.037  0.2251 -0.3335  0.4298
 3061SOL     OW20644   3.913   2.639  14.931  0.2101 -0.7497 -0.0775
 3061SOL    HW120645   3.902   2.658  14.838  0.0943 -1.5884 -0.2361
 3061SOL    HW220646   3.962   2.716  14.960 -0.8100 -0.2427  0.3217
 3062SOL     OW20647   0.920   2.890   3.129 -0.3129 -0.1514 -0.2500
 3062SOL    HW120648   0.976   2.886   3.052 -0.1608  0.0051 -0.1476
 3062SOL    HW220649   0.932   2.985   3.140  3.0486 -0.6557  0.3990
 3063SOL     OW20650   0.090   4.103   8.455  0.2027 -0.1887  0.4076
 3063SOL    HW120651   0.088   4.162   8.529 -0.2162 -1.6910  1.5998
 3063SOL    HW220652   0.029   4.156   8.403 -1.8029 -0.9016  2.0146
 3064SOL     OW20653   1.077   3.173  13.943 -0.0793  0.4897  1.0006
 3064SOL    HW120654   1.087   3.143  13.853  0.1689  0.9890  0.8640
 3064SOL    HW220655   1.005   3.128  13.987 -0.7408  0.6989  0.1122
 3065SOL     OW20656   0.037   0.856   2.425  0.0991 -0.3012  0.5652
 3065SOL    HW120657   4.677   0.864   2.374 -1.0422 -1.2532  2.2253
 3065SOL    HW220658   0.080   0.940   2.409 -0.7089 -0.1454 -0.8475
 3066SOL     OW20659   4.230   4.320   2.195 -0.3441  0.0500 -0.3919
 3066SOL    HW120660   4.243   4.244   2.139 -1.7808  0.9845 -1.9886
 3066SOL    HW220661   4.307   4.375   2.179  0.7834 -1.4251  0.0216
 3067SOL     OW20662   0.335   0.558  10.320 -0.1627  0.0949  0.0468
 3067SOL    HW120663   0.341   0.648  10.351 -2.7107 -0.1230  1.1235
 3067SOL    HW220664   0.319   0.511  10.401 -2.0695  0.3681 -0.1695
 3068SOL     OW20665   3.761   3.375   4.070 -0.3452  0.4642 -0.0474
 3068SOL    HW120666   3.680   3.324   4.059 -0.4837  1.4170 -3.3646
 3068SOL    HW220667   3.789   3.361   3.980  1.4298  2.5447  0.1971
 3069SOL     OW20668   2.223   0.224  17.251 -0.1348  0.1137 -0.3010
 3069SOL    HW120669   2.171   0.303  17.237 -1.6668 -0.9545 -0.5807
 3069SOL    HW220670   2.268   0.255  17.330 -2.2720  0.4022  0.7851
 3070SOL     OW20671   3.176   0.790   2.932  0.0661  0.0877  0.3369
 3070SOL    HW120672   3.085   0.763   2.921 -0.2814  0.7312  1.5304
 3070SOL    HW220673   3.189   0.750   3.018  0.7367 -2.4943 -0.9836
 3071SOL     OW20674   1.082   1.873  14.407 -0.0604 -0.0240 -0.2737
 3071SOL    HW120675   1.103   1.958  14.447 -0.8930 -0.2427  0.6494
 3071SOL    HW220676   0.999   1.898  14.366 -0.7563  1.9226  2.3030
 3072SOL     OW20677   4.107   2.552  12.997  0.1672 -0.0760  0.1582
 3072SOL    HW120678   4.112   2.645  12.974  0.6224 -0.4292 -1.1289
 3072SOL    HW220679   4.201   2.532  12.996  0.4966  1.4331  0.5366
 3073SOL     OW20680   3.557   3.452   5.207  0.0440 -0.3526  0.0829
 3073SOL    HW120681   3.557   3.364   5.244  1.8317  0.0636  1.0485
 3073SOL    HW220682   3.599   3.501   5.277 -3.0061 -0.1377  1.7435
 3074SOL     OW20683   2.438   3.960  15.843  0.1419  0.2931 -0.2466
 3074SOL    HW120684   2.379   3.887  15.862  1.6585 -0.6508  0.7900
 3074SOL    HW220685   2.518   3.909  15.837 -0.6902 -0.6545 -3.2225
 3075SOL     OW20686   2.149   2.881   6.162  0.0015  0.0992 -0.4824
 3075SOL    HW120687   2.226   2.854   6.211 -0.1964  0.6436  0.1292
 3075SOL    HW220688   2.096   2.803   6.175  2.0650 -1.5932 -2.1509
 3076SOL     OW20689   1.859   4.264  16.131  0.8552  0.3399 -0.1570
 3076SOL    HW120690   1.916   4.314  16.189  0.8430  1.7572 -1.3454
 3076SOL    HW220691   1.897   4.180  16.105  1.7489  0.8262 -0.4476
 3077SOL     OW20692   1.345   3.744   5.420 -0.5449  0.3594  0.1336
 3077SOL    HW120693   1.390   3.695   5.490  0.7476  1.1654 -0.1278
 3077SOL    HW220694   1.357   3.683   5.348  0.4268 -1.3842  1.7591
 3078SOL     OW20695   1.493   0.066   8.899 -0.2842 -0.3111 -0.5094
 3078SOL    HW120696   1.416   0.012   8.882  0.7495 -1.9473 -0.0546
 3078SOL    HW220697   1.500   0.057   8.994  0.7686 -2.6143 -0.7997
 3079SOL     OW20698   4.197   4.002   4.996 -0.5587  0.3291 -0.8090
 3079SOL    HW120699   4.249   4.074   5.032 -0.1761  0.0059 -0.7088
 3079SOL    HW220700   4.250   3.922   5.004 -1.0096  0.0509 -0.6081
 3080SOL     OW20701   0.874   1.409  14.796 -0.5075 -0.1258  0.0560
 3080SOL    HW120702   0.780   1.427  14.799 -0.7878 -1.4477 -0.6444
 3080SOL    HW220703   0.881   1.342  14.863  0.5742 -0.3175 -0.2484
 3081SOL     OW20704   2.186   0.143   3.144 -0.7209 -0.0560  0.0437
 3081SOL    HW120705   2.239   0.064   3.153  0.0440  0.2054 -2.2922
 3081SOL    HW220706   2.100   0.101   3.150  0.0455 -1.4067  1.5034
 3082SOL     OW20707   3.354   2.485   3.650 -0.0594  0.3230  0.0429
 3082SOL    HW120708   3.440   2.466   3.687 -0.3945 -1.7474 -0.2782
 3082SOL    HW220709   3.337   2.394   3.626 -2.4788  0.3509  1.6981
 3083SOL     OW20710   1.090   0.030   5.498  0.1882 -0.1122 -0.2179
 3083SOL    HW120711   1.013   4.706   5.464 -0.1618 -0.9489  1.6602
 3083SOL    HW220712   1.162   4.707   5.453 -1.1437 -1.2787 -1.2186
 3084SOL     OW20713   1.916   3.946   3.344  0.0800 -0.4552  0.4811
 3084SOL    HW120714   1.829   3.979   3.321  0.3893  0.5481  0.7258
 3084SOL    HW220715   1.963   4.000   3.280 -1.6742 -2.6859 -2.7151
 3085SOL     OW20716   4.246   4.355   2.914 -0.2062  0.4298  0.0769
 3085SOL    HW120717   4.206   4.280   2.870  0.5359 -1.0848  1.9780
 3085SOL    HW220718   4.336   4.362   2.885 -0.7565  1.4426 -1.3989
 3086SOL     OW20719   1.502   1.507   7.056 -0.3603  1.1772 -0.0194
 3086SOL    HW120720   1.532   1.595   7.076 -0.0813  0.7656  1.3764
 3086SOL    HW220721   1.486   1.473   7.144 -2.4317 -0.2815 -0.9342
 3087SOL     OW20722   3.286   0.835  13.018 -0.1303  0.0568  0.3821
 3087SOL    HW120723   3.271   0.744  13.044  3.7843 -0.9674 -1.1074
 3087SOL    HW220724   3.326   0.862  13.101  0.7468 -0.4264  0.1096
 3088SOL     OW20725   0.292   0.422   6.369  0.1666 -0.6065 -0.5200
 3088SOL    HW120726   0.357   0.405   6.301  1.1272 -3.4452  1.1112
 3088SOL    HW220727   0.240   0.342   6.366 -0.7778 -0.0041 -0.0671
 3089SOL     OW20728   0.669   4.450  17.508 -0.0434 -0.0031  0.4249
 3089SOL    HW120729   0.602   4.390  17.477 -2.1523  1.6149  1.8843
 3089SOL    HW220730   0.723   4.380  17.543  0.0011 -1.4398 -2.5266
 3090SOL     OW20731   2.752   3.882  10.890  0.0452 -0.0621  0.1252
 3090SOL    HW120732   2.683   3.816  10.884  0.9236 -0.8557 -1.0761
 3090SOL    HW220733   2.829   3.830  10.870  0.0898 -0.2221  0.7247
 3091SOL     OW20734   0.820   0.565  15.202  0.7522 -0.6530 -0.5629
 3091SOL    HW120735   0.796   0.597  15.289  1.6850 -1.1321 -0.1282
 3091SOL    HW220736   0.745   0.591  15.150  0.7177  2.6877  1.1781
 3092SOL     OW20737   4.292   1.424   6.808  0.0594 -0.0194  0.6583
 3092SOL    HW120738   4.206   1.407   6.769  0.5439 -1.6681  0.3030
 3092SOL    HW220739   4.294   1.518   6.827 -1.0874 -0.1540  1.4369
 3093SOL     OW20740   0.609   1.399   5.540 -0.5474 -0.5529 -0.2063
 3093SOL    HW120741   0.671   1.454   5.493 -0.2919 -0.2728  0.4594
 3093SOL    HW220742   0.618   1.312   5.502 -0.3748 -0.8333  0.4722
 3094SOL     OW20743   1.828   1.472   6.415 -0.2300 -0.8440 -0.7573
 3094SOL    HW120744   1.833   1.412   6.341 -1.8007 -0.5471 -1.1005
 3094SOL    HW220745   1.919   1.476   6.442 -0.4208 -2.5193  0.1433
 3095SOL     OW20746   3.860   1.844   5.571  0.0302  0.1306  0.3091
 3095SOL    HW120747   3.867   1.916   5.634 -2.3905  0.5172  0.1274
 3095SOL    HW220748   3.767   1.827   5.554 -0.2782  2.4967 -0.4135
 3096SOL     OW20749   1.589   1.017   4.373 -0.2136 -0.5282 -0.6159
 3096SOL    HW120750   1.675   1.006   4.413 -0.3548 -0.7829 -0.3823
 3096SOL    HW220751   1.584   0.943   4.312  0.5901 -0.4608 -0.7723
 3097SOL     OW20752   3.784   3.377   1.601  0.4128 -0.4689  0.8302
 3097SOL    HW120753   3.820   3.324   1.672  0.1636  0.0388  1.3423
 3097SOL    HW220754   3.734   3.437   1.656 -1.4196  0.8762 -2.3049
 3098SOL     OW20755   2.058   1.622   3.537 -0.0370  0.4044  0.1866
 3098SOL    HW120756   2.061   1.703   3.485  1.1441 -0.4130 -1.0228
 3098SOL    HW220757   1.963   1.618   3.538 -0.0024 -0.2906  0.1575
 3099SOL     OW20758   1.981   4.507  15.391  0.1692  0.0047  0.2716
 3099SOL    HW120759   2.072   4.479  15.405  0.8767  2.0001 -0.3573
 3099SOL    HW220760   1.977   4.594  15.430  1.0478  0.6934 -1.1877
 3100SOL     OW20761   3.894   3.821   3.605  0.5123  0.1095 -0.9149
 3100SOL    HW120762   3.932   3.803   3.691 -2.5493  0.1457  0.4542
 3100SOL    HW220763   3.930   3.748   3.555 -1.0999 -1.1260 -0.2845
 3101SOL     OW20764   4.042   1.969   7.732  0.3599 -0.1646  0.2008
 3101SOL    HW120765   4.072   1.880   7.750 -1.5075 -1.3238 -2.3948
 3101SOL    HW220766   4.082   2.022   7.801 -1.0906  1.9101 -0.5336
 3102SOL     OW20767   1.924   0.566   5.066  0.7020 -0.8673  0.9072
 3102SOL    HW120768   1.883   0.504   5.007  0.1654 -0.7685  1.1711
 3102SOL    HW220769   1.982   0.605   5.001 -0.5777 -0.3224  0.0915
 3103SOL     OW20770   0.829   3.211  11.474 -0.2486  0.6385  0.1138
 3103SOL    HW120771   0.815   3.157  11.397 -0.3724  0.3899  0.3089
 3103SOL    HW220772   0.878   3.141  11.518 -2.6483 -2.6337 -2.3596
 3104SOL     OW20773   1.787   1.072  10.384  0.4908 -0.0187  0.0675
 3104SOL    HW120774   1.755   1.011  10.317 -0.0831 -0.2529  0.5544
 3104SOL    HW220775   1.870   1.031  10.408  0.7315 -1.2199 -2.7027
 3105SOL     OW20776   4.542   0.486   6.123  0.0403  0.0263 -0.0008
 3105SOL    HW120777   4.523   0.419   6.057  0.6093 -0.4890  0.3602
 3105SOL    HW220778   4.534   0.449   6.211  1.8706  4.7508  2.1379
 3106SOL     OW20779   3.714   3.785   5.819 -0.5566 -0.6805 -0.3181
 3106SOL    HW120780   3.679   3.696   5.824 -1.4266 -0.2637  0.9859
 3106SOL    HW220781   3.745   3.805   5.907 -0.1721 -1.6018 -0.2455
 3107SOL     OW20782   4.197   1.856   7.034  0.0925  0.2651  0.2073
 3107SOL    HW120783   4.211   1.791   6.965 -1.9021 -0.7017  0.7077
 3107SOL    HW220784   4.253   1.817   7.100 -0.0947 -2.7046 -1.3907
 3108SOL     OW20785   1.303   1.835   4.344  0.7341  0.6709  0.1085
 3108SOL    HW120786   1.391   1.829   4.305  0.5551  0.1478 -0.2098
 3108SOL    HW220787   1.297   1.761   4.404  0.9346  0.6728  0.1307
 3109SOL     OW20788   1.209   3.840  11.221 -0.4043 -0.1904 -0.2930
 3109SOL    HW120789   1.165   3.830  11.136  0.4454 -1.6901 -0.5584
 3109SOL    HW220790   1.296   3.857  11.185 -0.9385  0.8087 -1.0873
 3110SOL     OW20791   3.804   4.550   5.615  0.0815  0.1068 -0.2071
 3110SOL    HW120792   3.777   4.491   5.545 -1.0425 -0.4954  0.7233
 3110SOL    HW220793   3.764   4.633   5.587 -0.8103  0.4783  2.1752
 3111SOL     OW20794   1.943   0.113  14.733 -0.2897 -0.0697  0.2945
 3111SOL    HW120795   1.862   0.154  14.701 -0.0233  1.6304  1.8455
 3111SOL    HW220796   1.910   0.082  14.817 -1.7927 -2.1319 -1.0504
 3112SOL     OW20797   0.140   1.157   3.880 -0.0500 -0.2860  0.2803
 3112SOL    HW120798   0.193   1.100   3.824 -1.0000  0.4048 -1.3259
 3112SOL    HW220799   0.057   1.108   3.877  1.5529 -2.9889 -0.3083
 3113SOL     OW20800   0.622   2.761   4.406  0.2497  0.0894 -0.6523
 3113SOL    HW120801   0.694   2.779   4.347  0.0074  0.2444 -0.8996
 3113SOL    HW220802   0.560   2.720   4.346 -3.5213  3.4753  0.9237
 3114SOL     OW20803   0.071   1.039   6.839  0.1359  0.4425  0.2424
 3114SOL    HW120804   0.148   1.076   6.796  0.6337 -0.9193 -0.0385
 3114SOL    HW220805   0.079   0.947   6.813  0.2020 -0.0892  2.1056
 3115SOL     OW20806   3.838   2.542   6.679  0.4793  0.7955  0.3090
 3115SOL    HW120807   3.890   2.588   6.613  0.0075 -1.8897 -1.9160
 3115SOL    HW220808   3.897   2.471   6.705 -1.0919 -0.2797  1.0052
 3116SOL     OW20809   1.536   4.628   2.403 -0.4907  0.1345 -1.2078
 3116SOL    HW120810   1.466   4.654   2.343 -1.2996 -1.7655 -1.0737
 3116SOL    HW220811   1.604   4.586   2.350 -0.6405 -0.5034 -0.8875
 3117SOL     OW20812   0.164   4.260   0.603  0.2484 -0.7739  0.0382
 3117SOL    HW120813   0.100   4.272   0.533  1.2156 -1.1735 -0.9105
 3117SOL    HW220814   0.106   4.209   0.661 -0.6044 -0.9708 -0.9899
 3118SOL     OW20815   4.249   2.486   1.745 -0.6332  0.1279 -0.2417
 3118SOL    HW120816   4.189   2.470   1.817  2.3332 -0.4744  2.0976
 3118SOL    HW220817   4.303   2.556   1.780 -1.2137  0.0377  0.8312
 3119SOL     OW20818   0.564   3.782  14.115  0.4136 -0.0350  0.0862
 3119SOL    HW120819   0.547   3.841  14.189 -0.5598 -0.1383 -0.0513
 3119SOL    HW220820   0.580   3.708  14.174  0.5178  0.3877  0.5889
 3120SOL     OW20821   4.512   2.090  15.596 -0.4319 -0.1238  0.1386
 3120SOL    HW120822   4.591   2.047  15.630  0.5216  1.8039  0.3157
 3120SOL    HW220823   4.456   2.012  15.597  1.4817 -1.4982  0.9151
 3121SOL     OW20824   1.716   1.907   6.267 -0.2884  0.8801  0.1149
 3121SOL    HW120825   1.713   1.848   6.342 -0.8233  0.2316 -0.4091
 3121SOL    HW220826   1.809   1.919   6.249  0.2103 -2.0013  0.8037
 3122SOL     OW20827   3.606   3.559   4.615 -0.2145 -0.4963  0.7117
 3122SOL    HW120828   3.521   3.581   4.652 -0.9612  1.3809 -2.1031
 3122SOL    HW220829   3.567   3.528   4.533  0.2856 -1.9077  1.0095
 3123SOL     OW20830   2.646   1.964   2.809 -0.4523  0.6693  0.6196
 3123SOL    HW120831   2.580   1.903   2.774 -0.4077  0.7770  0.3489
 3123SOL    HW220832   2.640   2.021   2.733 -1.2320  3.0260  2.4372
 3124SOL     OW20833   1.101   4.416   3.897  0.3727 -0.4276 -0.0436
 3124SOL    HW120834   1.055   4.337   3.871 -0.3416  0.1671 -0.5950
 3124SOL    HW220835   1.033   4.445   3.958  0.7597  0.6384 -0.1023
 3125SOL     OW20836   3.626   2.035   8.512 -0.1551  0.4685 -0.0349
 3125SOL    HW120837   3.539   2.006   8.540 -0.8183  0.9540 -1.5953
 3125SOL    HW220838   3.628   2.113   8.568  0.0233  1.2497 -1.1240
 3126SOL     OW20839   0.655   3.228   7.672 -0.3200 -0.0074 -0.2521
 3126SOL    HW120840   0.707   3.309   7.677  0.8173 -0.6541 -1.4828
 3126SOL    HW220841   0.680   3.202   7.761 -3.1776  0.7582  0.7725
 3127SOL     OW20842   1.650   0.325   4.712 -0.0453 -0.0532  0.2068
 3127SOL    HW120843   1.626   0.347   4.622 -1.5899  2.0831  1.1331
 3127SOL    HW220844   1.638   0.231   4.726 -0.6298 -0.2300 -1.4362
 3128SOL     OW20845   2.611   2.730   5.277  0.1671 -0.2497  0.1027
 3128SOL    HW120846   2.688   2.697   5.232 -0.4649  0.0196 -1.1817
 3128SOL    HW220847   2.594   2.816   5.238 -0.9947 -0.3686  0.3319
 3129SOL     OW20848   1.692   4.674   6.732 -0.4863  0.1923  0.0949
 3129SOL    HW120849   1.761   4.647   6.671 -0.9252 -1.5742  0.3793
 3129SOL    HW220850   1.747   4.697   6.806  1.3097  1.9417 -1.7717
 3130SOL     OW20851   3.900   1.511   3.132  0.1060 -0.1694  0.2302
 3130SOL    HW120852   3.881   1.514   3.039 -0.1825  0.3838  0.3023
 3130SOL    HW220853   3.812   1.502   3.169  0.7074 -1.0592  1.4420
 3131SOL     OW20854   4.098   3.330   6.827 -0.2556 -0.0327  0.1305
 3131SOL    HW120855   4.124   3.384   6.902  0.2497 -0.8596  0.5548
 3131SOL    HW220856   4.187   3.315   6.797 -0.1286 -1.1944  1.0493
 3132SOL     OW20857   2.089   3.385   7.443  0.2118 -0.1616 -0.4681
 3132SOL    HW120858   2.051   3.331   7.374  1.6549 -0.0448 -1.3527
 3132SOL    HW220859   2.059   3.471   7.413 -1.3603 -1.2748 -2.1189
 3133SOL     OW20860   1.917   4.462  16.554 -0.5967  0.0146  0.0766
 3133SOL    HW120861   1.872   4.445  16.637 -0.7551 -3.5501 -0.7795
 3133SOL    HW220862   1.915   4.558  16.550 -2.0542 -0.0395 -0.3613
 3134SOL     OW20863   1.481   2.955  10.874 -0.2331  0.1738 -0.1653
 3134SOL    HW120864   1.545   2.960  10.802 -0.4446 -0.5002 -0.3998
 3134SOL    HW220865   1.398   2.953  10.826 -0.9203 -1.4574  1.0946
 3135SOL     OW20866   4.269   1.929  17.668  0.1155  0.0997  0.4012
 3135SOL    HW120867   4.325   1.851  17.669 -0.7510 -0.5255 -0.2929
 3135SOL    HW220868   4.292   1.959  17.580  1.6854 -0.3652  0.6383
 3136SOL     OW20869   0.423   1.822   9.106 -0.4135 -0.2918  0.1196
 3136SOL    HW120870   0.397   1.739   9.145  0.8793 -0.9799 -0.4828
 3136SOL    HW220871   0.473   1.787   9.032 -1.6412 -0.2007 -0.7532
 3137SOL     OW20872   0.881   1.225   2.896  0.1050  0.0277  0.3018
 3137SOL    HW120873   0.932   1.192   2.822 -1.3081  1.7560 -1.4455
 3137SOL    HW220874   0.956   1.237   2.954  0.5106  1.6307 -0.5612
 3138SOL     OW20875   2.232   3.267   7.797 -0.3343 -1.1183  0.1844
 3138SOL    HW120876   2.243   3.236   7.887 -0.9567  2.0785  1.3516
 3138SOL    HW220877   2.256   3.187   7.749  1.9461  0.6158 -1.5931
 3139SOL     OW20878   0.165   1.882   6.241 -0.2953  0.8526  0.6817
 3139SOL    HW120879   0.115   1.801   6.232  0.7403  0.2114  0.6943
 3139SOL    HW220880   0.255   1.850   6.232 -0.0652  2.1890 -1.6228
 3140SOL     OW20881   3.843   3.444  10.404  0.1724 -0.7319  0.2534
 3140SOL    HW120882   3.851   3.481  10.316 -1.5044 -0.8785  0.0466
 3140SOL    HW220883   3.873   3.355  10.386  0.4142 -0.2006 -1.9267
 3141SOL     OW20884   0.424   0.620   3.618  0.1740  0.4530 -0.1735
 3141SOL    HW120885   0.348   0.646   3.566 -1.2777 -3.7169 -0.1218
 3141SOL    HW220886   0.429   0.529   3.589  0.8145  0.3705  0.1966
 3142SOL     OW20887   0.440   1.045   5.922  0.0173 -0.1711 -0.1011
 3142SOL    HW120888   0.450   1.099   5.844  1.1933 -0.4494 -0.1423
 3142SOL    HW220889   0.531   1.021   5.934  0.6235  2.5188  0.7613
 3143SOL     OW20890   0.329   3.547   2.191 -0.4355  0.0769 -0.1460
 3143SOL    HW120891   0.303   3.455   2.195  1.4818 -0.3784  1.9154
 3143SOL    HW220892   0.295   3.589   2.269 -0.1175 -0.0019  0.0377
 3144SOL     OW20893   0.523   3.690  10.778 -0.4001  0.2315 -0.2824
 3144SOL    HW120894   0.501   3.642  10.857  0.4247  1.0721  0.4586
 3144SOL    HW220895   0.461   3.763  10.780 -1.2414 -0.5037 -0.1139
 3145SOL     OW20896   0.167   1.023   3.451 -0.1519 -0.0218 -0.1129
 3145SOL    HW120897   0.252   1.060   3.476 -0.3145  0.1288  0.2289
 3145SOL    HW220898   0.129   1.084   3.388 -0.0927  1.5645  1.3882
 3146SOL     OW20899   0.816   3.204   2.501  0.2608  0.0345  0.4266
 3146SOL    HW120900   0.881   3.262   2.541  1.4324 -1.8620  1.2815
 3146SOL    HW220901   0.851   3.219   2.413  2.1287  0.9360  1.3017
 3147SOL     OW20902   0.507   2.884  13.627 -0.3822  0.0169 -0.6785
 3147SOL    HW120903   0.468   2.796  13.628 -0.3997  0.0080 -1.8432
 3147SOL    HW220904   0.462   2.914  13.548 -0.0860 -0.6804 -1.1167
 3148SOL     OW20905   0.605   1.229   5.150  0.3127 -0.6037  0.1791
 3148SOL    HW120906   0.584   1.174   5.074 -1.2275  1.4965 -0.9242
 3148SOL    HW220907   0.525   1.270   5.184  0.1651  0.6762 -1.7342
 3149SOL     OW20908   3.666   1.501   9.398 -0.0555 -0.4978  0.1217
 3149SOL    HW120909   3.632   1.550   9.473 -1.4055 -1.1324 -0.0730
 3149SOL    HW220910   3.591   1.508   9.339 -0.7930 -1.7584  0.9066
 3150SOL     OW20911   0.707   0.282  15.137 -0.0914  0.8809  0.5305
 3150SOL    HW120912   0.755   0.354  15.178 -0.5275  1.0534  0.7339
 3150SOL    HW220913   0.723   0.207  15.195  1.7267  0.0923 -0.9795
 3151SOL     OW20914   3.582   1.017  11.815  0.4351  0.9795 -0.1483
 3151SOL    HW120915   3.493   1.022  11.851  0.1332  0.4020 -0.8189
 3151SOL    HW220916   3.555   0.976  11.733 -3.3125  1.4660  0.8429
 3152SOL     OW20917   1.541   4.611   1.422  0.0576  0.8153  0.4303
 3152SOL    HW120918   1.504   4.654   1.500  0.7970  2.6136 -0.2100
 3152SOL    HW220919   1.512   4.671   1.354 -2.8252 -0.5247  0.4710
 3153SOL     OW20920   1.298   0.066  14.636  0.5602  0.1052 -0.3807
 3153SOL    HW120921   1.222   0.035  14.587 -0.5043  0.2203  1.2280
 3153SOL    HW220922   1.297   0.161  14.625  0.5770  0.1154 -0.2944
 3154SOL     OW20923   1.743   2.985   4.388  0.2382 -0.5885 -0.5010
 3154SOL    HW120924   1.789   3.026   4.315  0.2897  1.1307  0.4983
 3154SOL    HW220925   1.782   3.019   4.469  2.0024 -2.5961 -0.5127
 3155SOL     OW20926   1.391   2.719  14.131 -0.1088 -0.5498  0.1675
 3155SOL    HW120927   1.385   2.691  14.223  0.9094  3.9160  1.5590
 3155SOL    HW220928   1.484   2.737  14.122 -0.2553 -0.1645 -0.5978
 3156SOL     OW20929   3.695   2.084   7.155 -0.4644  0.2269  1.1994
 3156SOL    HW120930   3.734   2.171   7.146  1.9575 -0.7412  2.4226
 3156SOL    HW220931   3.769   2.035   7.189 -1.7933 -2.3503  0.4373
 3157SOL     OW20932   1.628   3.446   4.827  0.3371  0.3563  0.1820
 3157SOL    HW120933   1.620   3.411   4.738 -0.6546  0.3717  0.2543
 3157SOL    HW220934   1.553   3.506   4.829  0.5498  0.6360 -0.1654
 3158SOL     OW20935   2.551   2.261   5.379 -0.4012 -0.5213 -0.0394
 3158SOL    HW120936   2.469   2.214   5.363  0.3673 -1.5682 -0.9020
 3158SOL    HW220937   2.575   2.286   5.290 -0.5835  1.3201  0.4353
 3159SOL     OW20938   1.842   0.369  12.679  0.1563  0.0665  0.3357
 3159SOL    HW120939   1.859   0.461  12.700 -0.6909  0.6563 -1.5366
 3159SOL    HW220940   1.750   0.390  12.659 -0.0369 -1.8357 -0.7773
 3160SOL     OW20941   4.632   1.320   9.663 -0.0942 -0.0350  1.2050
 3160SOL    HW120942   4.648   1.338   9.756 -0.4164  0.5421  1.1525
 3160SOL    HW220943   4.702   1.363   9.614 -0.8241 -1.5512 -1.1621
 3161SOL     OW20944   3.709   3.013   5.712 -0.2553 -0.2428 -0.2031
 3161SOL    HW120945   3.803   2.997   5.711 -0.0623  0.9020 -0.6603
 3161SOL    HW220946   3.678   2.945   5.771  1.7302 -1.6378 -0.7766
 3162SOL     OW20947   4.149   4.384   1.475  0.8440 -0.0977 -0.4699
 3162SOL    HW120948   4.104   4.300   1.482  0.1509  0.1061 -2.3404
 3162SOL    HW220949   4.141   4.404   1.382  0.3397 -1.3944 -0.7090
 3163SOL     OW20950   0.473   3.199  16.241 -0.5837 -0.2462  0.2191
 3163SOL    HW120951   0.455   3.282  16.197  0.6348 -0.0365  0.1094
 3163SOL    HW220952   0.392   3.154  16.217 -0.4950 -0.3947  0.1939
 3164SOL     OW20953   2.278   0.850   2.308 -0.3773  0.0258 -0.3075
 3164SOL    HW120954   2.234   0.891   2.382 -0.4703  2.2453 -1.6159
 3164SOL    HW220955   2.368   0.843   2.340 -1.0979  0.6577  1.8879
 3165SOL     OW20956   0.397   1.088   1.292 -0.3982 -0.4308 -0.2372
 3165SOL    HW120957   0.472   1.124   1.246 -0.0695 -0.5071  0.2356
 3165SOL    HW220958   0.418   0.995   1.293  1.5618  0.0248  2.2973
 3166SOL     OW20959   2.900   1.498   8.321  0.1015 -0.4773 -0.3724
 3166SOL    HW120960   2.869   1.496   8.231  1.7419  0.1744 -0.9558
 3166SOL    HW220961   2.951   1.417   8.316 -0.6261 -0.9523 -0.1864
 3167SOL     OW20962   4.530   1.465   4.774  0.0368 -0.5261  0.1707
 3167SOL    HW120963   4.444   1.443   4.811 -0.0062 -0.1096  0.3154
 3167SOL    HW220964   4.584   1.483   4.851 -0.0967 -0.3994  0.2335
 3168SOL     OW20965   0.157   2.144   6.222  0.2236 -0.2566  0.2825
 3168SOL    HW120966   0.103   2.149   6.143  0.1860  1.9219  0.4302
 3168SOL    HW220967   0.168   2.049   6.227 -1.5566 -0.4309  1.3460
 3169SOL     OW20968   4.643   3.313   8.654 -0.4825 -0.2984  0.3783
 3169SOL    HW120969   4.576   3.245   8.645 -0.0566 -0.7762  0.8099
 3169SOL    HW220970   4.711   3.300   8.588 -0.8340  1.8858 -0.3871
 3170SOL     OW20971   3.990   3.988   8.694 -0.7121  0.4063  0.2132
 3170SOL    HW120972   4.074   3.959   8.730 -1.7159 -0.3880  1.9281
 3170SOL    HW220973   3.988   4.082   8.709 -0.7804  0.5086 -0.4243
 3171SOL     OW20974   2.925   1.243   1.130 -0.8074 -0.0348  0.4366
 3171SOL    HW120975   2.942   1.150   1.114  0.7244  0.5820 -1.4138
 3171SOL    HW220976   2.950   1.273   1.043  0.2693  1.4497  1.2516
 3172SOL     OW20977   2.311   4.224  14.117  0.1543 -0.0916 -0.1897
 3172SOL    HW120978   2.216   4.234  14.121  0.4300  1.6352  1.6303
 3172SOL    HW220979   2.342   4.261  14.199  1.3051 -1.6280  0.0916
 3173SOL     OW20980   4.242   0.386   8.234  0.3760  0.2673  0.1040
 3173SOL    HW120981   4.288   0.419   8.157  0.0271 -1.0194 -0.6589
 3173SOL    HW220982   4.215   0.303   8.195 -0.0372  0.0985  0.7401
 3174SOL     OW20983   4.506   3.177  13.373 -0.0159  0.3963 -0.3042
 3174SOL    HW120984   4.590   3.223  13.377  1.6755 -2.6515 -0.7961
 3174SOL    HW220985   4.540   3.122  13.303  0.1925  0.1627 -0.0178
 3175SOL     OW20986   1.155   4.497   2.389  0.3356  0.1733  0.3300
 3175SOL    HW120987   1.214   4.565   2.357 -3.9787  4.0023  0.5118
 3175SOL    HW220988   1.089   4.490   2.320  2.5490 -1.3399 -1.6016
 3176SOL     OW20989   2.570   4.608  14.851  0.2627 -0.5764  0.1837
 3176SOL    HW120990   2.538   4.518  14.848  0.8693 -0.7755 -0.1920
 3176SOL    HW220991   2.660   4.612  14.820 -0.7035 -0.8771 -2.6551
 3177SOL     OW20992   4.445   2.488  11.311  0.3513 -0.1817  0.7038
 3177SOL    HW120993   4.526   2.441  11.327  1.0976  0.6226 -0.6532
 3177SOL    HW220994   4.483   2.536  11.237 -0.9984  1.9659  1.3800
 3178SOL     OW20995   1.662   3.006   7.160  0.0384  0.7770 -0.1367
 3178SOL    HW120996   1.642   2.918   7.127  0.9060  0.7207 -0.5186
 3178SOL    HW220997   1.604   3.053   7.100  1.0036  2.6841  0.4252
 3179SOL     OW20998   4.391   4.309   8.304 -0.3353 -0.5627 -0.1789
 3179SOL    HW120999   4.395   4.331   8.211  2.5805 -0.9397 -0.1367
 3179SOL    HW221000   4.303   4.336   8.330  0.5410 -0.8596  3.1028
 3180SOL     OW21001   0.596   2.321   0.121  0.6290  0.0263 -0.1533
 3180SOL    HW121002   0.557   2.409   0.121 -1.2386 -0.7927 -3.1360
 3180SOL    HW221003   0.681   2.362   0.106  1.2481 -0.7365  1.2416
 3181SOL     OW21004   3.818   0.370  13.360  0.8762  0.7387 -0.4602
 3181SOL    HW121005   3.835   0.442  13.299 -0.4651  0.9385 -0.6072
 3181SOL    HW221006   3.744   0.332  13.312 -1.3414 -0.2593  3.7795
 3182SOL     OW21007   0.515   2.574   9.325 -0.3319  0.0639  0.0305
 3182SOL    HW121008   0.495   2.481   9.322 -0.7607  0.2297 -1.8385
 3182SOL    HW221009   0.596   2.571   9.375  0.2415  1.7954 -0.7734
 3183SOL     OW21010   3.684   0.941   8.705  0.3550  0.3981  0.0403
 3183SOL    HW121011   3.624   0.878   8.745 -0.3308 -0.8058 -2.8584
 3183SOL    HW221012   3.766   0.891   8.711  0.0797 -0.4183 -3.1081
 3184SOL     OW21013   2.880   4.024  14.062 -0.6683 -0.2676  0.3886
 3184SOL    HW121014   2.956   4.069  14.025 -0.4285 -0.9479  0.0312
 3184SOL    HW221015   2.816   4.095  14.065  1.5524  1.6364  2.7327
 3185SOL     OW21016   0.366   4.267   8.481  0.2502 -0.1832 -0.2808
 3185SOL    HW121017   0.332   4.250   8.393  1.4043 -0.0282 -0.7604
 3185SOL    HW221018   0.287   4.307   8.516 -1.0459 -3.9772  1.1089
 3186SOL     OW21019   0.302   2.878   6.699 -0.2404  0.0534  0.1544
 3186SOL    HW121020   0.281   2.941   6.631 -1.2849  0.0417  0.4642
 3186SOL    HW221021   0.331   2.933   6.772 -0.0508  0.8838 -0.5514
 3187SOL     OW21022   1.768   2.863   7.815 -0.3155 -0.3592 -0.3435
 3187SOL    HW121023   1.811   2.902   7.739  2.6289 -1.2174  0.8488
 3187SOL    HW221024   1.848   2.863   7.868 -1.1331 -1.3541  0.9105
 3188SOL     OW21025   4.131   4.127  16.663 -0.5401 -0.7123  0.1282
 3188SOL    HW121026   4.186   4.098  16.735 -0.9206 -3.2960 -0.6418
 3188SOL    HW221027   4.196   4.149  16.597 -1.5889 -1.0272 -1.0052
 3189SOL     OW21028   1.609   3.377   7.497 -0.2124 -0.2171  0.7621
 3189SOL    HW121029   1.654   3.343   7.574 -2.7538 -0.0075  2.3519
 3189SOL    HW221030   1.647   3.465   7.486  0.4251 -0.5889  0.0225
 3190SOL     OW21031   1.605   1.359   6.790  0.3751 -0.0725  0.5366
 3190SOL    HW121032   1.528   1.378   6.737  1.6502  2.3557 -0.4530
 3190SOL    HW221033   1.589   1.403   6.874 -0.6349  1.0495 -0.2443
 3191SOL     OW21034   4.623   3.537  16.327 -0.5634 -0.1791 -0.3098
 3191SOL    HW121035   4.712   3.573  16.329 -0.8973  0.7748 -3.3224
 3191SOL    HW221036   4.608   3.554  16.234 -1.8994 -2.3151 -0.4735
 3192SOL     OW21037   4.351   3.095  14.458  0.1771 -0.4035  0.6449
 3192SOL    HW121038   4.391   3.053  14.534  0.7182 -2.4394 -0.7551
 3192SOL    HW221039   4.358   3.184  14.491 -2.3930 -0.3551  1.0471
 3193SOL     OW21040   1.491   4.431   2.045  0.3855  0.1088 -0.0826
 3193SOL    HW121041   1.545   4.466   1.974  1.5050 -1.8381 -0.1723
 3193SOL    HW221042   1.555   4.377   2.091 -0.1447  0.8350  1.5246
 3194SOL     OW21043   0.086   1.632   6.290  0.3221 -0.8117 -0.0730
 3194SOL    HW121044   0.155   1.569   6.308  2.5416  1.7557  0.3871
 3194SOL    HW221045   0.052   1.601   6.206 -2.6466 -1.3572  1.3267
 3195SOL     OW21046   3.894   0.435  17.258 -0.1028  0.0525 -0.0991
 3195SOL    HW121047   3.811   0.403  17.223  0.1957 -0.7783 -0.0381
 3195SOL    HW221048   3.932   0.360  17.305 -1.3994 -0.7618 -0.3590
 3196SOL     OW21049   1.137   0.511   0.102 -0.1250 -0.3291  0.1503
 3196SOL    HW121050   1.082   0.583   0.133 -0.8671 -0.1573 -1.5323
 3196SOL    HW221051   1.090   0.429   0.115 -1.3466  0.0310 -1.9647
 3197SOL     OW21052   1.837   3.930   5.437  0.2167  0.9194  0.0964
 3197SOL    HW121053   1.837   3.864   5.367  1.5561 -1.9886  2.8280
 3197SOL    HW221054   1.821   4.012   5.390  0.3095 -0.0672 -1.6553
 3198SOL     OW21055   4.691   0.804   5.788  0.0715 -0.3663  0.2393
 3198SOL    HW121056   4.676   0.898   5.787  0.4515 -0.3037  0.6875
 3198SOL    HW221057   0.058   0.808   5.825 -0.1764 -3.1693  1.1088
 3199SOL     OW21058   0.665   4.248   3.800  0.5228  0.2509  0.2126
 3199SOL    HW121059   0.760   4.249   3.798  0.5449  1.7651  2.0971
 3199SOL    HW221060   0.654   4.159   3.832 -0.6744  0.5799  0.7169
 3200SOL     OW21061   1.570   2.449  14.187 -0.6243 -0.1546 -0.5543
 3200SOL    HW121062   1.482   2.428  14.156 -0.6082 -0.5549 -0.3327
 3200SOL    HW221063   1.544   2.486  14.272  0.0676  1.7352 -1.1628
 3201SOL     OW21064   0.877   2.807   5.255 -0.1164 -0.3756 -0.6630
 3201SOL    HW121065   0.928   2.744   5.305 -0.0043 -0.7563 -1.2616
 3201SOL    HW221066   0.828   2.751   5.194 -0.8310 -0.4602 -0.0104
 3202SOL     OW21067   0.745   4.685   5.701  0.2085 -0.4923 -0.6019
 3202SOL    HW121068   0.716   0.015   5.778 -1.6407  2.6027 -3.3493
 3202SOL    HW221069   0.785   4.612   5.748 -1.0035  0.0023  1.2178
 3203SOL     OW21070   4.651   1.435   8.030  0.0161 -0.2712 -0.1574
 3203SOL    HW121071   4.585   1.379   7.988 -0.6519 -0.6411  1.3720
 3203SOL    HW221072   4.604   1.473   8.104 -0.1378  0.6897 -0.7586
 3204SOL     OW21073   4.611   4.155   6.359  0.1066  0.5930 -0.3674
 3204SOL    HW121074   4.615   4.198   6.445 -1.7198  2.2830 -1.1113
 3204SOL    HW221075   4.540   4.211   6.326 -0.0783  0.2574 -0.5369
 3205SOL     OW21076   3.592   3.855   2.467  0.0949  0.5247 -0.5833
 3205SOL    HW121077   3.536   3.836   2.392 -0.7850  0.3053  0.1164
 3205SOL    HW221078   3.602   3.763   2.491 -1.6262  0.8806  1.4870
 3206SOL     OW21079   1.238   2.559   0.620 -0.3883 -0.9785 -0.0520
 3206SOL    HW121080   1.244   2.648   0.654  0.7300  0.1007 -3.0141
 3206SOL    HW221081   1.302   2.518   0.678 -0.5677 -1.3171 -0.0943
 3207SOL     OW21082   4.206   0.223   2.768 -0.0473  0.1645  0.2128
 3207SOL    HW121083   4.243   0.307   2.742  0.1334  1.0208  3.2735
 3207SOL    HW221084   4.277   0.166   2.738 -0.4426 -0.2950  0.1394
 3208SOL     OW21085   3.762   3.672   1.196  0.7806 -0.5535 -0.6025
 3208SOL    HW121086   3.781   3.677   1.103 -0.0002 -1.5646 -0.8079
 3208SOL    HW221087   3.835   3.731   1.219 -0.4822 -0.2767  2.7925
 3209SOL     OW21088   2.345   0.735  10.857 -0.4157  0.5201 -0.5519
 3209SOL    HW121089   2.286   0.693  10.794  2.9189 -2.3179 -1.7816
 3209SOL    HW221090   2.286   0.763  10.926  0.1662  0.3248  0.0247
 3210SOL     OW21091   0.416   2.380  16.275 -0.1855 -0.3471  0.6148
 3210SOL    HW121092   0.485   2.333  16.321  0.2127  0.5560  0.9280
 3210SOL    HW221093   0.359   2.384  16.352 -3.4803 -2.8884 -1.6674
 3211SOL     OW21094   0.949   1.833   7.301 -0.4083  0.1240 -0.0834
 3211SOL    HW121095   0.874   1.879   7.338 -0.2106  0.6061 -0.2786
 3211SOL    HW221096   1.019   1.896   7.322 -0.7533  0.7290 -0.7443
 3212SOL     OW21097   0.286   3.906   8.424  0.0190 -0.2193  0.1536
 3212SOL    HW121098   0.226   3.975   8.452  2.0753  0.6979  2.2757
 3212SOL    HW221099   0.327   3.953   8.351 -0.6079  0.3070  0.1402
 3213SOL     OW21100   1.585   4.283  12.549 -0.0866 -0.1730  0.5638
 3213SOL    HW121101   1.598   4.276  12.643 -0.2253  1.3365  0.6893
 3213SOL    HW221102   1.494   4.256  12.543  0.0587 -1.1008  2.7005
 3214SOL     OW21103   4.143   4.400   3.428 -0.1839  0.4862  0.1323
 3214SOL    HW121104   4.164   4.346   3.505 -1.0644 -0.8827 -0.5866
 3214SOL    HW221105   4.102   4.474   3.473  0.6511  0.1987  1.3863
 3215SOL     OW21106   2.856   1.830   2.698 -0.6737 -0.2843 -0.0631
 3215SOL    HW121107   2.801   1.885   2.754  0.8236  2.4194 -1.3014
 3215SOL    HW221108   2.787   1.805   2.636 -0.0740 -2.7763  0.2820
 3216SOL     OW21109   4.012   3.485   6.311 -0.6208 -0.0222  0.5296
 3216SOL    HW121110   4.002   3.392   6.292  2.3993 -0.1748 -0.3243
 3216SOL    HW221111   4.037   3.485   6.403  0.6489 -1.1175  0.1817
 3217SOL     OW21112   2.261   4.642   4.931 -0.4665  0.4706  0.5744
 3217SOL    HW121113   2.352   4.667   4.941  0.5702 -3.3937  0.8646
 3217SOL    HW221114   2.243   4.649   4.837 -0.4429 -0.6932  0.4779
 3218SOL     OW21115   2.998   1.328  10.631 -0.3103 -0.2288  0.7169
 3218SOL    HW121116   3.017   1.316  10.725  0.2968 -2.0045  0.3701
 3218SOL    HW221117   2.974   1.242  10.597 -0.2472 -0.2148  0.6391
 3219SOL     OW21118   4.044   4.240   3.128 -0.5262  0.3195 -0.2462
 3219SOL    HW121119   3.966   4.203   3.085  0.7676 -1.1477 -1.3328
 3219SOL    HW221120   4.088   4.157   3.146  0.8969  1.6041  2.1121
 3220SOL     OW21121   1.191   2.404   4.564 -0.3159  0.1611  0.8893
 3220SOL    HW121122   1.190   2.368   4.653  0.4543  1.1639  1.3063
 3220SOL    HW221123   1.274   2.377   4.526 -0.7978  1.4659 -1.0916
 3221SOL     OW21124   3.302   1.921   2.120  0.7340 -0.3363  0.7111
 3221SOL    HW121125   3.360   1.851   2.093 -0.8993 -1.6971  0.7139
 3221SOL    HW221126   3.286   1.958   2.033 -2.3175  0.0691  1.4188
 3222SOL     OW21127   2.125   3.401  15.197 -0.1099  0.6299  0.1598
 3222SOL    HW121128   2.064   3.338  15.157  0.6840  1.4582 -2.3405
 3222SOL    HW221129   2.213   3.367  15.183 -0.2351 -0.8431  2.7937
 3223SOL     OW21130   1.196   4.396   8.360 -0.3086  0.1090  0.2078
 3223SOL    HW121131   1.276   4.394   8.413 -0.9877 -3.3414  1.0933
 3223SOL    HW221132   1.135   4.431   8.425 -1.4768  1.5320 -1.6506
 3224SOL     OW21133   4.460   1.023  17.314 -0.2831 -0.5512  0.9228
 3224SOL    HW121134   4.396   1.015  17.243 -0.4117  0.3078  0.9394
 3224SOL    HW221135   4.407   0.986  17.385 -2.1303 -1.2091 -0.8103
 3225SOL     OW21136   1.021   4.453   5.752  0.1325  0.4407 -0.1048
 3225SOL    HW121137   1.069   4.457   5.670  1.2689  1.0877  0.5946
 3225SOL    HW221138   0.936   4.423   5.720  0.6922 -0.0032 -1.1635
 3226SOL     OW21139   2.868   2.278   2.839 -0.0319 -0.0085  0.4880
 3226SOL    HW121140   2.890   2.332   2.914  1.8565  1.0757 -0.8660
 3226SOL    HW221141   2.938   2.215   2.853 -0.9001 -1.2997 -0.9362
 3227SOL     OW21142   3.854   2.808   4.873  0.0364  0.1879  0.4126
 3227SOL    HW121143   3.916   2.881   4.882 -0.7074  0.9371 -0.6026
 3227SOL    HW221144   3.798   2.829   4.948 -0.4814  0.5864 -0.0868
 3228SOL     OW21145   2.662   3.354  12.110 -0.1865  0.2434  0.0814
 3228SOL    HW121146   2.678   3.377  12.019 -1.0611 -2.4130 -0.7593
 3228SOL    HW221147   2.749   3.365  12.149  1.4666 -0.8065 -3.3142
 3229SOL     OW21148   2.448   0.862   7.934 -0.0762  0.1877 -0.2307
 3229SOL    HW121149   2.508   0.813   7.990  0.0142  2.4656  1.6367
 3229SOL    HW221150   2.474   0.817   7.854  0.0172 -0.8190  0.3653
 3230SOL     OW21151   1.338   4.374   1.182  0.7348 -0.5253  0.3753
 3230SOL    HW121152   1.332   4.285   1.149  1.6780 -0.4052 -0.1303
 3230SOL    HW221153   1.374   4.421   1.107  1.7443  0.6477  1.5898
 3231SOL     OW21154   3.944   0.130   7.244  0.4670  0.1494  0.4283
 3231SOL    HW121155   3.917   0.089   7.326  0.7229 -2.0949 -0.6199
 3231SOL    HW221156   4.033   0.151   7.274  0.4964 -1.0944  1.2247
 3232SOL     OW21157   0.457   4.295   3.256  0.1517  0.7029 -0.9222
 3232SOL    HW121158   0.471   4.266   3.165  1.7297  0.0848 -0.4900
 3232SOL    HW221159   0.530   4.244   3.291 -0.2137  2.1592  1.9254
 3233SOL     OW21160   2.363   2.632   3.489  0.5850 -0.1335 -0.7346
 3233SOL    HW121161   2.281   2.643   3.440 -0.2845 -0.1593  0.6980
 3233SOL    HW221162   2.368   2.538   3.472 -0.9117 -0.4494  0.5640
 3234SOL     OW21163   0.386   2.233  11.997  0.3609  0.5695 -0.1042
 3234SOL    HW121164   0.377   2.312  11.943 -0.5461  1.8929  1.9789
 3234SOL    HW221165   0.292   2.214  11.995  0.4247  0.0853  1.2480
 3235SOL     OW21166   4.609   2.075   4.219 -0.0558 -0.1922  0.3740
 3235SOL    HW121167   4.644   2.104   4.303  1.1502  0.8430 -0.4787
 3235SOL    HW221168   4.532   2.131   4.216  2.5724  3.3033 -1.6862
 3236SOL     OW21169   2.557   0.127   7.814 -0.0306  0.0781  0.5749
 3236SOL    HW121170   2.602   0.211   7.810  0.5211 -0.2941 -1.0844
 3236SOL    HW221171   2.531   0.122   7.906  1.7963 -0.2422  1.0610
 3237SOL     OW21172   0.999   2.320   2.602 -0.0301 -0.2375 -0.3805
 3237SOL    HW121173   0.937   2.328   2.674  1.5453 -0.5515  1.0082
 3237SOL    HW221174   0.939   2.335   2.530  2.0406  1.1964 -1.8277
 3238SOL     OW21175   3.107   3.781   8.040 -0.0137 -0.0380 -0.3255
 3238SOL    HW121176   3.105   3.700   8.090  0.0190  2.0262  3.0024
 3238SOL    HW221177   3.113   3.844   8.112  1.1128 -0.7040  0.1683
 3239SOL     OW21178   2.748   1.718  17.205  0.4711 -0.1199  0.1272
 3239SOL    HW121179   2.685   1.650  17.230 -0.1822 -0.0999 -1.4689
 3239SOL    HW221180   2.780   1.682  17.122 -1.5984 -0.7517 -0.3995
 3240SOL     OW21181   3.257   1.205   4.439 -0.1122 -0.0951 -0.3904
 3240SOL    HW121182   3.238   1.248   4.355 -0.5182 -0.7055 -0.6070
 3240SOL    HW221183   3.353   1.202   4.443 -0.0640  2.0977  0.0297
 3241SOL     OW21184   2.291   1.088   4.596 -0.7992  0.2073 -0.2586
 3241SOL    HW121185   2.280   1.093   4.691  0.3301  0.2943 -0.1406
 3241SOL    HW221186   2.288   0.993   4.589  0.8685 -0.0226  1.9796
 3242SOL     OW21187   3.829   1.352   5.674 -0.2389 -0.1986 -0.5502
 3242SOL    HW121188   3.883   1.430   5.679  0.0616 -0.5046  0.7385
 3242SOL    HW221189   3.777   1.365   5.753  0.5185  0.1926 -0.1233
 3243SOL     OW21190   3.707   0.505  10.373  0.3669  0.6980 -0.2527
 3243SOL    HW121191   3.688   0.553  10.292  0.4527 -0.8547 -1.1944
 3243SOL    HW221192   3.700   0.576  10.436 -1.0739  0.5098 -0.2173
 3244SOL     OW21193   4.704   0.454  10.809 -0.3102 -0.6457 -0.3552
 3244SOL    HW121194   0.067   0.415  10.785 -0.1312  0.2195 -1.1174
 3244SOL    HW221195   4.711   0.543  10.774 -2.0323 -1.1269 -1.9175
 3245SOL     OW21196   0.495   3.733   8.225  0.0335  0.1683  0.0724
 3245SOL    HW121197   0.512   3.714   8.318  1.2450  0.3734 -0.1164
 3245SOL    HW221198   0.546   3.814   8.221  0.6839 -0.2437  0.0319
 3246SOL     OW21199   1.597   2.247   7.511  0.9174 -0.9086  0.4942
 3246SOL    HW121200   1.681   2.256   7.466  0.3404  0.0581 -0.3811
 3246SOL    HW221201   1.582   2.340   7.529  0.6894 -1.3549  2.6014
 3247SOL     OW21202   4.249   3.034  16.602  0.1756  0.2177  0.6508
 3247SOL    HW121203   4.316   3.004  16.540  0.5739 -1.1815  1.7652
 3247SOL    HW221204   4.303   3.088  16.659  1.2534  0.5793 -0.7090
 3248SOL     OW21205   1.492   3.113  17.178 -0.5669  0.3850  0.1006
 3248SOL    HW121206   1.436   3.167  17.235  1.4214  1.7247  0.7905
 3248SOL    HW221207   1.441   3.111  17.097  0.0039 -2.0191 -0.1800
 3249SOL     OW21208   4.113   4.192   5.324  0.8272  0.5842 -0.1175
 3249SOL    HW121209   4.088   4.123   5.386  2.8944 -0.9319 -0.9683
 3249SOL    HW221210   4.073   4.272   5.356 -0.2223 -0.2912  0.7798
 3250SOL     OW21211   4.368   2.299   2.020 -0.0010  0.2077  0.1714
 3250SOL    HW121212   4.396   2.387   1.993 -0.3236  0.3296  0.2347
 3250SOL    HW221213   4.275   2.289   2.003 -0.1390  0.5067  0.7586
 3251SOL     OW21214   4.581   2.297   6.306 -0.0538  0.7179  0.0434
 3251SOL    HW121215   4.566   2.214   6.262 -0.5434 -0.2669  2.1068
 3251SOL    HW221216   4.612   2.255   6.386 -0.3950  1.8757  0.7827
 3252SOL     OW21217   0.932   0.167   7.727 -0.4692 -0.1987 -0.0276
 3252SOL    HW121218   0.928   0.253   7.687 -2.2799  0.1853  0.9699
 3252SOL    HW221219   0.962   0.192   7.814  0.3642 -0.9290 -0.1086
 3253SOL     OW21220   1.405   2.485   7.692 -0.6991  0.5312 -0.5426
 3253SOL    HW121221   1.379   2.395   7.714 -0.1383  0.1491 -1.4410
 3253SOL    HW221222   1.445   2.472   7.606  0.7860 -1.0504  0.4066
 3254SOL     OW21223   4.388   4.512   2.579 -0.0615 -0.0922 -0.0413
 3254SOL    HW121224   4.409   4.605   2.574 -1.2420  0.3091  2.6633
 3254SOL    HW221225   4.418   4.501   2.669 -0.3999 -0.5497  0.0156
 3255SOL     OW21226   0.246   2.518  11.632 -0.2636  0.1023 -0.1121
 3255SOL    HW121227   0.151   2.530  11.630  0.0247  2.2927 -1.3065
 3255SOL    HW221228   0.261   2.496  11.540 -0.0447 -0.8362  0.1456
 3256SOL     OW21229   1.212   3.993  14.226  0.3057 -0.6314  0.2367
 3256SOL    HW121230   1.305   4.010  14.212 -0.2655  1.9714 -0.3145
 3256SOL    HW221231   1.179   3.928  14.164 -0.7745 -0.1022  0.2523
 3257SOL     OW21232   1.619   2.218  10.332  0.4016 -0.1181  0.3610
 3257SOL    HW121233   1.688   2.168  10.290 -1.4350 -0.8287 -1.8097
 3257SOL    HW221234   1.573   2.158  10.392 -0.6000  0.2737 -0.0092
 3258SOL     OW21235   0.502   2.709   5.285  0.1410  0.3948  0.2660
 3258SOL    HW121236   0.456   2.728   5.366  2.1678 -0.3257  1.5747
 3258SOL    HW221237   0.433   2.687   5.222 -1.4183  0.1871  2.0622
 3259SOL     OW21238   3.430   2.187   7.606 -0.5116  0.2433  0.0158
 3259SOL    HW121239   3.512   2.232   7.586 -1.6391  1.3026 -2.1971
 3259SOL    HW221240   3.373   2.217   7.536 -0.1766 -0.1427 -0.4238
 3260SOL     OW21241   1.909   0.316   4.170  0.4353  0.0545  0.0662
 3260SOL    HW121242   1.819   0.289   4.154  0.4613 -0.2470  0.4484
 3260SOL    HW221243   1.893   0.364   4.251 -3.0413 -0.0209 -0.5790
 3261SOL     OW21244   2.084   4.661   8.781  1.0588 -0.0899  0.4963
 3261SOL    HW121245   2.099   4.607   8.858 -0.0959 -1.8923 -0.5608
 3261SOL    HW221246   2.050   4.595   8.721 -0.9072  0.0084  1.5269
 3262SOL     OW21247   2.443   0.036   2.914 -0.5656  0.6638 -0.2541
 3262SOL    HW121248   2.490   0.110   2.953  3.6673 -1.4839 -1.2849
 3262SOL    HW221249   2.454   0.075   2.827  1.7197  0.9163  0.1452
 3263SOL     OW21250   1.864   2.376   4.105 -0.3226  0.8059 -0.4674
 3263SOL    HW121251   1.867   2.368   4.009 -1.7311 -1.6706 -0.3243
 3263SOL    HW221252   1.924   2.305   4.129  0.0821  1.5724  0.7739
 3264SOL     OW21253   3.252   3.130   7.338  0.4922  0.2968  0.1779
 3264SOL    HW121254   3.305   3.175   7.273  0.4432 -1.3460 -1.0048
 3264SOL    HW221255   3.232   3.058   7.278  1.6656 -0.5372  0.7693
 3265SOL     OW21256   3.640   0.057  16.269 -0.1331 -0.3129  0.8252
 3265SOL    HW121257   3.725   0.086  16.236  0.0945  2.2822  3.7099
 3265SOL    HW221258   3.646   0.084  16.360 -0.7171  0.7107  0.5567
 3266SOL     OW21259   1.392   2.285   5.092 -0.8402  0.0771  0.3731
 3266SOL    HW121260   1.477   2.243   5.080 -0.4935  0.3739  1.7959
 3266SOL    HW221261   1.335   2.209   5.100 -1.4499  0.4495 -0.3344
 3267SOL     OW21262   2.767   2.978   4.657 -0.0628  0.5359 -0.3709
 3267SOL    HW121263   2.736   2.957   4.745  0.5130 -1.4367 -0.6447
 3267SOL    HW221264   2.717   2.910   4.612  0.8399 -0.6906  0.5064
 3268SOL     OW21265   4.327   1.602   0.653  0.0701  0.8048 -0.0336
 3268SOL    HW121266   4.376   1.615   0.734 -0.8169 -1.2917  0.8464
 3268SOL    HW221267   4.345   1.510   0.632  2.4010  1.0932  0.7689
 3269SOL     OW21268   1.906   3.512   1.234  0.2616 -0.3539 -0.1225
 3269SOL    HW121269   1.891   3.603   1.259 -0.3358 -1.0360  2.0184
 3269SOL    HW221270   1.856   3.501   1.152  1.9545 -2.9021 -0.8171
 3270SOL     OW21271   1.993   2.915   8.751  0.7512 -0.3332  0.0601
 3270SOL    HW121272   2.036   2.998   8.736 -0.8875  0.5477  0.1877
 3270SOL    HW221273   1.946   2.952   8.826  2.0203 -1.4230  1.3846
 3271SOL     OW21274   1.898   4.674   4.189  0.4348 -0.5342 -0.1853
 3271SOL    HW121275   1.930   0.042   4.208 -0.3296 -0.6195  1.5870
 3271SOL    HW221276   1.803   4.683   4.177  0.6114 -0.6468 -1.6682
 3272SOL     OW21277   2.418   1.743   4.445 -0.4753  0.5327 -0.0149
 3272SOL    HW121278   2.508   1.742   4.479 -0.7617  1.3959  0.7867
 3272SOL    HW221279   2.439   1.663   4.397 -0.5453  0.8492 -0.5687
 3273SOL     OW21280   3.443   4.712   9.292 -1.7176  0.0392 -0.1908
 3273SOL    HW121281   3.450   0.081   9.327 -3.3699 -0.3856  1.2434
 3273SOL    HW221282   3.363   0.001   9.241 -0.3066 -0.9185 -2.5950
 3274SOL     OW21283   2.812   1.583  10.996  0.1214 -0.3247  0.6310
 3274SOL    HW121284   2.882   1.648  10.991 -1.6861  1.4983 -0.8702
 3274SOL    HW221285   2.775   1.608  10.912  0.2935 -0.4013  0.5316
 3275SOL     OW21286   4.503   2.136   9.184  0.3397 -0.2093 -0.2376
 3275SOL    HW121287   4.501   2.043   9.161 -0.4177 -0.7390  1.9149
 3275SOL    HW221288   4.442   2.182   9.126  1.0299 -0.7315 -1.3677
 3276SOL     OW21289   3.075   0.751  15.886 -0.0388  0.0141  0.0142
 3276SOL    HW121290   3.021   0.693  15.941 -1.0544  0.7026 -0.2553
 3276SOL    HW221291   3.081   0.697  15.808 -0.5323 -1.3977  0.9451
 3277SOL     OW21292   2.759   4.620   8.969 -0.5651  0.1126  0.4627
 3277SOL    HW121293   2.720   4.609   9.056  1.4025 -1.7145  1.0814
 3277SOL    HW221294   2.818   4.693   8.987 -1.9130  1.4582 -0.5250
 3278SOL     OW21295   0.574   1.531   8.755  0.1418  0.2399 -0.0772
 3278SOL    HW121296   0.554   1.593   8.825  0.0893 -0.1049  0.2143
 3278SOL    HW221297   0.575   1.590   8.679 -0.0530 -0.0387 -0.2978
 3279SOL     OW21298   0.394   3.857   1.843  0.6944 -0.1317 -0.3215
 3279SOL    HW121299   0.470   3.899   1.882 -0.0251  0.4394  0.4626
 3279SOL    HW221300   0.325   3.921   1.862 -1.4328 -2.4436 -0.1435
 3280SOL     OW21301   3.457   0.851   8.198  0.0717  0.0749 -0.2405
 3280SOL    HW121302   3.398   0.835   8.272  0.9310 -0.3606  0.3493
 3280SOL    HW221303   3.530   0.887   8.248  0.1490  1.3421 -1.2726
 3281SOL     OW21304   1.237   4.135  17.529  0.1731 -0.1110 -0.0466
 3281SOL    HW121305   1.188   4.213  17.554 -1.9623 -2.2541  2.3225
 3281SOL    HW221306   1.181   4.113  17.454  0.9289 -1.0103 -0.3494
 3282SOL     OW21307   3.142   1.680   5.430  0.3478  0.5073  0.0722
 3282SOL    HW121308   3.146   1.587   5.453  0.0446  0.8531  1.5536
 3282SOL    HW221309   3.063   1.706   5.477  0.1309 -1.0557  0.5863
 3283SOL     OW21310   1.483   3.380  13.044  0.4957 -0.2232 -0.2551
 3283SOL    HW121311   1.438   3.415  12.968  1.4365  1.1395 -0.1798
 3283SOL    HW221312   1.420   3.318  13.083  1.1916 -1.1346 -0.6051
 3284SOL     OW21313   2.537   0.030   1.371  0.3698 -0.0281  0.0993
 3284SOL    HW121314   2.572   0.024   1.460 -1.0870 -0.5348  0.6354
 3284SOL    HW221315   2.470   0.091   1.402  0.5455  1.1403 -1.7947
 3285SOL     OW21316   4.684   2.974   7.106 -0.2228  0.0564 -0.0987
 3285SOL    HW121317   0.051   2.948   7.079 -0.5866 -0.9433 -0.2941
 3285SOL    HW221318   4.627   2.898   7.116  0.8507 -0.9678 -1.7108
 3286SOL     OW21319   3.010   2.408   5.383  0.0030 -0.5185  0.1056
 3286SOL    HW121320   2.971   2.381   5.465  1.4332 -0.7547  0.7147
 3286SOL    HW221321   2.987   2.334   5.327 -2.8920  0.7980 -0.4435
 3287SOL     OW21322   3.477   0.526   6.373  0.0747 -0.5152 -0.4130
 3287SOL    HW121323   3.545   0.555   6.434 -1.8631 -0.0868  1.5339
 3287SOL    HW221324   3.497   0.432   6.369  2.4383  0.0258 -1.8353
 3288SOL     OW21325   3.897   2.564  12.687  0.3752  0.5457  0.0267
 3288SOL    HW121326   3.985   2.584  12.653  0.6257  0.1266  0.4363
 3288SOL    HW221327   3.895   2.640  12.746 -1.7828  1.1668 -0.8622
 3289SOL     OW21328   3.448   0.912   6.123  0.3970  0.3160  0.0003
 3289SOL    HW121329   3.543   0.918   6.116  0.5498 -0.5863  1.1971
 3289SOL    HW221330   3.424   0.878   6.037 -0.6750 -1.0508  0.8482
 3290SOL     OW21331   2.159   3.516   6.094  0.0752  0.3027 -0.1571
 3290SOL    HW121332   2.082   3.523   6.038  0.3710 -2.6298 -0.9316
 3290SOL    HW221333   2.203   3.599   6.074 -0.4501  0.6462  0.1207
 3291SOL     OW21334   3.984   2.224  14.301 -0.1818  0.1564  0.0304
 3291SOL    HW121335   3.943   2.139  14.319  1.0845  0.1567  2.9561
 3291SOL    HW221336   4.057   2.185  14.254 -0.8930 -0.9165 -0.1879
 3292SOL     OW21337   4.466   0.328   9.234 -0.0645 -0.1601 -0.7111
 3292SOL    HW121338   4.554   0.366   9.239 -0.1287 -0.2415  1.1845
 3292SOL    HW221339   4.483   0.269   9.160  0.5219  1.2731 -1.7105
 3293SOL     OW21340   1.046   1.873  14.750  0.3030 -0.4766 -0.5591
 3293SOL    HW121341   0.997   1.918  14.681  1.3377 -0.6041 -1.3708
 3293SOL    HW221342   1.075   1.791  14.711 -1.7552 -0.7344 -1.5832
 3294SOL     OW21343   0.142   2.599   9.678  0.0091  0.0897 -0.4960
 3294SOL    HW121344   0.106   2.686   9.697 -0.2802 -0.5420  1.8517
 3294SOL    HW221345   0.089   2.557   9.746  0.8253 -0.5735 -0.2660
 3295SOL     OW21346   1.519   3.795  14.352  0.0185 -0.3164 -0.1405
 3295SOL    HW121347   1.580   3.850  14.403 -0.6297  0.9444 -0.7249
 3295SOL    HW221348   1.443   3.801  14.410  0.2666 -1.5004  0.3079
 3296SOL     OW21349   1.989   0.782   0.256  0.0604 -0.8327  0.1718
 3296SOL    HW121350   2.071   0.758   0.212  0.6015  0.9385  0.1872
 3296SOL    HW221351   2.003   0.875   0.275 -1.3102 -0.5411 -0.2619
 3297SOL     OW21352   1.157   4.161   7.917 -0.3986 -0.3007  0.1089
 3297SOL    HW121353   1.076   4.208   7.934  1.6007  3.5382 -0.9949
 3297SOL    HW221354   1.159   4.141   7.824 -2.4141  1.6049 -0.3260
 3298SOL     OW21355   4.465   0.872  11.545 -0.6400  0.1738  0.2482
 3298SOL    HW121356   4.523   0.796  11.547  0.8468  1.2803  0.0609
 3298SOL    HW221357   4.402   0.853  11.476 -0.5277  0.4180  0.0764
 3299SOL     OW21358   1.644   2.843   3.620  0.0119  0.3490  0.6536
 3299SOL    HW121359   1.620   2.912   3.559 -0.9511  0.4530  1.1306
 3299SOL    HW221360   1.708   2.892   3.671  1.4406  0.8252 -1.6164
 3300SOL     OW21361   4.017   1.856   3.613  0.2997  0.3507 -0.2120
 3300SOL    HW121362   3.950   1.898   3.559 -1.5776 -3.7280 -1.0445
 3300SOL    HW221363   4.007   1.764   3.589  0.5055  0.2104  0.2296
 3301SOL     OW21364   2.602   3.058   9.175 -0.1570 -0.1438  0.4512
 3301SOL    HW121365   2.590   2.998   9.102  0.4864  0.6481 -0.3077
 3301SOL    HW221366   2.585   2.995   9.245 -1.0544 -1.2018 -0.7283
 3302SOL     OW21367   0.897   0.676  11.866 -0.3693  0.5189  0.3643
 3302SOL    HW121368   0.969   0.614  11.871  0.2531  1.2030 -0.1298
 3302SOL    HW221369   0.871   0.674  11.958  0.4567  1.0114  0.6012
 3303SOL     OW21370   0.296   3.295   6.004 -0.9295  0.2419 -0.0422
 3303SOL    HW121371   0.301   3.345   5.922 -2.3553  0.7928  0.2142
 3303SOL    HW221372   0.204   3.268   6.002 -1.0478  0.5575  1.2491
 3304SOL     OW21373   1.816   2.782   4.173 -0.1788  0.2721  0.4154
 3304SOL    HW121374   1.778   2.788   4.086  0.8215 -0.9376 -0.0939
 3304SOL    HW221375   1.875   2.858   4.169 -0.0549  0.3511  3.5079
 3305SOL     OW21376   4.497   4.290   4.303  0.7328 -0.3892  0.0725
 3305SOL    HW121377   4.537   4.251   4.226 -1.3774  3.0003 -2.7234
 3305SOL    HW221378   4.405   4.266   4.295 -0.2167  3.0937  0.4489
 3306SOL     OW21379   1.069   1.187   2.710  0.0328 -0.1793 -0.1657
 3306SOL    HW121380   1.158   1.153   2.718  1.0783  1.8910 -2.8490
 3306SOL    HW221381   1.023   1.113   2.671  0.4509 -1.6977  2.2417
 3307SOL     OW21382   0.308   4.130   9.264  0.6087  0.5832  0.0194
 3307SOL    HW121383   0.305   4.037   9.283 -0.2671  0.5974 -0.0370
 3307SOL    HW221384   0.355   4.155   9.343 -1.5272  1.4475  0.9923
 3308SOL     OW21385   1.048   1.677  17.148  0.5693 -0.5280 -0.4043
 3308SOL    HW121386   0.968   1.729  17.134  0.3525 -0.7791 -0.0814
 3308SOL    HW221387   1.032   1.612  17.079  0.1024 -0.3352 -0.4817
 3309SOL     OW21388   1.017   2.689   9.926  0.2928 -0.0456  0.0336
 3309SOL    HW121389   1.065   2.608   9.943  2.1031  1.8807  4.2224
 3309SOL    HW221390   1.058   2.722   9.846  0.7476 -0.3850  0.1331
 3310SOL     OW21391   3.039   0.562   7.064  0.0172 -0.2818  0.1643
 3310SOL    HW121392   3.103   0.497   7.036 -0.0173  0.0852 -0.7822
 3310SOL    HW221393   3.062   0.636   7.008  0.3098 -0.9886 -0.6459
 3311SOL     OW21394   1.072   2.566   4.064  0.0634 -0.7656 -0.2805
 3311SOL    HW121395   1.047   2.625   3.992 -0.9516 -1.6490 -0.6470
 3311SOL    HW221396   1.114   2.618   4.132 -1.4384  1.0530 -0.7152
 3312SOL     OW21397   4.676   1.691   7.846 -0.3473 -0.3169 -1.1177
 3312SOL    HW121398   4.625   1.655   7.773 -2.5079 -0.5430  0.5015
 3312SOL    HW221399   4.667   1.618   7.907  1.1896  0.7997  0.4293
 3313SOL     OW21400   2.264   2.086   6.525 -0.4033  0.2962 -0.0584
 3313SOL    HW121401   2.281   1.993   6.513 -1.3232  0.0706  0.4310
 3313SOL    HW221402   2.193   2.081   6.588 -0.9396  2.1731 -0.4998
 3314SOL     OW21403   3.756   2.594   0.784 -0.3194  0.1779  0.0444
 3314SOL    HW121404   3.668   2.557   0.794 -1.1051  1.9729 -0.3640
 3314SOL    HW221405   3.808   2.515   0.803 -2.1277 -0.3081  2.9018
 3315SOL     OW21406   3.216   1.384   0.922  0.2410  0.0159  0.4014
 3315SOL    HW121407   3.144   1.434   0.884 -0.4559 -1.2797 -0.0078
 3315SOL    HW221408   3.291   1.443   0.921  2.1241 -2.3765  1.1082
 3316SOL     OW21409   3.052   1.782   5.190  0.8770  0.5442  0.0332
 3316SOL    HW121410   3.075   1.764   5.281 -0.9437  0.9644  0.5644
 3316SOL    HW221411   3.007   1.700   5.171 -0.1232  1.9757 -3.7988
 3317SOL     OW21412   1.680   0.165  12.782  0.3018  0.3247 -0.0705
 3317SOL    HW121413   1.739   0.226  12.738  0.3932 -0.5235 -1.1322
 3317SOL    HW221414   1.602   0.167  12.726  0.2640 -1.9414 -0.0963
 3318SOL     OW21415   3.746   1.028  11.220  0.0578  0.7956 -0.0575
 3318SOL    HW121416   3.794   0.960  11.268 -0.1213  0.5649 -0.2057
 3318SOL    HW221417   3.783   1.008  11.134  0.6361  0.7595  0.2004
 3319SOL     OW21418   3.880   2.480   7.882 -0.0703  0.2220  0.1081
 3319SOL    HW121419   3.916   2.440   7.961 -0.7107  1.5356  1.0433
 3319SOL    HW221420   3.811   2.416   7.867  1.3948 -1.1777 -0.6134
 3320SOL     OW21421   1.876   1.286   9.058  0.6085  0.0480 -0.0740
 3320SOL    HW121422   1.807   1.244   9.110  2.3088 -2.3507  0.2500
 3320SOL    HW221423   1.827   1.361   9.023 -1.0055 -1.0756 -0.2257
 3321SOL     OW21424   0.882   3.023   7.864  0.2717 -0.2642  0.2072
 3321SOL    HW121425   0.876   2.960   7.935  1.3194  0.9013  1.3212
 3321SOL    HW221426   0.911   2.968   7.791 -3.1665 -2.3325  0.4537
 3322SOL     OW21427   0.700   0.871  14.909 -0.3564  0.1624 -0.5081
 3322SOL    HW121428   0.749   0.849  14.988  1.0142  0.8604 -1.1798
 3322SOL    HW221429   0.768   0.910  14.855 -0.3418 -1.1089 -1.4242
 3323SOL     OW21430   1.746   3.650   5.764  0.3748 -0.2284  0.0694
 3323SOL    HW121431   1.733   3.739   5.732 -1.4257 -0.9232 -1.1037
 3323SOL    HW221432   1.665   3.636   5.812  0.5009  0.7998  0.5755
 3324SOL     OW21433   4.256   3.167   8.251  0.4030 -0.3714 -0.0212
 3324SOL    HW121434   4.286   3.111   8.322  1.6212 -0.0206 -0.2613
 3324SOL    HW221435   4.338   3.205   8.219  0.9261 -0.9116  0.6750
 3325SOL     OW21436   3.136   4.265   7.188  0.7580  0.1384 -0.0053
 3325SOL    HW121437   3.096   4.189   7.230  0.4987 -0.4873 -1.3840
 3325SOL    HW221438   3.212   4.279   7.244 -0.1806  0.3264  1.2096
 3326SOL     OW21439   4.378   4.606   6.509 -0.1722  0.4154 -0.5466
 3326SOL    HW121440   4.439   4.664   6.464 -0.4749  2.1263  1.2611
 3326SOL    HW221441   4.297   4.620   6.461  0.7700 -3.1186 -3.1958
 3327SOL     OW21442   0.113   0.394  15.146 -0.5015 -0.3166  0.0229
 3327SOL    HW121443   0.106   0.431  15.234 -1.0950  0.4219 -0.3367
 3327SOL    HW221444   0.056   0.443  15.088 -0.2020  0.9448  0.7813
 3328SOL     OW21445   3.269   1.640   8.808 -0.2608 -0.0287  0.0643
 3328SOL    HW121446   3.223   1.719   8.835 -1.9546 -0.8869 -0.3603
 3328SOL    HW221447   3.340   1.675   8.754  1.0136 -3.4215 -0.4968
 3329SOL     OW21448   3.371   1.102   9.169 -0.0236 -0.0116  0.1242
 3329SOL    HW121449   3.459   1.125   9.142  0.3140 -0.6302  0.6881
 3329SOL    HW221450   3.391   1.021   9.217  1.1301  0.0583 -0.2370
 3330SOL     OW21451   3.787   0.818   3.238  0.3878 -0.5335  0.3858
 3330SOL    HW121452   3.713   0.843   3.293 -0.4773 -0.3482 -0.8504
 3330SOL    HW221453   3.753   0.770   3.162 -1.8095 -1.2618  1.8193
 3331SOL     OW21454   4.297   1.811   1.274 -0.7579 -0.2784  0.1286
 3331SOL    HW121455   4.240   1.734   1.267 -2.2773  0.7978  0.6150
 3331SOL    HW221456   4.243   1.878   1.233  0.4928 -0.2525 -1.4500
 3332SOL     OW21457   0.901   0.869   3.659  0.3635 -0.7193 -0.0925
 3332SOL    HW121458   0.960   0.808   3.617 -0.1070 -1.2690  0.0422
 3332SOL    HW221459   0.882   0.812   3.733  0.6354  1.3222  1.5569
 3333SOL     OW21460   0.693   0.959   7.329 -0.1247  0.1380  0.0229
 3333SOL    HW121461   0.720   1.043   7.292  0.5048 -0.5091 -0.9710
 3333SOL    HW221462   0.639   0.982   7.405 -0.6550  0.5328 -0.4719
 3334SOL     OW21463   1.166   2.546   7.293  0.1906 -0.2911 -0.2930
 3334SOL    HW121464   1.181   2.530   7.199  1.4806  2.0988 -0.4926
 3334SOL    HW221465   1.070   2.550   7.295  0.1751 -0.3712 -0.7829
 3335SOL     OW21466   3.211   2.224   1.475  0.0717  0.4266  0.1912
 3335SOL    HW121467   3.247   2.253   1.391 -1.5852 -0.6631 -0.9022
 3335SOL    HW221468   3.150   2.159   1.438 -0.5543  2.0456 -1.6178
 3336SOL     OW21469   3.556   2.636   2.897 -0.3959 -0.5713  0.4693
 3336SOL    HW121470   3.573   2.618   2.990 -0.0184  1.4741  0.8042
 3336SOL    HW221471   3.568   2.549   2.861 -3.2953 -1.0015  0.5384
 3337SOL     OW21472   1.069   4.697   4.187 -0.3411 -0.0238 -0.5350
 3337SOL    HW121473   1.017   0.022   4.122 -1.0727  1.8859  1.3835
 3337SOL    HW221474   1.059   4.606   4.159  0.7577  0.0654 -1.1693
 3338SOL     OW21475   1.835   2.660   5.481 -0.4789 -0.2973  0.4905
 3338SOL    HW121476   1.878   2.679   5.397 -0.9721 -3.3998 -0.4588
 3338SOL    HW221477   1.845   2.564   5.481  0.3001 -0.2435 -2.4819
 3339SOL     OW21478   4.457   2.771  11.938 -0.0839  0.1571  0.4944
 3339SOL    HW121479   4.517   2.696  11.932 -0.5328 -0.1048 -0.6989
 3339SOL    HW221480   4.391   2.750  11.872 -0.1698 -0.2648  0.7139
 3340SOL     OW21481   2.429   2.351   8.223  0.1071 -0.2308  0.1364
 3340SOL    HW121482   2.515   2.357   8.264  0.6556 -0.7229 -0.9497
 3340SOL    HW221483   2.373   2.406   8.277  1.5663  1.8826 -0.4912
 3341SOL     OW21484   0.140   1.955   7.955 -0.0607 -0.2055  0.2495
 3341SOL    HW121485   0.052   1.972   7.923 -0.3352 -1.0116  0.5735
 3341SOL    HW221486   0.123   1.875   8.006  0.2685 -0.0762  0.5680
 3342SOL     OW21487   2.673   0.737   3.299 -0.4476 -0.0930  0.2910
 3342SOL    HW121488   2.657   0.823   3.260 -0.2193 -0.6891 -1.1138
 3342SOL    HW221489   2.700   0.681   3.226 -4.2708 -1.2007 -0.2527
 3343SOL     OW21490   0.136   1.889   3.519 -0.7271 -0.2108  0.3657
 3343SOL    HW121491   0.122   1.981   3.538  0.3260 -0.4121  2.1476
 3343SOL    HW221492   0.067   1.846   3.570  0.5807 -2.0025  0.6178
 3344SOL     OW21493   1.866   0.255   9.057 -0.1425  0.1353 -0.5186
 3344SOL    HW121494   1.843   0.201   8.982  1.8469 -0.3545 -0.7716
 3344SOL    HW221495   1.955   0.227   9.081 -1.0479 -3.9698 -1.9885
 3345SOL     OW21496   1.473   0.063  13.416  0.3134 -0.1524  0.1545
 3345SOL    HW121497   1.468   4.699  13.460 -0.2368  0.7348  1.8287
 3345SOL    HW221498   1.558   0.094  13.448  0.2908 -0.8337  0.8679
 3346SOL     OW21499   3.006   2.469   6.423 -0.8548  0.3601 -0.3012
 3346SOL    HW121500   2.926   2.422   6.399  0.9632 -1.0674 -3.6252
 3346SOL    HW221501   2.991   2.491   6.515  1.1327 -3.0612  0.8287
 3347SOL     OW21502   1.092   0.613   3.428  0.0219 -0.1293  0.0504
 3347SOL    HW121503   1.164   0.653   3.378  2.3368 -3.2094  0.9305
 3347SOL    HW221504   1.017   0.625   3.369 -0.3932 -1.2661  0.3347
 3348SOL     OW21505   2.664   0.793   1.830 -0.0034  0.6101 -0.3778
 3348SOL    HW121506   2.581   0.770   1.789 -1.1750 -0.8791  2.8425
 3348SOL    HW221507   2.672   0.720   1.891  0.4563 -0.4605 -1.7328
 3349SOL     OW21508   4.358   4.171   8.940  0.6023 -0.0041  0.1092
 3349SOL    HW121509   4.301   4.148   8.866  0.3421  0.4838  0.1579
 3349SOL    HW221510   4.389   4.094   8.987 -0.2421  0.4406  1.4033
 3350SOL     OW21511   1.541   0.930  14.435  0.1688 -0.4434 -0.0800
 3350SOL    HW121512   1.621   0.926  14.384 -0.7949 -1.8298 -1.4880
 3350SOL    HW221513   1.518   1.018  14.406 -1.7636 -0.4199  1.4796
 3351SOL     OW21514   2.728   2.159  10.640 -0.8605 -0.7346 -0.2652
 3351SOL    HW121515   2.682   2.105  10.704  1.0454  0.5748  2.1756
 3351SOL    HW221516   2.782   2.212  10.698 -0.0474 -1.2498 -0.5449
 3352SOL     OW21517   2.458   4.470   1.293 -0.4347  0.4499 -0.3461
 3352SOL    HW121518   2.485   4.434   1.209 -1.3724 -0.3957 -0.2889
 3352SOL    HW221519   2.501   4.555   1.299  0.3310 -0.0517  1.4705
 3353SOL     OW21520   0.051   3.938   2.777 -0.3759 -0.6512 -0.2095
 3353SOL    HW121521   0.064   3.958   2.870 -0.9237  1.2709 -0.5303
 3353SOL    HW221522   4.681   3.911   2.793 -0.3850 -0.8252 -0.5573
 3354SOL     OW21523   4.092   4.319   5.591  0.3068  0.4191 -0.3503
 3354SOL    HW121524   4.086   4.224   5.591 -1.6468  0.5320 -0.2280
 3354SOL    HW221525   4.042   4.342   5.670  1.5235  2.0201 -0.0459
 3355SOL     OW21526   3.448   0.485   8.302  0.3877 -0.0535  0.3937
 3355SOL    HW121527   3.389   0.439   8.362  1.4311  2.5624  3.3882
 3355SOL    HW221528   3.492   0.543   8.364  1.8392  0.1727 -0.8477
 3356SOL     OW21529   1.022   1.838   7.750  0.3248  0.1377  0.2228
 3356SOL    HW121530   1.026   1.750   7.788  0.7446 -0.3138 -0.8591
 3356SOL    HW221531   0.946   1.838   7.693  0.2146  0.1390  0.3710
 3357SOL     OW21532   3.342   1.836   7.336  0.0036  0.3943 -0.5238
 3357SOL    HW121533   3.271   1.870   7.390 -0.0848 -0.0883 -0.3384
 3357SOL    HW221534   3.285   1.775   7.288  2.4345 -1.4018 -1.1648
 3358SOL     OW21535   3.100   3.767   6.725  0.1235  0.9694  0.0341
 3358SOL    HW121536   3.096   3.803   6.814 -2.6143  0.9076 -0.0614
 3358SOL    HW221537   3.011   3.784   6.692  0.0845 -0.4311 -0.5963
 3359SOL     OW21538   3.794   0.663   6.712  0.4445 -0.1353  0.0813
 3359SOL    HW121539   3.741   0.683   6.635  0.2094  1.2976  0.6202
 3359SOL    HW221540   3.868   0.625   6.666  1.0265  2.3934 -1.0362
 3360SOL     OW21541   0.329   4.719   2.620  0.3244 -0.6232 -0.3968
 3360SOL    HW121542   0.407   0.005   2.566 -0.3652 -0.7159 -1.4209
 3360SOL    HW221543   0.306   0.091   2.624  2.9011  0.0108 -0.4036
 3361SOL     OW21544   0.240   1.747   9.833 -0.1486  0.3387  0.6103
 3361SOL    HW121545   0.209   1.838   9.835 -0.3498  0.3603 -3.4906
 3361SOL    HW221546   0.333   1.763   9.846 -0.3180  2.0075 -0.1365
 3362SOL     OW21547   3.957   3.073   3.395  0.7900 -0.2415  0.3310
 3362SOL    HW121548   4.013   3.149   3.379  1.3088 -0.9479 -1.1908
 3362SOL    HW221549   3.902   3.083   3.318  1.9667 -2.1448 -0.7712
 3363SOL     OW21550   2.915   2.190  13.897  0.8115  0.6298  0.3202
 3363SOL    HW121551   2.820   2.184  13.906  0.8117 -0.9792 -0.7687
 3363SOL    HW221552   2.930   2.103  13.860  0.3236  0.7783 -0.2318
 3364SOL     OW21553   3.476   4.348  10.933  0.5441  0.0651  0.1745
 3364SOL    HW121554   3.391   4.367  10.894 -1.3653 -2.3884  3.2279
 3364SOL    HW221555   3.537   4.413  10.896  0.1682  0.4977  0.3122
 3365SOL     OW21556   0.376   3.390   7.081  0.6507  0.2481 -0.5648
 3365SOL    HW121557   0.383   3.475   7.037 -2.3788  0.9562  0.2586
 3365SOL    HW221558   0.368   3.408   7.175  1.2909  2.4690 -0.9425
 3366SOL     OW21559   2.226   1.399   3.705  0.3396  0.1192 -0.0373
 3366SOL    HW121560   2.207   1.465   3.772  0.4742  0.0471  0.0722
 3366SOL    HW221561   2.297   1.339   3.730 -0.4441 -0.2414  1.3311
 3367SOL     OW21562   4.441   0.105   2.595 -0.6549 -0.2034  0.0404
 3367SOL    HW121563   4.484   0.179   2.552 -0.7560 -0.9917 -1.3996
 3367SOL    HW221564   4.420   0.065   2.511 -0.6217 -1.2619  0.5346
 3368SOL     OW21565   1.493   3.048   4.899 -0.2726  0.2825 -0.3565
 3368SOL    HW121566   1.398   3.060   4.894 -0.1793  0.7034 -1.0500
 3368SOL    HW221567   1.503   2.958   4.930  0.5218  0.8486  1.0375
 3369SOL     OW21568   4.519   1.667   9.931 -0.8718  0.6850  0.2897
 3369SOL    HW121569   4.538   1.662   9.837  0.4897 -0.7749  0.6303
 3369SOL    HW221570   4.465   1.745   9.940  0.6979  1.6483  1.3464
 3370SOL     OW21571   2.440   0.410   7.899  0.2159 -0.0481 -0.2945
 3370SOL    HW121572   2.462   0.406   7.992  1.3263  0.2251 -0.5399
 3370SOL    HW221573   2.525   0.443   7.869 -0.0870  1.5105  0.5709
 3371SOL     OW21574   2.582   4.333   3.043 -0.0671 -0.5306  0.0782
 3371SOL    HW121575   2.599   4.251   2.995 -3.1015 -0.4053 -1.2510
 3371SOL    HW221576   2.572   4.399   2.975 -2.2639  0.0017  0.9129
 3372SOL     OW21577   3.762   2.983   7.038 -0.2922 -0.1179  0.5939
 3372SOL    HW121578   3.811   3.003   6.959 -1.1517 -0.6427 -0.0644
 3372SOL    HW221579   3.777   3.062   7.089  1.3638  0.0777 -0.2047
 3373SOL     OW21580   0.274   1.180   9.510 -0.4796 -0.3161  0.5219
 3373SOL    HW121581   0.327   1.260   9.505 -1.9702  0.5421 -1.4482
 3373SOL    HW221582   0.321   1.131   9.577  0.4319 -0.6399 -0.3401
 3374SOL     OW21583   0.117   0.367   0.475  0.0677 -0.2052 -0.2262
 3374SOL    HW121584   0.202   0.402   0.501  0.5896 -1.2894 -0.4399
 3374SOL    HW221585   0.152   0.294   0.424 -0.3965  0.0039 -0.8509
 3375SOL     OW21586   3.302   0.972   3.401 -0.5719 -0.1762 -0.2330
 3375SOL    HW121587   3.268   0.884   3.416  2.2946 -1.1694  0.4424
 3375SOL    HW221588   3.247   0.992   3.325  0.5354  1.0673 -0.7002
 3376SOL     OW21589   4.033   0.986   6.522 -0.3511  0.1801 -0.3564
 3376SOL    HW121590   4.077   0.948   6.446 -0.4737  1.0871 -0.8878
 3376SOL    HW221591   4.106   0.994   6.583 -0.5385  1.6307 -0.3069
 3377SOL     OW21592   0.540   3.917   4.765  0.0318  0.3350  0.2117
 3377SOL    HW121593   0.618   3.866   4.786  0.3408  1.9546  2.9653
 3377SOL    HW221594   0.572   4.005   4.786  0.4019  0.5800 -1.3804
 3378SOL     OW21595   3.574   3.371   6.246  0.0501 -0.0916  0.5413
 3378SOL    HW121596   3.544   3.434   6.312 -0.2773 -0.4760  0.7616
 3378SOL    HW221597   3.643   3.423   6.207  0.1321 -0.5240  0.1176
 3379SOL     OW21598   0.249   3.745   8.675 -0.3195  0.1090  0.1168
 3379SOL    HW121599   0.337   3.736   8.712 -0.4814 -2.8376 -0.2264
 3379SOL    HW221600   0.255   3.795   8.594  1.1223  1.4144  1.0253
 3380SOL     OW21601   2.182   1.981   3.218 -0.0497 -0.2977 -0.5309
 3380SOL    HW121602   2.145   1.940   3.140 -0.9542  0.6823 -0.6151
 3380SOL    HW221603   2.276   1.984   3.201 -0.3812  1.4759 -2.0117
 3381SOL     OW21604   3.911   0.518  14.277 -0.6340 -0.2272  0.9249
 3381SOL    HW121605   3.928   0.611  14.265 -2.1771 -0.1021 -0.2193
 3381SOL    HW221606   3.826   0.527  14.319 -0.8666  2.0801 -0.0409
 3382SOL     OW21607   3.754   0.421   3.102  0.0571  0.3863 -0.2370
 3382SOL    HW121608   3.680   0.363   3.083  1.0049 -0.2887 -1.8445
 3382SOL    HW221609   3.784   0.433   3.012  2.8383  1.8278  0.8817
 3383SOL     OW21610   4.698   4.442   0.767 -0.6262 -0.1225 -0.2556
 3383SOL    HW121611   0.006   4.351   0.776  0.7717  0.3039 -0.4595
 3383SOL    HW221612   4.603   4.432   0.777 -0.6907 -0.7354 -1.5626
 3384SOL     OW21613   0.354   1.827  15.860  0.5209  0.0959 -0.1413
 3384SOL    HW121614   0.349   1.750  15.804 -1.9070  0.1462 -0.0185
 3384SOL    HW221615   0.264   1.861  15.851 -1.2046 -4.6532 -0.8789
 3385SOL     OW21616   1.075   3.207   6.979 -0.0990 -0.5595 -0.0297
 3385SOL    HW121617   1.088   3.284   7.034  3.0674  0.4384 -2.1491
 3385SOL    HW221618   1.117   3.237   6.898 -0.4506  2.6201  0.9484
 3386SOL     OW21619   2.485   0.269  12.237 -0.0348 -0.3313 -0.6990
 3386SOL    HW121620   2.573   0.292  12.208  0.1048 -1.4253 -1.1622
 3386SOL    HW221621   2.456   0.343  12.291 -1.9044 -1.4060 -0.2205
 3387SOL     OW21622   3.410   1.320  10.369 -0.4875  0.5167 -0.9186
 3387SOL    HW121623   3.498   1.314  10.407 -1.1157  1.1898  0.6549
 3387SOL    HW221624   3.358   1.347  10.445 -1.7136 -0.4300 -1.4392
 3388SOL     OW21625   3.825   3.265   2.700 -0.9233  0.5874 -0.3489
 3388SOL    HW121626   3.770   3.186   2.706 -1.1589  0.7663 -0.1141
 3388SOL    HW221627   3.781   3.320   2.635  1.5167  0.7012 -1.8670
 3389SOL     OW21628   2.914   3.809  12.893 -0.1825  0.1730  0.0758
 3389SOL    HW121629   2.954   3.808  12.806 -2.2695 -1.7296 -0.8431
 3389SOL    HW221630   2.987   3.774  12.944  0.6061  1.7346  0.0479
 3390SOL     OW21631   1.711   3.810   4.220  0.1282 -0.0420  0.4068
 3390SOL    HW121632   1.769   3.737   4.197  1.2403  0.7059  0.8440
 3390SOL    HW221633   1.776   3.881   4.221 -1.3570  1.3038 -0.4603
 3391SOL     OW21634   3.825   2.046   7.568 -0.0050  0.0404  0.0674
 3391SOL    HW121635   3.815   1.952   7.558  1.5728  0.2502 -3.3112
 3391SOL    HW221636   3.898   2.049   7.631  0.2907 -0.0171 -0.2712
 3392SOL     OW21637   1.664   1.587  14.597 -0.3560 -1.0598 -0.0499
 3392SOL    HW121638   1.667   1.512  14.538  1.5743 -1.7649  0.9490
 3392SOL    HW221639   1.709   1.662  14.559  0.0801 -0.2820  2.0008
 3393SOL     OW21640   1.689   3.756  10.536  0.0173  0.1687  0.3165
 3393SOL    HW121641   1.769   3.712  10.508 -1.6141 -0.9804 -2.6380
 3393SOL    HW221642   1.680   3.728  10.627 -0.2387  2.1146  0.8885
 3394SOL     OW21643   0.396   0.992  13.603  0.4408 -0.1431  0.1066
 3394SOL    HW121644   0.482   1.010  13.564  0.0032  0.8612 -0.3980
 3394SOL    HW221645   0.361   0.910  13.566 -1.3680  0.6110  0.1353
 3395SOL     OW21646   1.015   3.543   7.712 -0.1035 -0.2879  0.0847
 3395SOL    HW121647   1.003   3.634   7.738  1.8662 -0.3758  1.3232
 3395SOL    HW221648   0.941   3.494   7.748  0.5611 -1.6777 -0.4484
 3396SOL     OW21649   4.406   2.875   5.846 -0.8549  0.4691  0.2066
 3396SOL    HW121650   4.429   2.934   5.918  0.5439  1.0016 -0.6841
 3396SOL    HW221651   4.313   2.896   5.836 -0.4525  1.1375 -1.9547
 3397SOL     OW21652   3.971   4.462   1.254  0.2665  0.1980  0.0805
 3397SOL    HW121653   3.900   4.460   1.318  0.6031  1.2793  0.4882
 3397SOL    HW221654   3.936   4.396   1.194 -0.7496 -2.1384  3.2004
 3398SOL     OW21655   0.150   3.178   9.905 -0.3911 -0.8114 -0.0948
 3398SOL    HW121656   0.238   3.139   9.913  0.4971  1.0444 -0.8563
 3398SOL    HW221657   0.104   3.099   9.934  0.6890 -1.1304  0.8040
 3399SOL     OW21658   1.569   4.348  11.029  0.3280  0.3125  0.6980
 3399SOL    HW121659   1.663   4.356  11.015  0.3085 -0.3552  0.1941
 3399SOL    HW221660   1.554   4.437  11.061  0.9720  0.4455  0.6201
 3400SOL     OW21661   4.476   0.855   8.981 -0.6908 -0.4372 -0.2616
 3400SOL    HW121662   4.480   0.920   8.911 -1.8984 -0.8484 -0.7066
 3400SOL    HW221663   4.456   0.911   9.055 -0.7243 -0.5660 -0.1734
 3401SOL     OW21664   1.029   3.962   2.997 -0.2900  0.1830 -0.0282
 3401SOL    HW121665   0.952   3.915   2.967 -0.3740  2.4966 -3.4231
 3401SOL    HW221666   1.099   3.908   2.961 -1.1206 -1.1453  0.3702
 3402SOL     OW21667   2.875   2.643   2.289  0.8354  0.1768 -0.5791
 3402SOL    HW121668   2.824   2.617   2.367  0.4269  2.2860 -0.1580
 3402SOL    HW221669   2.852   2.569   2.232  1.1165  0.2455 -0.7772
 3403SOL     OW21670   0.561   4.050  14.711 -0.1773 -0.5672 -0.7051
 3403SOL    HW121671   0.595   3.993  14.642 -0.7192 -0.0752 -1.3725
 3403SOL    HW221672   0.481   4.083  14.671  0.2122 -1.4899 -2.2215
 3404SOL     OW21673   3.828   2.915   6.661 -0.2165  0.1783  0.3289
 3404SOL    HW121674   3.887   2.848   6.627 -0.1680 -0.1390  1.0541
 3404SOL    HW221675   3.874   2.946   6.739  0.1097 -0.1262  0.2603
 3405SOL     OW21676   3.625   3.821   2.119 -0.5906 -0.4147  0.2760
 3405SOL    HW121677   3.531   3.823   2.138 -0.5974  0.7477  0.1155
 3405SOL    HW221678   3.603   3.765   2.044  1.5868 -1.9733  0.7958
 3406SOL     OW21679   4.524   1.955  11.743  0.2572  0.1533 -0.2865
 3406SOL    HW121680   4.488   1.924  11.826  1.0660 -2.2795 -0.8478
 3406SOL    HW221681   4.531   2.048  11.765 -1.2614  0.3469 -0.6248
 3407SOL     OW21682   4.048   2.149   8.400  0.5404  0.1265  0.2173
 3407SOL    HW121683   4.002   2.107   8.473 -3.0394  0.2041 -1.9620
 3407SOL    HW221684   3.979   2.141   8.334  2.4231  0.9005 -1.8307
 3408SOL     OW21685   3.640   4.664  17.205 -0.8342 -0.0210 -0.3744
 3408SOL    HW121686   3.604   0.016  17.255 -2.2936 -1.6957  1.0032
 3408SOL    HW221687   3.731   4.673  17.232 -0.7880  0.1318 -0.5812
 3409SOL     OW21688   4.381   3.465   4.876  0.5134  0.2906  0.4235
 3409SOL    HW121689   4.465   3.508   4.867  1.0724 -0.5687  1.5439
 3409SOL    HW221690   4.320   3.538   4.891 -1.6018 -1.4513  0.4095
 3410SOL     OW21691   2.520   2.903   4.816 -0.1390  0.2135  0.0111
 3410SOL    HW121692   2.465   2.830   4.788 -1.1558  0.0495  2.4042
 3410SOL    HW221693   2.498   2.965   4.748 -1.9678  0.5342  0.8872
 3411SOL     OW21694   0.429   1.611   4.789 -0.3051  0.5202  0.1623
 3411SOL    HW121695   0.427   1.663   4.709 -0.7147  1.4115  0.7485
 3411SOL    HW221696   0.443   1.685   4.848 -0.2352  0.2934  0.4293
 3412SOL     OW21697   2.166   2.202   6.259 -0.5822 -0.0620  0.3497
 3412SOL    HW121698   2.235   2.188   6.324  1.0142 -0.7048 -1.4836
 3412SOL    HW221699   2.084   2.159   6.285 -0.9250  0.3407 -0.0545
 3413SOL     OW21700   4.259   2.710   3.392 -0.0737  0.2207 -0.3064
 3413SOL    HW121701   4.337   2.716   3.338  0.0248  2.7395  0.1134
 3413SOL    HW221702   4.257   2.803   3.417 -0.6292  0.2044 -0.2720
 3414SOL     OW21703   3.259   4.682   8.833  0.0928  0.5280 -0.1457
 3414SOL    HW121704   3.316   0.019   8.884 -0.4690 -0.1263  1.2353
 3414SOL    HW221705   3.213   0.023   8.777  1.2397  1.2110 -0.3253
 3415SOL     OW21706   1.607   3.211   7.814 -0.3336 -0.4052 -0.5514
 3415SOL    HW121707   1.652   3.294   7.827 -0.8987 -0.1579 -0.1724
 3415SOL    HW221708   1.641   3.200   7.726  1.6034  0.1605  0.1302
 3416SOL     OW21709   1.868   4.417  15.166  0.1107  0.8179  0.3908
 3416SOL    HW121710   1.891   4.465  15.245 -1.6105  1.2439  0.6341
 3416SOL    HW221711   1.925   4.341  15.178 -0.6407  0.4052  1.3081
 3417SOL     OW21712   0.530   4.472   1.404  0.2944  0.3835  0.1021
 3417SOL    HW121713   0.436   4.486   1.414  0.4947  1.8788 -0.0731
 3417SOL    HW221714   0.551   4.494   1.313 -0.5679  0.3324 -0.1043
 3418SOL     OW21715   0.262   3.100   9.219 -0.1954 -0.0842 -0.1193
 3418SOL    HW121716   0.224   3.014   9.200  1.2670 -0.8066  0.2857
 3418SOL    HW221717   0.347   3.074   9.254 -0.3793 -1.3614 -0.6434
 3419SOL     OW21718   0.004   4.170   0.799  0.1713  0.3717  0.7570
 3419SOL    HW121719   0.061   4.111   0.848  0.9587  1.4752  1.1925
 3419SOL    HW221720   4.639   4.150   0.837  0.2596  1.6650  1.6582
 3420SOL     OW21721   2.101   2.599   5.922  0.2297  0.0394  0.3542
 3420SOL    HW121722   2.142   2.524   5.966  2.0851 -0.1817 -1.7606
 3420SOL    HW221723   2.054   2.628   6.000 -0.6017  1.1459 -0.5605
 3421SOL     OW21724   0.813   0.142  11.293  0.2708  0.2616  0.0584
 3421SOL    HW121725   0.760   0.136  11.373 -2.1794  2.6656 -1.3772
 3421SOL    HW221726   0.862   0.222  11.310 -1.1397  1.0098  0.6080
 3422SOL     OW21727   2.360   3.458   9.333  0.0735 -0.3676  0.3569
 3422SOL    HW121728   2.424   3.427   9.269 -1.7019 -1.9330 -0.6477
 3422SOL    HW221729   2.290   3.394   9.320 -1.0394  0.9576 -0.2001
 3423SOL     OW21730   0.125   4.552   8.284  0.1693  0.5357 -0.6958
 3423SOL    HW121731   0.148   4.592   8.368  3.5027  0.4614 -1.5937
 3423SOL    HW221732   0.063   4.621   8.258 -2.6176 -1.2681  1.1662
 3424SOL     OW21733   3.128   4.117   0.166 -0.2363 -0.0257 -0.0820
 3424SOL    HW121734   3.069   4.072   0.227  1.6941 -2.6732 -0.1302
 3424SOL    HW221735   3.127   4.210   0.186  2.0988 -0.2196  0.9818
 3425SOL     OW21736   2.191   1.003  10.820 -0.3164 -0.2247 -0.2309
 3425SOL    HW121737   2.251   1.043  10.758 -1.1289  0.1911 -0.7422
 3425SOL    HW221738   2.229   1.032  10.903  0.2318  1.7192 -1.1683
 3426SOL     OW21739   4.014   2.133  17.431  0.0578  0.5417  0.1106
 3426SOL    HW121740   3.960   2.144  17.509  0.2049  2.0952 -0.0010
 3426SOL    HW221741   3.976   2.062  17.380  0.6282  0.4727 -0.2232
 3427SOL     OW21742   2.469   4.582  12.690  0.2646  0.1464 -0.3272
 3427SOL    HW121743   2.437   4.654  12.636 -0.6114  1.0828  1.4408
 3427SOL    HW221744   2.504   4.615  12.773 -0.6951 -0.3116  0.2575
 3428SOL     OW21745   1.542   4.657  11.592  0.5418  0.8487 -0.3450
 3428SOL    HW121746   1.524   4.621  11.679 -2.6897 -1.6354 -2.0452
 3428SOL    HW221747   1.607   4.596  11.556 -1.2828  0.6722 -3.2990
 3429SOL     OW21748   4.165   2.498   2.228  0.0397 -0.1438  0.3016
 3429SOL    HW121749   4.153   2.442   2.305 -1.5038 -1.1370 -0.6642
 3429SOL    HW221750   4.253   2.534   2.242  0.6718 -1.0919 -1.1907
 3430SOL     OW21751   3.759   4.611  15.358 -0.1605  0.5127  0.0248
 3430SOL    HW121752   3.717   4.528  15.380  2.2027 -0.6855  0.0246
 3430SOL    HW221753   3.708   4.628  15.279 -1.1574  0.3295  0.6269
 3431SOL     OW21754   0.988   3.173   4.007  0.3613  0.0730 -0.6105
 3431SOL    HW121755   1.012   3.169   4.099 -1.4136 -2.4161 -0.2567
 3431SOL    HW221756   1.069   3.213   3.975 -0.2251  1.1295 -0.7754
 3432SOL     OW21757   1.546   4.331   6.816  0.5977 -0.0654 -0.1578
 3432SOL    HW121758   1.532   4.374   6.732 -1.4546 -1.3674 -0.4845
 3432SOL    HW221759   1.512   4.396   6.877 -1.9719 -1.0529 -0.4998
 3433SOL     OW21760   2.097   4.291   3.507  0.0200  0.1459  0.3261
 3433SOL    HW121761   2.128   4.322   3.422 -0.4643 -0.5639 -0.1123
 3433SOL    HW221762   2.162   4.321   3.570  1.2559 -1.2137 -0.2915
 3434SOL     OW21763   1.729   2.882   5.889  0.0838  0.4149  0.2750
 3434SOL    HW121764   1.685   2.925   5.816  1.4526 -0.9998 -1.3847
 3434SOL    HW221765   1.742   2.796   5.848 -0.7248  0.2803  0.3070
 3435SOL     OW21766   0.164   3.658   4.205 -1.0004  0.2409 -0.1960
 3435SOL    HW121767   0.211   3.734   4.239 -0.6929 -0.3584  0.7073
 3435SOL    HW221768   0.145   3.616   4.289  0.0882 -0.8354 -0.4765
 3436SOL     OW21769   1.671   3.284   5.723 -0.0754 -0.0079 -0.3398
 3436SOL    HW121770   1.748   3.262   5.774 -2.0395  0.2271  2.7126
 3436SOL    HW221771   1.615   3.215   5.758 -0.4357  0.8397  0.7657
 3437SOL     OW21772   3.703   0.404   0.682 -0.5496 -0.5452  0.4085
 3437SOL    HW121773   3.703   0.310   0.694 -1.8535 -0.6557 -0.4695
 3437SOL    HW221774   3.690   0.439   0.770 -1.2520 -1.2412  0.5689
 3438SOL     OW21775   1.265   1.377  14.565  0.3797 -0.4856  0.4647
 3438SOL    HW121776   1.204   1.400  14.495 -1.1978 -2.6910  1.1030
 3438SOL    HW221777   1.348   1.402  14.525  0.0471  1.1030  0.7544
 3439SOL     OW21778   0.412   1.084   8.443 -0.3759 -0.2907  0.2469
 3439SOL    HW121779   0.461   1.131   8.511 -2.6774  1.9223  0.3731
 3439SOL    HW221780   0.327   1.126   8.456 -0.4168 -0.3869  0.2858
 3440SOL     OW21781   2.199   2.540   3.782  0.3974  0.4276  0.2244
 3440SOL    HW121782   2.172   2.632   3.790 -1.1979 -0.2243  2.2084
 3440SOL    HW221783   2.112   2.500   3.787  1.6152 -2.2007  0.1008
 3441SOL     OW21784   2.587   1.416   9.250  0.0847 -0.2773 -0.1520
 3441SOL    HW121785   2.492   1.412   9.238  0.0385  0.6229 -0.0515
 3441SOL    HW221786   2.601   1.336   9.302 -0.2036 -1.1020 -1.3293
 3442SOL     OW21787   4.296   2.599   3.885  0.0862 -0.3856  0.0048
 3442SOL    HW121788   4.231   2.646   3.833  1.2998  1.9249  0.5959
 3442SOL    HW221789   4.363   2.667   3.882 -0.8206  0.5574  1.1062
 3443SOL     OW21790   3.148   1.764   2.273 -0.3923  0.1509  0.5661
 3443SOL    HW121791   3.080   1.826   2.300 -0.1631  0.4509  0.4536
 3443SOL    HW221792   3.201   1.819   2.216 -2.4558  0.2523 -1.2600
 3444SOL     OW21793   3.888   4.141   6.119 -0.6976 -0.4176  0.0919
 3444SOL    HW121794   3.848   4.054   6.115 -2.1843  0.1791  1.7657
 3444SOL    HW221795   3.812   4.195   6.141  0.3184 -0.2485  3.2180
 3445SOL     OW21796   1.956   3.033   8.997 -0.0498  0.3613  0.0146
 3445SOL    HW121797   1.887   3.042   9.063  0.0931 -1.1627  0.3776
 3445SOL    HW221798   1.978   3.126   9.008 -0.5390  0.4288  0.4647
 3446SOL     OW21799   3.342   1.436   0.665 -0.4203 -0.0474 -0.5020
 3446SOL    HW121800   3.304   1.368   0.610 -0.2704 -0.9406  0.4928
 3446SOL    HW221801   3.409   1.389   0.715 -1.2042  0.4994  1.0619
 3447SOL     OW21802   1.196   3.663   8.702 -0.6401  0.4378 -0.1198
 3447SOL    HW121803   1.210   3.693   8.792 -2.9506  0.1653  0.3232
 3447SOL    HW221804   1.106   3.694   8.699 -0.1418  1.8762 -0.2365
 3448SOL     OW21805   3.679   2.289   7.538 -0.6055  0.0962 -0.1820
 3448SOL    HW121806   3.738   2.343   7.484 -1.7076  1.9331  0.4507
 3448SOL    HW221807   3.733   2.212   7.557  0.8823  1.3474  0.7115
 3449SOL     OW21808   1.966   1.386   9.525 -0.6191  0.2745 -0.0973
 3449SOL    HW121809   1.907   1.444   9.477  0.3836  0.8050 -0.6871
 3449SOL    HW221810   1.986   1.447   9.596  1.5972  1.2107 -1.5361
 3450SOL     OW21811   0.755   1.614   5.936  0.5090 -0.1057  0.2897
 3450SOL    HW121812   0.700   1.634   5.860  0.6556 -0.0217  0.2073
 3450SOL    HW221813   0.807   1.536   5.916 -0.3976 -0.7467  0.4504
 3451SOL     OW21814   3.060   2.555  13.268 -0.4165  0.3448 -0.1723
 3451SOL    HW121815   3.058   2.463  13.241  0.4666  0.5746 -1.0476
 3451SOL    HW221816   3.121   2.560  13.342 -0.5140  0.1703 -0.0794
 3452SOL     OW21817   2.799   2.105  14.880  0.0215  0.3610 -0.0003
 3452SOL    HW121818   2.887   2.140  14.865  0.6903 -0.8471  1.1011
 3452SOL    HW221819   2.781   2.039  14.813  0.2305  1.9210 -1.6075
 3453SOL     OW21820   4.667   1.090   1.647  0.5282 -0.5371 -0.5230
 3453SOL    HW121821   4.707   1.125   1.567  1.5360  1.1831  0.7270
 3453SOL    HW221822   4.685   1.154   1.716 -0.6294 -1.1486  0.3273
 3454SOL     OW21823   0.853   3.455   2.654  0.0744 -0.3923 -0.0381
 3454SOL    HW121824   0.795   3.478   2.727 -0.4215 -1.0518 -0.2237
 3454SOL    HW221825   0.914   3.528   2.653 -0.9720  0.4487 -1.9308
 3455SOL     OW21826   2.472   3.323  13.891  0.0112 -0.4457 -0.0405
 3455SOL    HW121827   2.508   3.291  13.974  1.9447 -0.8597 -1.0408
 3455SOL    HW221828   2.438   3.410  13.913 -2.2968 -0.9643 -1.6558
 3456SOL     OW21829   2.189   4.227   7.744 -0.1844 -0.3225 -0.3840
 3456SOL    HW121830   2.217   4.154   7.800 -1.7837  0.7390  1.7951
 3456SOL    HW221831   2.199   4.187   7.657  1.7075 -0.8488  0.0823
 3457SOL     OW21832   4.410   4.028   6.650 -0.1549  0.4502  0.1798
 3457SOL    HW121833   4.377   4.046   6.562 -0.7611 -3.0206 -0.3079
 3457SOL    HW221834   4.423   3.933   6.640  0.6354  0.4525  1.1868
 3458SOL     OW21835   4.335   2.636   8.937 -0.0470 -0.0254 -0.2750
 3458SOL    HW121836   4.268   2.684   8.985  0.8827  3.5629 -2.5332
 3458SOL    HW221837   4.387   2.596   9.007  0.1511 -0.0025 -0.4077
 3459SOL     OW21838   1.163   2.170   7.560 -0.1229 -0.0641 -0.3531
 3459SOL    HW121839   1.075   2.206   7.549  0.1232 -0.0785 -2.5234
 3459SOL    HW221840   1.171   2.181   7.654 -0.0942  0.0354 -0.3675
 3460SOL     OW21841   3.234   3.853   3.950  0.0018  0.1311 -0.5391
 3460SOL    HW121842   3.266   3.808   3.872  0.5292 -0.0390 -0.2253
 3460SOL    HW221843   3.141   3.834   3.942 -0.1940  0.8173  0.0695
 3461SOL     OW21844   2.779   0.158  14.807 -0.1054 -0.3401  0.2062
 3461SOL    HW121845   2.699   0.191  14.847 -0.2392 -0.0276 -0.3170
 3461SOL    HW221846   2.837   0.163  14.883 -0.3081 -0.3371  0.3595
 3462SOL     OW21847   3.122   2.197   5.749 -0.2879 -0.8244 -0.3549
 3462SOL    HW121848   3.192   2.218   5.687  0.5528 -1.7438  0.2765
 3462SOL    HW221849   3.105   2.106   5.725  1.4059 -0.6981 -2.0057
 3463SOL     OW21850   1.935   0.619   3.920  0.6122  0.7188  1.0200
 3463SOL    HW121851   1.995   0.676   3.871 -0.3567  1.9655  1.2620
 3463SOL    HW221852   1.952   0.641   4.011 -0.7122  0.9019  1.2272
 3464SOL     OW21853   0.895   2.758   6.240 -0.0315  0.3539 -0.2031
 3464SOL    HW121854   0.883   2.753   6.335  0.6713 -1.1772 -0.1982
 3464SOL    HW221855   0.951   2.836   6.234  0.6386 -0.4634 -4.3512
 3465SOL     OW21856   3.117   3.729   7.028 -0.2274 -0.6582 -0.2546
 3465SOL    HW121857   3.039   3.768   7.066 -0.1055 -0.3016 -0.3714
 3465SOL    HW221858   3.126   3.648   7.078  1.5517 -1.6382 -2.1558
 3466SOL     OW21859   0.404   1.339   1.452  0.0361  0.0998 -0.0565
 3466SOL    HW121860   0.492   1.314   1.425 -0.7581 -1.1491 -1.5135
 3466SOL    HW221861   0.353   1.301   1.380  0.5370  0.9632 -0.8761
 3467SOL     OW21862   2.606   1.391   3.712 -0.9936 -0.4143 -0.1021
 3467SOL    HW121863   2.586   1.472   3.665 -0.8186 -1.0634 -1.2921
 3467SOL    HW221864   2.673   1.360   3.651 -1.6211  0.3604 -1.1829
 3468SOL     OW21865   3.274   4.230   5.022  0.4403  0.2400 -0.8169
 3468SOL    HW121866   3.237   4.318   5.017  0.1110  0.1024 -0.7777
 3468SOL    HW221867   3.211   4.195   5.085  0.2534  0.7968 -0.6885
 3469SOL     OW21868   4.287   2.935   2.226  0.4003 -0.0268  0.3010
 3469SOL    HW121869   4.295   3.007   2.289 -1.1643  0.0036  0.4524
 3469SOL    HW221870   4.199   2.949   2.192  0.0809 -0.8984  0.7716
 3470SOL     OW21871   0.753   2.865   5.609 -0.1058 -0.1886  0.0879
 3470SOL    HW121872   0.725   2.938   5.665 -1.3442  1.1191 -2.2546
 3470SOL    HW221873   0.697   2.884   5.534  0.0607 -1.5301 -0.3773
 3471SOL     OW21874   2.226   3.959  12.975 -0.3303  0.2517  0.5371
 3471SOL    HW121875   2.177   4.022  12.922  0.0056  0.9213  1.0168
 3471SOL    HW221876   2.314   3.982  12.948  0.3177 -0.2914  2.1612
 3472SOL     OW21877   2.921   1.644   3.164  0.6826 -0.1841 -0.0565
 3472SOL    HW121878   3.010   1.676   3.150  0.6707 -0.5181 -0.8984
 3472SOL    HW221879   2.902   1.604   3.079 -1.0140 -1.0522  0.7205
 3473SOL     OW21880   2.785   3.081   1.405  0.8804  0.0164  0.0807
 3473SOL    HW121881   2.780   3.057   1.497 -1.7559  0.6736  0.1278
 3473SOL    HW221882   2.861   3.032   1.373  1.3929 -0.4309  2.0171
 3474SOL     OW21883   4.118   2.711  10.415 -0.4808  0.5092 -0.1258
 3474SOL    HW121884   4.123   2.797  10.458 -2.8404  1.4654 -1.7548
 3474SOL    HW221885   4.086   2.654  10.484 -1.0453  0.0141 -0.8028
 3475SOL     OW21886   2.390   2.162   1.811  0.3910 -0.0321  0.1135
 3475SOL    HW121887   2.471   2.114   1.791  1.4698  1.5646  0.7050
 3475SOL    HW221888   2.323   2.095   1.795  0.5911 -0.3954  0.7943
 3476SOL     OW21889   4.655   0.274   4.953 -0.0694 -0.4357 -0.2586
 3476SOL    HW121890   4.638   0.346   4.892 -0.5971 -0.4412 -0.1158
 3476SOL    HW221891   0.026   0.292   4.972  0.3412 -0.1038 -2.5565
 3477SOL     OW21892   0.463   0.079   6.728 -0.1542 -0.2136 -0.5764
 3477SOL    HW121893   0.392   0.132   6.692  0.3566  2.0838  1.7794
 3477SOL    HW221894   0.439   0.060   6.819  0.9305  1.2452  0.0190
 3478SOL     OW21895   1.449   0.811  17.390  0.1125 -0.1337  0.8881
 3478SOL    HW121896   1.471   0.722  17.418 -2.1936 -1.2452 -0.8078
 3478SOL    HW221897   1.515   0.865  17.434  0.9787 -0.6211  0.1764
 3479SOL     OW21898   1.347   2.505   0.079 -0.3175 -0.0795  0.5378
 3479SOL    HW121899   1.324   2.463   0.162 -1.1798 -3.1845 -1.2716
 3479SOL    HW221900   1.336   2.594   0.114 -0.7479  1.0069 -2.3729
 3480SOL     OW21901   0.546   3.029   3.310  0.2203  0.2842  0.1593
 3480SOL    HW121902   0.480   3.072   3.364 -0.9522  0.4813 -1.4240
 3480SOL    HW221903   0.552   3.088   3.235 -0.5649 -3.0688 -2.5657
 3481SOL     OW21904   2.485   0.471   9.611 -0.4892  0.0028  0.1210
 3481SOL    HW121905   2.546   0.427   9.551 -1.3329 -1.6845  0.4807
 3481SOL    HW221906   2.538   0.541   9.648  0.8943 -1.5720  1.1592
 3482SOL     OW21907   4.098   2.896   6.197 -0.8632  0.6852  0.2956
 3482SOL    HW121908   4.023   2.909   6.138 -0.9128 -4.0116 -0.6715
 3482SOL    HW221909   4.060   2.924   6.280 -0.8704 -1.0408  0.8670
 3483SOL     OW21910   3.227   1.628   6.601  0.8366 -0.3509 -0.3580
 3483SOL    HW121911   3.234   1.632   6.506 -0.7065 -2.4501 -0.5372
 3483SOL    HW221912   3.170   1.704   6.616 -0.0037 -1.1598  0.5702
 3484SOL     OW21913   0.725   4.108   7.476 -0.1402 -0.5175 -0.3383
 3484SOL    HW121914   0.680   4.062   7.405  1.2622  0.6828 -2.0182
 3484SOL    HW221915   0.645   4.118   7.527  0.1956 -1.5027  0.3757
 3485SOL     OW21916   2.799   1.754   7.244 -0.1154  0.0227 -0.0749
 3485SOL    HW121917   2.745   1.677   7.259  0.8226 -0.1531  2.2707
 3485SOL    HW221918   2.761   1.823   7.298  2.5389  1.1295  0.4226
 3486SOL     OW21919   3.065   0.717   9.221 -0.2837 -0.7412  0.9813
 3486SOL    HW121920   2.979   0.760   9.223  0.3897  0.7191 -1.5928
 3486SOL    HW221921   3.124   0.782   9.183 -1.6249 -1.2267 -1.9502
 3487SOL     OW21922   2.805   2.136   7.686 -0.1264  0.3124  0.4908
 3487SOL    HW121923   2.801   2.078   7.762 -0.4157  1.3576  1.2733
 3487SOL    HW221924   2.878   2.191   7.714 -0.9280  2.2577 -1.2306
 3488SOL     OW21925   0.479   2.792   1.931  0.4535 -0.0048 -0.1876
 3488SOL    HW121926   0.499   2.699   1.919 -0.5111 -0.1560 -0.6369
 3488SOL    HW221927   0.565   2.828   1.953  0.7063  0.7136 -2.3510
 3489SOL     OW21928   2.901   0.624   4.206 -0.0543 -0.1198  0.0909
 3489SOL    HW121929   2.819   0.612   4.159 -0.1182  1.0246 -0.0756
 3489SOL    HW221930   2.958   0.652   4.135 -1.2969 -1.8937 -1.6196
 3490SOL     OW21931   0.511   0.470  11.225 -0.2018  0.2261 -0.2537
 3490SOL    HW121932   0.603   0.468  11.201 -0.7863 -0.4624 -2.4454
 3490SOL    HW221933   0.496   0.564  11.233 -2.0388 -0.1649  1.2110
 3491SOL     OW21934   2.604   0.188   3.076  0.1885 -0.1515 -0.0422
 3491SOL    HW121935   2.654   0.229   3.146  1.2980 -1.3219 -0.1423
 3491SOL    HW221936   2.676   0.145   3.030  1.8376  1.0789  1.4222
 3492SOL     OW21937   2.900   3.157  16.230 -0.2217  0.5820  0.1339
 3492SOL    HW121938   2.856   3.213  16.166 -0.0120 -0.1620 -0.6727
 3492SOL    HW221939   2.847   3.183  16.304  1.4941  1.1996  1.1493
 3493SOL     OW21940   4.384   1.813  15.840 -0.7767  0.1455  0.1698
 3493SOL    HW121941   4.327   1.799  15.764  0.3997 -0.6502 -0.5658
 3493SOL    HW221942   4.460   1.844  15.790  0.3968 -1.0321  1.2353
 3494SOL     OW21943   2.306   4.050  13.893 -0.2499 -0.6650 -0.7430
 3494SOL    HW121944   2.237   4.115  13.885 -0.5725 -0.8536  0.5211
 3494SOL    HW221945   2.341   4.077  13.978  1.4654  0.0246 -1.6651
 3495SOL     OW21946   0.926   1.464  11.508  0.3275 -0.4312 -0.0787
 3495SOL    HW121947   0.908   1.414  11.428 -1.3415 -0.7939  0.5213
 3495SOL    HW221948   0.844   1.512  11.509 -0.4002 -1.6249 -1.4954
 3496SOL     OW21949   3.015   2.758   0.167  0.8406  0.3550  0.1874
 3496SOL    HW121950   3.038   2.708   0.246 -1.3502 -1.0737 -0.0776
 3496SOL    HW221951   3.103   2.791   0.149  0.7658  0.6593  0.3801
 3497SOL     OW21952   0.615   0.622   6.924 -0.4189 -0.1744 -0.0747
 3497SOL    HW121953   0.639   0.699   6.976 -1.5185  1.7749 -2.4483
 3497SOL    HW221954   0.678   0.635   6.853  1.0995  0.5058  1.3775
 3498SOL     OW21955   1.895   0.430  14.595 -0.2180  0.1806 -0.1195
 3498SOL    HW121956   1.980   0.408  14.632 -0.2714 -2.6407 -1.7342
 3498SOL    HW221957   1.833   0.361  14.618 -1.1216  1.9165  2.6961
 3499SOL     OW21958   3.386   3.425   8.011  0.5519  0.1440 -0.1422
 3499SOL    HW121959   3.419   3.445   8.098 -0.6272  0.5738  0.2188
 3499SOL    HW221960   3.305   3.381   8.038 -0.3954  1.7530 -0.3766
 3500SOL     OW21961   1.340   1.154   5.044 -0.1925  0.5009  0.0170
 3500SOL    HW121962   1.374   1.236   5.008  0.9250 -0.7661 -1.8306
 3500SOL    HW221963   1.304   1.110   4.967  0.9232  1.7061 -1.1946
 3501SOL     OW21964   2.296   2.275  16.617 -0.4238 -0.1309  0.5022
 3501SOL    HW121965   2.280   2.366  16.644  0.3064 -0.1927  1.1395
 3501SOL    HW221966   2.209   2.245  16.591  0.5581  0.3082 -3.3075
 3502SOL     OW21967   0.996   2.771   4.487 -0.3859  0.1843 -0.0142
 3502SOL    HW121968   1.028   2.706   4.425  0.7715  0.7229  0.0205
 3502SOL    HW221969   1.021   2.734   4.571 -0.0095  3.5826  1.4038
 3503SOL     OW21970   1.382   0.510   8.232 -0.1763  0.1221  0.0488
 3503SOL    HW121971   1.388   0.544   8.142 -0.0939  2.3771  0.9077
 3503SOL    HW221972   1.463   0.458   8.239  0.5135  1.2957  0.7035
 3504SOL     OW21973   4.469   1.036   7.652 -0.3306 -0.1572  0.1327
 3504SOL    HW121974   4.508   0.966   7.599  0.3265  0.4249 -0.1642
 3504SOL    HW221975   4.511   1.017   7.736  0.8576  0.9729 -0.2085
 3505SOL     OW21976   2.780   1.974   0.483 -0.0363  0.3562 -1.1605
 3505SOL    HW121977   2.825   1.897   0.518 -0.2975  0.5700 -0.3502
 3505SOL    HW221978   2.687   1.954   0.497  0.0057  0.4906 -0.6956
 3506SOL     OW21979   0.543   1.589   7.053 -0.4049  0.3764  0.0145
 3506SOL    HW121980   0.473   1.529   7.077  1.3964 -1.6459  0.2049
 3506SOL    HW221981   0.536   1.578   6.958 -1.9719  0.8886  0.0762
 3507SOL     OW21982   3.339   0.094  16.374 -0.7836 -0.8147  0.1435
 3507SOL    HW121983   3.253   0.069  16.342 -1.5019 -0.2023  1.6110
 3507SOL    HW221984   3.388   0.083  16.292  0.4477  2.6036  0.4054
 3508SOL     OW21985   0.011   3.012   4.371 -0.1516  0.0605  0.1547
 3508SOL    HW121986   4.652   3.057   4.344 -0.3507 -1.7350 -2.2447
 3508SOL    HW221987   0.007   3.039   4.463  0.5501  3.2402 -0.7607
 3509SOL     OW21988   1.970   3.501  16.624  0.8080  0.0857  0.3008
 3509SOL    HW121989   1.923   3.476  16.544  1.5222  1.2758 -0.4924
 3509SOL    HW221990   1.962   3.596  16.616 -1.7550 -0.2253 -1.0564
 3510SOL     OW21991   3.119   3.269   7.913 -0.1713 -0.3921  0.4130
 3510SOL    HW121992   3.123   3.176   7.893 -1.1679 -0.4608  0.5416
 3510SOL    HW221993   3.157   3.275   8.000 -1.6439 -2.2240  1.1606
 3511SOL     OW21994   2.797   2.824   9.170  0.0477 -0.9913  0.0632
 3511SOL    HW121995   2.789   2.856   9.260 -2.6789 -2.2289  0.2561
 3511SOL    HW221996   2.865   2.881   9.133  0.4910 -0.7937  1.1619
 3512SOL     OW21997   1.827   1.206  12.770 -0.0180 -0.2383  0.0406
 3512SOL    HW121998   1.770   1.208  12.848 -2.9246 -0.8639 -2.0595
 3512SOL    HW221999   1.766   1.162  12.711 -0.4989  2.0874 -1.1771
 3513SOL     OW22000   2.540   0.015   8.809  0.1010 -0.0742  0.1857
 3513SOL    HW122001   2.622   4.707   8.848 -1.6453 -1.1719  3.0653
 3513SOL    HW222002   2.493   4.656   8.785  0.2545 -1.5911  5.0766
 3514SOL     OW22003   1.959   4.527   6.366 -0.3468  0.1411 -0.0131
 3514SOL    HW122004   1.978   4.533   6.272  1.0194  1.1175  0.3216
 3514SOL    HW222005   1.941   4.434   6.383 -2.3774  0.2308 -1.6135
 3515SOL     OW22006   1.698   3.999   6.775 -0.0923 -0.2030 -0.0672
 3515SOL    HW122007   1.622   4.004   6.717  0.8198  0.7742 -1.1660
 3515SOL    HW222008   1.677   4.055   6.849  1.0170  1.5633 -1.0839
 3516SOL     OW22009   3.946   3.461   4.255 -0.6651  0.1919  0.0805
 3516SOL    HW122010   3.874   3.449   4.193 -0.7340  0.5356  0.0955
 3516SOL    HW222011   3.909   3.407   4.325  1.0180  0.0447  0.8576
 3517SOL     OW22012   0.910   4.113   2.596 -0.1808  0.5232 -0.4644
 3517SOL    HW122013   0.935   4.023   2.577 -0.6898  0.1334  0.7054
 3517SOL    HW222014   0.988   4.161   2.567 -0.6433  1.7999  0.4056
 3518SOL     OW22015   3.602   4.367   3.385 -0.3493 -0.1705 -0.0208
 3518SOL    HW122016   3.586   4.359   3.479  0.3265  1.3384  0.2064
 3518SOL    HW222017   3.691   4.333   3.376 -0.5351 -0.7114  0.1332
 3519SOL     OW22018   4.319   3.128   7.236 -0.4097 -0.6254 -0.5561
 3519SOL    HW122019   4.380   3.067   7.277 -0.1555 -1.7441 -2.5609
 3519SOL    HW222020   4.337   3.086   7.152 -0.7135 -0.0116 -0.9297
 3520SOL     OW22021   2.677   2.701  12.947  0.4292  0.8595  0.2032
 3520SOL    HW122022   2.687   2.747  12.864 -0.8389  0.0920 -0.3614
 3520SOL    HW222023   2.615   2.759  12.990 -1.3399  0.0429 -1.2716
 3521SOL     OW22024   4.186   2.439   5.731  0.6858 -0.2991  0.5449
 3521SOL    HW122025   4.175   2.347   5.709 -0.5454 -0.3356  1.3403
 3521SOL    HW222026   4.114   2.453   5.792 -1.6027  0.1189 -2.2812
 3522SOL     OW22027   2.403   4.127   8.300 -0.3497  0.4164  0.2722
 3522SOL    HW122028   2.364   4.047   8.337  0.8552  0.5832  1.9291
 3522SOL    HW222029   2.364   4.130   8.213  0.2857 -0.8820 -0.0659
 3523SOL     OW22030   0.086   4.361   8.883  0.3871  0.2330 -0.0545
 3523SOL    HW122031   0.046   4.275   8.871  0.5933  0.3587 -1.6962
 3523SOL    HW222032   0.110   4.360   8.976 -1.4611 -0.5211  0.3975
 3524SOL     OW22033   3.845   1.757   0.264 -0.0396  0.1818 -0.7950
 3524SOL    HW122034   3.916   1.817   0.241  0.6284  0.6936  2.7601
 3524SOL    HW222035   3.817   1.797   0.346  1.4892  2.7214 -1.5277
 3525SOL     OW22036   4.437   0.614  16.436 -0.1032 -0.1739  0.1828
 3525SOL    HW122037   4.419   0.658  16.519 -1.5251  0.8155 -0.6476
 3525SOL    HW222038   4.360   0.631  16.381 -0.0131 -0.4555 -0.0318
 3526SOL     OW22039   4.710   2.121   4.478 -0.1129 -0.0660 -0.1010
 3526SOL    HW122040   0.074   2.165   4.484 -1.3476  2.3201 -0.4375
 3526SOL    HW222041   4.704   2.085   4.567  0.3685 -0.4124 -0.2063
 3527SOL     OW22042   4.353   4.365  14.546 -0.3509 -0.1812 -0.1340
 3527SOL    HW122043   4.272   4.316  14.532  0.8268 -1.7570 -1.4544
 3527SOL    HW222044   4.320   4.443  14.501 -0.1888  1.2566  2.2750
 3528SOL     OW22045   3.048   1.000   1.533 -0.2978  0.1544  0.3949
 3528SOL    HW122046   3.063   1.084   1.577  1.5263 -0.9675  1.9325
 3528SOL    HW222047   2.954   1.013   1.518 -0.1065  1.5252  0.3214
 3529SOL     OW22048   3.455   0.896   1.621  0.0993  0.1749 -0.2437
 3529SOL    HW122049   3.370   0.865   1.589  1.1549 -1.7375 -1.1309
 3529SOL    HW222050   3.489   0.934   1.540 -1.2960  1.9657  0.0083
 3530SOL     OW22051   1.466   2.878   4.486  0.5076  0.5465  0.3600
 3530SOL    HW122052   1.538   2.907   4.543  1.1209 -2.9193  1.3699
 3530SOL    HW222053   1.497   2.844   4.402 -2.6564  0.3763 -0.7068
 3531SOL     OW22054   0.476   3.619  11.249  0.4766 -0.2080 -0.6388
 3531SOL    HW122055   0.477   3.533  11.291  1.0504  1.7024  3.2945
 3531SOL    HW222056   0.478   3.598  11.156 -0.5972 -1.4089 -0.3847
 3532SOL     OW22057   1.005   3.369  17.352  0.0833  0.6956  0.3468
 3532SOL    HW122058   1.084   3.402  17.394 -0.1632  2.7643 -0.8608
 3532SOL    HW222059   0.960   3.325  17.425 -0.5277  0.2511 -0.2950
 3533SOL     OW22060   0.558   4.557   1.683  0.6843  0.5936 -0.3566
 3533SOL    HW122061   0.538   4.522   1.597  0.3570 -0.5014  0.1597
 3533SOL    HW222062   0.476   4.526   1.723  1.2875 -1.1108 -0.4246
 3534SOL     OW22063   0.564   1.760   4.382  0.6537  0.3519 -0.0062
 3534SOL    HW122064   0.649   1.749   4.340  0.2352 -0.8516 -0.5559
 3534SOL    HW222065   0.533   1.839   4.338  0.2750  0.1777 -0.0599
 3535SOL     OW22066   1.354   1.752   2.558 -0.0129  0.8304 -0.8200
 3535SOL    HW122067   1.293   1.692   2.601  0.8597  0.8299  0.4117
 3535SOL    HW222068   1.299   1.783   2.485  1.6168  2.8228 -1.2101
 3536SOL     OW22069   0.880   3.854   1.498  0.0782  0.6620  0.1168
 3536SOL    HW122070   0.856   3.944   1.475  0.7618  0.9353  0.4985
 3536SOL    HW222071   0.975   3.862   1.503  0.3078 -1.7674 -0.0450
 3537SOL     OW22072   0.289   3.306   7.756  0.0497 -0.1808 -0.4257
 3537SOL    HW122073   0.284   3.388   7.806 -1.7070 -0.2119 -0.5562
 3537SOL    HW222074   0.353   3.326   7.688 -0.5467 -0.4439 -1.0661
 3538SOL     OW22075   4.269   4.105   3.249  0.0148  0.1453 -0.2877
 3538SOL    HW122076   4.258   4.027   3.304 -0.7454  0.6081  0.2231
 3538SOL    HW222077   4.236   4.175   3.306 -1.3406 -1.3982  0.8521
 3539SOL     OW22078   2.499   1.745  16.921 -0.4947 -0.0765 -0.2652
 3539SOL    HW122079   2.540   1.754  17.007  0.3195  1.1869 -0.7882
 3539SOL    HW222080   2.461   1.658  16.936  0.6159 -0.7632 -1.4472
 3540SOL     OW22081   2.020   2.075  11.242  0.1355 -0.3869  0.0156
 3540SOL    HW122082   2.052   1.988  11.220 -1.1999 -0.8854  0.0062
 3540SOL    HW222083   2.101   2.126  11.245 -0.4845  0.8663 -3.5435
 3541SOL     OW22084   4.005   2.481   0.262 -0.3174  0.3958  0.0991
 3541SOL    HW122085   3.912   2.462   0.271 -0.0915 -1.2638 -1.1414
 3541SOL    HW222086   4.027   2.414   0.197 -3.2220  2.2110 -2.7950
 3542SOL     OW22087   2.071   4.702   7.121  0.0858 -0.7229 -0.2866
 3542SOL    HW122088   2.098   0.042   7.190  1.0791 -1.7555  0.2300
 3542SOL    HW222089   2.149   4.707   7.065 -1.0478  1.7875 -1.6026
 3543SOL     OW22090   0.106   2.559   9.006  0.2268  0.2453  0.1132
 3543SOL    HW122091   0.023   2.603   8.989  1.2272  2.1026  0.1194
 3543SOL    HW222092   0.086   2.483   9.061 -0.7547  0.5710  0.2085
 3544SOL     OW22093   4.627   1.085  11.636 -0.7058  0.2750 -0.3565
 3544SOL    HW122094   4.667   1.132  11.562  0.9904 -0.6746 -0.0577
 3544SOL    HW222095   4.572   1.019  11.595  0.0078  1.0204 -2.5095
 3545SOL     OW22096   4.528   0.928   2.247  0.0740 -0.1362 -0.5068
 3545SOL    HW122097   4.473   0.995   2.205 -0.4873 -1.8728 -2.5035
 3545SOL    HW222098   4.613   0.970   2.231  0.2705 -0.2656  0.2049
 3546SOL     OW22099   1.919   0.081   0.307 -0.0564 -0.1948  0.3043
 3546SOL    HW122100   1.972   0.103   0.230 -0.0487 -1.5226 -0.0607
 3546SOL    HW222101   1.844   0.037   0.266 -0.6793  1.5615 -0.4661
 3547SOL     OW22102   1.095   4.377   1.279  0.1376 -0.2193 -0.6535
 3547SOL    HW122103   1.186   4.388   1.253  0.0686 -0.1470 -0.8606
 3547SOL    HW222104   1.088   4.437   1.354 -1.4134  0.2369 -1.1531
 3548SOL     OW22105   1.363   1.953  15.324 -0.1636  0.1926 -0.1923
 3548SOL    HW122106   1.332   1.873  15.283  3.2900  0.8502 -4.0406
 3548SOL    HW222107   1.285   2.007  15.340  1.6907  3.2269 -1.3715
 3549SOL     OW22108   3.098   0.956  16.486  0.1692 -0.1633 -0.0335
 3549SOL    HW122109   3.157   0.990  16.553 -2.3196  0.9064  1.6494
 3549SOL    HW222110   3.155   0.960  16.409 -0.3991  1.3429 -0.3821
 3550SOL     OW22111   2.223   2.562   2.439  0.1572 -0.1439  0.4129
 3550SOL    HW122112   2.248   2.530   2.353 -0.1596  0.8766 -0.0588
 3550SOL    HW222113   2.255   2.489   2.492  2.1325 -0.5750 -1.3825
 3551SOL     OW22114   0.351   1.227   2.093 -0.2557 -0.6578 -0.2573
 3551SOL    HW122115   0.328   1.240   2.001  0.9633  0.9193 -0.3266
 3551SOL    HW222116   0.284   1.284   2.131  0.6988  1.5843 -1.9364
 3552SOL     OW22117   3.086   1.018  13.480  0.2725 -0.3410 -0.1729
 3552SOL    HW122118   3.121   1.095  13.436 -0.8554  0.2420 -0.0543
 3552SOL    HW222119   3.146   0.995  13.550 -1.3628  1.4180  1.7778
 3553SOL     OW22120   0.795   3.521   5.853 -0.4932 -0.8198 -0.6579
 3553SOL    HW122121   0.704   3.551   5.845  0.4199  2.1567  0.1492
 3553SOL    HW222122   0.815   3.526   5.760 -2.1349  2.0239 -0.8499
 3554SOL     OW22123   2.622   1.434   6.708  0.6580 -0.0557  0.5854
 3554SOL    HW122124   2.655   1.417   6.796  0.0548 -0.0250  0.8109
 3554SOL    HW222125   2.533   1.465   6.724  0.3917 -1.6777  2.2347
 3555SOL     OW22126   0.090   0.300   3.531  0.4178  0.1824  0.0664
 3555SOL    HW122127   0.111   0.286   3.623 -0.0754 -1.4863 -0.0663
 3555SOL    HW222128   0.005   0.334   3.558 -0.1202 -0.3604 -0.9583
 3556SOL     OW22129   1.942   2.106   6.388 -0.0901  0.3140  0.6328
 3556SOL    HW122130   1.953   2.023   6.436 -5.0338 -1.4337 -1.2143
 3556SOL    HW222131   1.894   2.168   6.443 -0.5127  0.2816  0.3042
 3557SOL     OW22132   0.615   4.648   6.557  0.3595 -0.5181 -0.7018
 3557SOL    HW122133   0.560   4.689   6.624  3.0024  0.5206  0.8695
 3557SOL    HW222134   0.582   4.698   6.482  0.9096  0.1508 -0.4996
 3558SOL     OW22135   4.217   3.244  13.273  0.1986  0.8068  0.5666
 3558SOL    HW122136   4.216   3.189  13.351  1.9507  1.1463  0.8158
 3558SOL    HW222137   4.219   3.321  13.330  1.9648  0.3535  1.1019
 3559SOL     OW22138   0.430   4.029   8.196  0.3583  0.5822  0.3181
 3559SOL    HW122139   0.514   4.063   8.227  1.1973 -0.7666 -0.4963
 3559SOL    HW222140   0.383   4.112   8.202  0.0458  0.1835  3.4277
 3560SOL     OW22141   1.181   3.960   5.661  0.1921  0.2067 -0.1273
 3560SOL    HW122142   1.245   3.896   5.692 -0.2670 -0.0998  0.1720
 3560SOL    HW222143   1.125   3.966   5.738  0.4843  1.0683  0.0252
 3561SOL     OW22144   1.942   4.146   6.711 -0.0398  0.0512 -0.3584
 3561SOL    HW122145   1.922   4.191   6.793 -2.4499 -2.5930  0.4982
 3561SOL    HW222146   1.901   4.061   6.726  0.1921  0.4199  2.3745
 3562SOL     OW22147   4.442   3.184   8.589 -0.3239 -0.3721  0.1574
 3562SOL    HW122148   4.428   3.097   8.553 -1.8967 -0.5419  1.1614
 3562SOL    HW222149   4.390   3.170   8.668 -1.0908 -1.0878 -0.4792
 3563SOL     OW22150   1.074   1.155  16.919 -0.2498 -0.6594 -0.0553
 3563SOL    HW122151   1.168   1.140  16.919  0.1191  1.5278  2.7313
 3563SOL    HW222152   1.050   1.069  16.953 -1.8536 -0.5767 -0.9770
 3564SOL     OW22153   2.337   2.470   2.212 -0.2753  0.1379 -0.1115
 3564SOL    HW122154   2.351   2.496   2.121  0.1346  0.2412 -0.0177
 3564SOL    HW222155   2.342   2.374   2.211  1.0350  0.1911  1.7053
 3565SOL     OW22156   4.265   3.586   8.600 -0.0001 -0.1081  0.3615
 3565SOL    HW122157   4.219   3.626   8.674 -1.9944  2.6607 -2.3738
 3565SOL    HW222158   4.250   3.654   8.534 -0.1879 -1.4796 -1.0149
 3566SOL     OW22159   2.962   1.117   0.620  0.2002 -0.2476  0.2944
 3566SOL    HW122160   2.913   1.074   0.550  0.0063  2.9607 -1.5311
 3566SOL    HW222161   2.906   1.115   0.698  1.4598 -1.0113  1.1880
 3567SOL     OW22162   4.426   2.314   6.665  0.4456  0.3153 -0.4582
 3567SOL    HW122163   4.357   2.349   6.721 -0.2881 -0.2032 -1.0321
 3567SOL    HW222164   4.503   2.368   6.683 -0.7679  1.6179  0.8900
 3568SOL     OW22165   0.882   3.901  11.491 -0.1791 -0.1159 -0.2287
 3568SOL    HW122166   0.925   3.963  11.432 -0.5121  1.8277  1.5572
 3568SOL    HW222167   0.797   3.944  11.503 -1.2280 -1.8140 -1.5254
 3569SOL     OW22168   0.482   0.275   5.292  0.3014 -0.5780 -0.5351
 3569SOL    HW122169   0.461   0.184   5.273  0.2925 -0.8151  0.6293
 3569SOL    HW222170   0.493   0.276   5.387  0.4776 -1.6526 -0.5556
 3570SOL     OW22171   1.479   3.275   1.650 -0.1281  0.6391 -0.1354
 3570SOL    HW122172   1.512   3.287   1.739 -3.0221  2.9804  0.6246
 3570SOL    HW222173   1.423   3.198   1.656 -0.7603  1.0868 -0.3839
 3571SOL     OW22174   3.806   0.499   7.615 -0.6328  0.6435 -0.2989
 3571SOL    HW122175   3.894   0.522   7.585 -0.2223  1.7214  1.7485
 3571SOL    HW222176   3.762   0.509   7.530 -2.0806 -0.8184  0.2984
 3572SOL     OW22177   2.541   3.138   8.798  0.1518 -0.0661  0.6343
 3572SOL    HW122178   2.626   3.178   8.814 -0.3108  0.6160  1.4789
 3572SOL    HW222179   2.546   3.061   8.854  0.7449 -0.6679 -0.2764
 3573SOL     OW22180   2.685   1.242  10.745  0.4181  0.0535 -0.1466
 3573SOL    HW122181   2.725   1.322  10.711  0.2289 -0.8061 -2.3555
 3573SOL    HW222182   2.688   1.266  10.838 -1.7133 -2.8795  0.6904
 3574SOL     OW22183   4.275   0.252  14.935 -0.5923 -0.4903  0.3503
 3574SOL    HW122184   4.367   0.245  14.962 -0.5661 -1.5683 -0.0403
 3574SOL    HW222185   4.261   0.170  14.887  0.5323 -0.9069  0.7331
 3575SOL     OW22186   3.421   2.522   4.291 -0.3177  0.3745  0.0952
 3575SOL    HW122187   3.515   2.506   4.301 -0.3957 -0.7961 -0.9591
 3575SOL    HW222188   3.385   2.448   4.342  2.3201 -0.5801  0.5763
 3576SOL     OW22189   0.563   4.118  13.409  0.1655 -0.6949  0.0665
 3576SOL    HW122190   0.476   4.136  13.373  0.3300 -1.5189 -0.7289
 3576SOL    HW222191   0.553   4.032  13.450  0.6744 -0.6541  0.2775
 3577SOL     OW22192   4.665   3.927  15.509  0.5478 -0.5647  0.1825
 3577SOL    HW122193   4.690   3.835  15.516 -0.1726 -0.7188  0.7723
 3577SOL    HW222194   0.021   3.965  15.552 -0.6381  0.9501  0.9526
 3578SOL     OW22195   3.180   4.312  17.371 -0.2272  0.4416 -0.1015
 3578SOL    HW122196   3.264   4.268  17.354 -0.4170 -0.0303  0.1904
 3578SOL    HW222197   3.209   4.398  17.341 -0.0439  0.2626 -0.4443
 3579SOL     OW22198   0.224   2.465   4.379  0.5411 -0.0268  0.3185
 3579SOL    HW122199   0.282   2.518   4.324  2.5162 -0.4912  1.9436
 3579SOL    HW222200   0.141   2.512   4.370  1.2284  0.9241 -1.1963
 3580SOL     OW22201   2.375   1.962   0.686  0.0342 -0.7553  0.5135
 3580SOL    HW122202   2.322   2.034   0.719 -0.5537 -1.6889  1.5688
 3580SOL    HW222203   2.353   1.893   0.747  0.9494 -1.0107  0.5493
 3581SOL     OW22204   2.350   1.563  12.874  0.4678 -0.2952 -0.1375
 3581SOL    HW122205   2.334   1.517  12.956 -1.6882  0.4938 -0.1148
 3581SOL    HW222206   2.441   1.585  12.894 -0.1659  1.4618  0.8391
 3582SOL     OW22207   3.019   3.512  11.886  0.1606  0.2067  0.1036
 3582SOL    HW122208   3.010   3.448  11.957 -1.1604  1.1112  0.7600
 3582SOL    HW222209   2.935   3.557  11.886  0.2881  0.4422  0.2357
 3583SOL     OW22210   4.124   2.544   7.158 -0.2571  0.0801  0.0973
 3583SOL    HW122211   4.090   2.465   7.199  0.1454 -0.1595 -0.0297
 3583SOL    HW222212   4.214   2.518   7.139  0.6586  2.5171  1.0947
 3584SOL     OW22213   4.260   3.790   4.009 -0.2728  0.4545 -0.4146
 3584SOL    HW122214   4.251   3.800   4.104  2.1108  1.2884 -0.2926
 3584SOL    HW222215   4.293   3.702   4.026  1.0869  1.2209  0.8758
 3585SOL     OW22216   2.916   0.325   2.135  0.2349 -0.0956  0.2656
 3585SOL    HW122217   2.870   0.339   2.052 -0.2565 -0.6129  0.4472
 3585SOL    HW222218   2.857   0.257   2.167  0.8558 -0.2806  0.9988
 3586SOL     OW22219   0.455   0.952   9.601 -0.1873  0.2674  0.0981
 3586SOL    HW122220   0.447   0.949   9.506 -0.6048  1.5965  0.0807
 3586SOL    HW222221   0.443   0.859   9.620  0.2585  1.1002  4.4028
 3587SOL     OW22222   2.036   4.396  16.306 -0.0994 -0.1711  0.0076
 3587SOL    HW122223   2.130   4.413  16.314  0.1175 -0.9537 -0.8293
 3587SOL    HW222224   2.013   4.423  16.395  2.2809 -1.8577  1.1370
 3588SOL     OW22225   4.478   1.863   9.141  0.1769  0.4359  0.0993
 3588SOL    HW122226   4.555   1.810   9.159 -0.6846 -0.9252 -0.2635
 3588SOL    HW222227   4.422   1.825   9.209  1.1961 -1.3960 -0.0811
 3589SOL     OW22228   1.503   0.376  13.337  0.8679  0.5226  0.2111
 3589SOL    HW122229   1.473   0.325  13.261 -0.6016  0.8106  0.5984
 3589SOL    HW222230   1.584   0.418  13.310 -0.2832  0.3533 -3.5584
 3590SOL     OW22231   0.241   4.582   9.807 -0.6203 -0.3931  0.3307
 3590SOL    HW122232   0.181   4.545   9.741 -0.4230 -0.9582  0.4717
 3590SOL    HW222233   0.209   4.530   9.880  1.3323  0.6083  1.8962
 3591SOL     OW22234   1.327   2.464  12.433  0.9608 -0.0554 -0.0666
 3591SOL    HW122235   1.387   2.531  12.465 -0.2435  0.0868  1.9339
 3591SOL    HW222236   1.362   2.388  12.479  0.3221 -0.1966  0.1971
 3592SOL     OW22237   1.341   1.400  10.077 -0.0722  0.0400  0.3228
 3592SOL    HW122238   1.379   1.486  10.060 -0.1920  0.5604  2.6754
 3592SOL    HW222239   1.309   1.377   9.989  0.1812  0.4263  0.1289
 3593SOL     OW22240   4.167   1.383   5.613 -0.2730 -0.3880 -0.3325
 3593SOL    HW122241   4.124   1.311   5.567  0.0112  0.8673 -2.5482
 3593SOL    HW222242   4.183   1.442   5.539  1.8777 -0.3924  0.1237
 3594SOL     OW22243   2.719   3.667  11.145  0.3130  0.5060 -0.3268
 3594SOL    HW122244   2.737   3.672  11.051 -0.8964 -1.8763 -0.7039
 3594SOL    HW222245   2.635   3.714  11.145 -0.1595 -0.3465  1.7806
 3595SOL     OW22246   2.396   1.453   1.794  0.2969 -0.0559 -0.0753
 3595SOL    HW122247   2.445   1.374   1.773  0.0968  0.1654 -1.3772
 3595SOL    HW222248   2.316   1.441   1.742 -0.4512  0.2568  1.0054
 3596SOL     OW22249   3.424   2.106   7.195 -0.2367 -0.2244 -0.1519
 3596SOL    HW122250   3.515   2.098   7.165  0.4302  0.1261  1.8036
 3596SOL    HW222251   3.421   2.020   7.238  2.0393 -0.0722  0.3321
 3597SOL     OW22252   2.911   3.091  14.198 -0.1597  0.5080 -0.1097
 3597SOL    HW122253   2.830   3.139  14.183  0.8040  2.3109  0.5284
 3597SOL    HW222254   2.958   3.100  14.115 -0.5354  0.6220 -0.3087
 3598SOL     OW22255   3.090   3.114   1.588  0.7013  0.2179  0.2196
 3598SOL    HW122256   3.184   3.103   1.597  0.8408  0.5413 -0.8306
 3598SOL    HW222257   3.068   3.080   1.501  1.0899 -2.4417  1.1666
 3599SOL     OW22258   0.376   0.844   0.228 -0.5653  0.8347 -0.4107
 3599SOL    HW122259   0.378   0.811   0.138 -0.9325 -0.1054 -0.0846
 3599SOL    HW222260   0.335   0.928   0.208 -1.0056  1.1285  1.6559
 3600SOL     OW22261   2.183   1.824  13.957 -0.2207  0.1827 -0.4767
 3600SOL    HW122262   2.261   1.871  13.929 -0.3045 -0.2760 -1.4949
 3600SOL    HW222263   2.201   1.824  14.051 -1.9452 -0.8486 -0.1389
 3601SOL     OW22264   0.213   1.465   2.327  0.2662 -0.5043  0.2123
 3601SOL    HW122265   0.175   1.431   2.408  1.8479  0.7514  1.4901
 3601SOL    HW222266   0.300   1.490   2.358  0.8932 -1.7796 -0.5280
 3602SOL     OW22267   1.860   4.593   5.509 -0.1149  0.1273  0.4301
 3602SOL    HW122268   1.801   4.622   5.579  1.3040  2.0857  0.8307
 3602SOL    HW222269   1.922   4.541   5.561  1.2957 -1.0807 -2.4688
 3603SOL     OW22270   0.199   3.660   3.313 -0.1947  0.2372  0.1179
 3603SOL    HW122271   0.289   3.668   3.280  0.8500  1.6402  3.2491
 3603SOL    HW222272   0.159   3.735   3.271  1.2258  0.8511 -0.1184
 3604SOL     OW22273   3.708   0.834   4.839 -0.4507  0.0398 -0.2643
 3604SOL    HW122274   3.647   0.765   4.866  0.9532 -0.4343  1.7859
 3604SOL    HW222275   3.791   0.791   4.861 -0.3420  0.7290  0.7186
 3605SOL     OW22276   2.454   4.233  15.141  0.1483 -0.3480  0.6218
 3605SOL    HW122277   2.439   4.207  15.232  0.7108  0.8236  1.0556
 3605SOL    HW222278   2.518   4.303  15.157 -1.7662  1.0039  2.3689
 3606SOL     OW22279   4.283   3.916  12.122  0.2718  0.4766 -0.3686
 3606SOL    HW122280   4.253   3.886  12.036  2.5312  1.5794 -1.5321
 3606SOL    HW222281   4.226   3.993  12.134  0.0187  0.2724 -0.2484
 3607SOL     OW22282   3.216   2.007   3.442  0.0741 -0.0118  0.7846
 3607SOL    HW122283   3.132   1.961   3.450  1.0925 -1.7689  1.4396
 3607SOL    HW222284   3.275   1.939   3.477 -0.0294 -0.0752  0.8367
 3608SOL     OW22285   0.340   4.094   2.303  0.1318  0.0740  0.1362
 3608SOL    HW122286   0.426   4.118   2.337 -1.2938  2.1379  2.2225
 3608SOL    HW222287   0.374   4.050   2.224  0.2208 -2.0140  1.3372
 3609SOL     OW22288   1.379   4.496   0.925 -0.2923  0.7180  0.2768
 3609SOL    HW122289   1.352   4.483   0.835  2.5984 -0.2211 -0.4550
 3609SOL    HW222290   1.328   4.575   0.944 -1.5089 -0.3906  1.7049
 3610SOL     OW22291   2.595   1.588  13.718 -1.0596  0.5922  0.1385
 3610SOL    HW122292   2.634   1.503  13.737 -0.1269  0.8610 -0.5680
 3610SOL    HW222293   2.612   1.589  13.624  1.4022 -1.3472  0.5787
 3611SOL     OW22294   4.555   4.720   2.840 -0.1942  0.2952 -0.7671
 3611SOL    HW122295   4.544   0.032   2.750 -2.1409  0.5149 -0.4521
 3611SOL    HW222296   4.647   0.023   2.854  0.1126 -2.3370  1.5806
 3612SOL     OW22297   0.758   3.074   3.924 -0.2236  0.1244  0.2991
 3612SOL    HW122298   0.842   3.115   3.943  0.2465 -0.6403 -0.1315
 3612SOL    HW222299   0.699   3.145   3.948 -1.7372 -0.7952 -0.7119
 3613SOL     OW22300   0.974   2.601  15.190 -0.0073  0.2025 -0.5262
 3613SOL    HW122301   1.016   2.638  15.112  0.5236 -0.2837 -0.4799
 3613SOL    HW222302   0.933   2.679  15.226 -2.0759 -0.9428 -0.4401
 3614SOL     OW22303   2.907   2.282  10.820 -0.1659 -0.0568  0.0975
 3614SOL    HW122304   2.968   2.318  10.756  1.3141  0.2844  1.6967
 3614SOL    HW222305   2.903   2.351  10.887  0.7523 -0.5046  0.6051
 3615SOL     OW22306   1.010   1.067   5.763  0.5740 -0.0453 -0.1509
 3615SOL    HW122307   1.068   1.075   5.687  1.9216 -0.8743  0.7800
 3615SOL    HW222308   1.075   1.057   5.832 -0.3392  3.2950  1.1759
 3616SOL     OW22309   3.966   4.081   0.631  0.4114 -0.4816 -0.3290
 3616SOL    HW122310   3.956   3.990   0.661  0.5097 -0.6253 -0.7431
 3616SOL    HW222311   4.048   4.087   0.582  0.4979 -0.8713 -0.2337
 3617SOL     OW22312   4.163   1.983   8.898  0.0167  0.3547  0.1672
 3617SOL    HW122313   4.170   1.934   8.980  0.5317  0.0770 -0.0377
 3617SOL    HW222314   4.076   2.021   8.900 -0.6121 -1.0702 -0.8196
 3618SOL     OW22315   0.372   2.073   7.932  0.0180 -0.4698  0.2193
 3618SOL    HW122316   0.430   2.005   7.897  1.2417  0.6359  0.1310
 3618SOL    HW222317   0.289   2.030   7.954  2.2566 -4.0967  1.7270
 3619SOL     OW22318   4.718   3.027   8.511 -0.4457  0.1835  0.5876
 3619SOL    HW122319   4.684   3.005   8.598  3.2600 -0.6213  1.8307
 3619SOL    HW222320   0.081   2.980   8.521  1.0572  2.2064 -2.4013
 3620SOL     OW22321   1.655   4.600   8.597  0.4400  0.1851  0.4041
 3620SOL    HW122322   1.735   4.652   8.591  1.8695 -2.0472  0.1747
 3620SOL    HW222323   1.652   4.590   8.692 -1.7682 -0.2886  0.2897
 3621SOL     OW22324   1.401   3.140   4.620  0.0443 -0.0216  0.2846
 3621SOL    HW122325   1.432   3.074   4.558  3.5923 -0.4061  2.4440
 3621SOL    HW222326   1.350   3.078   4.671 -1.8945 -0.0442 -1.7056
 3622SOL     OW22327   4.224   0.820  11.110 -0.2256 -0.3194  0.7978
 3622SOL    HW122328   4.240   0.731  11.080  2.6947  0.0244  1.3779
 3622SOL    HW222329   4.155   0.798  11.173 -0.2088 -1.7782  0.2980
 3623SOL     OW22330   3.848   0.690   8.782  0.1766  0.3466 -0.7627
 3623SOL    HW122331   3.898   0.713   8.861 -0.6206 -2.1209  0.4742
 3623SOL    HW222332   3.757   0.686   8.813  0.6137 -0.6412  0.4167
 3624SOL     OW22333   4.608   2.701   9.225  0.0180  0.1563 -0.4131
 3624SOL    HW122334   4.539   2.759   9.257  0.0230 -0.2322  0.3093
 3624SOL    HW222335   4.679   2.764   9.230  0.1899 -0.2981  2.5960
 3625SOL     OW22336   2.815   2.681   3.523 -0.4168  0.6498 -0.8338
 3625SOL    HW122337   2.903   2.651   3.502 -0.2528 -0.3195  1.2398
 3625SOL    HW222338   2.791   2.737   3.449 -0.5116  1.5434 -0.1390
 3626SOL     OW22339   1.086   4.430   7.142  0.3569  0.3741 -0.0330
 3626SOL    HW122340   1.173   4.411   7.176 -0.9350 -0.1151  3.0396
 3626SOL    HW222341   1.105   4.468   7.057 -0.0909 -0.0135 -0.3073
 3627SOL     OW22342   3.846   0.182   3.420 -0.6198  0.3368  0.1859
 3627SOL    HW122343   3.834   0.277   3.425  1.3624  0.5394  1.3495
 3627SOL    HW222344   3.788   0.158   3.492 -0.9573  0.6164  0.0090
 3628SOL     OW22345   4.688   1.985   1.260 -0.3326 -0.0310  0.3272
 3628SOL    HW122346   4.684   2.024   1.173 -1.2097 -1.2671 -0.1817
 3628SOL    HW222347   4.645   1.902   1.240 -2.3078  0.6009  1.9422
 3629SOL     OW22348   1.250   4.697   7.990  0.3463  0.2991 -0.1241
 3629SOL    HW122349   1.272   4.604   8.001  2.1941  0.7145 -0.3283
 3629SOL    HW222350   1.227   4.704   8.082 -1.4502 -2.6995 -0.3599
 3630SOL     OW22351   1.268   1.921   6.554 -0.2019 -0.1411  0.7953
 3630SOL    HW122352   1.230   1.905   6.641  0.3832  2.0040  1.4331
 3630SOL    HW222353   1.352   1.967   6.565 -0.4434  0.1870  1.2678
 3631SOL     OW22354   2.758   1.197   9.080  0.0741  0.4034 -0.5827
 3631SOL    HW122355   2.681   1.199   9.137  1.0684  2.0950  0.7168
 3631SOL    HW222356   2.789   1.288   9.084  0.4845  0.3777 -3.3279
 3632SOL     OW22357   3.245   1.616   3.714 -0.0809 -0.0459 -0.4340
 3632SOL    HW122358   3.297   1.537   3.704 -0.6491 -0.4847  0.0497
 3632SOL    HW222359   3.217   1.622   3.622 -0.7163 -1.1810 -0.3061
 3633SOL     OW22360   1.825   0.746  17.390  0.0801 -0.5045 -0.3219
 3633SOL    HW122361   1.888   0.738  17.319 -1.0890 -1.5209 -1.2489
 3633SOL    HW222362   1.848   0.671  17.445  0.4979  1.8195  2.6424
 3634SOL     OW22363   2.896   3.162   8.031  0.1442  0.1537 -0.0166
 3634SOL    HW122364   2.983   3.135   8.061  1.5528  3.5081 -1.1034
 3634SOL    HW222365   2.921   3.244   7.989  3.7746  0.4483  2.6428
 3635SOL     OW22366   2.399   3.409  12.188 -0.0341 -0.0739 -0.3757
 3635SOL    HW122367   2.488   3.379  12.175  0.4647  0.8308  0.9093
 3635SOL    HW222368   2.368   3.341  12.247 -1.1211  0.2528 -0.5586
 3636SOL     OW22369   2.828   0.773  14.787  0.0419 -0.2286 -0.3477
 3636SOL    HW122370   2.844   0.733  14.872 -1.9426  0.9317  0.5743
 3636SOL    HW222371   2.810   0.695  14.734 -0.9002 -0.8009  0.8050
 3637SOL     OW22372   1.644   0.591   8.827 -0.4126  0.2436  0.0771
 3637SOL    HW122373   1.688   0.559   8.906  1.6241  2.5058 -0.1252
 3637SOL    HW222374   1.555   0.559   8.841 -0.1504 -1.1338 -1.4390
 3638SOL     OW22375   0.017   1.703   5.116 -1.0154  0.1292  0.0910
 3638SOL    HW122376   0.032   1.654   5.035 -4.0595  3.0668 -2.2667
 3638SOL    HW222377   4.648   1.728   5.092 -1.3466 -1.5238 -0.4346
 3639SOL     OW22378   2.583   0.246  11.198  0.1401  0.0134 -0.1775
 3639SOL    HW122379   2.548   0.242  11.109 -0.0401 -0.6738 -0.0712
 3639SOL    HW222380   2.521   0.193  11.249 -0.5403  1.1591  0.2173
 3640SOL     OW22381   1.130   3.142   4.250  0.1859  0.0027 -0.6983
 3640SOL    HW122382   1.132   3.049   4.273  0.1362  0.5735  1.6034
 3640SOL    HW222383   1.204   3.155   4.189 -1.2908  1.1293 -2.2508
 3641SOL     OW22384   0.320   2.383  14.059  0.2739  0.2597  0.4664
 3641SOL    HW122385   0.303   2.427  14.143  1.4496 -0.3045  1.0001
 3641SOL    HW222386   0.288   2.448  13.997 -1.1937  0.7677  1.7462
 3642SOL     OW22387   3.543   2.897   7.935 -0.1950 -0.1293  0.2027
 3642SOL    HW122388   3.621   2.930   7.980  0.0436  0.7841 -0.8786
 3642SOL    HW222389   3.478   2.955   7.973 -0.3288  0.8310 -1.4769
 3643SOL     OW22390   4.059   2.477   3.469  0.0295 -0.0031  0.4470
 3643SOL    HW122391   4.040   2.417   3.397  0.1195 -2.2327  2.2702
 3643SOL    HW222392   4.145   2.446   3.497  0.0870  0.2907  0.5885
 3644SOL     OW22393   1.735   4.605   5.119  0.5482  0.3448  0.6125
 3644SOL    HW122394   1.650   4.569   5.095 -0.0675  0.2983  2.9198
 3644SOL    HW222395   1.697   4.682   5.162  1.9864  0.3967  1.7594
 3645SOL     OW22396   0.129   1.239   3.188  0.4653  0.3972 -0.4424
 3645SOL    HW122397   0.167   1.310   3.240 -1.1644 -0.3992  1.8608
 3645SOL    HW222398   0.126   1.267   3.097 -0.0028  0.1994 -0.4846
 3646SOL     OW22399   1.945   0.889   1.781 -0.1421  0.0860  0.3545
 3646SOL    HW122400   2.026   0.839   1.774 -0.8407 -0.7719 -1.5434
 3646SOL    HW222401   1.928   0.933   1.698 -1.4901 -0.8938  0.1059
 3647SOL     OW22402   3.863   1.091   6.817  0.4263 -0.2978  0.0851
 3647SOL    HW122403   3.808   1.073   6.893  0.6574  0.0694  0.3383
 3647SOL    HW222404   3.939   1.038   6.838  1.5401  0.2206 -2.7203
 3648SOL     OW22405   4.228   0.484   2.722  0.2860  0.4320  0.3409
 3648SOL    HW122406   4.282   0.529   2.788  0.9623 -0.1570  0.1864
 3648SOL    HW222407   4.161   0.549   2.701 -1.1978 -1.5137 -0.9375
 3649SOL     OW22408   1.970   1.969   7.954 -0.0200 -0.5163 -0.3766
 3649SOL    HW122409   1.932   1.975   8.042  1.8993 -1.5030  0.5080
 3649SOL    HW222410   2.063   1.968   7.977 -0.1867 -3.6617  0.2290
 3650SOL     OW22411   1.939   0.486  12.286  0.0713 -0.0903 -0.1394
 3650SOL    HW122412   1.972   0.401  12.317 -0.6077 -1.0216 -1.9556
 3650SOL    HW222413   1.871   0.456  12.226  1.1578 -0.8928 -0.9784
 3651SOL     OW22414   3.481   2.567   8.931  0.2415  0.4583 -0.2033
 3651SOL    HW122415   3.542   2.621   8.982 -0.1957  0.7003  0.0671
 3651SOL    HW222416   3.460   2.626   8.859  2.9060  0.1392 -1.2699
 3652SOL     OW22417   0.104   4.012   6.007 -0.0076 -0.6552  0.3761
 3652SOL    HW122418   0.076   3.958   5.933  0.4344 -1.4212  0.7810
 3652SOL    HW222419   0.184   3.970   6.039  0.1287 -0.7553 -0.0961
 3653SOL     OW22420   3.072   0.725   4.005  0.9154  0.1062  0.2083
 3653SOL    HW122421   3.055   0.814   4.038 -0.7301 -0.3904  0.6841
 3653SOL    HW222422   3.166   0.731   3.987  0.4912 -1.1019 -2.3589
 3654SOL     OW22423   0.749   1.168   8.726  0.3326  0.1127 -0.1072
 3654SOL    HW122424   0.749   1.190   8.632 -0.3584  1.2749  0.1627
 3654SOL    HW222425   0.681   1.102   8.733 -1.1804  1.7074  0.0655
 3655SOL     OW22426   0.975   4.183  10.832  0.2749  0.5865 -0.2267
 3655SOL    HW122427   1.062   4.147  10.815 -0.0784 -1.0583  1.4773
 3655SOL    HW222428   0.963   4.139  10.916  1.0103  2.8138  1.0479
 3656SOL     OW22429   0.733   2.375   9.089 -0.2491  0.3852  0.7164
 3656SOL    HW122430   0.679   2.397   9.013 -0.4274  0.9685  1.0147
 3656SOL    HW222431   0.788   2.453   9.097 -0.3160  0.6232 -1.1447
 3657SOL     OW22432   4.508   0.089   6.367  0.4210  0.0555  0.3024
 3657SOL    HW122433   4.585   0.120   6.416 -0.5112 -2.4803  3.3874
 3657SOL    HW222434   4.455   0.165   6.345 -0.0502 -0.7517 -1.2769
 3658SOL     OW22435   0.074   1.130   9.207  0.1488  0.1881 -1.1459
 3658SOL    HW122436   0.098   1.222   9.224  1.1529 -0.2499 -0.1823
 3658SOL    HW222437   0.094   1.120   9.114 -0.1376 -1.2672 -1.0400
 3659SOL     OW22438   2.883   0.383   5.933  0.8341  0.3227 -0.6905
 3659SOL    HW122439   2.930   0.323   5.874  1.5346  1.1783 -1.0113
 3659SOL    HW222440   2.816   0.327   5.971  0.0062  2.6280  1.2300
 3660SOL     OW22441   3.036   4.707   2.750 -0.3887 -0.3308 -0.1524
 3660SOL    HW122442   3.090   4.666   2.683 -1.0632  0.2833 -1.0714
 3660SOL    HW222443   2.965   4.643   2.754  2.2006 -3.1940 -0.3385
 3661SOL     OW22444   0.634   0.707  12.645 -0.1694 -0.0826  0.4732
 3661SOL    HW122445   0.683   0.787  12.664  2.0837 -1.0928 -1.1066
 3661SOL    HW222446   0.705   0.647  12.667 -0.2412 -0.1873  0.4223
 3662SOL     OW22447   1.027   4.446  14.805  0.2233  0.6629 -0.2882
 3662SOL    HW122448   1.002   4.395  14.881 -1.4691 -2.7034 -3.1091
 3662SOL    HW222449   0.953   4.508  14.810 -1.5577 -1.4099 -0.8920
 3663SOL     OW22450   0.354   1.319   0.460 -0.0544 -0.1839 -0.1238
 3663SOL    HW122451   0.265   1.295   0.433 -0.6436  0.9827  0.7629
 3663SOL    HW222452   0.333   1.397   0.511  0.4219 -0.5045  0.5586
 3664SOL     OW22453   0.165   4.405   5.758 -0.3266 -0.3180 -0.4164
 3664SOL    HW122454   0.138   4.374   5.672  1.5607  0.8208 -1.4429
 3664SOL    HW222455   0.084   4.416   5.808  1.5044 -0.8572  2.6334
 3665SOL     OW22456   4.554   3.538   3.358 -0.5752 -0.0586  0.0019
 3665SOL    HW122457   4.562   3.585   3.276  1.1487 -0.8416 -0.2912
 3665SOL    HW222458   4.519   3.605   3.417  0.0042  0.8924 -0.7360
 3666SOL     OW22459   4.063   1.905   0.168 -0.2823  0.3311 -0.2916
 3666SOL    HW122460   4.121   1.959   0.114  0.1057  0.1701 -0.0395
 3666SOL    HW222461   4.117   1.826   0.164  0.3507  0.7426  0.0113
 3667SOL     OW22462   3.243   0.642   4.247  0.0526  0.1868 -0.0210
 3667SOL    HW122463   3.234   0.737   4.261  0.4154  0.1526  0.4567
 3667SOL    HW222464   3.152   0.614   4.247  0.6629 -1.7657 -0.0627
 3668SOL     OW22465   0.643   3.256  11.092 -0.7438 -0.4266  0.6287
 3668SOL    HW122466   0.616   3.165  11.076 -0.2025 -0.0443 -2.4782
 3668SOL    HW222467   0.731   3.253  11.055 -0.1786 -0.2967  1.9593
 3669SOL     OW22468   0.571   4.506   2.961 -0.7670  0.4726  0.0462
 3669SOL    HW122469   0.652   4.538   2.920 -0.3654  0.5148  0.8690
 3669SOL    HW222470   0.572   4.417   2.925 -0.1482 -0.1921  1.6788
 3670SOL     OW22471   1.367   0.710   3.637  0.1770  0.0390 -0.0902
 3670SOL    HW122472   1.371   0.634   3.579  0.6234  0.0535 -0.0768
 3670SOL    HW222473   1.272   0.710   3.648  0.5681  1.9232  3.1465
 3671SOL     OW22474   0.386   3.009   8.976 -0.1356  0.0327  0.1254
 3671SOL    HW122475   0.474   2.972   8.989 -0.5269 -2.6497 -4.8270
 3671SOL    HW222476   0.353   2.933   8.928  0.8145 -0.1888 -0.1802
 3672SOL     OW22477   0.858   1.222   0.228  0.3470 -0.3655 -0.3940
 3672SOL    HW122478   0.798   1.250   0.298  0.5690  0.1356 -0.4048
 3672SOL    HW222479   0.944   1.249   0.259  0.6506 -0.6145 -1.0445
 3673SOL     OW22480   2.814   0.129   8.210  0.6501  0.0956  0.5613
 3673SOL    HW122481   2.852   0.100   8.127 -0.3377  1.4952 -0.3818
 3673SOL    HW222482   2.860   0.213   8.218 -1.5517  1.2128  1.3513
 3674SOL     OW22483   0.668   2.467   3.407  0.4360  0.4563  0.2789
 3674SOL    HW122484   0.611   2.457   3.484  0.8371 -1.9683  0.2638
 3674SOL    HW222485   0.722   2.541   3.436 -0.1226 -0.0737  2.7292
 3675SOL     OW22486   0.604   1.517   4.490 -0.3911 -0.6020 -0.2952
 3675SOL    HW122487   0.546   1.482   4.423  1.4666 -0.5759 -1.9118
 3675SOL    HW222488   0.598   1.608   4.462 -0.7825 -0.5984 -0.1964
 3676SOL     OW22489   1.080   3.948   4.351  0.4553 -0.1413  0.5506
 3676SOL    HW122490   1.176   3.957   4.347  0.5171 -0.7935  0.5954
 3676SOL    HW222491   1.075   3.859   4.315 -0.1505 -0.2698  0.9597
 3677SOL     OW22492   2.393   1.071   3.048 -0.1408 -0.4912  0.2709
 3677SOL    HW122493   2.315   1.084   2.995  1.7446  0.8490 -2.1642
 3677SOL    HW222494   2.380   1.148   3.102  0.2502 -0.6141  0.5451
 3678SOL     OW22495   3.246   1.440   8.614 -0.1737  0.2493 -0.2482
 3678SOL    HW122496   3.176   1.379   8.637  1.6447 -0.9858  1.9741
 3678SOL    HW222497   3.257   1.492   8.693 -2.3577  0.7229 -0.2752
 3679SOL     OW22498   1.266   2.980  10.718 -0.2400  0.0930  0.7488
 3679SOL    HW122499   1.226   2.950  10.636 -3.8029  0.3076  2.4084
 3679SOL    HW222500   1.185   3.000  10.766  0.9491  2.7870  1.6085
 3680SOL     OW22501   3.531   1.966   3.404 -0.0068  0.0754  0.0965
 3680SOL    HW122502   3.490   1.896   3.455  0.3045  0.3328  0.7085
 3680SOL    HW222503   3.615   1.925   3.386  0.3202  0.3462  1.0206
 3681SOL     OW22504   4.004   3.190  16.736  0.3272 -0.1700 -0.2905
 3681SOL    HW122505   4.093   3.222  16.748  0.0461  0.8045 -0.7638
 3681SOL    HW222506   3.987   3.228  16.650  0.3917 -0.9322 -0.6377
 3682SOL     OW22507   2.669   2.576   4.687  0.3521  0.9882  0.1162
 3682SOL    HW122508   2.720   2.571   4.606 -1.2088  0.3488 -0.8206
 3682SOL    HW222509   2.618   2.496   4.682  2.3119 -0.4128  2.4422
 3683SOL     OW22510   3.879   4.236   7.327 -0.4535 -0.3815 -0.0364
 3683SOL    HW122511   3.968   4.230   7.361 -0.5197 -0.8187  0.0604
 3683SOL    HW222512   3.886   4.327   7.297  1.4587  0.2506  2.3144
 3684SOL     OW22513   3.111   2.413   0.092  0.2588 -0.1221 -0.3019
 3684SOL    HW122514   3.162   2.425   0.173  0.5192 -0.0147 -0.4813
 3684SOL    HW222515   3.040   2.367   0.137  1.0285  1.2154  2.2787
 3685SOL     OW22516   3.397   0.720   3.606  0.4389  0.1286  0.0563
 3685SOL    HW122517   3.415   0.762   3.690  0.0679 -1.6220  1.0124
 3685SOL    HW222518   3.473   0.661   3.604  0.3268  0.0970 -3.2281
 3686SOL     OW22519   0.933   0.615   0.307 -0.3810  0.2093 -0.1861
 3686SOL    HW122520   0.847   0.601   0.269  0.1246 -1.0718 -0.8727
 3686SOL    HW222521   0.919   0.704   0.340  0.5216  0.6917 -1.0818
 3687SOL     OW22522   3.693   0.114   0.974 -0.0615 -0.1396  0.1970
 3687SOL    HW122523   3.665   0.023   0.984  1.7289 -0.5942  1.2130
 3687SOL    HW222524   3.775   0.120   1.024  0.3663 -1.6948 -0.2955
 3688SOL     OW22525   2.854   2.472   6.943 -0.1513 -0.0973 -0.2775
 3688SOL    HW122526   2.920   2.432   7.000 -1.1546  1.6341  2.0986
 3688SOL    HW222527   2.808   2.536   6.996 -1.6385 -0.3958 -1.2177
 3689SOL     OW22528   0.018   3.099   3.194  0.3223 -0.0759  0.2159
 3689SOL    HW122529   4.682   3.170   3.221 -0.5539 -0.4930 -0.5492
 3689SOL    HW222530   0.065   3.135   3.119  0.0073  0.3208  0.2160
 3690SOL     OW22531   4.685   4.575   8.761 -0.2477 -0.3229  0.0394
 3690SOL    HW122532   0.050   4.616   8.763  0.4710 -1.8104 -0.4828
 3690SOL    HW222533   4.692   4.504   8.824 -0.2286 -1.3114 -1.0782
 3691SOL     OW22534   3.954   1.370  12.131  0.3314  0.0689  0.0730
 3691SOL    HW122535   3.958   1.421  12.050 -2.0662 -2.2711 -1.5087
 3691SOL    HW222536   4.002   1.295  12.096 -0.3325 -0.5447  0.4765
 3692SOL     OW22537   1.414   3.843   5.751  0.3514  0.2096  0.0931
 3692SOL    HW122538   1.503   3.876   5.744 -0.2494  1.4809 -1.4729
 3692SOL    HW222539   1.413   3.759   5.705 -1.7784  0.4990 -0.4181
 3693SOL     OW22540   1.276   4.639  14.033 -0.5295 -0.2892 -0.1033
 3693SOL    HW122541   1.256   4.614  13.943  1.2465 -0.2225 -0.5211
 3693SOL    HW222542   1.289   0.012  14.021 -0.0186 -0.5867 -2.0203
 3694SOL     OW22543   4.075   3.502  13.408  0.3146 -0.4757  0.1790
 3694SOL    HW122544   4.125   3.532  13.484  1.3489  0.4761 -0.8998
 3694SOL    HW222545   4.103   3.559  13.337  3.0130 -0.0949  1.5337
 3695SOL     OW22546   3.088   2.621   3.484 -0.2812  0.4994 -0.4705
 3695SOL    HW122547   3.076   2.564   3.560  0.8747  2.0253  0.8391
 3695SOL    HW222548   3.151   2.691   3.497 -0.1747  0.4672 -0.8087
 3696SOL     OW22549   3.823   2.775   1.554 -0.0506  0.1460 -0.3393
 3696SOL    HW122550   3.854   2.698   1.602 -0.3001 -0.2121 -0.7609
 3696SOL    HW222551   3.906   2.824   1.552 -0.6176  1.1149 -0.1012
 3697SOL     OW22552   3.507   1.504   3.687 -0.6176  0.5793  0.3628
 3697SOL    HW122553   3.583   1.559   3.668  0.4202 -1.1371 -0.5054
 3697SOL    HW222554   3.499   1.454   3.605  0.5060 -1.0238  1.2231
 3698SOL     OW22555   0.922   3.657   6.177 -0.3661 -0.2035  0.5962
 3698SOL    HW122556   0.834   3.691   6.193  0.1993  1.3721  0.3575
 3698SOL    HW222557   0.902   3.566   6.197  1.6159 -0.9394 -0.8030
 3699SOL     OW22558   1.175   4.458  12.444 -0.7811  0.2208 -0.2006
 3699SOL    HW122559   1.175   4.554  12.439  1.4524  0.2930  1.1886
 3699SOL    HW222560   1.081   4.442  12.437 -0.6555  0.4306 -2.3487
 3700SOL     OW22561   1.372   0.013  17.428  1.0361 -0.3758  0.2418
 3700SOL    HW122562   1.340   0.061  17.351 -0.2849 -0.8497  0.4871
 3700SOL    HW222563   1.384   0.087  17.488 -0.6153 -0.3891  0.5996
 3701SOL     OW22564   2.908   4.646  15.257  0.4438  0.7063  0.4047
 3701SOL    HW122565   2.814   4.640  15.270  0.0367 -0.3128 -2.9988
 3701SOL    HW222566   2.945   4.623  15.342 -1.4216  1.1077  1.3228
 3702SOL     OW22567   1.036   1.450  17.555 -0.2688  0.6035  0.0595
 3702SOL    HW122568   0.954   1.452  17.505 -1.0432  1.9037  1.3861
 3702SOL    HW222569   1.021   1.509  17.628  0.6435  0.1930  0.5678
 3703SOL     OW22570   3.571   0.916   3.460  0.1072  0.3575 -0.0203
 3703SOL    HW122571   3.482   0.947   3.443  0.7539  1.6300 -1.0255
 3703SOL    HW222572   3.557   0.871   3.544  0.9997  1.1455  0.5495
 3704SOL     OW22573   2.646   3.068   3.893  0.2562  0.1153 -0.8151
 3704SOL    HW122574   2.682   3.019   3.966  0.9817  1.6836 -0.1161
 3704SOL    HW222575   2.695   3.022   3.824  4.1811 -0.9727  2.7019
 3705SOL     OW22576   0.412   2.192   6.135 -0.3243 -0.6359  0.1602
 3705SOL    HW122577   0.339   2.201   6.197 -1.4795 -0.6977 -1.2057
 3705SOL    HW222578   0.366   2.218   6.056  1.1589 -2.7135 -1.3643
 3706SOL     OW22579   4.498   3.947   2.883 -0.5155  0.8549 -0.2967
 3706SOL    HW122580   4.478   4.017   2.821  0.3552  0.5633 -0.9089
 3706SOL    HW222581   4.466   3.865   2.845 -2.7094  0.8702  1.5273
 3707SOL     OW22582   3.476   0.704   4.026  0.3326  0.2775  0.1843
 3707SOL    HW122583   3.427   0.664   4.098 -2.3187  2.0222 -0.6328
 3707SOL    HW222584   3.555   0.650   4.020  1.0173  1.2507  0.4597
 3708SOL     OW22585   3.627   2.848  13.836  0.9098 -0.5374  0.2695
 3708SOL    HW122586   3.667   2.838  13.922  1.2954 -3.5358 -0.2913
 3708SOL    HW222587   3.703   2.870  13.782  1.9607 -0.4565  1.7748
 3709SOL     OW22588   3.527   3.278   4.454 -0.1033  0.4929  0.1880
 3709SOL    HW122589   3.473   3.332   4.395 -0.8911  0.2455  0.6760
 3709SOL    HW222590   3.467   3.238   4.517 -0.1669  2.2247  1.2420
 3710SOL     OW22591   4.631   3.771   9.270 -0.0853 -0.1573 -0.2823
 3710SOL    HW122592   4.604   3.753   9.360  1.5930 -1.3148 -0.0033
 3710SOL    HW222593   4.551   3.783   9.219 -0.7564  1.4133  1.1596
 3711SOL     OW22594   0.683   4.544   3.244  0.4156 -0.1738  0.5043
 3711SOL    HW122595   0.693   4.452   3.268  0.8061  0.0136  1.0509
 3711SOL    HW222596   0.623   4.534   3.170 -1.1658 -2.5014  2.1097
 3712SOL     OW22597   0.721   1.646  11.577  0.1492 -0.0239 -0.6355
 3712SOL    HW122598   0.699   1.696  11.655  0.6619  0.9634 -1.1364
 3712SOL    HW222599   0.641   1.648  11.524  0.6508 -1.4458 -1.4500
 3713SOL     OW22600   0.131   3.112  13.099  0.4467 -0.3501  0.4609
 3713SOL    HW122601   0.164   3.127  13.011 -0.5999  0.7098  0.2541
 3713SOL    HW222602   0.163   3.189  13.147  4.3345  0.2669 -3.1638
 3714SOL     OW22603   4.388   1.795   7.304 -0.0946 -0.0187  0.2885
 3714SOL    HW122604   4.361   1.751   7.384  1.4971 -1.1829  0.1957
 3714SOL    HW222605   4.438   1.725   7.261 -0.0547 -1.2950  2.4151
 3715SOL     OW22606   3.794   0.139   7.033 -0.0445  0.3825  0.4108
 3715SOL    HW122607   3.769   0.046   7.029  0.5636  0.1306  2.3815
 3715SOL    HW222608   3.863   0.143   7.099  0.3090 -2.6199  0.2369
 3716SOL     OW22609   3.813   1.436   8.017 -0.6380  0.5620 -0.6238
 3716SOL    HW122610   3.828   1.501   7.949  2.1870 -1.5618 -2.0125
 3716SOL    HW222611   3.763   1.371   7.968 -0.5162  0.2304 -0.3152
 3717SOL     OW22612   2.450   2.146   4.871  0.4516 -0.7332  0.5170
 3717SOL    HW122613   2.520   2.097   4.913  0.3067 -1.8199 -0.5221
 3717SOL    HW222614   2.447   2.094   4.791 -0.5625  0.7071 -0.4003
 3718SOL     OW22615   2.915   4.164   0.874 -0.1379 -0.1038 -0.0310
 3718SOL    HW122616   2.994   4.164   0.928  0.1289 -3.8389 -0.3788
 3718SOL    HW222617   2.900   4.069   0.874  0.7700 -0.2443  0.2744
 3719SOL     OW22618   2.287   4.675  13.634  0.3534  0.0624 -0.2183
 3719SOL    HW122619   2.224   4.609  13.607  0.6092 -0.2227 -0.1132
 3719SOL    HW222620   2.363   4.618  13.646 -0.1541  0.0223  2.8623
 3720SOL     OW22621   1.178   4.376   5.020 -0.4655 -0.3008 -0.2837
 3720SOL    HW122622   1.231   4.401   4.944  1.5897 -1.9143  0.6124
 3720SOL    HW222623   1.246   4.339   5.077 -2.1312 -1.7469  0.7377
 3721SOL     OW22624   2.955   0.012   0.797  0.1075 -0.2636  0.1999
 3721SOL    HW122625   2.961   4.706   0.705 -4.0346  0.4377 -0.2680
 3721SOL    HW222626   3.039   0.056   0.812  0.0791  0.0405 -0.5346
 3722SOL     OW22627   3.389   1.557   1.782 -0.2904  0.5111 -0.4014
 3722SOL    HW122628   3.430   1.473   1.803  1.7955  1.1268 -1.9574
 3722SOL    HW222629   3.366   1.541   1.690 -0.3640  0.0336 -0.2985
 3723SOL     OW22630   2.147   4.604   8.432  0.1357 -0.0342 -0.3422
 3723SOL    HW122631   2.216   4.667   8.453 -0.6706  0.4535  0.8480
 3723SOL    HW222632   2.078   4.655   8.390 -0.3228 -0.8837 -0.6227
 3724SOL     OW22633   2.113   3.135   8.714  0.0455 -0.6475  0.3974
 3724SOL    HW122634   2.190   3.177   8.751 -0.3490 -0.6194  1.1989
 3724SOL    HW222635   2.106   3.204   8.648 -1.9114 -0.1411  1.1234
 3725SOL     OW22636   1.953   1.249   8.457 -0.0146 -0.1252  0.0470
 3725SOL    HW122637   1.866   1.216   8.433  0.4166 -0.8397 -0.5349
 3725SOL    HW222638   1.914   1.290   8.534  0.0355  1.4790 -0.7791
 3726SOL     OW22639   4.496   0.416   6.403  0.0527  0.3060 -0.5190
 3726SOL    HW122640   4.442   0.373   6.469  0.0135 -0.6065 -1.1386
 3726SOL    HW222641   4.515   0.501   6.442  0.9505 -0.1003 -0.0697
 3727SOL     OW22642   1.777   4.215  16.498 -0.0362  0.0390  0.5623
 3727SOL    HW122643   1.709   4.233  16.563 -2.2851 -2.6983 -0.9764
 3727SOL    HW222644   1.839   4.288  16.500 -3.2438  2.8217 -1.4130
 3728SOL     OW22645   0.625   3.994   3.786  0.3913  0.1503 -0.1558
 3728SOL    HW122646   0.679   3.951   3.851  2.0484 -0.5146 -1.9664
 3728SOL    HW222647   0.537   3.968   3.814  0.7858  1.6898  2.4325
 3729SOL     OW22648   1.583   4.457   7.282 -0.6264 -0.4162  0.5397
 3729SOL    HW122649   1.608   4.365   7.291  0.7089 -0.0343  0.7239
 3729SOL    HW222650   1.673   4.485   7.299 -0.7337 -0.0327  0.4747
 3730SOL     OW22651   3.074   1.659   7.729 -0.0122 -0.3799  0.0113
 3730SOL    HW122652   3.116   1.723   7.787 -0.3352 -1.0807  1.0152
 3730SOL    HW222653   2.993   1.698   7.696 -0.0850 -0.7929 -0.2889
 3731SOL     OW22654   4.710   3.441   7.833 -0.0113 -0.1656  0.0455
 3731SOL    HW122655   4.672   3.527   7.817  1.8718  0.4351 -1.2426
 3731SOL    HW222656   4.711   3.435   7.928  0.2001  1.3244  0.1319
 3732SOL     OW22657   1.585   2.362   9.999 -0.3564 -0.0639  0.3455
 3732SOL    HW122658   1.566   2.323  10.084  3.7895 -1.2383  0.7597
 3732SOL    HW222659   1.529   2.439  10.004  0.5402  0.5400  0.9235
 3733SOL     OW22660   4.463   4.088   2.332  0.0333  0.5680  0.4531
 3733SOL    HW122661   4.506   4.166   2.365  0.2356  0.9203 -0.6546
 3733SOL    HW222662   4.472   4.086   2.236 -1.6517  0.8627  0.2934
 3734SOL     OW22663   0.960   3.103   4.738  0.6205 -0.2220 -0.4142
 3734SOL    HW122664   1.001   3.188   4.720  0.4686 -0.2044 -0.6811
 3734SOL    HW222665   0.911   3.091   4.657 -1.6201  1.7919  0.6589
 3735SOL     OW22666   0.805   0.256   0.857  0.1204  0.5090 -0.3308
 3735SOL    HW122667   0.845   0.286   0.939 -0.7992  0.2857  0.1938
 3735SOL    HW222668   0.798   0.336   0.806 -1.6715  2.0720  2.3591
 3736SOL     OW22669   0.465   3.495   9.363  0.1744 -0.1500 -0.3174
 3736SOL    HW122670   0.399   3.427   9.353 -1.9899  1.8089  0.7353
 3736SOL    HW222671   0.436   3.554   9.294  0.6328 -0.5442 -0.8502
 3737SOL     OW22672   0.005   4.100   9.879 -0.2185  0.1662 -0.6303
 3737SOL    HW122673   4.697   4.173   9.934  2.3137 -0.7063  1.8247
 3737SOL    HW222674   4.657   4.088   9.813  0.5231 -1.6011 -1.0739
 3738SOL     OW22675   2.918   2.977   5.543  0.0612 -0.0057 -0.5386
 3738SOL    HW122676   2.829   2.944   5.534  0.1772 -0.9418  1.7102
 3738SOL    HW222677   2.967   2.896   5.533  0.5147  0.6044 -3.3019
 3739SOL     OW22678   2.074   0.607   7.356 -0.1414  0.1599 -0.1468
 3739SOL    HW122679   2.074   0.540   7.424  2.7929  0.3022 -0.0356
 3739SOL    HW222680   2.109   0.561   7.280  3.4683  0.3907  1.4158
 3740SOL     OW22681   2.356   4.015   5.484 -0.3605  0.0738  0.1321
 3740SOL    HW122682   2.274   4.055   5.456  0.3535  0.0643 -2.0259
 3740SOL    HW222683   2.325   3.940   5.534  2.7208 -0.9196  0.5274
 3741SOL     OW22684   2.284   0.608   5.846 -0.4697 -0.1308  0.4436
 3741SOL    HW122685   2.267   0.548   5.774 -2.9874 -0.2595  1.1534
 3741SOL    HW222686   2.356   0.658   5.806 -2.4018  1.0126 -1.6021
 3742SOL     OW22687   4.073   3.625  15.640 -0.3665  0.3146 -0.2973
 3742SOL    HW122688   4.129   3.680  15.696 -0.8712 -0.6371  1.1595
 3742SOL    HW222689   3.991   3.671  15.658 -0.8566 -0.2676 -1.0842
 3743SOL     OW22690   3.609   4.571   3.222 -0.1129 -0.4362 -0.9036
 3743SOL    HW122691   3.523   4.606   3.246  0.7115  0.6430  0.4859
 3743SOL    HW222692   3.605   4.492   3.276 -3.0346 -1.0597 -2.0467
 3744SOL     OW22693   4.178   4.172   3.616 -0.4699 -0.4276  0.1763
 3744SOL    HW122694   4.265   4.211   3.628 -0.2031 -0.9154 -0.2091
 3744SOL    HW222695   4.188   4.078   3.603  3.1987  0.0273 -0.1695
 3745SOL     OW22696   0.174   3.717   9.304 -0.1468 -0.3557 -0.3561
 3745SOL    HW122697   0.080   3.704   9.294  0.1869 -1.0019 -2.7107
 3745SOL    HW222698   0.192   3.680   9.390 -3.3491 -0.3909  0.3073
 3746SOL     OW22699   2.920   1.382  11.273  0.2613 -0.3761  0.0803
 3746SOL    HW122700   2.928   1.293  11.241  0.6387 -0.5315  0.6034
 3746SOL    HW222701   3.008   1.416  11.292  0.9763 -1.6553 -1.0104
 3747SOL     OW22702   1.370   4.664   8.470 -0.0653 -0.5310 -0.0351
 3747SOL    HW122703   1.453   4.628   8.503  0.8557  0.2857 -1.4776
 3747SOL    HW222704   1.328   4.696   8.550  1.8776 -1.7580  1.4878
 3748SOL     OW22705   0.725   1.958  11.443  0.6249 -0.4330  0.2730
 3748SOL    HW122706   0.681   1.923  11.520 -0.0867  1.0600  0.5432
 3748SOL    HW222707   0.805   1.906  11.441  1.4011  0.8422 -2.4012
 3749SOL     OW22708   1.424   4.372   1.445 -0.0458 -0.3783  0.2186
 3749SOL    HW122709   1.408   4.340   1.356 -1.4854 -0.0403  0.3563
 3749SOL    HW222710   1.464   4.457   1.425 -1.3403 -0.3796 -2.3478
 3750SOL     OW22711   0.595   4.105   2.431  0.2923  0.2160  0.1988
 3750SOL    HW122712   0.616   4.017   2.400 -1.3568  0.0283 -0.3549
 3750SOL    HW222713   0.683   4.141   2.436  0.9678 -1.5767  1.3265
 3751SOL     OW22714   2.601   4.307  12.890  0.6538  0.0936 -0.3776
 3751SOL    HW122715   2.695   4.318  12.875  0.9549 -1.0845  0.6404
 3751SOL    HW222716   2.588   4.347  12.976  1.5530  0.2967 -0.3377
 3752SOL     OW22717   1.328   1.038  16.170 -0.1422  0.1960 -0.1688
 3752SOL    HW122718   1.295   1.001  16.252 -1.6240 -2.2649 -1.8500
 3752SOL    HW222719   1.345   0.958  16.120 -0.6546 -0.7981  1.2316
 3753SOL     OW22720   0.836   2.553   7.827 -0.5206  0.3225 -0.3776
 3753SOL    HW122721   0.929   2.534   7.816 -0.4182 -0.7478  2.2123
 3753SOL    HW222722   0.794   2.532   7.743 -1.1794  1.7371 -0.4033
 3754SOL     OW22723   0.642   0.182   3.606 -1.0356 -1.2160  0.2252
 3754SOL    HW122724   0.679   0.152   3.522 -1.2466 -2.6552  0.6344
 3754SOL    HW222725   0.717   0.184   3.664 -0.5872 -0.2355 -0.4053
 3755SOL     OW22726   2.843   4.592   8.326  0.2639 -0.7166 -0.1626
 3755SOL    HW122727   2.834   4.676   8.281  0.5729  0.0902  1.2726
 3755SOL    HW222728   2.760   4.546   8.311  0.1599 -0.7279  0.4532
 3756SOL     OW22729   3.130   4.465  16.245 -0.7732 -0.0910 -0.4120
 3756SOL    HW122730   3.163   4.479  16.157  2.0685 -0.9686  0.5202
 3756SOL    HW222731   3.104   4.553  16.273 -1.6828 -0.6748  0.6045
 3757SOL     OW22732   4.210   3.480   5.346  0.0281 -0.5166  0.1364
 3757SOL    HW122733   4.230   3.484   5.439 -1.2544  1.9081  0.3035
 3757SOL    HW222734   4.187   3.387   5.334  0.7643 -0.4867 -1.4672
 3758SOL     OW22735   2.237   0.380   9.554 -0.2103  0.0030 -0.1639
 3758SOL    HW122736   2.222   0.366   9.647 -1.0775  0.8071 -0.1813
 3758SOL    HW222737   2.331   0.395   9.552 -0.4669  1.6809 -0.1833
 3759SOL     OW22738   4.698   2.595   4.037 -0.2796 -0.8057  0.4982
 3759SOL    HW122739   4.639   2.612   4.111 -3.3646  0.9139 -2.3486
 3759SOL    HW222740   0.059   2.639   4.059 -0.6192  1.8426 -3.5432
 3760SOL     OW22741   1.403   2.538   0.378 -0.0639  0.2512  0.2564
 3760SOL    HW122742   1.456   2.466   0.411  0.2711 -0.4334 -1.7264
 3760SOL    HW222743   1.338   2.564   0.443 -0.6176 -2.0570  0.6285
 3761SOL     OW22744   2.621   4.465   5.058 -0.1930 -0.8589 -0.6430
 3761SOL    HW122745   2.697   4.416   5.088  1.0670  0.0031 -2.4754
 3761SOL    HW222746   2.569   4.451   5.137  0.6795  0.6338  0.2002
 3762SOL     OW22747   2.726   4.064   3.928  0.4220  0.5219 -0.2622
 3762SOL    HW122748   2.671   4.093   4.001 -0.9274  1.5341 -1.6846
 3762SOL    HW222749   2.795   4.130   3.928  0.0311  0.9313  1.2288
 3763SOL     OW22750   0.964   2.467   6.052  0.5950 -0.0649  0.4981
 3763SOL    HW122751   0.869   2.465   6.064  0.5992  1.6826  0.8767
 3763SOL    HW222752   0.964   2.556   6.018 -1.5192 -0.2682 -0.0344
 3764SOL     OW22753   1.113   1.205   1.386 -0.6402 -0.0138 -0.1337
 3764SOL    HW122754   1.051   1.142   1.349 -0.1112  0.6203 -2.1131
 3764SOL    HW222755   1.082   1.287   1.347 -0.7309  0.6730  1.3715
 3765SOL     OW22756   0.005   1.477   6.846  0.1687  0.1918 -0.0400
 3765SOL    HW122757   0.098   1.478   6.870 -0.0221  0.1131  0.7091
 3765SOL    HW222758   4.711   1.551   6.787  0.7728 -2.1594 -3.1065
 3766SOL     OW22759   3.702   1.236   4.670 -0.0382  0.0421  0.0247
 3766SOL    HW122760   3.689   1.205   4.760  0.9723 -2.4160 -0.6866
 3766SOL    HW222761   3.727   1.328   4.681  0.5341 -0.3906  2.5300
 3767SOL     OW22762   1.886   0.039  10.893 -0.6039 -0.3776 -0.1926
 3767SOL    HW122763   1.951   0.109  10.898 -1.1844  0.0756  1.0894
 3767SOL    HW222764   1.805   0.089  10.889 -1.1550 -1.1883  0.8746
 3768SOL     OW22765   4.486   0.284   6.940  0.2928  0.0010 -0.2886
 3768SOL    HW122766   4.419   0.222   6.969 -0.6977  0.8374 -0.8036
 3768SOL    HW222767   4.447   0.369   6.960  0.4882  0.0024  0.0849
 3769SOL     OW22768   2.426   2.970   6.592  0.3554  0.2027 -0.2073
 3769SOL    HW122769   2.481   3.029   6.643 -1.2622  0.5122  1.1809
 3769SOL    HW222770   2.350   3.026   6.575 -0.3589 -0.5243  0.6264
 3770SOL     OW22771   2.112   0.140   2.295 -0.5441 -0.2643 -0.4149
 3770SOL    HW122772   2.194   0.189   2.287 -0.0024 -1.3634 -1.6470
 3770SOL    HW222773   2.056   0.172   2.366 -2.6182  0.3083 -2.3055
 3771SOL     OW22774   2.707   0.660   6.084  0.0147  0.0253 -0.3081
 3771SOL    HW122775   2.745   0.666   6.172  1.9131  1.4595 -1.2103
 3771SOL    HW222776   2.664   0.575   6.080 -1.8284  1.0740 -2.7466
 3772SOL     OW22777   3.049   1.511  14.548  0.3617  0.0204 -1.0298
 3772SOL    HW122778   3.077   1.429  14.509 -0.3507  0.2689 -2.0851
 3772SOL    HW222779   3.100   1.523  14.627 -1.4851  2.0609 -0.1405
 3773SOL     OW22780   1.570   0.426   8.449  0.5276 -0.1293 -0.5755
 3773SOL    HW122781   1.486   0.435   8.493  0.8791 -0.3326  0.1239
 3773SOL    HW222782   1.620   0.373   8.511 -0.5751 -1.5413 -0.8925
 3774SOL     OW22783   3.464   2.456   6.735  0.3629  0.0151 -0.0164
 3774SOL    HW122784   3.501   2.517   6.799  0.7500  2.0838 -2.2349
 3774SOL    HW222785   3.448   2.377   6.787 -1.6483 -0.5438 -1.4819
 3775SOL     OW22786   1.053   4.108   6.343  0.1315 -0.1021 -0.2255
 3775SOL    HW122787   1.087   4.023   6.316  0.1031 -0.0959 -0.2810
 3775SOL    HW222788   1.121   4.129   6.407 -0.9674 -0.5825  1.0859
 3776SOL     OW22789   1.272   1.012   4.818  0.3643 -0.3168  0.0517
 3776SOL    HW122790   1.300   0.982   4.732  0.0533 -1.9182  0.5128
 3776SOL    HW222791   1.201   0.952   4.843 -1.3196  1.1278 -1.2363
 3777SOL     OW22792   0.457   1.039   5.618  0.3646 -0.1738 -0.1392
 3777SOL    HW122793   0.387   0.993   5.571  1.8638 -0.7284 -1.7813
 3777SOL    HW222794   0.522   1.049   5.549 -0.9873  2.7480 -1.0023
 3778SOL     OW22795   0.766   2.943  10.919  0.1356 -0.3174  0.4684
 3778SOL    HW122796   0.689   2.976  10.966 -1.1849 -0.6509 -1.4188
 3778SOL    HW222797   0.742   2.851  10.907 -0.1591  0.0694 -1.9299
 3779SOL     OW22798   0.343   2.732  14.316 -0.5353 -0.4553 -0.3933
 3779SOL    HW122799   0.326   2.722  14.222  0.4762 -0.8619 -0.5345
 3779SOL    HW222800   0.314   2.648  14.354  1.0470  1.0344  4.1562
 3780SOL     OW22801   3.769   4.478   2.454  0.0552 -0.6184  0.0428
 3780SOL    HW122802   3.717   4.414   2.405  1.8512 -1.4647 -0.7335
 3780SOL    HW222803   3.739   4.459   2.543  0.0356 -0.3172  0.1012
 3781SOL     OW22804   2.921   1.008   7.082  0.1497 -0.3749 -0.2336
 3781SOL    HW122805   2.992   1.043   7.029 -3.1371  0.6189 -4.0302
 3781SOL    HW222806   2.851   1.023   7.018  0.7561 -0.0823 -0.8325
 3782SOL     OW22807   1.068   1.530   8.358  0.3272 -0.0535 -0.0505
 3782SOL    HW122808   1.084   1.520   8.452 -0.1241  0.4912  0.0812
 3782SOL    HW222809   0.975   1.509   8.357 -0.0148  1.5913 -1.3538
 3783SOL     OW22810   0.956   0.564   7.356  0.3261  0.2478 -0.0681
 3783SOL    HW122811   0.929   0.525   7.273  0.5208 -0.9057  0.4131
 3783SOL    HW222812   0.961   0.656   7.329  2.2970  0.3125  0.5317
 3784SOL     OW22813   3.871   2.587   1.132 -0.2518 -0.2616 -0.1253
 3784SOL    HW122814   3.935   2.600   1.061 -0.1682  0.3370  0.0561
 3784SOL    HW222815   3.831   2.674   1.135  0.9532  0.2371  1.3936
 3785SOL     OW22816   3.741   0.942  14.392  0.5300 -0.0658 -0.1381
 3785SOL    HW122817   3.722   0.850  14.376 -0.1438  0.0173  0.2157
 3785SOL    HW222818   3.789   0.946  14.475 -0.6566 -0.0511  0.5417
 3786SOL     OW22819   0.755   0.679   1.032 -0.3656 -0.3846  0.0511
 3786SOL    HW122820   0.722   0.638   1.112 -2.0640  2.2628  0.7230
 3786SOL    HW222821   0.720   0.609   0.977 -1.4868  1.4622 -1.6038
 3787SOL     OW22822   1.842   2.914  15.543  0.5915  0.5019 -0.1112
 3787SOL    HW122823   1.892   2.892  15.622  2.1170  1.7444 -0.7244
 3787SOL    HW222824   1.904   2.974  15.500 -2.9134  3.2203 -1.3413
 3788SOL     OW22825   4.423   4.409   7.546 -0.1145 -0.4257 -0.4097
 3788SOL    HW122826   4.406   4.360   7.466  2.4966  0.2390 -1.3684
 3788SOL    HW222827   4.486   4.350   7.587  0.5895 -0.0005 -0.8783
 3789SOL     OW22828   1.830   0.847   6.712 -0.4321  0.4097  0.3381
 3789SOL    HW122829   1.799   0.756   6.721 -3.5905  1.2511 -1.7047
 3789SOL    HW222830   1.749   0.894   6.730 -2.6062 -2.6168 -1.3456
 3790SOL     OW22831   4.121   1.110   9.547 -0.5758  0.0299 -0.0131
 3790SOL    HW122832   4.121   1.183   9.485 -0.0115 -0.8555 -1.0646
 3790SOL    HW222833   4.184   1.140   9.612 -1.8480  1.0283  0.7607
 3791SOL     OW22834   0.796   1.859  13.828 -0.6924 -0.1075 -0.2731
 3791SOL    HW122835   0.790   1.803  13.906  0.6281  0.5846  0.3246
 3791SOL    HW222836   0.724   1.828  13.773 -1.4052 -1.3865  1.3435
 3792SOL     OW22837   0.380   0.636   1.682 -0.2012 -0.3963  0.1448
 3792SOL    HW122838   0.297   0.593   1.702 -1.0692  0.4965 -1.5936
 3792SOL    HW222839   0.415   0.654   1.770  1.0880  2.1468 -0.8768
 3793SOL     OW22840   1.674   0.914  17.507  0.4670 -0.3017  0.1145
 3793SOL    HW122841   1.731   0.856  17.457 -2.4581 -0.8513 -2.5583
 3793SOL    HW222842   1.674   0.876  17.595  0.8539 -1.1518 -0.2585
 3794SOL     OW22843   1.271   2.767   3.384 -0.0634 -0.0084  0.6935
 3794SOL    HW122844   1.360   2.801   3.389 -0.4270  1.0257  0.1421
 3794SOL    HW222845   1.253   2.770   3.478  0.6294  1.3590  0.7791
 3795SOL     OW22846   0.891   0.852   2.889 -0.1357 -0.1461 -0.6423
 3795SOL    HW122847   0.946   0.883   2.961  0.4111  0.4190 -1.3064
 3795SOL    HW222848   0.806   0.847   2.932  0.3777 -0.5856  0.3181
 3796SOL     OW22849   1.925   2.188   4.334 -0.1255  0.3731  0.3124
 3796SOL    HW122850   1.980   2.131   4.280  0.9808  0.3069  1.5282
 3796SOL    HW222851   1.943   2.158   4.423  1.7515 -3.4360 -1.3460
 3797SOL     OW22852   0.136   2.878   9.746  0.0693 -0.3565 -0.3312
 3797SOL    HW122853   0.197   2.935   9.698  2.6187 -1.4645  1.5793
 3797SOL    HW222854   0.166   2.890   9.836  0.8850 -0.3639 -0.5999
 3798SOL     OW22855   0.732   4.102  14.156 -0.4717 -0.4042 -0.0245
 3798SOL    HW122856   0.781   4.138  14.082 -0.6881  1.2807  0.6566
 3798SOL    HW222857   0.644   4.117  14.121  0.2322  2.4609 -0.5928
 3799SOL     OW22858   2.336   4.403   6.153 -0.4775 -0.2444  0.4062
 3799SOL    HW122859   2.414   4.365   6.194  0.0248  0.2970 -0.0489
 3799SOL    HW222860   2.269   4.344   6.188  0.9696 -0.7219  2.3885
 3800SOL     OW22861   2.665   2.604   4.282  0.0254  0.1190  0.0432
 3800SOL    HW122862   2.639   2.662   4.211 -2.0495  1.3123  1.7511
 3800SOL    HW222863   2.650   2.513   4.259  0.8916  0.5924 -2.3667
 3801SOL     OW22864   2.297   0.501  16.343 -0.3143  0.1495  0.4785
 3801SOL    HW122865   2.280   0.450  16.264  2.8057  1.6396 -1.1820
 3801SOL    HW222866   2.278   0.440  16.414  1.6982 -2.5235 -1.2906
 3802SOL     OW22867   1.205   0.047  16.654 -0.1136  0.6402  0.2113
 3802SOL    HW122868   1.266   4.720  16.710 -0.3569 -0.0469 -0.1171
 3802SOL    HW222869   1.231   0.016  16.568  1.0345 -1.4773  1.3258
 3803SOL     OW22870   2.610   1.794   3.861 -0.0351  0.4912 -0.2904
 3803SOL    HW122871   2.625   1.884   3.829 -1.5198  1.6203  2.1699
 3803SOL    HW222872   2.617   1.808   3.955 -0.2264 -0.2039 -0.1788
 3804SOL     OW22873   1.454   2.690   3.867  0.1374 -0.4244  0.1874
 3804SOL    HW122874   1.463   2.652   3.955  0.7782  0.4816  0.5068
 3804SOL    HW222875   1.382   2.753   3.867 -0.3659 -1.0143  3.3304
 3805SOL     OW22876   2.725   2.768   7.944 -0.8364  0.2577  0.1953
 3805SOL    HW122877   2.747   2.853   7.906 -1.6778 -0.7055 -2.4635
 3805SOL    HW222878   2.806   2.724   7.919 -0.6362  1.4102 -1.1633
 3806SOL     OW22879   0.900   3.345   2.951  0.0518 -0.1612 -0.3859
 3806SOL    HW122880   0.925   3.319   2.863 -0.8277 -0.7671 -0.4586
 3806SOL    HW222881   0.935   3.433   2.964 -0.8828  0.6058 -3.1343
 3807SOL     OW22882   4.419   2.839   7.940  0.1590  0.5788 -0.1292
 3807SOL    HW122883   4.500   2.883   7.914  0.0299  0.4809 -0.6912
 3807SOL    HW222884   4.456   2.798   8.019 -0.8684  1.3381  0.7474
 3808SOL     OW22885   1.199   2.348   8.405 -0.2202  0.0521  0.2005
 3808SOL    HW122886   1.114   2.303   8.399 -0.8497  1.3553 -0.6898
 3808SOL    HW222887   1.186   2.421   8.344  0.2353 -1.4125 -1.6758
 3809SOL     OW22888   3.933   4.053   5.174 -0.3028  0.0457 -0.2314
 3809SOL    HW122889   3.887   4.133   5.149  0.0930 -0.2936 -2.0679
 3809SOL    HW222890   4.012   4.096   5.208 -2.1202  1.6666  1.8724
 3810SOL     OW22891   0.238   0.631   6.215  0.1627  0.2568  0.1556
 3810SOL    HW122892   0.242   0.547   6.261 -2.3467 -0.5654 -1.1135
 3810SOL    HW222893   0.170   0.617   6.149  1.1582 -1.1034 -0.5682
 3811SOL     OW22894   1.335   2.765   7.404 -0.8569 -0.1723  0.2404
 3811SOL    HW122895   1.332   2.860   7.417 -1.9072 -0.2455  0.5199
 3811SOL    HW222896   1.314   2.750   7.312 -2.8422 -0.8095  0.8088
 3812SOL     OW22897   3.008   1.225   5.695 -0.2954  0.0315 -0.0572
 3812SOL    HW122898   2.998   1.132   5.677 -0.3251  0.1672 -0.7602
 3812SOL    HW222899   2.915   1.247   5.683  0.1479  2.5739  1.0160
 3813SOL     OW22900   1.936   3.880   2.141 -0.0910  0.1333  0.6155
 3813SOL    HW122901   1.869   3.902   2.206 -1.3542 -0.3623 -0.5220
 3813SOL    HW222902   1.993   3.819   2.188 -0.0847 -0.5325 -0.2796
 3814SOL     OW22903   3.365   3.781  10.813  0.5927 -0.4235  0.3656
 3814SOL    HW122904   3.351   3.689  10.838 -0.3806  0.8468  4.5606
 3814SOL    HW222905   3.317   3.832  10.878  1.5108 -0.6696  1.2476
 3815SOL     OW22906   2.228   1.122   8.840 -0.2035  0.3478  0.3758
 3815SOL    HW122907   2.157   1.183   8.860  1.0301  2.0405 -0.4348
 3815SOL    HW222908   2.265   1.164   8.762 -0.0419 -0.6970 -0.1053
 3816SOL     OW22909   1.352   0.436   8.892 -0.5324  0.0837  0.4121
 3816SOL    HW122910   1.344   0.446   8.987  2.8148  0.8737  0.5875
 3816SOL    HW222911   1.258   0.420   8.885 -0.0243 -1.7653 -1.7806
 3817SOL     OW22912   2.774   1.747   6.532  0.0857 -0.2510 -0.2595
 3817SOL    HW122913   2.819   1.677   6.580 -1.0861 -0.1001  1.0283
 3817SOL    HW222914   2.707   1.777   6.593 -0.9735 -0.7128 -1.1855
 3818SOL     OW22915   0.098   2.882   3.392  0.4078 -0.6568  0.0312
 3818SOL    HW122916   0.118   2.889   3.298  1.5494 -0.2527  0.3043
 3818SOL    HW222917   0.007   2.911   3.397 -0.5573 -4.0291  1.3197
 3819SOL     OW22918   0.138   1.917   1.487  0.3610 -0.3629 -0.6973
 3819SOL    HW122919   0.063   1.944   1.434 -0.7467 -1.1289  0.4877
 3819SOL    HW222920   0.164   1.997   1.533 -0.5152  0.1488 -1.0838
 3820SOL     OW22921   4.455   0.936  10.787  0.2022  0.7961  0.0196
 3820SOL    HW122922   4.432   0.951  10.696 -0.9556 -1.3746 -0.0493
 3820SOL    HW222923   4.374   0.959  10.833 -0.3453  2.2742 -1.6940
 3821SOL     OW22924   3.303   2.244   3.553  0.0041  0.5539 -0.0744
 3821SOL    HW122925   3.375   2.241   3.490  0.3428 -0.4325  0.3606
 3821SOL    HW222926   3.263   2.159   3.532  0.0755  0.0411  1.8221
 3822SOL     OW22927   0.717   0.005  10.798 -0.5087 -0.2935  0.1478
 3822SOL    HW122928   0.795   4.680  10.767 -1.5508 -0.7078 -1.8157
 3822SOL    HW222929   0.728   0.017  10.893  0.3624 -0.6588  0.0926
 3823SOL     OW22930   3.904   2.540   4.831  0.4498 -0.2192  0.1371
 3823SOL    HW122931   3.866   2.618   4.871 -1.2624 -1.2342  0.4869
 3823SOL    HW222932   3.975   2.511   4.888  0.1435 -0.1926  0.5309
 3824SOL     OW22933   1.261   3.494   0.849 -0.3102  0.1688  0.2292
 3824SOL    HW122934   1.336   3.449   0.812 -0.2662  1.3074 -1.0741
 3824SOL    HW222935   1.228   3.530   0.766 -0.1712  2.1858  1.0608
 3825SOL     OW22936   0.197   3.980  16.365 -0.5979  0.0374 -0.3660
 3825SOL    HW122937   0.185   4.018  16.278 -0.2287 -1.6887 -1.1714
 3825SOL    HW222938   0.141   4.038  16.416 -1.4842 -2.5195  1.5976
 3826SOL     OW22939   1.938   4.118  13.017  1.0931  0.2637  0.2442
 3826SOL    HW122940   1.898   4.059  12.953 -1.1241  1.1095  0.8430
 3826SOL    HW222941   1.969   4.186  12.957 -0.8195  0.4557 -0.5223
 3827SOL     OW22942   1.609   3.342   4.594 -0.4925 -0.2966 -0.2435
 3827SOL    HW122943   1.557   3.275   4.638 -1.4093  1.3037  1.1293
 3827SOL    HW222944   1.572   3.341   4.506 -0.3649  1.6165 -0.3332
 3828SOL     OW22945   4.291   3.297   8.871 -0.1386 -0.0858 -0.9308
 3828SOL    HW122946   4.216   3.332   8.919  0.0334 -0.4964 -0.3634
 3828SOL    HW222947   4.345   3.376   8.869 -0.5726  0.1905 -1.7327
 3829SOL     OW22948   0.265   3.145  15.648  0.5872 -0.5646 -0.0567
 3829SOL    HW122949   0.181   3.129  15.605  0.5755  1.3923 -0.7549
 3829SOL    HW222950   0.233   3.132  15.737 -1.1922 -0.7705 -0.7415
 3830SOL     OW22951   2.002   4.475   6.947  0.0655 -0.2835 -0.1020
 3830SOL    HW122952   2.075   4.493   6.887  0.9527 -0.7812  0.8283
 3830SOL    HW222953   2.005   4.543   7.014  1.2160  0.1676 -0.6073
 3831SOL     OW22954   2.024   1.944   2.318 -0.3629 -0.3300  0.1604
 3831SOL    HW122955   2.005   2.036   2.301 -0.2890 -0.9739 -3.2249
 3831SOL    HW222956   2.044   1.917   2.229 -0.6919  2.8297 -0.8884
 3832SOL     OW22957   4.284   1.658   5.792 -0.3585  0.0454 -0.1098
 3832SOL    HW122958   4.201   1.705   5.782 -0.6621  0.2027  3.1009
 3832SOL    HW222959   4.261   1.575   5.833 -1.0468  0.0246 -0.5329
 3833SOL     OW22960   0.077   2.489   4.839  0.4616 -0.2199 -0.2846
 3833SOL    HW122961   0.098   2.458   4.928  0.7663  0.8704  0.0198
 3833SOL    HW222962   0.091   2.409   4.788 -0.1878 -0.3069 -0.3278
 3834SOL     OW22963   4.256   4.567  13.571 -0.2285 -0.1961  0.2665
 3834SOL    HW122964   4.250   4.656  13.535  1.3766 -0.0825  0.3031
 3834SOL    HW222965   4.324   4.575  13.637  1.5877 -3.8124 -1.1539
 3835SOL     OW22966   3.883   1.347   4.956 -0.6969  0.6837  0.1490
 3835SOL    HW122967   3.792   1.327   4.978 -0.8330  0.8576 -0.2580
 3835SOL    HW222968   3.934   1.372   5.033  0.6000  0.0858 -0.5148
 3836SOL     OW22969   2.887   3.513  13.713  0.0189  0.4444  0.1669
 3836SOL    HW122970   2.983   3.519  13.708  0.1414 -0.2606  1.5864
 3836SOL    HW222971   2.876   3.511  13.808  1.3315  1.0854  0.3327
 3837SOL     OW22972   1.848   4.178  15.807 -0.4329 -0.8380 -0.0852
 3837SOL    HW122973   1.813   4.219  15.727  1.1560  0.4663 -0.1143
 3837SOL    HW222974   1.937   4.211  15.816 -0.7749 -0.1514  0.7419
 3838SOL     OW22975   4.656   1.533  12.278 -0.3513 -0.0767  0.0653
 3838SOL    HW122976   0.017   1.538  12.229  0.0892 -1.4813  0.6340
 3838SOL    HW222977   4.635   1.442  12.299 -3.5658  0.3596 -1.3872
 3839SOL     OW22978   3.763   2.151  14.600  0.1504 -0.3257  0.8663
 3839SOL    HW122979   3.847   2.106  14.602  0.8167  0.9066  0.2444
 3839SOL    HW222980   3.750   2.195  14.516 -0.8215 -1.4789  0.4074
 3840SOL     OW22981   1.410   0.809  16.042 -0.1472 -0.5378  0.0925
 3840SOL    HW122982   1.490   0.818  16.093  0.2784 -2.4297 -0.2397
 3840SOL    HW222983   1.381   0.723  16.074  0.6615 -0.5676  0.7401
 3841SOL     OW22984   4.571   2.231   7.060  0.0232  0.4061 -0.2785
 3841SOL    HW122985   4.559   2.225   7.155  3.0128  1.5826  0.1756
 3841SOL    HW222986   4.665   2.246   7.053 -0.2385  2.5894  0.5908
 3842SOL     OW22987   1.699   1.178   9.235  0.0892  0.0647 -0.1724
 3842SOL    HW122988   1.617   1.139   9.206  0.3327 -1.2296  0.9043
 3842SOL    HW222989   1.704   1.150   9.327  0.3925  0.4585 -0.0671
 3843SOL     OW22990   1.497   3.317   4.331  0.2381  0.1677  0.8542
 3843SOL    HW122991   1.502   3.228   4.297  1.3850  0.1628  1.0439
 3843SOL    HW222992   1.538   3.352   4.252 -1.9404 -0.1189 -0.4155
 3844SOL     OW22993   1.678   0.928   1.825 -0.6013  0.0355  0.4399
 3844SOL    HW122994   1.642   0.865   1.887  2.0584  0.2409  2.1855
 3844SOL    HW222995   1.768   0.898   1.813 -0.7483  0.3754 -1.5384
 3845SOL     OW22996   1.471   1.586   8.766  0.7064  0.6337 -0.4096
 3845SOL    HW122997   1.432   1.602   8.680 -0.3907  3.0124  0.5350
 3845SOL    HW222998   1.446   1.672   8.800 -1.6006 -1.6491  3.5913
 3846SOL     OW22999   3.340   0.231  15.813 -0.2188  0.5234 -0.1856
 3846SOL    HW123000   3.269   0.292  15.790  0.2257  0.4699 -1.6767
 3846SOL    HW223001   3.321   0.166  15.745 -1.5248  0.1598  0.5239
 3847SOL     OW23002   2.805   0.567   4.482  0.0487 -0.1652 -0.1446
 3847SOL    HW123003   2.845   0.481   4.469  2.6432  0.9074  0.8293
 3847SOL    HW223004   2.807   0.598   4.391 -0.3707 -1.2027 -0.5148
 3848SOL     OW23005   2.645   1.142   3.431 -0.4217 -0.0615 -0.3962
 3848SOL    HW123006   2.708   1.203   3.393 -1.3923  2.4259  1.9627
 3848SOL    HW223007   2.711   1.077   3.455  3.0054  2.2399 -3.6053
 3849SOL     OW23008   0.135   3.895   0.627 -0.8089  0.2254  0.0336
 3849SOL    HW123009   0.162   3.895   0.719 -0.5413  1.1882 -0.0411
 3849SOL    HW223010   0.216   3.930   0.591 -0.9809 -0.9468 -1.4902
 3850SOL     OW23011   4.139   2.930  12.425 -0.2178  0.2702  0.3486
 3850SOL    HW123012   4.077   3.003  12.416  1.2506  1.5459  0.6898
 3850SOL    HW223013   4.169   2.925  12.334  0.0972  0.4754  0.4435
 3851SOL     OW23014   0.027   1.475   4.953  0.2839  0.0609  0.1389
 3851SOL    HW123015   0.120   1.461   4.969  0.1192 -1.1255  0.0504
 3851SOL    HW223016   4.719   1.385   4.969 -0.1658  0.6503  2.6557
 3852SOL     OW23017   0.111   4.693   2.909 -0.5921  0.0426 -0.0033
 3852SOL    HW123018   0.200   4.664   2.924 -1.1088 -0.7342  1.5200
 3852SOL    HW223019   0.127   0.066   2.920  1.3008 -0.6333  2.7831
 3853SOL     OW23020   0.749   2.324   3.990  0.7459  0.1289 -0.1304
 3853SOL    HW123021   0.826   2.283   3.951  0.5970 -1.3222  1.0887
 3853SOL    HW223022   0.791   2.376   4.059 -0.7580  2.3305 -0.8924
 3854SOL     OW23023   3.806   1.312   9.569 -0.1109 -0.2779  0.0982
 3854SOL    HW123024   3.798   1.225   9.532  0.2103 -0.6297  0.8505
 3854SOL    HW223025   3.778   1.349   9.485  0.4452 -2.7027 -1.1503
 3855SOL     OW23026   4.149   0.611   3.478 -0.2472  0.3047 -0.2649
 3855SOL    HW123027   4.058   0.584   3.471 -0.3043  0.8576 -1.5828
 3855SOL    HW223028   4.171   0.607   3.385 -0.8947 -2.2404 -0.2938
 3856SOL     OW23029   4.131   2.404   0.974  0.1097  0.2292  0.1374
 3856SOL    HW123030   4.126   2.309   0.983 -0.5698  0.0559 -2.2456
 3856SOL    HW223031   4.157   2.425   1.064  1.6719 -1.8001  0.1543
 3857SOL     OW23032   4.147   3.765   2.006 -0.4404 -0.1865  0.4267
 3857SOL    HW123033   4.229   3.717   2.000 -0.4741  0.2042 -2.8186
 3857SOL    HW223034   4.122   3.735   2.094  3.3698 -0.4187  1.4179
 3858SOL     OW23035   4.580   2.198  13.939  0.1019 -0.3466  0.2318
 3858SOL    HW123036   4.516   2.268  13.931  1.3781  0.7227 -0.6634
 3858SOL    HW223037   4.552   2.140  13.868 -1.4409  0.6059  0.0730
 3859SOL     OW23038   4.227   1.407   5.866 -0.0747  0.5720  0.4269
 3859SOL    HW123039   4.174   1.342   5.912 -2.2401  2.0318 -0.0241
 3859SOL    HW223040   4.201   1.390   5.775 -1.9324  0.7110  0.9336
 3860SOL     OW23041   1.302   0.984   4.135  0.2069  0.7393 -0.5614
 3860SOL    HW123042   1.314   0.894   4.106 -0.8670  0.1296  0.8531
 3860SOL    HW223043   1.391   1.017   4.127 -0.2188  2.4247  1.4342
 3861SOL     OW23044   3.836   2.859   8.613  0.0268 -0.2642  0.1047
 3861SOL    HW123045   3.822   2.766   8.596 -0.7375  0.0156 -0.7764
 3861SOL    HW223046   3.744   2.877   8.631  0.3770 -0.5379  2.2231
 3862SOL     OW23047   1.681   2.589  11.991  0.5856 -0.2267 -0.4463
 3862SOL    HW123048   1.641   2.668  11.956 -1.9665  0.0391  3.0665
 3862SOL    HW223049   1.684   2.609  12.085 -2.6020 -0.4797 -0.2878
 3863SOL     OW23050   4.215   0.062   2.430 -0.2033 -0.2171 -0.2490
 3863SOL    HW123051   4.209   0.157   2.439  0.1307 -0.3009  0.9304
 3863SOL    HW223052   4.160   0.032   2.502 -2.4306  0.7845 -1.5268
 3864SOL     OW23053   2.020   4.058  17.307 -0.5551 -0.3429 -0.8697
 3864SOL    HW123054   2.087   4.012  17.256 -0.0284  0.6945 -1.1317
 3864SOL    HW223055   1.997   3.991  17.370  2.3507  0.7996  1.3793
 3865SOL     OW23056   2.296   1.265   3.211  0.2521 -0.4069  0.0631
 3865SOL    HW123057   2.207   1.231   3.202 -0.0259  0.2255  0.3786
 3865SOL    HW223058   2.290   1.358   3.231  2.1448 -0.2634 -0.0407
 3866SOL     OW23059   0.851   4.268   5.967 -0.0112  0.0616  0.8945
 3866SOL    HW123060   0.900   4.187   5.960 -2.2809 -1.2410  0.0806
 3866SOL    HW223061   0.855   4.297   5.876  0.3718 -0.3669  0.7746
 3867SOL     OW23062   0.056   4.298   4.144  0.2770 -0.0497  0.3330
 3867SOL    HW123063   0.089   4.252   4.067 -1.5326  1.0179 -1.0777
 3867SOL    HW223064   0.054   4.388   4.112 -1.4238 -0.4670 -0.7822
 3868SOL     OW23065   4.137   0.053   7.587  0.2598 -0.0091 -0.0915
 3868SOL    HW123066   4.179   0.092   7.510 -0.0908  2.4037  0.9599
 3868SOL    HW223067   4.044   0.045   7.565  0.4612  1.3376 -1.4665
 3869SOL     OW23068   4.294   2.415   4.566 -0.4724 -0.2708  0.5335
 3869SOL    HW123069   4.362   2.476   4.538  0.5367 -1.2874  0.8118
 3869SOL    HW223070   4.288   2.363   4.486  1.1028  0.8226 -0.2763
 3870SOL     OW23071   3.604   3.814   5.537  0.1290  0.1811 -0.6524
 3870SOL    HW123072   3.511   3.803   5.555 -0.5314  2.4643 -2.7028
 3870SOL    HW223073   3.645   3.825   5.623 -0.7181 -2.0333  0.0408
 3871SOL     OW23074   2.133   2.793   3.111 -0.0097 -0.0751 -0.6228
 3871SOL    HW123075   2.213   2.829   3.072 -0.6165 -0.0514 -1.8247
 3871SOL    HW223076   2.070   2.806   3.040 -0.7273  1.0298  0.2123
 3872SOL     OW23077   2.679   4.393   6.790  0.0745  0.3673  0.1389
 3872SOL    HW123078   2.749   4.440   6.836  0.4826 -1.7948  1.6923
 3872SOL    HW223079   2.720   4.311   6.762 -2.0178 -1.0679  1.2833
 3873SOL     OW23080   3.714   2.028   6.869  0.1332 -0.9719 -0.1633
 3873SOL    HW123081   3.728   1.977   6.949 -0.2055 -1.4524 -0.4117
 3873SOL    HW223082   3.781   2.097   6.874 -1.4622  0.5509  0.1041
 3874SOL     OW23083   4.073   2.539   2.838  0.5597 -0.3979 -0.0970
 3874SOL    HW123084   3.981   2.565   2.834 -0.0929 -2.8369 -0.6736
 3874SOL    HW223085   4.073   2.464   2.898  0.1070 -1.0912 -0.9616
 3875SOL     OW23086   1.251   1.484   3.906  0.0329 -0.1003  0.0363
 3875SOL    HW123087   1.171   1.537   3.916 -1.2970 -2.4777  1.8731
 3875SOL    HW223088   1.264   1.489   3.811 -2.1857 -0.8835 -0.2981
 3876SOL     OW23089   3.396   2.482   6.302 -0.0871  0.0051 -0.6933
 3876SOL    HW123090   3.473   2.531   6.272  0.1578  0.5561  0.8452
 3876SOL    HW223091   3.390   2.498   6.396 -1.8807 -1.5917 -0.5393
 3877SOL     OW23092   1.184   3.270  17.683  0.0213  0.3341  0.0309
 3877SOL    HW123093   1.228   3.197  17.640 -1.7421 -1.3285  1.0416
 3877SOL    HW223094   1.103   3.237   0.035  0.8791 -1.1563  0.5558
 3878SOL     OW23095   1.422   2.515   4.112 -0.0124 -0.7386  0.2473
 3878SOL    HW123096   1.509   2.509   4.152  0.1916  1.8322  0.1794
 3878SOL    HW223097   1.384   2.433   4.144  0.3822 -0.7585  0.6724
 3879SOL     OW23098   0.777   0.037   2.196  0.2537 -0.0324  0.0713
 3879SOL    HW123099   0.759   0.049   2.289 -0.1558  1.0391 -0.1473
 3879SOL    HW223100   0.766   4.663   2.187  2.4968 -0.2668 -0.1549
 3880SOL     OW23101   0.485   4.240   4.144 -0.1724  0.0844 -0.0584
 3880SOL    HW123102   0.412   4.189   4.109 -1.2702  0.8483  1.1029
 3880SOL    HW223103   0.513   4.183   4.215 -0.0954  0.1554 -0.0318
 3881SOL     OW23104   2.318   3.761  11.240 -0.0873  0.0225  0.2798
 3881SOL    HW123105   2.250   3.709  11.196  0.8999 -0.4818 -0.6668
 3881SOL    HW223106   2.260   3.812  11.296  0.6983 -0.6712  1.7318
 3882SOL     OW23107   2.458   0.081   6.625 -0.3568  0.1796 -0.2784
 3882SOL    HW123108   2.432   0.171   6.602  0.9825  0.3320 -1.2008
 3882SOL    HW223109   2.408   0.021   6.570 -1.8105 -2.7454  4.2941
 3883SOL     OW23110   3.965   0.337   6.021  0.1039  0.4586 -0.1083
 3883SOL    HW123111   3.993   0.416   6.067  2.8384 -0.9856  0.6822
 3883SOL    HW223112   4.012   0.354   5.939 -2.6834 -0.1438 -1.8221
 3884SOL     OW23113   2.214   3.666  10.473 -0.3153  0.1113 -0.1015
 3884SOL    HW123114   2.276   3.628  10.535  1.9494  2.2530 -1.0436
 3884SOL    HW223115   2.247   3.756  10.473  0.4645 -0.1737 -0.6038
 3885SOL     OW23116   2.532   1.939  13.191 -0.0432  0.0188 -1.0698
 3885SOL    HW123117   2.485   1.989  13.259  0.0192  0.5199 -1.3935
 3885SOL    HW223118   2.470   1.868  13.176  1.3356 -1.6900  1.2763
 3886SOL     OW23119   0.986   4.696   5.922  0.4055 -0.8178  0.1889
 3886SOL    HW123120   0.988   4.607   5.886 -2.6694 -1.1496  0.8722
 3886SOL    HW223121   0.948   4.676   6.007 -0.1549  2.8020  0.8032
 3887SOL     OW23122   3.968   0.043   4.828 -0.2374  0.8210  0.2567
 3887SOL    HW123123   3.970   4.693   4.764 -1.2882  2.2474 -1.3664
 3887SOL    HW223124   3.919   0.114   4.785 -0.5637 -0.3805 -1.3498
 3888SOL     OW23125   3.149   3.508   6.593 -0.2267  0.3798 -0.2118
 3888SOL    HW123126   3.113   3.580   6.644  0.7825  0.6173  0.1395
 3888SOL    HW223127   3.095   3.438   6.632 -1.6791  1.7331  0.2190
 3889SOL     OW23128   1.499   0.211   2.275  0.1232 -0.2598  0.3898
 3889SOL    HW123129   1.475   0.119   2.266  1.2657 -0.5534  0.2939
 3889SOL    HW223130   1.418   0.231   2.321 -0.5506  0.0497 -0.9373
 3890SOL     OW23131   2.531   0.802   3.543  0.2758 -0.0166 -0.6211
 3890SOL    HW123132   2.493   0.717   3.562  1.6613 -0.9972 -2.2232
 3890SOL    HW223133   2.569   0.784   3.457 -0.9722  0.0005 -1.1674
 3891SOL     OW23134   4.144   1.066   6.144  0.1373  0.2607  0.6129
 3891SOL    HW123135   4.136   0.973   6.167 -3.5831  1.1188  2.7458
 3891SOL    HW223136   4.063   1.075   6.093  0.6631  0.5809 -0.1599
 3892SOL     OW23137   2.532   3.578   4.678  0.7216  0.7897  0.1859
 3892SOL    HW123138   2.489   3.663   4.689  1.1553  1.1823 -1.1552
 3892SOL    HW223139   2.474   3.524   4.731 -0.3244  1.1826 -0.5531
 3893SOL     OW23140   3.765   3.991   1.613  0.3583  0.1342 -0.5343
 3893SOL    HW123141   3.811   4.075   1.621 -0.4169  0.5660 -0.6307
 3893SOL    HW223142   3.768   3.984   1.517 -3.6023  0.5938 -0.6838
 3894SOL     OW23143   3.386   1.620   0.090  0.4144  0.1379  0.1135
 3894SOL    HW123144   3.379   1.703   0.138  1.9400 -0.1600  0.8369
 3894SOL    HW223145   3.480   1.618   0.078  0.2511 -2.4349 -0.7072
 3895SOL     OW23146   4.584   3.785   8.858  0.1995 -0.1494 -0.4243
 3895SOL    HW123147   4.576   3.801   8.764 -1.8461  0.3589 -0.1631
 3895SOL    HW223148   4.654   3.847   8.877  0.2147 -0.0336 -0.8612
 3896SOL     OW23149   0.625   0.160   2.672  0.5773 -0.3457  0.0635
 3896SOL    HW123150   0.691   0.179   2.739  0.8681  1.6107 -0.7482
 3896SOL    HW223151   0.548   0.171   2.727  0.2890 -0.1868 -0.3770
 3897SOL     OW23152   4.152   2.994  10.428  0.1873 -1.1917  0.5239
 3897SOL    HW123153   4.145   3.034  10.341 -1.7366 -0.1631  1.1587
 3897SOL    HW223154   4.239   3.027  10.453 -0.6164  1.3862 -0.1113
 3898SOL     OW23155   1.596   2.551   2.364  0.7888 -0.0168  0.3529
 3898SOL    HW123156   1.677   2.598   2.344  0.5606  0.3583  0.3097
 3898SOL    HW223157   1.528   2.611   2.334  1.4251  0.4965 -0.0650
 3899SOL     OW23158   3.047   3.518   7.342  0.6372  0.1250 -0.4182
 3899SOL    HW123159   3.104   3.526   7.266 -2.2374  0.6813 -2.5231
 3899SOL    HW223160   3.111   3.487   7.406  1.0433 -2.0180 -1.8566
 3900SOL     OW23161   2.941   4.224  11.638 -0.0885 -0.5663  0.6255
 3900SOL    HW123162   2.914   4.316  11.643  0.5954 -0.5350  3.4268
 3900SOL    HW223163   3.020   4.235  11.690  1.0014  1.5769 -1.4717
 3901SOL     OW23164   0.900   1.761   4.628 -0.4233 -0.2134  0.2720
 3901SOL    HW123165   0.934   1.848   4.607  0.8629 -0.9899 -0.7931
 3901SOL    HW223166   0.847   1.783   4.705 -0.2215 -3.8510  1.4510
 3902SOL     OW23167   1.544   2.191   2.759 -0.1034  0.2844 -0.0267
 3902SOL    HW123168   1.513   2.257   2.821 -0.5755  0.5466 -0.5448
 3902SOL    HW223169   1.608   2.154   2.820  0.7881  2.3688  0.2916
 3903SOL     OW23170   1.035   3.510  10.670 -0.0491 -0.2365  0.2632
 3903SOL    HW123171   1.046   3.602  10.643  1.0350  0.0300  1.6075
 3903SOL    HW223172   1.122   3.481  10.641 -0.8956 -2.2086 -0.2837
 3904SOL     OW23173   4.053   3.804   3.845  0.2006  0.0133  0.0545
 3904SOL    HW123174   4.017   3.723   3.883  0.3473 -0.7722 -1.5034
 3904SOL    HW223175   4.132   3.821   3.896  1.0796 -1.2601 -0.8716
 3905SOL     OW23176   4.707   1.641   0.880 -0.0465 -0.4138 -0.4248
 3905SOL    HW123177   4.699   1.627   0.786 -1.5010  1.1896 -0.5412
 3905SOL    HW223178   4.615   1.652   0.904 -0.9563 -1.5093 -3.4290
 3906SOL     OW23179   1.265   1.509  12.050 -0.4684 -0.2960  0.0322
 3906SOL    HW123180   1.355   1.505  12.018 -0.5728 -1.2654 -0.1351
 3906SOL    HW223181   1.264   1.454  12.128 -0.3225 -1.4034 -0.7571
 3907SOL     OW23182   4.091   0.513   0.457  0.0331  0.9142  0.1466
 3907SOL    HW123183   4.000   0.540   0.464  0.2629  2.0864 -1.3836
 3907SOL    HW223184   4.139   0.581   0.506 -0.7597 -0.0933  2.3432
 3908SOL     OW23185   1.881   4.141   1.742  0.2435  0.0227  0.0493
 3908SOL    HW123186   1.825   4.127   1.818  0.8777  0.2540  0.5555
 3908SOL    HW223187   1.824   4.099   1.678  0.8680 -1.8577  0.7440
 3909SOL     OW23188   3.628   2.823   7.672 -0.4052  0.0267 -0.6510
 3909SOL    HW123189   3.713   2.868   7.671 -0.7323  0.6281 -1.9466
 3909SOL    HW223190   3.596   2.855   7.756 -0.6690  0.3100 -0.8596
 3910SOL     OW23191   1.039   0.181   2.757  0.2299 -0.2342 -0.5772
 3910SOL    HW123192   0.973   0.168   2.824  1.1278  1.9509  0.7402
 3910SOL    HW223193   1.086   0.259   2.788 -0.5412 -0.4202  1.0349
 3911SOL     OW23194   1.551   4.436   5.691 -0.0402  0.3639  0.0344
 3911SOL    HW123195   1.614   4.500   5.725 -0.7692 -0.0286  2.1466
 3911SOL    HW223196   1.471   4.477   5.725 -0.0413  0.0793  0.3758
 3912SOL     OW23197   3.444   0.933  11.591 -0.1231  0.0143 -0.3162
 3912SOL    HW123198   3.351   0.945  11.571  0.0036 -0.8507 -1.4310
 3912SOL    HW223199   3.457   0.841  11.568  0.1046 -0.9423  3.5992
 3913SOL     OW23200   0.945   4.404   0.423  0.2083 -0.6797  0.2516
 3913SOL    HW123201   0.884   4.333   0.401 -1.2424  0.0079  2.0692
 3913SOL    HW223202   0.902   4.487   0.442  0.3353 -0.6692  0.4888
 3914SOL     OW23203   2.576   0.150   8.350 -0.4339  0.3488 -0.2316
 3914SOL    HW123204   2.661   0.150   8.307 -1.8878  1.0893 -3.1528
 3914SOL    HW223205   2.606   0.193   8.430 -1.5733  3.8354 -1.6853
 3915SOL     OW23206   0.009   3.374   9.769 -0.2914  0.1618 -0.0392
 3915SOL    HW123207   0.072   3.317   9.814 -2.2544 -1.5292  0.5646
 3915SOL    HW223208   4.717   3.439   9.838  3.7163  1.9594 -1.0005
 3916SOL     OW23209   1.332   2.191   2.327 -0.3193 -0.1912  0.0993
 3916SOL    HW123210   1.239   2.171   2.322  0.2832 -2.5964 -1.4847
 3916SOL    HW223211   1.336   2.237   2.243 -3.2649 -0.0420  0.0586
 3917SOL     OW23212   4.322   4.379   5.996  0.1481  0.4302  0.4897
 3917SOL    HW123213   4.353   4.375   5.905  1.8280  0.3936  1.0768
 3917SOL    HW223214   4.324   4.475   6.005 -1.7783  0.7951 -2.7432
 3918SOL     OW23215   0.237   0.731   9.449  0.0711  0.2878  0.3859
 3918SOL    HW123216   0.181   0.722   9.525  0.3365 -0.9487  0.4424
 3918SOL    HW223217   0.315   0.686   9.482  0.1778  0.1247 -0.0904
 3919SOL     OW23218   1.668   0.060   4.728 -0.7857 -0.3082 -0.3180
 3919SOL    HW123219   1.647   4.695   4.692 -1.2858 -0.5642  0.5798
 3919SOL    HW223220   1.718   0.049   4.809 -1.3280 -2.5622 -0.2938
 3920SOL     OW23221   2.345   3.609   4.327  0.2444 -0.2841 -0.1330
 3920SOL    HW123222   2.398   3.543   4.372  2.8189  1.1322 -1.0835
 3920SOL    HW223223   2.397   3.607   4.246 -1.1101 -2.4714 -0.9630
 3921SOL     OW23224   2.458   1.791   6.027 -0.8718 -0.0485 -0.0934
 3921SOL    HW123225   2.440   1.708   5.983  0.9536 -1.0109  0.9623
 3921SOL    HW223226   2.440   1.769   6.119 -3.3431 -1.5972 -0.9525
 3922SOL     OW23227   0.140   1.295   8.694 -0.1317 -1.2210  0.1516
 3922SOL    HW123228   0.148   1.281   8.599 -1.0713  0.8522 -0.2296
 3922SOL    HW223229   0.046   1.313   8.694  0.0075 -0.5021  0.3907
 3923SOL     OW23230   4.290   2.975   8.429 -0.2533  0.4081  0.2500
 3923SOL    HW123231   4.242   2.944   8.352 -2.8880  1.1809  1.6014
 3923SOL    HW223232   4.218   2.972   8.492 -0.0442  0.6391  0.4998
 3924SOL     OW23233   1.400   0.320   6.486 -0.0527 -0.1171 -0.7011
 3924SOL    HW123234   1.485   0.340   6.447 -0.3053  1.5241 -0.4072
 3924SOL    HW223235   1.428   0.267   6.560  0.7737  2.2694  0.6976
 3925SOL     OW23236   0.971   0.902   3.164  0.1287  0.7021  0.3549
 3925SOL    HW123237   1.037   0.965   3.195  0.5348  1.2751 -1.6152
 3925SOL    HW223238   0.900   0.966   3.162 -1.7150 -1.3500  0.0255
 3926SOL     OW23239   3.630   0.116  15.593  0.6924  0.1021  0.4093
 3926SOL    HW123240   3.691   0.177  15.551 -0.3866  0.2831 -0.8868
 3926SOL    HW223241   3.550   0.136  15.545 -0.4894  0.6418  2.6254
 3927SOL     OW23242   3.040   0.919   5.886  0.1577  0.5813  0.0413
 3927SOL    HW123243   3.014   0.828   5.901  0.6641 -0.0807 -3.0487
 3927SOL    HW223244   3.001   0.934   5.799  1.2081 -1.0693 -0.7135
 3928SOL     OW23245   3.568   4.672   1.506 -0.4417 -0.5304  0.1853
 3928SOL    HW123246   3.563   4.612   1.581 -3.6115  1.6595  1.7095
 3928SOL    HW223247   3.494   4.638   1.456  0.1350  0.4557 -1.3235
 3929SOL     OW23248   4.233   1.732   4.358 -0.0463 -0.0407 -0.3948
 3929SOL    HW123249   4.293   1.665   4.392  1.9404  2.1318  0.3588
 3929SOL    HW223250   4.183   1.673   4.301 -2.8425  1.2221  0.7760
 3930SOL     OW23251   0.195   1.196   4.730 -0.1942  0.6210  0.4568
 3930SOL    HW123252   0.129   1.248   4.685  0.5109  0.1517 -1.1302
 3930SOL    HW223253   0.268   1.219   4.673 -1.0193  2.0913  0.0058
 3931SOL     OW23254   3.379   3.459   3.296  0.5043  0.4079  0.1170
 3931SOL    HW123255   3.334   3.536   3.259 -0.9825 -0.7982 -0.5774
 3931SOL    HW223256   3.323   3.446   3.373 -0.0651  1.9568 -0.0213
 3932SOL     OW23257   1.543   1.177   8.183 -0.0049 -0.1973 -0.2641
 3932SOL    HW123258   1.611   1.120   8.219  0.8517  2.2634  2.0040
 3932SOL    HW223259   1.472   1.160   8.244  0.3109 -1.6104 -0.3014
 3933SOL     OW23260   0.364   4.494   9.003 -0.1838 -0.4157  0.5116
 3933SOL    HW123261   0.408   4.552   9.065  0.0280  1.1151 -1.1003
 3933SOL    HW223262   0.313   4.435   9.059 -2.5033  3.4434  2.4488
 3934SOL     OW23263   1.554   1.751   7.095  0.6274  0.7178  0.5652
 3934SOL    HW123264   1.468   1.790   7.108  1.2444  2.2448  0.1425
 3934SOL    HW223265   1.565   1.783   7.006  1.5229 -0.9868  0.0644
 3935SOL     OW23266   0.490   1.382   9.628  0.7463 -0.5226  0.3981
 3935SOL    HW123267   0.427   1.452   9.643  0.8580  0.7518 -4.8264
 3935SOL    HW223268   0.572   1.432   9.622  0.1288  0.3906 -0.4055
 3936SOL     OW23269   3.143   1.766  10.685  0.2137 -0.0881  0.4091
 3936SOL    HW123270   3.116   1.858  10.685  0.8373  0.1033 -2.4422
 3936SOL    HW223271   3.199   1.758  10.608 -0.1816  0.1534  0.0972
 3937SOL     OW23272   1.441   0.057   4.497 -0.1982  0.3229 -0.6166
 3937SOL    HW123273   1.447   0.107   4.579 -1.0668  1.5226 -1.2852
 3937SOL    HW223274   1.346   0.053   4.488 -0.2489 -0.7134  0.3243
 3938SOL     OW23275   3.151   3.857   9.140 -0.3899 -0.3126 -0.0637
 3938SOL    HW123276   3.146   3.910   9.219  1.8961 -0.7226  0.3445
 3938SOL    HW223277   3.204   3.905   9.077  0.5853 -1.6098 -0.2364
 3939SOL     OW23278   4.345   4.416   3.198 -0.1907 -0.3665 -0.2276
 3939SOL    HW123279   4.389   4.494   3.166  0.3009 -0.4551  0.2382
 3939SOL    HW223280   4.385   4.414   3.284  2.1231  1.9305 -1.2690
 3940SOL     OW23281   4.588   0.305   3.911  0.3599 -0.4348  0.5556
 3940SOL    HW123282   4.572   0.345   3.826 -0.7294 -4.1716 -1.0101
 3940SOL    HW223283   4.521   0.348   3.964  0.1866 -0.2571  0.1961
 3941SOL     OW23284   0.188   2.380   5.076 -0.0779  0.1242  0.3906
 3941SOL    HW123285   0.205   2.287   5.066  0.0856 -0.0943  2.5803
 3941SOL    HW223286   0.205   2.380   5.171 -1.0892 -1.4792  0.5719
 3942SOL     OW23287   2.554   0.548   9.128 -0.2015 -0.2552  0.1850
 3942SOL    HW123288   2.488   0.583   9.069  0.4866  0.6959 -0.0154
 3942SOL    HW223289   2.605   0.498   9.064 -0.6038 -0.4799  0.0418
 3943SOL     OW23290   1.531   1.891   4.900  0.0054  0.4278 -0.9574
 3943SOL    HW123291   1.488   1.890   4.985  2.5465  0.1546  0.3079
 3943SOL    HW223292   1.517   1.803   4.866 -1.6027  0.1577  0.4116
 3944SOL     OW23293   4.636   1.798  10.262 -0.2127 -0.6117  0.6243
 3944SOL    HW123294   4.639   1.857  10.337  1.2761 -0.4701  0.4417
 3944SOL    HW223295   4.566   1.735  10.282 -1.1726 -0.1978 -1.3713
 3945SOL     OW23296   1.046   0.988  13.158 -0.3816 -0.0585  0.2034
 3945SOL    HW123297   0.964   0.940  13.160  0.5129 -1.5719  0.6193
 3945SOL    HW223298   1.045   1.003  13.064  1.8365 -1.3280 -0.0218
 3946SOL     OW23299   2.316   2.486   1.719  0.3034 -0.5893  0.8932
 3946SOL    HW123300   2.394   2.487   1.775  1.5256  0.3914 -0.8421
 3946SOL    HW223301   2.367   2.482   1.638 -1.3452 -1.5410 -0.1017
 3947SOL     OW23302   1.556   0.546   6.210 -0.3598 -0.1279 -0.2961
 3947SOL    HW123303   1.537   0.570   6.119  1.0237  2.2759  0.0476
 3947SOL    HW223304   1.476   0.583   6.246 -0.5647 -1.5251  0.6561
 3948SOL     OW23305   1.984   1.118   2.503  0.2456  0.0245  0.2354
 3948SOL    HW123306   2.060   1.061   2.516  0.8708  0.8661  0.3038
 3948SOL    HW223307   2.023   1.168   2.432 -2.8977  0.9724 -0.8284
 3949SOL     OW23308   2.164   1.282   5.249  0.1063  0.2952 -0.2051
 3949SOL    HW123309   2.092   1.263   5.309  0.0380 -0.8491 -0.6424
 3949SOL    HW223310   2.129   1.337   5.179 -1.5956  0.8735  1.1151
 3950SOL     OW23311   0.512   2.610   9.036  0.3059  0.2012 -0.2549
 3950SOL    HW123312   0.501   2.515   9.038 -2.2369  0.5026  0.0809
 3950SOL    HW223313   0.482   2.627   9.125  1.6405  2.2021 -0.1938
 3951SOL     OW23314   0.636   3.375  10.265  0.4928  0.3098 -0.2424
 3951SOL    HW123315   0.594   3.461  10.273 -3.3683 -1.7984  2.1109
 3951SOL    HW223316   0.718   3.400  10.223  0.3538 -0.6080 -1.0518
 3952SOL     OW23317   0.281   3.146   3.258 -0.1448 -0.2869 -0.4170
 3952SOL    HW123318   0.300   3.098   3.178  0.7642 -2.3099  1.0208
 3952SOL    HW223319   0.189   3.171   3.251 -0.1977 -0.1178  0.7557
 3953SOL     OW23320   1.355   2.005  12.348 -0.0139 -0.3617  0.1399
 3953SOL    HW123321   1.371   1.923  12.302 -1.1493 -0.1156 -0.6951
 3953SOL    HW223322   1.339   2.065  12.275 -0.9874  2.0332  2.3273
 3954SOL     OW23323   0.995   1.716   9.168  0.0475 -0.0227  0.0851
 3954SOL    HW123324   1.024   1.805   9.187  0.4964 -0.2858  0.6453
 3954SOL    HW223325   1.036   1.667   9.239 -1.9434  0.0202  1.2338
 3955SOL     OW23326   2.743   1.049   5.368 -0.2134  0.0053 -0.4102
 3955SOL    HW123327   2.748   1.095   5.451 -0.0982 -0.2947 -0.2494
 3955SOL    HW223328   2.683   0.979   5.395 -1.3878  0.6414 -1.3815
 3956SOL     OW23329   2.797   1.675  11.984  0.2336  1.4330  0.3795
 3956SOL    HW123330   2.857   1.746  12.006  0.8982  1.4502 -1.4172
 3956SOL    HW223331   2.768   1.648  12.071 -3.4913  0.3280 -1.1891
 3957SOL     OW23332   3.090   0.424  14.717  0.3140 -0.2796 -0.4647
 3957SOL    HW123333   3.016   0.417  14.779  2.0655 -1.5182  1.4893
 3957SOL    HW223334   3.161   0.456  14.774 -0.1662  1.8799 -1.0559
 3958SOL     OW23335   4.586   0.895   6.614 -0.1448 -0.8232  0.2125
 3958SOL    HW123336   4.678   0.908   6.592 -0.4500  0.4566 -0.3333
 3958SOL    HW223337   4.552   0.981   6.592  1.3443  0.1202  1.6324
 3959SOL     OW23338   1.080   0.435   8.893 -0.1499 -0.7386 -0.0192
 3959SOL    HW123339   1.070   0.343   8.913  0.8786 -0.9519 -0.4410
 3959SOL    HW223340   1.002   0.451   8.840  0.2336  1.9426  0.1789
 3960SOL     OW23341   4.076   4.678   2.165 -0.3028 -0.0683  0.3702
 3960SOL    HW123342   3.989   4.716   2.160  1.0276  2.4649 -2.8576
 3960SOL    HW223343   4.114   4.716   2.244  1.7598  0.6489 -0.9728
 3961SOL     OW23344   2.702   0.987   4.554  0.0527 -0.1810 -0.3942
 3961SOL    HW123345   2.747   0.917   4.601  2.1041  1.6069  0.2740
 3961SOL    HW223346   2.713   0.950   4.467  0.5391  0.7884 -0.7495
 3962SOL     OW23347   3.621   3.926   6.389 -0.1271 -0.1275 -0.3554
 3962SOL    HW123348   3.577   3.912   6.472 -0.3541  0.0597 -0.4435
 3962SOL    HW223349   3.580   4.002   6.347 -0.4364  0.7544  1.5644
 3963SOL     OW23350   1.168   3.157  11.427 -0.2346 -0.2907 -0.0344
 3963SOL    HW123351   1.126   3.187  11.346 -3.2916 -0.1712  1.6037
 3963SOL    HW223352   1.208   3.072  11.404 -0.3841 -0.9768  2.3022
 3964SOL     OW23353   3.733   4.374  16.466  0.1961  0.5620 -0.0067
 3964SOL    HW123354   3.820   4.405  16.493  0.1691  0.5192  0.1324
 3964SOL    HW223355   3.697   4.441  16.408 -0.7397  1.3889  1.5374
 3965SOL     OW23356   3.612   4.420   4.038  0.0644  0.0495 -0.1344
 3965SOL    HW123357   3.520   4.397   4.022  0.1930 -0.9552  0.5659
 3965SOL    HW223358   3.601   4.450   4.129 -0.8635  2.7741 -1.1257
 3966SOL     OW23359   0.944   3.067   0.069 -0.0405  0.0286  0.1937
 3966SOL    HW123360   0.988   3.081   0.153  0.7492 -2.9283  0.2741
 3966SOL    HW223361   0.953   2.973   0.059  0.1096 -0.3098  3.2691
 3967SOL     OW23362   1.471   4.270   4.253  0.3165 -0.3917  0.6159
 3967SOL    HW123363   1.503   4.359   4.239  2.2951 -1.1155  0.4136
 3967SOL    HW223364   1.556   4.225   4.259  0.3430 -0.3143  0.8422
 3968SOL     OW23365   1.946   4.244   5.638 -0.6845  0.1290 -0.0338
 3968SOL    HW123366   1.942   4.148   5.633 -1.9484  0.2260 -1.0482
 3968SOL    HW223367   1.878   4.257   5.705 -0.5839 -1.6158  0.3999
 3969SOL     OW23368   4.624   1.760   5.448  0.3814  0.4161 -0.0343
 3969SOL    HW123369   4.584   1.847   5.456  0.7841  0.5747  0.2729
 3969SOL    HW223370   4.573   1.711   5.511 -0.0758  1.0341  0.0763
 3970SOL     OW23371   3.156   0.136   2.331 -0.0503 -0.3555 -0.5641
 3970SOL    HW123372   3.183   0.146   2.240 -2.2945 -0.3590 -1.2215
 3970SOL    HW223373   3.071   0.095   2.317 -0.5832  0.7444 -0.5082
 3971SOL     OW23374   1.774   1.745   4.670 -0.0992 -0.2746  0.0921
 3971SOL    HW123375   1.725   1.665   4.687 -3.2332  0.6586 -4.6281
 3971SOL    HW223376   1.801   1.735   4.578  1.3840 -0.6950  0.5818
 3972SOL     OW23377   4.572   0.942  16.626  0.1239 -0.0941  0.4598
 3972SOL    HW123378   4.625   1.011  16.665 -1.0816  1.5485 -0.8472
 3972SOL    HW223379   4.490   0.985  16.648  0.2432  0.8792 -1.0404
 3973SOL     OW23380   1.592   0.374  15.233 -0.1085 -0.0349  0.4128
 3973SOL    HW123381   1.576   0.282  15.214  0.5677  0.3023 -1.7022
 3973SOL    HW223382   1.541   0.385  15.314 -1.6858 -1.0770 -0.4543
 3974SOL     OW23383   1.681   0.342   5.527 -0.1079  0.6521 -0.2671
 3974SOL    HW123384   1.709   0.259   5.565  0.0612  0.6935 -0.3002
 3974SOL    HW223385   1.755   0.395   5.559 -0.5962  1.1234  0.0756
 3975SOL     OW23386   3.516   1.340   1.233 -0.0809 -0.6188 -0.4194
 3975SOL    HW123387   3.436   1.300   1.198 -0.5873  2.0160 -2.2987
 3975SOL    HW223388   3.522   1.409   1.166  0.7721  0.4144  0.7303
 3976SOL     OW23389   1.491   4.021   5.141 -0.1712  0.1147  0.3981
 3976SOL    HW123390   1.494   4.113   5.117 -3.3969  0.3652  0.9384
 3976SOL    HW223391   1.459   4.035   5.229 -0.0208 -1.3871  0.7030
 3977SOL     OW23392   0.834   2.913   7.190 -0.2354 -0.1732 -0.1339
 3977SOL    HW123393   0.827   3.003   7.223 -0.6307 -1.1437  2.4109
 3977SOL    HW223394   0.867   2.872   7.270  0.5952 -1.3762 -1.0961
 3978SOL     OW23395   4.431   1.280   3.140 -0.2510  0.0844 -0.5216
 3978SOL    HW123396   4.445   1.368   3.105 -1.3685  1.7246  3.1780
 3978SOL    HW223397   4.403   1.231   3.063  1.1358 -1.6807  0.0997
 3979SOL     OW23398   3.275   2.074   3.782  0.6044  0.3674 -0.0849
 3979SOL    HW123399   3.292   2.131   3.706  1.4321  1.2371  0.7589
 3979SOL    HW223400   3.365   2.056   3.809  0.0032  0.3242  1.8502
 3980SOL     OW23401   3.953   1.270  16.480 -0.1581 -0.8616 -0.2247
 3980SOL    HW123402   4.048   1.274  16.469 -0.1148  1.0177  0.7586
 3980SOL    HW223403   3.935   1.251  16.573 -1.8734  0.2044 -0.3246
 3981SOL     OW23404   1.445   1.539   5.564 -0.1616  0.1115  0.7253
 3981SOL    HW123405   1.381   1.609   5.549  1.3314  1.7330  1.8746
 3981SOL    HW223406   1.426   1.533   5.657 -0.2377 -1.5236  0.6002
 3982SOL     OW23407   1.080   3.827   8.345  0.0363  0.1834  0.2171
 3982SOL    HW123408   1.079   3.885   8.421  1.0777 -1.8128  1.7572
 3982SOL    HW223409   1.163   3.780   8.357  0.3345 -0.1461 -3.0744
 3983SOL     OW23410   4.317   1.949  16.692  0.1270  0.1051 -0.5803
 3983SOL    HW123411   4.288   2.037  16.715 -1.3213 -0.1764 -1.3304
 3983SOL    HW223412   4.394   1.964  16.637 -0.7800 -0.0745 -1.8664
 3984SOL     OW23413   2.263   0.421   6.204  0.0960 -0.6484 -0.0698
 3984SOL    HW123414   2.345   0.456   6.167 -0.7144  1.1359 -0.1571
 3984SOL    HW223415   2.203   0.495   6.194  0.5273  0.0265  2.5492
 3985SOL     OW23416   0.491   0.804   0.479 -0.4012  0.0604 -0.5967
 3985SOL    HW123417   0.425   0.831   0.415 -1.1491  0.5595  0.3920
 3985SOL    HW223418   0.550   0.878   0.472  0.0347 -0.3568 -1.3634
 3986SOL     OW23419   1.435   2.436   0.752  0.2586  0.2807 -0.1032
 3986SOL    HW123420   1.518   2.437   0.799 -0.2206 -3.2194  0.7426
 3986SOL    HW223421   1.471   2.440   0.663 -1.2464 -1.3868 -0.7790
 3987SOL     OW23422   3.276   1.417   7.058 -0.0486 -0.6635 -0.0836
 3987SOL    HW123423   3.182   1.418   7.041 -0.1546  1.6100  0.6022
 3987SOL    HW223424   3.294   1.511   7.053  4.0654 -1.3569  1.4936
 3988SOL     OW23425   2.937   0.757  11.721  0.0180  0.0068  0.5194
 3988SOL    HW123426   2.955   0.813  11.797  1.4202 -0.7280  0.7357
 3988SOL    HW223427   3.029   0.731  11.716 -0.7113 -2.3926 -0.1868
 3989SOL     OW23428   3.515   4.148   5.129  0.1269  0.3737  0.0755
 3989SOL    HW123429   3.472   4.148   5.215 -1.2913 -1.7910 -0.6275
 3989SOL    HW223430   3.447   4.177   5.069 -0.0212  1.2249  0.6601
 3990SOL     OW23431   0.074   4.345   5.254  0.5865 -0.2939  0.7495
 3990SOL    HW123432   0.008   4.412   5.234 -0.5496 -1.2446  1.3101
 3990SOL    HW223433   0.039   4.269   5.208  1.4891 -0.2332 -0.0400
 3991SOL     OW23434   3.897   3.654   6.808  0.6058  0.4450 -1.1812
 3991SOL    HW123435   3.862   3.567   6.827  1.8463  0.7982  2.7509
 3991SOL    HW223436   3.843   3.682   6.734 -1.6071 -0.5581  0.0567
 3992SOL     OW23437   2.995   0.117   7.627  0.5528 -0.2327 -0.1280
 3992SOL    HW123438   2.930   0.186   7.609  1.6113  0.2943 -1.8322
 3992SOL    HW223439   2.999   0.063   7.549  2.8380 -1.8445  1.1079
 3993SOL     OW23440   1.051   0.928  17.063  0.2111  0.4032  0.3441
 3993SOL    HW123441   0.987   0.905  17.131 -0.6298  0.1028 -0.5439
 3993SOL    HW223442   1.131   0.898  17.105  1.0131  3.3346  0.8861
 3994SOL     OW23443   1.666   2.675  12.246  0.1985  0.1498  0.2769
 3994SOL    HW123444   1.750   2.706  12.281  0.6268 -0.3646 -0.2876
 3994SOL    HW223445   1.611   2.672  12.324 -0.1029  2.9727  0.1936
 3995SOL     OW23446   3.826   2.707   7.060 -0.9468  0.4304  0.1231
 3995SOL    HW123447   3.798   2.797   7.047 -1.2076  0.4784  0.9874
 3995SOL    HW223448   3.845   2.710   7.154 -1.1336 -1.1658  0.2132
 3996SOL     OW23449   3.397   2.330   3.078  0.1022 -0.5062 -0.2932
 3996SOL    HW123450   3.380   2.239   3.101  0.0329 -0.1586  0.9967
 3996SOL    HW223451   3.321   2.373   3.040 -0.6702 -0.0233  1.8139
 3997SOL     OW23452   3.245   2.727   4.200  0.0571  0.1844  0.3987
 3997SOL    HW123453   3.291   2.654   4.242  0.8617  1.4288  1.6835
 3997SOL    HW223454   3.280   2.802   4.248 -1.5519  1.4969 -0.5196
 3998SOL     OW23455   4.267   2.754   4.290  0.0908  0.6912  0.5529
 3998SOL    HW123456   4.351   2.760   4.245  0.3438  0.3285  0.9885
 3998SOL    HW223457   4.278   2.826   4.352  0.5563  0.9816  0.1318
 3999SOL     OW23458   3.662   2.335   0.538 -0.7017 -0.2996 -0.3415
 3999SOL    HW123459   3.616   2.252   0.530  0.3123 -0.5356 -3.6949
 3999SOL    HW223460   3.678   2.355   0.446  1.9147  0.0818  0.2130
 4000SOL     OW23461   4.080   0.969   3.892  0.1666  0.8083  0.4500
 4000SOL    HW123462   4.128   1.013   3.962  2.1928 -0.9991  0.2088
 4000SOL    HW223463   4.115   1.008   3.812 -0.7216 -0.3845 -0.5224
 4001SOL     OW23464   2.820   2.157   3.288  0.1681  0.2211  0.2575
 4001SOL    HW123465   2.819   2.067   3.256 -2.9993 -0.5922  2.5833
 4001SOL    HW223466   2.910   2.189   3.280  0.2873  0.4024  2.1665
 4002SOL     OW23467   4.474   2.816   8.234  0.0744  0.2462 -0.1888
 4002SOL    HW123468   4.513   2.733   8.259 -0.7482 -0.4045 -1.0647
 4002SOL    HW223469   4.381   2.800   8.253  0.1566 -0.0169 -0.0133
 4003SOL     OW23470   0.685   2.267   6.121  0.3801 -0.7431  0.4213
 4003SOL    HW123471   0.598   2.235   6.145  0.1974 -0.2903  0.3595
 4003SOL    HW223472   0.665   2.348   6.076  1.5305 -2.3326 -2.9101
 4004SOL     OW23473   3.401   0.735  16.478  0.7092  0.4814 -0.0170
 4004SOL    HW123474   3.363   0.685  16.406 -0.3656  2.3242 -0.7513
 4004SOL    HW223475   3.324   0.746  16.534  1.8950  0.0470  1.6762
 4005SOL     OW23476   2.756   2.698   3.854 -0.1388  0.1014 -0.2468
 4005SOL    HW123477   2.689   2.708   3.787 -1.3824  0.5096  1.0722
 4005SOL    HW223478   2.729   2.615   3.892  1.5433  0.2116  1.2345
 4006SOL     OW23479   1.553   3.882  16.407  0.2080  0.4642  0.0422
 4006SOL    HW123480   1.532   3.960  16.355 -2.6749  0.0413  0.5469
 4006SOL    HW223481   1.501   3.820  16.355 -2.0719  1.8428  0.6755
 4007SOL     OW23482   0.826   4.453  11.076 -0.1029  0.1997  0.1233
 4007SOL    HW123483   0.730   4.460  11.073 -0.2480 -0.4982  2.5820
 4007SOL    HW223484   0.845   4.524  11.138 -1.0806  0.3898  0.2124
 4008SOL     OW23485   1.654   2.947   4.685 -0.3622 -0.1662  0.1492
 4008SOL    HW123486   1.626   2.958   4.776  0.3097  2.1014  0.0686
 4008SOL    HW223487   1.728   3.006   4.674  1.6541 -2.7922 -0.4383
 4009SOL     OW23488   2.674   1.619   0.473 -0.8142 -0.1832  0.2232
 4009SOL    HW123489   2.589   1.576   0.463 -1.3988  1.0240  0.0073
 4009SOL    HW223490   2.645   1.707   0.495 -1.1860 -0.3551  0.4243
 4010SOL     OW23491   1.706   4.069   8.067  1.1346  0.4600 -0.7444
 4010SOL    HW123492   1.623   4.088   8.023  1.1104 -1.6275 -1.5809
 4010SOL    HW223493   1.682   3.986   8.108  2.9972  1.4325  2.3356
 4011SOL     OW23494   0.581   0.922   6.250 -0.0372 -0.0521  0.0090
 4011SOL    HW123495   0.497   0.899   6.210 -1.3348  1.1925  2.0605
 4011SOL    HW223496   0.592   0.859   6.321 -1.2510  0.7206  0.8709
 4012SOL     OW23497   1.107   3.147   5.381  0.5617  0.4437  0.0048
 4012SOL    HW123498   1.191   3.103   5.394 -0.4995 -1.3901  0.6214
 4012SOL    HW223499   1.075   3.151   5.470 -0.1615  0.6472 -0.2661
 4013SOL     OW23500   1.119   4.447  17.010 -0.2017 -0.4415 -0.3153
 4013SOL    HW123501   1.136   4.415  17.098  3.8754  1.7280 -0.2828
 4013SOL    HW223502   1.168   4.381  16.961 -0.8461 -0.3300 -1.1196
 4014SOL     OW23503   0.988   3.186   7.626  0.0367  0.2476 -1.2316
 4014SOL    HW123504   0.938   3.256   7.583 -0.3486 -0.0861 -1.3312
 4014SOL    HW223505   0.953   3.179   7.715 -0.5092 -0.3258 -1.4960
 4015SOL     OW23506   1.138   1.562   4.331  0.1443 -0.4175 -0.3095
 4015SOL    HW123507   1.050   1.548   4.365  0.2027  0.4578  0.1941
 4015SOL    HW223508   1.122   1.592   4.241  1.2889  0.4015 -0.2341
 4016SOL     OW23509   0.547   0.340  14.643  0.6094  0.0874  0.1359
 4016SOL    HW123510   0.541   0.430  14.611 -0.2371  0.4908  1.4437
 4016SOL    HW223511   0.582   0.355  14.731  0.6451 -1.7927  0.4493
 4017SOL     OW23512   2.576   0.225   6.424  0.3837 -0.6460 -0.1802
 4017SOL    HW123513   2.665   0.228   6.389  1.2645  0.5296  2.2284
 4017SOL    HW223514   2.595   0.163   6.494  2.9816  1.3088  0.8126
 4018SOL     OW23515   2.823   4.532   2.787 -0.0871 -0.5226 -0.1425
 4018SOL    HW123516   2.742   4.550   2.739 -0.1978 -0.5530  0.0348
 4018SOL    HW223517   2.824   4.436   2.776 -2.9551 -0.3188 -2.3276
 4019SOL     OW23518   3.115   4.108   5.204 -0.1494  0.1614 -0.3536
 4019SOL    HW123519   3.098   4.014   5.214  2.7661 -0.3609 -0.2341
 4019SOL    HW223520   3.082   4.153   5.282  1.8160 -0.3949  0.8165
 4020SOL     OW23521   0.578   1.766   8.898  0.3602  0.2389  0.4131
 4020SOL    HW123522   0.546   1.840   8.847 -1.1067 -2.2671 -2.2983
 4020SOL    HW223523   0.669   1.792   8.915  0.9018 -2.0639  1.0309
 4021SOL     OW23524   1.148   0.253   1.274  0.5958 -0.5299 -0.0808
 4021SOL    HW123525   1.115   0.312   1.342  0.7577 -1.9580  1.2388
 4021SOL    HW223526   1.188   0.323   1.223  1.6110  0.5371  2.1905
 4022SOL     OW23527   4.124   0.470  10.579  0.8055 -0.2864 -0.5131
 4022SOL    HW123528   4.165   0.440  10.498  0.6694 -0.6281 -0.4539
 4022SOL    HW223529   4.161   0.404  10.637 -0.8942 -1.5721 -0.8977
 4023SOL     OW23530   2.936   1.329   6.179  0.4651 -0.0042  0.0593
 4023SOL    HW123531   2.942   1.400   6.115 -1.7461 -0.1371 -0.2974
 4023SOL    HW223532   2.950   1.253   6.123 -0.0264 -1.0766  1.4007
 4024SOL     OW23533   1.340   3.547   6.700  0.1688  0.0445  0.3746
 4024SOL    HW123534   1.283   3.579   6.630 -1.5012 -0.5509  1.4558
 4024SOL    HW223535   1.402   3.508   6.638  1.4133 -0.4886  1.9526
 4025SOL     OW23536   4.241   0.849   6.376 -0.3007  0.2304 -0.4767
 4025SOL    HW123537   4.266   0.803   6.295  0.2212  1.6356 -1.1174
 4025SOL    HW223538   4.312   0.912   6.386  1.6639 -1.9120 -1.1016
 4026SOL     OW23539   3.155   4.401  11.435 -0.0489  0.0565  0.0150
 4026SOL    HW123540   3.232   4.367  11.390 -0.8112  1.2335 -2.1758
 4026SOL    HW223541   3.196   4.459  11.500  1.5863 -1.5251  0.3825
 4027SOL     OW23542   0.437   4.338   7.245 -0.1272  0.2553  0.9429
 4027SOL    HW123543   0.383   4.279   7.296 -4.1722  1.5102 -1.8833
 4027SOL    HW223544   0.414   4.419   7.291  0.3661 -0.0992  1.8020
 4028SOL     OW23545   1.384   1.797   3.144  0.8387 -0.2050  0.2290
 4028SOL    HW123546   1.432   1.844   3.213 -1.2415  0.2529  1.3719
 4028SOL    HW223547   1.420   1.806   3.056  2.0207 -0.0217  0.7375
 4029SOL     OW23548   2.114   0.682   2.208 -0.6533 -0.6486  0.1818
 4029SOL    HW123549   2.181   0.622   2.177  0.9575  0.9017  0.6536
 4029SOL    HW223550   2.169   0.758   2.228 -0.8146  0.0559 -2.1687
 4030SOL     OW23551   2.042   1.068   6.297 -0.5547 -0.5797 -0.3804
 4030SOL    HW123552   2.134   1.056   6.273 -0.5981 -2.0454  0.2003
 4030SOL    HW223553   2.040   1.035   6.387 -0.0754 -2.0661 -0.9099
 4031SOL     OW23554   0.603   0.157  15.979 -0.0950 -0.8528 -0.4295
 4031SOL    HW123555   0.691   0.122  15.964 -0.4892 -2.2040  0.4501
 4031SOL    HW223556   0.561   0.087  16.029  0.0164 -1.0321 -0.5854
 4032SOL     OW23557   3.687   0.050   5.488 -0.3808  0.0088 -0.3094
 4032SOL    HW123558   3.688   0.076   5.396 -2.5917  0.2662 -0.2684
 4032SOL    HW223559   3.593   0.062   5.506 -0.0631  1.0476  0.6436
 4033SOL     OW23560   2.447   1.763   6.309  0.4114 -0.0572  0.8753
 4033SOL    HW123561   2.533   1.802   6.294 -1.1202  3.7179  1.8854
 4033SOL    HW223562   2.476   1.697   6.373 -0.3019 -1.2577 -0.0210
 4034SOL     OW23563   2.697   3.705   0.349 -0.2453  0.0904 -0.3051
 4034SOL    HW123564   2.685   3.611   0.342 -1.1405  0.2000 -0.2865
 4034SOL    HW223565   2.767   3.720   0.287 -0.7326  2.4824 -0.2753
 4035SOL     OW23566   0.369   1.933   8.536 -0.3135 -0.3490  0.7356
 4035SOL    HW123567   0.312   1.906   8.464  0.7276  0.6991 -0.4773
 4035SOL    HW223568   0.303   1.977   8.589 -2.3405 -1.7777 -0.5650
 4036SOL     OW23569   2.926   0.179   7.183 -0.6178  0.0627 -0.3154
 4036SOL    HW123570   2.893   0.148   7.098  0.4442 -0.6902 -0.4586
 4036SOL    HW223571   2.874   0.259   7.190 -1.7205 -0.7569  0.8392
 4037SOL     OW23572   4.632   2.296   7.608  0.2614 -0.0199  0.5323
 4037SOL    HW123573   4.577   2.294   7.687 -1.1276 -0.7282 -0.4570
 4037SOL    HW223574   4.634   2.391   7.594  1.2369 -0.2950 -1.1523
 4038SOL     OW23575   2.691   3.969   5.362 -0.4983  0.1511  0.5468
 4038SOL    HW123576   2.707   3.912   5.437 -1.0774 -0.0399  0.5334
 4038SOL    HW223577   2.605   3.932   5.339 -0.3590  1.0697 -1.4812
 4039SOL     OW23578   1.704   4.290  16.945  0.2526  0.1565 -0.8106
 4039SOL    HW123579   1.760   4.343  16.889  1.3539  0.5141  0.6246
 4039SOL    HW223580   1.674   4.356  17.008  0.3457 -1.6951  1.1974
 4040SOL     OW23581   2.655   1.165   2.878 -0.3217  0.3917 -0.4483
 4040SOL    HW123582   2.744   1.160   2.844  0.4835  1.1068  1.5691
 4040SOL    HW223583   2.653   1.088   2.934  1.6729  0.3650 -0.4296
 4041SOL     OW23584   3.538   1.355  12.168  0.2727  0.2038 -0.0443
 4041SOL    HW123585   3.527   1.351  12.263  0.3648  1.4831  0.0195
 4041SOL    HW223586   3.454   1.318  12.141  0.6744 -0.3518 -0.5233
 4042SOL     OW23587   3.805   3.419   4.756  0.4300  0.1462  0.1334
 4042SOL    HW123588   3.784   3.337   4.800  2.0580 -0.0958  0.4319
 4042SOL    HW223589   3.720   3.444   4.719  0.5394 -0.5569 -0.5966
 4043SOL     OW23590   0.201   0.304  10.767  0.4382  0.4231  0.5273
 4043SOL    HW123591   0.194   0.275  10.858 -1.1502 -0.6638  0.0647
 4043SOL    HW223592   0.248   0.225  10.737  2.5255  1.3533  1.3273
 4044SOL     OW23593   0.077   1.280   0.369 -0.0160 -0.4515 -0.0737
 4044SOL    HW123594   0.008   1.275   0.436 -0.0402 -0.3198 -0.0878
 4044SOL    HW223595   0.049   1.364   0.332  0.3518  0.3903  1.5479
 4045SOL     OW23596   3.883   4.623   3.477 -0.7017  0.1524  0.0142
 4045SOL    HW123597   3.920   4.701   3.518 -1.5277  0.9192 -0.6779
 4045SOL    HW223598   3.794   4.636   3.511 -0.9097  0.3146 -0.6035
 4046SOL     OW23599   1.522   3.276   5.306 -0.1194 -0.0864  0.1775
 4046SOL    HW123600   1.592   3.218   5.279 -1.1729 -0.7348 -1.1580
 4046SOL    HW223601   1.459   3.208   5.330  0.6682 -0.3878  1.4243
 4047SOL     OW23602   0.388   0.746   3.048  0.4387  0.0392  0.1297
 4047SOL    HW123603   0.379   0.729   3.142  2.7393 -0.1254  0.3342
 4047SOL    HW223604   0.301   0.769   3.016 -0.3023 -2.3315  0.4684
 4048SOL     OW23605   2.145   4.312   6.613 -0.5018 -0.2398 -0.1983
 4048SOL    HW123606   2.097   4.251   6.670  0.2869  2.1758  3.1038
 4048SOL    HW223607   2.209   4.248   6.585  0.7214  0.0523  1.9288
 4049SOL     OW23608   3.929   4.527   8.549 -0.3221 -0.2627 -0.4154
 4049SOL    HW123609   3.938   4.533   8.644  0.0151  3.1625 -0.6598
 4049SOL    HW223610   3.974   4.606   8.519 -1.3681  0.0102 -1.2666
 4050SOL     OW23611   1.777   0.544   8.269 -0.1114 -0.5512  0.8596
 4050SOL    HW123612   1.721   0.485   8.319 -0.6631  0.3979  1.3522
 4050SOL    HW223613   1.860   0.553   8.316 -0.1327  0.9384  0.6274
 4051SOL     OW23614   1.365   2.909   2.032  0.1040  0.5869  0.5966
 4051SOL    HW123615   1.341   2.997   2.003  0.1930  0.0861 -1.0105
 4051SOL    HW223616   1.456   2.935   2.049  0.3394 -0.4669  0.9084
 4052SOL     OW23617   2.957   2.562   6.698 -0.8642 -0.4180 -0.6415
 4052SOL    HW123618   2.886   2.625   6.711 -1.2853 -0.5809 -2.1690
 4052SOL    HW223619   2.960   2.523   6.785  0.7694  2.6140  0.6823
 4053SOL     OW23620   1.954   3.348  13.654  0.1202 -0.5042 -0.5291
 4053SOL    HW123621   1.993   3.283  13.595  0.9453 -1.6595  1.2561
 4053SOL    HW223622   1.932   3.298  13.733 -0.7000 -1.5066 -1.3872
 4054SOL     OW23623   4.263   4.176   4.190 -0.1239 -0.6429  0.3048
 4054SOL    HW123624   4.256   4.137   4.103 -0.5639 -1.7098  0.8215
 4054SOL    HW223625   4.174   4.164   4.224 -0.8265  0.5820 -1.1042
 4055SOL     OW23626   1.025   2.552   6.936  0.2845  0.2971  0.1189
 4055SOL    HW123627   1.011   2.498   6.858 -0.1368 -1.1629  1.2103
 4055SOL    HW223628   1.103   2.508   6.969  0.4298  0.1058 -0.4863
 4056SOL     OW23629   1.635   3.539  13.741 -0.0906  0.3657  0.0983
 4056SOL    HW123630   1.706   3.478  13.719  0.3410  0.7206  0.5024
 4056SOL    HW223631   1.571   3.517  13.673  0.6045 -1.3489  0.0156
 4057SOL     OW23632   4.278   3.126   2.396  0.1388 -0.1108 -0.0083
 4057SOL    HW123633   4.204   3.173   2.435  2.1017  1.3617  1.9457
 4057SOL    HW223634   4.351   3.156   2.451 -0.0335 -1.8984  1.2061
 4058SOL     OW23635   3.283   2.809   6.869  0.5538 -0.0864 -0.1755
 4058SOL    HW123636   3.190   2.802   6.888  0.5669  1.8922  0.6086
 4058SOL    HW223637   3.277   2.803   6.774  1.0292  0.9926 -0.2665
 4059SOL     OW23638   3.274   0.438   5.846 -0.0327 -0.7870  0.1316
 4059SOL    HW123639   3.278   0.417   5.753 -0.1849  0.5581 -0.1766
 4059SOL    HW223640   3.228   0.356   5.862  3.7902 -3.0530 -0.3403
 4060SOL     OW23641   2.055   0.448   3.436  0.1649 -0.1639 -0.2488
 4060SOL    HW123642   2.026   0.511   3.502 -0.4054  0.3828 -1.0196
 4060SOL    HW223643   2.010   0.373   3.474  0.4455 -1.4437 -2.4266
 4061SOL     OW23644   3.519   1.531  10.219  0.2508 -0.1705  0.9304
 4061SOL    HW123645   3.516   1.478  10.139 -1.0520  1.5319 -0.1484
 4061SOL    HW223646   3.455   1.496  10.281  1.7696 -2.1759  1.3937
 4062SOL     OW23647   1.226   4.714  14.930 -0.2991 -0.2091 -0.0061
 4062SOL    HW123648   1.262   4.655  14.996 -2.4663 -0.5864  0.8459
 4062SOL    HW223649   1.132   4.700  14.919 -0.5838  0.8626  1.0493
 4063SOL     OW23650   1.744   1.732  17.209 -0.3676  0.1506 -0.1703
 4063SOL    HW123651   1.720   1.640  17.213  0.8837 -0.2023 -0.7443
 4063SOL    HW223652   1.658   1.773  17.198 -0.2666  0.0552 -1.2730
 4064SOL     OW23653   3.410   0.456   4.377  0.7034 -0.5624 -0.0096
 4064SOL    HW123654   3.462   0.417   4.306 -1.8966 -1.5713 -1.3786
 4064SOL    HW223655   3.349   0.513   4.331  0.2884 -2.5457 -1.9578
 4065SOL     OW23656   1.307   0.733   7.165  0.6038  0.0721 -0.0060
 4065SOL    HW123657   1.368   0.765   7.231 -0.2609 -0.3027  0.9772
 4065SOL    HW223658   1.287   0.806   7.106  0.1760 -0.8224 -0.9695
 4066SOL     OW23659   3.322   4.431   6.374 -0.2663 -0.5081 -0.1934
 4066SOL    HW123660   3.350   4.343   6.398  1.7323  0.3930  0.7481
 4066SOL    HW223661   3.406   4.477   6.378 -0.2517 -0.4704 -1.0152
 4067SOL     OW23662   2.328   0.981   0.316  0.2388 -0.2396 -0.4166
 4067SOL    HW123663   2.316   0.890   0.290 -1.2872 -0.0469 -0.4022
 4067SOL    HW223664   2.259   1.005   0.377  1.6877 -0.3555  1.2569
 4068SOL     OW23665   3.887   0.293   8.216  0.3056 -0.1381  0.9734
 4068SOL    HW123666   3.828   0.311   8.143  2.2389  1.4267 -0.2215
 4068SOL    HW223667   3.834   0.241   8.276 -0.2118  1.4765  1.9308
 4069SOL     OW23668   2.238   0.551   3.932  0.4946 -0.2999  0.3395
 4069SOL    HW123669   2.180   0.592   3.868 -1.7122  2.2999  4.0277
 4069SOL    HW223670   2.322   0.596   3.918  0.6814 -0.4287  1.0418
 4070SOL     OW23671   2.702   3.802   0.935 -0.0423 -0.4698  0.5834
 4070SOL    HW123672   2.681   3.810   1.028  0.0080 -2.2731  0.7392
 4070SOL    HW223673   2.617   3.829   0.901  0.5372 -1.5255 -1.6570
 4071SOL     OW23674   2.110   0.300   5.978 -0.4646  0.3675 -0.2162
 4071SOL    HW123675   2.055   0.238   6.026  3.2606 -1.4714  1.7184
 4071SOL    HW223676   2.172   0.320   6.049  1.6033 -0.4057 -1.8213
 4072SOL     OW23677   2.991   4.595   0.511 -0.3444  0.7993  0.0082
 4072SOL    HW123678   2.904   4.565   0.535  0.5480  0.8742  3.3784
 4072SOL    HW223679   3.045   4.516   0.506  2.1053  2.5183 -1.1217
 4073SOL     OW23680   2.596   1.683  10.820 -0.2214  0.3765  0.3312
 4073SOL    HW123681   2.545   1.658  10.897 -0.0523  1.2663  0.7281
 4073SOL    HW223682   2.535   1.658  10.751 -0.6982  0.2180  0.8130
 4074SOL     OW23683   3.976   1.540   8.364 -0.4863 -0.0652 -0.2418
 4074SOL    HW123684   3.909   1.485   8.325  0.8782 -0.8104 -1.5383
 4074SOL    HW223685   4.040   1.478   8.399  1.8075  2.7491  0.6290
 4075SOL     OW23686   0.928   4.120   1.448 -0.5333 -0.1119 -0.5493
 4075SOL    HW123687   0.887   4.206   1.455 -0.6384  0.0040 -2.5661
 4075SOL    HW223688   1.009   4.139   1.401 -0.3459 -3.2555 -1.5503
 4076SOL     OW23689   0.896   0.839  15.125  0.3453  0.1508  0.4376
 4076SOL    HW123690   0.964   0.903  15.104  0.6461  0.4294  2.2401
 4076SOL    HW223691   0.931   0.757  15.088  1.6322 -0.1641  2.3662
 4077SOL     OW23692   0.964   0.066  15.083  0.1057  0.4254 -0.3551
 4077SOL    HW123693   0.962   0.146  15.030  0.2716  1.8868  1.8781
 4077SOL    HW223694   1.052   0.058  15.118  0.2682 -0.8886 -1.0635
 4078SOL     OW23695   4.024   2.713  11.200 -0.0901 -0.7414  0.4148
 4078SOL    HW123696   4.102   2.718  11.256  0.8696  3.2991 -1.3230
 4078SOL    HW223697   4.024   2.796  11.152  2.2719  0.0035  1.6854
 4079SOL     OW23698   2.987   1.168   5.982 -0.2861  0.5764  0.1027
 4079SOL    HW123699   2.990   1.073   5.969  2.1427  0.4412  1.6340
 4079SOL    HW223700   3.013   1.201   5.896  0.9489 -0.1661  0.1875
 4080SOL     OW23701   1.651   4.197  17.230 -0.2529  0.1058  0.0208
 4080SOL    HW123702   1.660   4.180  17.136  1.8258  1.0790  0.0639
 4080SOL    HW223703   1.733   4.244  17.244  0.3307 -0.9891  0.2705
 4081SOL     OW23704   1.785   2.687   4.455 -0.1703  0.4023 -0.3701
 4081SOL    HW123705   1.878   2.664   4.463  0.3407  2.6108  0.0333
 4081SOL    HW223706   1.780   2.770   4.407 -2.7726  1.0525  1.0113
 4082SOL     OW23707   1.639   3.240   2.649  0.7126  0.5021  0.4793
 4082SOL    HW123708   1.597   3.314   2.694 -0.6593  1.0496 -1.6813
 4082SOL    HW223709   1.571   3.173   2.639  0.4647  0.7540  0.4727
 4083SOL     OW23710   2.439   1.343   3.436  0.2525  0.3113 -0.3984
 4083SOL    HW123711   2.397   1.277   3.379  3.3739 -1.8509 -0.2270
 4083SOL    HW223712   2.517   1.292   3.460 -1.0675 -1.2099  0.6767
 4084SOL     OW23713   0.156   4.478  12.128 -0.4823  0.0290 -0.0341
 4084SOL    HW123714   0.159   4.382  12.136 -3.4462 -0.3205 -3.3804
 4084SOL    HW223715   0.156   4.511  12.218 -4.1436 -1.2249  0.4294
 4085SOL     OW23716   0.150   0.015   3.211  0.4027 -0.4494 -0.0314
 4085SOL    HW123717   0.086   4.711   3.145 -0.1703 -0.3241  0.4665
 4085SOL    HW223718   0.199   4.654   3.217  0.0837 -0.5400  1.4009
 4086SOL     OW23719   0.455   0.516   0.022 -0.6712 -0.1570 -0.4117
 4086SOL    HW123720   0.381   0.504   0.082  0.4522  2.3789  1.5203
 4086SOL    HW223721   0.417   0.564  17.635 -0.2415  1.4802  0.4351
 4087SOL     OW23722   3.985   0.736   9.004 -0.1260 -0.3807 -0.2693
 4087SOL    HW123723   4.002   0.830   9.010  1.5151 -0.7696  1.0977
 4087SOL    HW223724   4.018   0.715   9.091  2.0587  0.4897 -0.8998
 4088SOL     OW23725   1.758   4.018  17.485 -0.6595 -0.3602  0.0317
 4088SOL    HW123726   1.747   4.057  17.398  0.2843 -1.3455 -0.5303
 4088SOL    HW223727   1.694   4.075  17.528 -1.8369 -0.6142 -1.3743
 4089SOL     OW23728   0.177   2.777  13.418 -0.2819 -0.1738  0.0246
 4089SOL    HW123729   0.234   2.808  13.348 -0.9770  0.1638 -0.3952
 4089SOL    HW223730   0.223   2.694  13.431  0.4824 -0.0151 -1.7154
 4090SOL     OW23731   3.381   3.689   4.695  0.1159 -0.3286  0.1242
 4090SOL    HW123732   3.306   3.704   4.637 -1.3440  1.8554  2.5186
 4090SOL    HW223733   3.322   3.671   4.769  0.8661  2.4517  1.4225
 4091SOL     OW23734   1.549   0.390  12.614 -0.3719  0.3628 -0.0900
 4091SOL    HW123735   1.561   0.351  12.528  0.5349  0.6344 -0.0913
 4091SOL    HW223736   1.455   0.406  12.620 -0.6488 -1.2406 -0.3407
 4092SOL     OW23737   1.619   0.235   9.901  0.3098 -0.0202  0.4206
 4092SOL    HW123738   1.570   0.249   9.820  0.5902  0.5241  0.3501
 4092SOL    HW223739   1.685   0.302   9.886 -0.0270  0.3804  0.7485
 4093SOL     OW23740   1.685   4.132   2.772 -0.1590  0.3522 -0.4323
 4093SOL    HW123741   1.661   4.118   2.680 -1.0453  1.8427 -0.4115
 4093SOL    HW223742   1.739   4.209   2.757  1.1659 -0.2095  1.4623
 4094SOL     OW23743   4.372   2.487   7.430  0.0997 -0.2612 -0.8719
 4094SOL    HW123744   4.333   2.411   7.475 -2.8326  1.4430 -0.5336
 4094SOL    HW223745   4.304   2.553   7.445  1.0683  0.9246 -1.7653
 4095SOL     OW23746   4.553   3.201   4.115 -0.4210 -0.3805  0.1908
 4095SOL    HW123747   4.573   3.238   4.029  0.9236  1.2482  1.2076
 4095SOL    HW223748   4.573   3.271   4.177  0.6173 -1.2725  0.8489
 4096SOL     OW23749   2.740   2.845   2.443 -0.0447  0.0313  0.9861
 4096SOL    HW123750   2.773   2.779   2.504 -3.2580 -2.6493 -0.1626
 4096SOL    HW223751   2.672   2.792   2.402  0.6412  1.2018 -1.6360
 4097SOL     OW23752   2.769   4.408   0.916  0.0693 -0.6597  0.3518
 4097SOL    HW123753   2.803   4.319   0.903 -1.7302 -1.5227  1.6317
 4097SOL    HW223754   2.847   4.463   0.918 -1.3576  1.2862  1.5830
 4098SOL     OW23755   0.532   1.160  17.546  0.1927 -0.2898 -0.1370
 4098SOL    HW123756   0.572   1.183  17.462  0.7937  0.7374  0.4338
 4098SOL    HW223757   0.613   1.166  17.596 -0.8665  1.4044  1.3626
 4099SOL     OW23758   4.254   2.423   3.684 -0.1128 -0.0946  0.5062
 4099SOL    HW123759   4.289   2.469   3.760 -0.8123  0.9651  0.1902
 4099SOL    HW223760   4.323   2.432   3.618 -1.4931 -0.4242 -0.9734
 4100SOL     OW23761   2.970   1.061   8.969 -0.6237  0.3363  0.5858
 4100SOL    HW123762   2.951   1.075   8.876  2.2897 -0.3811 -0.1016
 4100SOL    HW223763   2.902   1.112   9.013 -0.5778  0.7789  0.1408
 4101SOL     OW23764   1.727   1.109   5.512 -0.0499 -0.3260  0.8126
 4101SOL    HW123765   1.647   1.149   5.546  0.1345  0.6003  0.1504
 4101SOL    HW223766   1.686   1.089   5.428  0.9831 -1.7910  0.6675
 4102SOL     OW23767   3.762   4.226   7.986  0.5014 -0.1202  0.6250
 4102SOL    HW123768   3.765   4.304   7.930 -1.4710  0.2393  1.0215
 4102SOL    HW223769   3.694   4.235   8.053 -0.0027 -1.5239  0.3189
 4103SOL     OW23770   3.292   3.036   2.506 -0.0065 -0.2364  0.0109
 4103SOL    HW123771   3.323   2.953   2.471  1.8046  1.2687 -1.9569
 4103SOL    HW223772   3.271   3.089   2.429 -0.5057  0.6451  0.7483
 4104SOL     OW23773   2.914   1.043   2.023 -0.6609 -0.1119 -0.0016
 4104SOL    HW123774   2.899   1.124   2.071  2.2078  0.0553  0.6161
 4104SOL    HW223775   2.888   1.070   1.935 -1.4396 -0.0974  0.2286
 4105SOL     OW23776   0.691   4.462   6.306 -0.2345  0.4441  0.9648
 4105SOL    HW123777   0.608   4.421   6.329  0.2778 -1.9064 -1.3348
 4105SOL    HW223778   0.747   4.388   6.284  0.5509  0.5130  2.7407
 4106SOL     OW23779   1.003   2.217   7.177  0.3501 -0.6205  0.7259
 4106SOL    HW123780   0.924   2.183   7.134 -0.6927 -2.2693  3.9523
 4106SOL    HW223781   0.967   2.274   7.245  0.9086  0.2262  0.3079
 4107SOL     OW23782   2.970   3.309   7.599 -0.1831 -0.1811  0.1489
 4107SOL    HW123783   3.002   3.270   7.681 -1.8760 -0.0955  0.8476
 4107SOL    HW223784   3.049   3.333   7.550 -0.6595 -0.9221 -0.9819
 4108SOL     OW23785   3.294   2.270   2.489  0.7058  0.3303  0.0881
 4108SOL    HW123786   3.245   2.352   2.486  0.4145  0.1429 -0.2813
 4108SOL    HW223787   3.223   2.224   2.444 -0.1308  2.0034 -0.2906
 4109SOL     OW23788   4.089   2.605   0.647 -0.2480  0.0952  0.1913
 4109SOL    HW123789   4.039   2.678   0.609 -1.6910 -0.3383  1.2964
 4109SOL    HW223790   4.085   2.630   0.739 -1.3158 -0.9203  0.4098
 4110SOL     OW23791   4.565   1.993   6.262 -0.0910 -0.4168 -0.2050
 4110SOL    HW123792   4.549   1.904   6.228  3.3234 -0.7065 -1.0281
 4110SOL    HW223793   4.657   1.983   6.288 -0.4465  0.9907  1.5352
 4111SOL     OW23794   1.985   4.226   2.883  0.4773 -0.4571 -0.4086
 4111SOL    HW123795   1.994   4.131   2.876 -1.5880 -0.7459  0.5340
 4111SOL    HW223796   2.073   4.251   2.857  0.9232  0.0926  1.6077
 4112SOL     OW23797   0.424   0.218  16.336 -0.7684 -0.1180 -0.3761
 4112SOL    HW123798   0.511   0.252  16.314 -1.0719  1.5040  1.0070
 4112SOL    HW223799   0.371   0.193  16.260 -1.1408 -0.7810  0.0963
 4113SOL     OW23800   0.904   0.545  13.233  0.2805 -0.4717 -0.6538
 4113SOL    HW123801   0.833   0.566  13.293 -1.9870  0.5451 -3.6795
 4113SOL    HW223802   0.960   0.493  13.291  1.6461 -0.0953 -1.6082
 4114SOL     OW23803   1.483   2.670  10.922 -0.5158 -0.0451 -0.2479
 4114SOL    HW123804   1.548   2.625  10.868 -3.1105 -1.8595 -1.8913
 4114SOL    HW223805   1.494   2.763  10.904  1.1831 -0.4479 -1.3327
 4115SOL     OW23806   1.434   1.634   4.836 -0.0218  0.5518  0.1108
 4115SOL    HW123807   1.396   1.593   4.758  0.7021  1.0153 -0.4895
 4115SOL    HW223808   1.462   1.557   4.886  0.7526  0.5303 -0.3559
 4116SOL     OW23809   1.474   3.655   4.949 -0.3996 -0.3175  0.4404
 4116SOL    HW123810   1.527   3.694   5.018  0.1374 -1.5222  0.7234
 4116SOL    HW223811   1.387   3.643   4.988 -0.7184  3.2469  0.8306
 4117SOL     OW23812   4.268   1.517   3.358  0.3227  0.5120 -0.6347
 4117SOL    HW123813   4.270   1.436   3.306 -1.7467  0.3961 -0.5571
 4117SOL    HW223814   4.331   1.493   3.425  0.1235 -1.1389 -1.0348
 4118SOL     OW23815   4.264   1.578   5.435  0.2419 -0.7875 -0.4331
 4118SOL    HW123816   4.174   1.590   5.407  0.9291 -0.2301 -2.3728
 4118SOL    HW223817   4.280   1.672   5.438 -0.9403 -0.5551 -1.5478
 4119SOL     OW23818   0.932   4.467   8.202  0.3298  0.1049 -0.2432
 4119SOL    HW123819   0.937   4.387   8.149  1.6153 -0.0215  0.0605
 4119SOL    HW223820   1.009   4.451   8.256 -0.1708 -1.7363 -0.0427
 4120SOL     OW23821   4.475   2.349   2.728  0.1445  0.3971  0.0742
 4120SOL    HW123822   4.490   2.401   2.807  0.8374 -0.3498  0.4367
 4120SOL    HW223823   4.450   2.415   2.663 -0.1861  0.9431  0.7608
 4121SOL     OW23824   0.371   4.039   5.283 -0.2175  0.6542  0.4047
 4121SOL    HW123825   0.305   4.027   5.216 -1.9124 -0.8295  2.3299
 4121SOL    HW223826   0.425   3.967   5.251  0.8701  1.6250  0.0433
 4122SOL     OW23827   3.495   3.946  10.595  0.2354  0.0859 -0.3185
 4122SOL    HW123828   3.545   3.874  10.558 -2.0192 -2.4551  1.5727
 4122SOL    HW223829   3.408   3.906  10.603  1.1728 -1.7896  0.3731
 4123SOL     OW23830   4.562   4.132   3.479  0.3771  0.6412  0.1535
 4123SOL    HW123831   4.641   4.130   3.425  0.5878  1.8482  0.4037
 4123SOL    HW223832   4.555   4.228   3.484  0.5177  0.4423  4.1618
 4124SOL     OW23833   3.529   1.542   1.046  0.5031 -0.1286 -0.0025
 4124SOL    HW123834   3.611   1.570   1.005 -0.7438  1.1311 -1.6608
 4124SOL    HW223835   3.471   1.609   1.011 -0.5150 -0.0203  1.9009
 4125SOL     OW23836   2.744   3.462   5.506 -0.1967  0.1069  0.0194
 4125SOL    HW123837   2.681   3.408   5.554  0.6784 -1.0813 -0.1663
 4125SOL    HW223838   2.713   3.458   5.415  2.1802  0.3972 -0.8077
 4126SOL     OW23839   0.669   3.835   2.419  0.4007 -0.4428 -0.1878
 4126SOL    HW123840   0.653   3.765   2.357  0.3299  0.8997 -1.6939
 4126SOL    HW223841   0.764   3.836   2.422  0.3440  1.2333  1.2987
 4127SOL     OW23842   4.139   4.433   8.375 -0.3594 -0.2590  0.6231
 4127SOL    HW123843   4.070   4.470   8.430 -0.9313  0.7332 -0.7483
 4127SOL    HW223844   4.094   4.355   8.343 -0.1535 -1.1558  2.5695
 4128SOL     OW23845   3.689   3.830   8.248  0.0555  0.4665 -0.3538
 4128SOL    HW123846   3.752   3.841   8.318 -1.7042  0.6033  1.2049
 4128SOL    HW223847   3.728   3.877   8.174  0.4055  2.6033  1.2004
 4129SOL     OW23848   4.717   2.588   2.580 -0.1245  0.3428 -0.5578
 4129SOL    HW123849   4.674   2.543   2.507 -2.3453  1.3350  0.1409
 4129SOL    HW223850   4.710   2.680   2.557 -0.2203  0.3795 -0.3810
 4130SOL     OW23851   4.385   1.492   3.613  0.2330  0.4002 -0.4989
 4130SOL    HW123852   4.388   1.550   3.689 -0.1627  2.0947 -1.7687
 4130SOL    HW223853   4.459   1.434   3.632 -1.3158 -1.4811 -0.1830
 4131SOL     OW23854   0.304   4.453  10.863 -0.8130 -0.1232  0.4486
 4131SOL    HW123855   0.316   4.480  10.954 -0.8564  0.4385  0.2883
 4131SOL    HW223856   0.355   4.521  10.819  0.2088  1.0114  3.3830
 4132SOL     OW23857   1.763   3.001   8.560  0.6722 -0.0695 -0.3072
 4132SOL    HW123858   1.761   3.023   8.467 -1.3782 -0.7029 -0.4339
 4132SOL    HW223859   1.823   2.928   8.548  2.3610  1.4212 -0.7749
 4133SOL     OW23860   1.128   4.397   2.720 -0.2879  0.0705  0.0101
 4133SOL    HW123861   1.086   4.470   2.674  0.3482  0.0901 -0.5321
 4133SOL    HW223862   1.209   4.431   2.758 -0.0099 -0.2414 -0.3075
 4134SOL     OW23863   0.391   3.264  10.542 -0.0282 -0.3891 -0.4214
 4134SOL    HW123864   0.378   3.244  10.634  0.8343 -0.8710 -0.3990
 4134SOL    HW223865   0.346   3.348  10.541  0.1223 -0.3097 -1.5443
 4135SOL     OW23866   4.308   2.146   3.623 -0.8141  0.7015  0.0707
 4135SOL    HW123867   4.372   2.172   3.689  0.0806  0.6098 -0.7555
 4135SOL    HW223868   4.292   2.227   3.574 -1.1601  0.5288 -0.1047
 4136SOL     OW23869   2.954   2.472   7.637 -0.2264  0.6843 -0.1416
 4136SOL    HW123870   2.980   2.392   7.683 -0.3938  0.6074 -0.1792
 4136SOL    HW223871   3.010   2.536   7.680 -3.4462  2.9674  0.6374
 4137SOL     OW23872   1.614   0.819   8.381 -0.5223 -0.4793 -0.1195
 4137SOL    HW123873   1.651   0.792   8.465 -1.8030 -1.7121  0.0508
 4137SOL    HW223874   1.540   0.758   8.374 -0.1225 -1.0837  0.8553
 4138SOL     OW23875   2.036   1.166   4.729 -0.5063  0.0066  0.5972
 4138SOL    HW123876   2.111   1.225   4.716 -0.1003 -0.7217 -0.4031
 4138SOL    HW223877   1.967   1.202   4.673 -0.2270 -0.9393 -0.3738
 4139SOL     OW23878   2.663   2.055  16.914 -0.0006 -0.3512  0.9487
 4139SOL    HW123879   2.758   2.046  16.910  0.0552  0.5655  0.2433
 4139SOL    HW223880   2.651   2.135  16.965  1.9093  0.6792 -0.2248
 4140SOL     OW23881   0.434   3.521   4.329 -0.7758 -0.4500 -0.4059
 4140SOL    HW123882   0.409   3.597   4.381  0.9015 -1.7368  2.2785
 4140SOL    HW223883   0.489   3.474   4.392 -1.4418  0.9977  1.2374
 4141SOL     OW23884   0.661   1.576   9.539  0.0938 -0.4729  0.3837
 4141SOL    HW123885   0.757   1.581   9.544 -0.1165  1.0464  2.6835
 4141SOL    HW223886   0.642   1.601   9.448  0.7325  0.7455  0.5755
 4142SOL     OW23887   0.444   1.904   6.082  0.0833  0.4502 -0.1407
 4142SOL    HW123888   0.455   1.989   6.126 -3.5194 -0.3174  2.2348
 4142SOL    HW223889   0.533   1.876   6.103 -0.9647 -2.2046  0.7361
 4143SOL     OW23890   2.758   0.931   6.425  0.2337 -0.7673 -0.2574
 4143SOL    HW123891   2.831   0.992   6.419 -1.9353  1.6391 -2.5370
 4143SOL    HW223892   2.708   0.993   6.478 -0.9316 -2.1113  0.2157
 4144SOL     OW23893   0.694   2.310  10.515 -0.5222  0.4552 -0.4066
 4144SOL    HW123894   0.687   2.316  10.419 -0.1896 -0.9578 -0.5198
 4144SOL    HW223895   0.613   2.350  10.545 -1.6865 -0.6263 -2.0793
 4145SOL     OW23896   2.590   4.060   5.638 -0.1676 -0.6161  0.2861
 4145SOL    HW123897   2.528   4.049   5.565  0.9492 -0.8317 -0.6286
 4145SOL    HW223898   2.585   3.972   5.675  0.3464 -0.4625  0.7230
 4146SOL     OW23899   0.682   2.373  13.848  0.3293  0.2249 -0.2106
 4146SOL    HW123900   0.647   2.311  13.912  1.3833  0.0309  0.1804
 4146SOL    HW223901   0.774   2.356  13.867  0.1670 -0.4648 -0.0519
 4147SOL     OW23902   4.368   3.512   4.424  0.6264 -0.4390  0.1479
 4147SOL    HW123903   4.289   3.556   4.393 -0.7544 -1.1668  2.6240
 4147SOL    HW223904   4.427   3.580   4.459  0.8463  0.2822 -1.6186
 4148SOL     OW23905   1.575   4.573   3.299  0.4529 -0.4871 -0.0899
 4148SOL    HW123906   1.512   4.585   3.228  0.1112 -1.9185 -0.0230
 4148SOL    HW223907   1.650   4.577   3.240 -0.1137 -0.2554 -0.7900
 4149SOL     OW23908   0.535   0.429   4.703  0.3496 -0.0822  0.2271
 4149SOL    HW123909   0.480   0.439   4.626 -0.3178 -0.4802  0.6516
 4149SOL    HW223910   0.496   0.349   4.739  0.4719 -1.1403 -1.9628
 4150SOL     OW23911   3.200   4.139  15.652  0.5417 -0.0059 -0.5919
 4150SOL    HW123912   3.268   4.098  15.599  2.8407  0.2632  2.1549
 4150SOL    HW223913   3.184   4.070  15.715 -1.4175  1.2023  0.2172
 4151SOL     OW23914   0.081   3.887   5.758  0.0709  0.0108 -0.5711
 4151SOL    HW123915   0.053   3.811   5.707 -0.8043 -0.0896  0.0744
 4151SOL    HW223916   0.052   3.961   5.705 -0.5896  0.9029  1.0456
 4152SOL     OW23917   2.269   2.973   7.860  0.0034  0.3031  1.0427
 4152SOL    HW123918   2.292   2.894   7.908  0.0107  0.1519  0.7919
 4152SOL    HW223919   2.285   2.953   7.767 -3.6744  0.8016  0.3146
 4153SOL     OW23920   3.232   4.288   7.962  0.1161  0.3348 -0.0891
 4153SOL    HW123921   3.265   4.309   8.050 -1.7764  0.6867  0.5325
 4153SOL    HW223922   3.307   4.244   7.921  0.8016  2.5837 -1.2825
 4154SOL     OW23923   2.433   1.604   3.853 -0.4284 -0.0179 -0.0100
 4154SOL    HW123924   2.507   1.664   3.850  1.6552 -2.4732  1.9565
 4154SOL    HW223925   2.393   1.615   3.767  2.2240  1.1265 -1.0925
 4155SOL     OW23926   0.924   1.123   4.100  0.2255  0.0288 -0.1617
 4155SOL    HW123927   0.995   1.182   4.077  0.6250  0.3509  1.9195
 4155SOL    HW223928   0.972   1.042   4.079  0.5533  0.0610  0.4578
 4156SOL     OW23929   2.164   0.444   7.916 -0.2626  0.5051  0.0784
 4156SOL    HW123930   2.260   0.448   7.919 -0.2189 -1.2885  0.6914
 4156SOL    HW223931   2.155   0.466   8.009 -0.9810 -1.7990  0.5368
 4157SOL     OW23932   2.443   4.073   7.575 -0.4007  0.0392 -0.5775
 4157SOL    HW123933   2.456   4.164   7.550  0.3116 -0.0222 -0.4297
 4157SOL    HW223934   2.461   4.087   7.668 -0.4397 -3.8389  0.0194
 4158SOL     OW23935   3.595   1.157   8.524  0.0579 -0.1488  0.0941
 4158SOL    HW123936   3.594   1.116   8.438  1.0019  0.5175 -0.2474
 4158SOL    HW223937   3.609   1.076   8.572  0.7252  0.7110  1.3810
 4159SOL     OW23938   1.014   2.139   6.620  0.0014  0.5049 -0.2704
 4159SOL    HW123939   0.967   2.056   6.608  1.0096  0.3461 -2.9905
 4159SOL    HW223940   1.066   2.144   6.540 -2.6482 -2.5294 -2.1923
 4160SOL     OW23941   0.820   0.143   8.465 -0.0058 -0.2174  0.4048
 4160SOL    HW123942   0.878   0.212   8.431  1.1319 -1.3427  0.0256
 4160SOL    HW223943   0.828   0.080   8.393  0.9124  0.9292 -0.4974
 4161SOL     OW23944   2.069   2.183  13.062  0.0720 -0.7374  0.2426
 4161SOL    HW123945   2.056   2.128  12.985 -1.0412 -1.1591  0.7169
 4161SOL    HW223946   2.037   2.134  13.138  1.3805  0.5190  1.6187
 4162SOL     OW23947   3.553   3.959   4.288  0.2042 -0.4069 -0.5663
 4162SOL    HW123948   3.605   3.882   4.263  0.6449 -0.9575  1.9891
 4162SOL    HW223949   3.475   3.953   4.234  0.6131  0.2978 -1.2320
 4163SOL     OW23950   0.745   4.374   5.344 -0.2137  0.4904  0.3965
 4163SOL    HW123951   0.697   4.327   5.412  1.1262 -0.2630  0.8121
 4163SOL    HW223952   0.824   4.321   5.335 -1.7436 -1.7147 -0.0857
 4164SOL     OW23953   1.868   0.087   2.459 -0.2637  0.0960  0.2193
 4164SOL    HW123954   1.786   0.072   2.507 -0.3845  1.1191  0.3318
 4164SOL    HW223955   1.837   0.156   2.399 -0.0126  0.9436  1.0594
 4165SOL     OW23956   2.023   3.978   4.852  0.2843  0.2677 -0.6984
 4165SOL    HW123957   2.012   3.985   4.947  0.6377 -0.0760 -0.6311
 4165SOL    HW223958   1.938   3.939   4.833 -0.0371  1.6249 -2.0703
 4166SOL     OW23959   3.776   4.463   2.997 -0.4972  0.0431  0.4068
 4166SOL    HW123960   3.730   4.482   3.079 -0.2434  0.2278  0.5063
 4166SOL    HW223961   3.799   4.371   3.008 -0.2112  0.0354 -0.2912
 4167SOL     OW23962   4.365   3.074   3.791  0.1418 -0.1391 -0.0052
 4167SOL    HW123963   4.282   3.057   3.746  0.3971  0.3107 -0.6502
 4167SOL    HW223964   4.348   3.022   3.870 -0.1728 -1.3686 -0.8819
 4168SOL     OW23965   0.078   1.288   2.928  0.3051 -0.0920  0.1944
 4168SOL    HW123966   4.716   1.318   2.892  0.7173  2.1114  1.0646
 4168SOL    HW223967   0.139   1.358   2.904 -0.7474  1.3636  1.8196
 4169SOL     OW23968   0.702   0.366   6.125  0.0193  0.7851 -0.0939
 4169SOL    HW123969   0.781   0.359   6.179  2.6009  0.7683 -3.9448
 4169SOL    HW223970   0.730   0.364   6.034  2.6436 -0.0362  0.7396
 4170SOL     OW23971   1.670   4.012   4.539  0.1037 -0.5408 -0.7214
 4170SOL    HW123972   1.727   4.011   4.616  0.9094  1.6078 -1.2931
 4170SOL    HW223973   1.655   3.921   4.514 -2.8017 -0.1942 -0.2961
 4171SOL     OW23974   4.588   1.367   2.756 -0.9692  0.3803  0.1853
 4171SOL    HW123975   4.532   1.443   2.770  0.3273  1.5635 -0.9214
 4171SOL    HW223976   4.588   1.352   2.661  0.2433 -0.4231  0.3151
 4172SOL     OW23977   0.566   4.624   4.830  0.2567  0.6363 -0.1539
 4172SOL    HW123978   0.535   4.577   4.752  2.1931 -0.0437 -0.5203
 4172SOL    HW223979   0.541   4.568   4.904  0.1606 -1.6534 -1.9012
 4173SOL     OW23980   2.147   2.149   5.878 -0.1233  0.1442  0.4750
 4173SOL    HW123981   2.178   2.125   5.965 -0.5109  0.2448  0.6403
 4173SOL    HW223982   2.053   2.143   5.893  0.3149 -1.5816  2.4262
 4174SOL     OW23983   1.181   2.788   6.979 -0.6708  0.3662 -0.7177
 4174SOL    HW123984   1.195   2.834   6.896  2.8579 -1.1512 -0.9754
 4174SOL    HW223985   1.138   2.709   6.947  0.7130 -0.5092 -0.4198
 4175SOL     OW23986   4.352   3.015   4.651 -0.1142 -0.2778 -0.1104
 4175SOL    HW123987   4.359   3.030   4.557  0.7317 -0.2492 -0.0436
 4175SOL    HW223988   4.361   3.108   4.672  1.1965 -0.3816 -0.2085
 4176SOL     OW23989   1.774   1.229   5.143  0.1527  0.5169  0.0443
 4176SOL    HW123990   1.858   1.228   5.098  1.0081  4.0569  1.5361
 4176SOL    HW223991   1.733   1.148   5.113  0.5231  0.0402  0.8266
 4177SOL     OW23992   0.138   2.325   8.084  0.8910  0.1229 -0.0493
 4177SOL    HW123993   0.133   2.278   8.001 -2.3029  1.5572 -0.6810
 4177SOL    HW223994   0.102   2.265   8.148 -0.6571 -1.8616 -2.7725
 4178SOL     OW23995   1.968   2.934   9.377 -0.2590 -0.1361  0.3711
 4178SOL    HW123996   1.924   2.945   9.292  0.5065  0.3356  0.0422
 4178SOL    HW223997   1.935   2.849   9.407  1.0950 -1.3089 -1.4900
 4179SOL     OW23998   1.596   1.014   7.172  0.0836 -0.3499 -0.2964
 4179SOL    HW123999   1.678   1.054   7.203  0.3417 -1.1712  0.0678
 4179SOL    HW224000   1.567   0.949   7.236 -0.3452 -0.5709 -0.7209
 4180SOL     OW24001   3.806   0.296   3.790 -0.5154 -0.8538  0.2610
 4180SOL    HW124002   3.869   0.251   3.846  1.7634  0.0518 -1.6028
 4180SOL    HW224003   3.822   0.390   3.795  1.7022 -1.2155 -0.2563
 4181SOL     OW24004   3.481   4.385   4.312 -0.3111  0.4718 -0.1648
 4181SOL    HW124005   3.553   4.349   4.363 -1.4000  2.3533  2.6939
 4181SOL    HW224006   3.404   4.331   4.334 -1.9133  1.6690 -2.8100
 4182SOL     OW24007   4.215   0.168  16.324  0.1874 -0.2253 -0.1635
 4182SOL    HW124008   4.126   0.175  16.360  0.7767 -0.2490  1.2924
 4182SOL    HW224009   4.198   0.240  16.264 -0.6727  1.8155  2.4985
 4183SOL     OW24010   2.436   3.496   7.424  0.8679 -0.0025 -0.3587
 4183SOL    HW124011   2.419   3.414   7.472  0.3422 -0.7250 -1.7864
 4183SOL    HW224012   2.405   3.553   7.494  1.9456 -1.7452  1.5567
 4184SOL     OW24013   4.094   3.033   4.557 -0.0337  0.1003  0.5582
 4184SOL    HW124014   4.034   3.106   4.569  1.0026  1.3671 -1.8042
 4184SOL    HW224015   4.161   3.062   4.618 -0.0062  0.3016  0.4321
 4185SOL     OW24016   3.669   2.063   2.350 -0.1012  0.0369 -0.0811
 4185SOL    HW124017   3.709   2.136   2.304  0.3870 -0.5664 -0.6251
 4185SOL    HW224018   3.578   2.075   2.324 -0.6555 -0.4411  1.6143
 4186SOL     OW24019   1.085   1.088   7.175 -0.4202 -0.2085 -0.1813
 4186SOL    HW124020   1.166   1.083   7.225 -1.4258  1.2611  1.5624
 4186SOL    HW224021   1.100   1.052   7.087 -3.9431  0.1032 -0.9052
 4187SOL     OW24022   0.756   0.878  11.525 -0.2830 -0.3478  0.2976
 4187SOL    HW124023   0.779   0.914  11.440 -0.0675  1.5308  1.1392
 4187SOL    HW224024   0.682   0.937  11.544 -0.5835 -0.1336 -1.5536
 4188SOL     OW24025   2.627   0.495   8.372  0.1175  0.0240  0.3648
 4188SOL    HW124026   2.534   0.476   8.360  0.5066 -1.1544 -0.8002
 4188SOL    HW224027   2.623   0.544   8.454  2.3079  0.1670  0.3930
 4189SOL     OW24028   4.076   1.379   9.447  0.1859 -0.1316  0.1628
 4189SOL    HW124029   4.055   1.406   9.358  0.5283 -0.9039 -0.1506
 4189SOL    HW224030   3.993   1.350   9.485  0.3779 -0.7250  0.1218
 4190SOL     OW24031   1.688   3.774   2.012 -0.0779 -0.4637 -0.1508
 4190SOL    HW124032   1.770   3.801   2.055  0.2483 -1.0370 -0.4170
 4190SOL    HW224033   1.718   3.713   1.946 -1.6564 -0.1010 -1.1944
 4191SOL     OW24034   2.013   1.263   8.802 -0.6774 -0.3759 -0.0897
 4191SOL    HW124035   1.975   1.249   8.889  1.0501  1.9019  1.0142
 4191SOL    HW224036   1.945   1.297   8.744  0.4587  1.5075 -0.3252
 4192SOL     OW24037   2.102   4.335  13.897 -0.3730  0.1434  0.7801
 4192SOL    HW124038   2.178   4.383  13.928  0.7243 -1.0403 -0.0454
 4192SOL    HW224039   2.058   4.313  13.980 -1.2521  0.7386  0.4670
 4193SOL     OW24040   1.916   3.090  13.192 -0.4885  0.2358 -0.1448
 4193SOL    HW124041   1.996   3.143  13.198  0.0215 -0.7295  1.6383
 4193SOL    HW224042   1.882   3.131  13.113  1.2762  2.8783  0.4466
 4194SOL     OW24043   0.006   3.793   8.128 -0.2322 -0.0196 -0.0839
 4194SOL    HW124044   0.008   3.780   8.223  0.8961 -2.0686 -0.3784
 4194SOL    HW224045   4.672   3.720   8.101 -0.3970  0.7705 -1.8421
 4195SOL     OW24046   2.067   2.521   8.898  0.3300  0.4657  0.2570
 4195SOL    HW124047   2.135   2.454   8.883  0.3357  0.2638  1.1741
 4195SOL    HW224048   2.090   2.570   8.819  0.9611 -0.8106 -0.3548
 4196SOL     OW24049   3.777   2.312   3.469  0.3104  0.7569  0.1160
 4196SOL    HW124050   3.865   2.290   3.499 -0.6373 -1.8903  0.9688
 4196SOL    HW224051   3.747   2.395   3.504  2.1721  2.0497 -1.3805
 4197SOL     OW24052   0.631   0.424   7.642  0.0604 -0.7341 -0.0219
 4197SOL    HW124053   0.645   0.373   7.722 -1.7465  1.5598  1.7662
 4197SOL    HW224054   0.718   0.421   7.603  0.8997 -1.0101  1.8344
 4198SOL     OW24055   3.801   1.506   4.731  0.0763  0.1459  0.1876
 4198SOL    HW124056   3.851   1.583   4.703 -0.5401 -0.0002 -1.3155
 4198SOL    HW224057   3.853   1.480   4.807  1.2400  1.1415 -0.2784
 4199SOL     OW24058   2.577   2.337  14.667  0.4023  0.1818 -0.2114
 4199SOL    HW124059   2.493   2.372  14.638 -0.4363 -2.3795 -0.8363
 4199SOL    HW224060   2.560   2.305  14.756  0.0850  0.9078 -0.0074
 4200SOL     OW24061   3.255   0.598  17.684 -0.0484 -0.2046  0.0122
 4200SOL    HW124062   3.266   0.575   0.091 -1.9046  0.6899  0.4527
 4200SOL    HW224063   3.252   0.694  17.678  2.1487 -0.1088  0.4785
 4201SOL     OW24064   3.178   4.426  16.749 -0.4882  0.3944 -0.2779
 4201SOL    HW124065   3.192   4.422  16.843 -1.2071 -1.3972 -0.2396
 4201SOL    HW224066   3.108   4.491  16.739 -0.8555 -0.1745 -1.4369
 4202SOL     OW24067   0.519   4.444   0.580  0.1808  0.1510 -0.1267
 4202SOL    HW124068   0.467   4.496   0.518 -0.6643  1.2780  1.5146
 4202SOL    HW224069   0.486   4.355   0.566 -0.8089  0.7469 -1.6258
 4203SOL     OW24070   4.150   0.195  15.373 -0.4108  0.3819  0.2290
 4203SOL    HW124071   4.077   0.163  15.426  1.0660 -0.9051  1.4679
 4203SOL    HW224072   4.150   0.288  15.397 -0.2697 -0.1427  2.2995
 4204SOL     OW24073   0.378   0.725  12.933 -0.2659 -0.1090  0.1821
 4204SOL    HW124074   0.381   0.762  12.845  2.0342  0.3906  0.4811
 4204SOL    HW224075   0.301   0.775  12.960 -0.0061 -0.9775  2.5856
 4205SOL     OW24076   2.875   3.352  10.603 -0.2377 -0.5584  0.5126
 4205SOL    HW124077   2.927   3.309  10.536 -0.6202 -0.2865  0.0434
 4205SOL    HW224078   2.937   3.343  10.676  1.8734  1.2758 -1.0538
 4206SOL     OW24079   2.842   2.984   7.816  0.0719  0.8304 -0.0650
 4206SOL    HW124080   2.937   2.973   7.809  0.0650  0.0796  0.9935
 4206SOL    HW224081   2.829   3.024   7.902 -1.5807 -0.0202  0.0819
 4207SOL     OW24082   2.353   0.539   2.158 -0.0394  0.2972 -0.1810
 4207SOL    HW124083   2.360   0.444   2.161  1.9568  0.3475 -3.2470
 4207SOL    HW224084   2.383   0.561   2.246  1.2081 -1.3318 -0.1912
 4208SOL     OW24085   3.554   4.325   7.095 -0.3094 -0.0993 -0.0675
 4208SOL    HW124086   3.628   4.305   7.038 -1.0936 -2.7709 -0.1153
 4208SOL    HW224087   3.573   4.265   7.167 -2.1906  1.2958  1.5854
 4209SOL     OW24088   3.199   2.826   5.122 -0.6172  0.1396 -0.1586
 4209SOL    HW124089   3.273   2.765   5.128 -0.8020 -0.2333 -1.8539
 4209SOL    HW224090   3.190   2.862   5.211 -1.6468  1.1783 -0.6880
 4210SOL     OW24091   1.608   4.595   6.355  0.0671 -0.1606  0.2224
 4210SOL    HW124092   1.673   4.654   6.316 -0.0942  0.6800  1.2256
 4210SOL    HW224093   1.633   4.515   6.310  1.4290  1.0500 -1.1877
 4211SOL     OW24094   1.807   4.361   6.543  0.1444 -0.1512  0.1596
 4211SOL    HW124095   1.800   4.445   6.587 -2.7345 -0.1376 -0.3618
 4211SOL    HW224096   1.839   4.298   6.607 -1.0832 -0.8481  0.0803
 4212SOL     OW24097   0.646   4.283  15.155 -0.0712 -0.2650  0.2332
 4212SOL    HW124098   0.579   4.277  15.223 -0.7257 -2.5963 -0.6032
 4212SOL    HW224099   0.710   4.347  15.187  0.1389  0.3804 -1.5276
 4213SOL     OW24100   4.546   2.268  16.023  0.3846 -0.0537 -0.1938
 4213SOL    HW124101   4.503   2.321  16.090 -2.0282 -2.9007  0.4987
 4213SOL    HW224102   4.636   2.301  16.022  0.3151  0.1311 -0.6994
 4214SOL     OW24103   2.197   1.477   6.964  0.6756  0.4304  0.0564
 4214SOL    HW124104   2.104   1.455   6.963  0.6475  0.5225  0.6207
 4214SOL    HW224105   2.204   1.537   7.038  1.0859  1.5797 -0.9041
 4215SOL     OW24106   3.015   3.568  16.503 -0.2337 -0.1981  0.3201
 4215SOL    HW124107   3.102   3.577  16.462 -0.0966 -0.1040  0.6317
 4215SOL    HW224108   2.976   3.654  16.484 -1.9798 -1.1064 -0.1575
 4216SOL     OW24109   3.996   4.308   7.643 -0.0268 -0.3135 -0.0657
 4216SOL    HW124110   4.062   4.263   7.589  1.6463  0.8175  1.0738
 4216SOL    HW224111   3.980   4.241   7.710  1.9657  0.2180  0.9289
 4217SOL     OW24112   0.160   0.754   7.994 -0.2619 -0.2127  0.0778
 4217SOL    HW124113   0.193   0.772   8.082  2.2591 -0.0174 -0.9276
 4217SOL    HW224114   0.223   0.818   7.961  1.1474 -2.2739 -1.1741
 4218SOL     OW24115   3.630   2.639   6.883  0.0927  1.1436  0.4152
 4218SOL    HW124116   3.680   2.663   6.961  1.1237  0.0646  0.0865
 4218SOL    HW224117   3.700   2.596   6.833  0.1258 -0.3880  1.8001
 4219SOL     OW24118   3.270   3.445   6.159 -0.0751 -0.3430  0.5397
 4219SOL    HW124119   3.269   3.370   6.219  1.8647 -0.6583  0.1821
 4219SOL    HW224120   3.207   3.412   6.095  1.7843 -3.4962  0.3001
 4220SOL     OW24121   1.188   3.884   1.811 -0.3994  0.3593 -0.4216
 4220SOL    HW124122   1.165   3.974   1.834  0.4424  0.1050  1.3729
 4220SOL    HW224123   1.101   3.847   1.829 -0.1708 -0.1168 -0.3011
 4221SOL     OW24124   4.405   2.931  12.881  0.6059 -0.4877 -0.3305
 4221SOL    HW124125   4.359   2.964  12.804 -0.8145  0.3876  0.9025
 4221SOL    HW224126   4.373   2.999  12.940  1.3158 -1.2897  0.9692
 4222SOL     OW24127   3.236   4.392  10.805  0.4751 -0.0835 -0.3105
 4222SOL    HW124128   3.153   4.425  10.773  0.0990 -0.3424  0.3948
 4222SOL    HW224129   3.279   4.361  10.725 -0.9498 -0.3619 -0.9608
 4223SOL     OW24130   2.560   4.089   6.435  0.5251 -0.0232 -0.1055
 4223SOL    HW124131   2.536   4.065   6.524 -2.0403  0.5518 -0.6264
 4223SOL    HW224132   2.651   4.116   6.447  0.1954  0.5531  1.0141
 4224SOL     OW24133   3.581   3.238   7.919 -0.2097  0.2360  1.2985
 4224SOL    HW124134   3.533   3.302   7.971 -0.4707  0.7600  0.4082
 4224SOL    HW224135   3.622   3.197   7.995  0.9364 -1.3571 -0.1756
 4225SOL     OW24136   0.245   2.313   3.786 -0.2906  0.1990 -0.9494
 4225SOL    HW124137   0.272   2.289   3.875 -1.1553 -0.8762 -0.9785
 4225SOL    HW224138   0.178   2.377   3.808 -2.5663 -2.4134 -0.3163
 4226SOL     OW24139   3.939   2.638  13.338 -0.3540  0.9235 -0.4201
 4226SOL    HW124140   4.009   2.599  13.390 -0.8759 -1.6617 -1.6551
 4226SOL    HW224141   3.860   2.607  13.383  0.8703  1.1213  1.8813
 4227SOL     OW24142   1.537   4.014  10.647  0.5235 -0.3263  0.0730
 4227SOL    HW124143   1.495   3.928  10.652  2.8306 -1.3533  2.2575
 4227SOL    HW224144   1.572   4.030  10.735  0.2093  0.8072 -0.0115
 4228SOL     OW24145   1.175   4.141   3.157 -0.4439 -0.0642  0.4699
 4228SOL    HW124146   1.128   4.080   3.100  0.7838 -1.2799  0.7514
 4228SOL    HW224147   1.126   4.143   3.239  0.3250  0.5510  0.9141
 4229SOL     OW24148   3.421   2.620   6.545 -0.4183  0.3090 -0.2977
 4229SOL    HW124149   3.345   2.668   6.578 -2.2324 -1.9621 -1.2184
 4229SOL    HW224150   3.449   2.564   6.617  0.2365  0.4579 -0.4346
 4230SOL     OW24151   2.431   4.005   1.908 -0.1723  0.1990  0.1477
 4230SOL    HW124152   2.345   3.994   1.949 -0.4606 -0.2724 -0.5840
 4230SOL    HW224153   2.434   3.953   1.828 -3.4673 -1.1210  0.8549
 4231SOL     OW24154   3.689   0.968   5.159 -0.1536 -0.2111 -0.4529
 4231SOL    HW124155   3.692   0.905   5.087  1.7456 -1.2034  0.5014
 4231SOL    HW224156   3.784   0.978   5.173 -0.1781  0.3659 -0.6902
 4232SOL     OW24157   1.882   3.969  11.499  0.1745 -0.3142 -0.7011
 4232SOL    HW124158   1.873   3.962  11.594  4.6808  1.1725 -0.2124
 4232SOL    HW224159   1.882   3.880  11.462  1.4874 -0.5702 -0.0664
 4233SOL     OW24160   2.214   3.263   5.304 -0.1557  0.2341  0.8103
 4233SOL    HW124161   2.179   3.290   5.389 -0.3831 -2.0631  1.4569
 4233SOL    HW224162   2.176   3.175   5.299  1.4257 -0.4759  1.2064
 4234SOL     OW24163   2.791   1.388   3.032 -0.5940 -0.2310  0.1351
 4234SOL    HW124164   2.724   1.454   3.013  0.1942  0.1914 -1.1635
 4234SOL    HW224165   2.771   1.325   2.962 -2.8726 -0.5897  1.1001
 4235SOL     OW24166   3.269   3.268   9.725 -0.1026  0.9840  0.1247
 4235SOL    HW124167   3.178   3.254   9.753  0.4744 -0.7177  1.1139
 4235SOL    HW224168   3.264   3.319   9.644 -1.7632  1.4322  0.4984
 4236SOL     OW24169   0.007   0.050  10.380 -0.2425 -0.2617  0.0821
 4236SOL    HW124170   4.636   0.024  10.385 -0.6548  1.2344  0.2387
 4236SOL    HW224171   0.027   0.058  10.474  0.2494 -1.4251  0.0827
 4237SOL     OW24172   2.148   2.849   9.125  0.4824  0.0819  0.0631
 4237SOL    HW124173   2.098   2.865   9.045  0.7172 -0.0357 -0.1086
 4237SOL    HW224174   2.183   2.936   9.142  0.8189 -0.3068  1.3870
 4238SOL     OW24175   3.041   3.520   8.137  0.7773 -0.2756 -0.1787
 4238SOL    HW124176   3.088   3.437   8.134  1.7497  0.2633 -0.1513
 4238SOL    HW224177   3.024   3.535   8.230 -0.1779  1.3124 -0.6019
 4239SOL     OW24178   0.089   0.863   3.057  0.0160 -0.1733 -0.0167
 4239SOL    HW124179   0.040   0.924   3.001 -2.6752 -1.3487  1.0519
 4239SOL    HW224180   0.026   0.792   3.067  0.2384  0.0671  2.9931
 4240SOL     OW24181   3.678   0.628   0.338 -0.2450  0.7214  0.2342
 4240SOL    HW124182   3.633   0.547   0.363 -0.5896  0.7180 -0.4009
 4240SOL    HW224183   3.753   0.618   0.396  0.3409  2.2632 -0.2507
 4241SOL     OW24184   0.886   0.377  10.914  0.5824  0.4231  0.5018
 4241SOL    HW124185   0.826   0.310  10.881  1.3771  0.4495 -1.0075
 4241SOL    HW224186   0.947   0.324  10.964 -0.5627 -0.5601  0.8567
 4242SOL     OW24187   4.592   3.588   8.642  0.2673 -0.0092  0.2080
 4242SOL    HW124188   4.564   3.497   8.657 -2.0861  0.7478  0.3092
 4242SOL    HW224189   4.583   3.601   8.548  0.3740  0.5632  0.2801
 4243SOL     OW24190   2.554   0.214  14.973  0.0317  0.3440  0.4070
 4243SOL    HW124191   2.486   0.150  14.953  2.4869 -2.0796 -0.2259
 4243SOL    HW224192   2.584   0.183  15.059  1.4687  0.7740  0.0630
 4244SOL     OW24193   4.634   2.889   5.287 -0.3894  0.0982 -0.2984
 4244SOL    HW124194   4.638   2.804   5.243 -1.5540  0.3153 -0.8223
 4244SOL    HW224195   4.672   2.952   5.225  2.2275 -0.9795  0.1885
 4245SOL     OW24196   2.416   3.443  11.016  0.1622  0.4313 -0.2467
 4245SOL    HW124197   2.328   3.406  11.024 -0.0277  0.7666 -0.8547
 4245SOL    HW224198   2.429   3.476  11.105 -2.3395  1.1205 -0.1467
 4246SOL     OW24199   2.637   3.234  11.296 -0.6909  0.2869 -0.3940
 4246SOL    HW124200   2.615   3.327  11.304 -0.0217  0.0648  4.0566
 4246SOL    HW224201   2.568   3.196  11.350  0.2898  0.3351  0.9276
 4247SOL     OW24202   2.245   3.680  17.249  0.2534  0.4757  0.3712
 4247SOL    HW124203   2.326   3.687  17.300 -0.2104 -0.6278  1.2830
 4247SOL    HW224204   2.198   3.618  17.306  1.9251 -0.3492  0.8647
 4248SOL     OW24205   0.812   3.792  10.739  0.8583 -0.0694 -0.5359
 4248SOL    HW124206   0.730   3.745  10.756  1.0226 -0.7151 -1.5518
 4248SOL    HW224207   0.772   3.876  10.717 -1.3745 -1.3538 -1.3131
 4249SOL     OW24208   0.217   4.297   1.104 -0.1496 -0.0771  0.4209
 4249SOL    HW124209   0.263   4.317   1.022  3.0002 -0.7254  2.0368
 4249SOL    HW224210   0.296   4.280   1.155 -1.4452 -1.1252  2.0707
 4250SOL     OW24211   1.934   1.739  14.132 -0.6843  0.2330 -0.2672
 4250SOL    HW124212   1.931   1.829  14.164 -0.0786  0.4024 -0.6779
 4250SOL    HW224213   1.914   1.753  14.040 -0.0261  1.2213 -0.2602
 4251SOL     OW24214   3.671   1.993  16.554 -0.6143  0.1956  0.4079
 4251SOL    HW124215   3.701   2.075  16.592  1.4310 -0.6445  0.6545
 4251SOL    HW224216   3.634   2.030  16.475  1.0527  1.9347  0.4478
 4252SOL     OW24217   1.090   2.897   2.279  0.0483 -0.3013  0.1604
 4252SOL    HW124218   1.066   2.923   2.190 -0.3953 -1.4311 -0.0437
 4252SOL    HW224219   1.174   2.942   2.281 -0.0917 -0.0117 -0.6317
 4253SOL     OW24220   4.357   3.596   2.026  0.0851 -0.0826  0.0101
 4253SOL    HW124221   4.408   3.640   2.094  2.9307  1.2617 -3.0236
 4253SOL    HW224222   4.353   3.512   2.072 -0.5603  0.2085  0.4799
 4254SOL     OW24223   1.707   1.660  13.565 -0.0267 -0.2974 -0.2527
 4254SOL    HW124224   1.657   1.718  13.508 -0.6564 -1.0197 -0.4309
 4254SOL    HW224225   1.677   1.691  13.651  0.5138  0.5093 -0.3533
 4255SOL     OW24226   2.907   3.950   0.506 -0.1262 -0.0303 -0.2946
 4255SOL    HW124227   2.968   3.934   0.578  1.1658  0.3819 -1.3029
 4255SOL    HW224228   2.819   3.919   0.528  0.6720 -1.3385  1.0500
 4256SOL     OW24229   0.795   3.082  14.129 -0.1507 -0.0365  0.1590
 4256SOL    HW124230   0.726   3.137  14.093  0.7502  0.5321 -0.7106
 4256SOL    HW224231   0.773   2.999  14.087 -0.2204 -0.4027  0.9325
 4257SOL     OW24232   1.544   4.656   3.569 -0.1921  0.0276  0.3298
 4257SOL    HW124233   1.526   4.616   3.484 -3.1349  0.2013  0.8814
 4257SOL    HW224234   1.473   4.719   3.570  0.5129  0.8185  0.5311
 4258SOL     OW24235   0.907   3.290  12.735  0.3009 -0.2753  0.3188
 4258SOL    HW124236   0.866   3.370  12.703 -1.1050 -0.9089  0.5612
 4258SOL    HW224237   0.982   3.299  12.676  0.2098  3.0117  0.7169
 4259SOL     OW24238   0.260   0.964  11.581  0.1788 -0.6382  0.0965
 4259SOL    HW124239   0.302   0.880  11.561 -1.4779 -1.4164 -0.1360
 4259SOL    HW224240   0.209   0.985  11.503  1.7497  1.8018 -0.2634
 4260SOL     OW24241   4.584   2.236   5.197 -0.0464  0.3137  0.1296
 4260SOL    HW124242   4.582   2.238   5.293 -0.4897 -2.8764  0.1882
 4260SOL    HW224243   4.638   2.159   5.179 -1.3904 -0.5816 -0.1159
 4261SOL     OW24244   0.921   3.566   1.122 -0.4904  0.2200 -0.0522
 4261SOL    HW124245   0.899   3.478   1.090 -1.3767  0.8733 -1.2246
 4261SOL    HW224246   1.000   3.551   1.173  0.3133  2.9000 -0.5200
 4262SOL     OW24247   2.329   1.759  13.497 -0.2379  0.1542  0.5246
 4262SOL    HW124248   2.267   1.788  13.429 -0.8849 -0.1946  0.9608
 4262SOL    HW224249   2.311   1.665  13.508  1.1089  0.0421  1.6555
 4263SOL     OW24250   0.297   1.703   9.394  0.2733 -0.1104 -0.1894
 4263SOL    HW124251   0.332   1.773   9.449 -1.5509  2.0050 -1.7021
 4263SOL    HW224252   0.301   1.638   9.464 -1.9916  2.0797  1.9676
 4264SOL     OW24253   4.678   1.521   0.612 -0.2324  0.2586 -0.0246
 4264SOL    HW124254   4.657   1.537   0.521 -0.5147  1.1180  0.1961
 4264SOL    HW224255   4.656   1.428   0.620  0.0402  0.3433  1.8851
 4265SOL     OW24256   0.672   1.042  12.828 -0.3241 -0.2628  0.4369
 4265SOL    HW124257   0.726   1.027  12.906  0.8611  1.1964 -0.1109
 4265SOL    HW224258   0.718   0.994  12.760  0.1261  0.5702  0.1622
 4266SOL     OW24259   4.440   1.610   6.486  0.3675 -0.7404 -0.0443
 4266SOL    HW124260   4.517   1.574   6.529  0.8882 -1.5026 -1.6000
 4266SOL    HW224261   4.451   1.705   6.484  1.5832 -0.9224 -2.1006
 4267SOL     OW24262   4.057   2.928  10.170  0.7274 -0.1251  0.1140
 4267SOL    HW124263   4.054   2.832  10.177 -2.1376 -0.0333  0.2179
 4267SOL    HW224264   3.963   2.946  10.174  0.8459  0.3641  0.5628
 4268SOL     OW24265   2.503   3.312   9.099  0.2911 -0.1034  0.0051
 4268SOL    HW124266   2.541   3.225   9.112  2.2750  0.4590 -2.0769
 4268SOL    HW224267   2.418   3.281   9.066  0.2173 -0.2206  0.3090
 4269SOL     OW24268   2.256   1.920   6.982 -0.0195  0.2759  0.2041
 4269SOL    HW124269   2.258   1.826   6.966 -1.5352  0.1597  0.6623
 4269SOL    HW224270   2.310   1.954   6.911  0.3991  0.1557  0.4621
 4270SOL     OW24271   1.198   0.028   8.252  0.2889  0.2462  0.7301
 4270SOL    HW124272   1.244   4.699   8.320  0.2009 -0.1970  0.4623
 4270SOL    HW224273   1.240   0.110   8.276  1.0849 -0.6497  2.4091
 4271SOL     OW24274   0.095   2.087  10.296  0.5311 -0.0513 -0.3055
 4271SOL    HW124275   0.041   2.041  10.361  2.8227 -0.6068  1.1934
 4271SOL    HW224276   0.058   2.176  10.301  0.2612 -0.1576 -0.3995
 4272SOL     OW24277   0.581   2.341   8.609 -0.5336  0.0178 -0.7113
 4272SOL    HW124278   0.603   2.258   8.566 -0.1012  0.5840 -1.5646
 4272SOL    HW224279   0.590   2.404   8.538  1.4437  0.7592  0.1977
 4273SOL     OW24280   4.445   3.377  12.842  0.0314 -0.1374  0.0295
 4273SOL    HW124281   4.366   3.400  12.892  0.7326  0.7620  0.7255
 4273SOL    HW224282   4.401   3.320  12.779  1.1105  1.0856 -1.7934
 4274SOL     OW24283   4.073   4.402   0.884  0.0862  0.1824 -0.2435
 4274SOL    HW124284   4.104   4.354   0.960  1.4836 -0.5826 -1.2946
 4274SOL    HW224285   4.144   4.379   0.824 -0.3793 -0.0178 -0.7149
 4275SOL     OW24286   4.336   0.735  11.804 -0.9375 -0.2552 -0.2250
 4275SOL    HW124287   4.354   0.643  11.824  0.7197 -0.0534 -0.7413
 4275SOL    HW224288   4.298   0.733  11.716 -1.9310 -0.6110  0.2106
 4276SOL     OW24289   1.797   1.212   2.773  0.4323  0.0012 -0.2623
 4276SOL    HW124290   1.766   1.303   2.777 -1.2857 -0.5201 -1.5231
 4276SOL    HW224291   1.860   1.207   2.701  0.0881  1.6365 -0.6798
 4277SOL     OW24292   3.096   0.437   6.131 -0.8078  0.0979  0.0405
 4277SOL    HW124293   3.004   0.450   6.108 -1.6244 -0.7229  2.8374
 4277SOL    HW224294   3.097   0.344   6.109 -0.2176  0.0539  0.2621
 4278SOL     OW24295   0.519   3.277   6.397 -0.5658 -0.2454 -0.8967
 4278SOL    HW124296   0.598   3.321   6.367  0.4418 -1.6872 -0.3667
 4278SOL    HW224297   0.448   3.321   6.350 -0.4248  1.2049  0.2430
 4279SOL     OW24298   3.889   1.944   6.024 -0.3520  0.2530 -0.3385
 4279SOL    HW124299   3.834   2.018   6.051  1.2947  1.3015  0.1596
 4279SOL    HW224300   3.887   1.891   6.104  4.0730  1.8213  0.8034
 4280SOL     OW24301   1.190   2.183  14.007  0.0694  0.1099  0.7449
 4280SOL    HW124302   1.121   2.230  14.053  0.1003  0.4271  0.4644
 4280SOL    HW224303   1.142   2.105  13.979 -0.0806  0.0262  1.2212
 4281SOL     OW24304   2.210   3.580   6.886 -0.2223 -0.2036  0.4195
 4281SOL    HW124305   2.155   3.605   6.960 -0.4135 -2.7118  1.1201
 4281SOL    HW224306   2.157   3.614   6.814  0.5805  1.0988  0.4360
 4282SOL     OW24307   4.408   4.341   8.026  0.6588  0.4677  0.5974
 4282SOL    HW124308   4.414   4.255   7.983 -0.2281  0.0824  1.2498
 4282SOL    HW224309   4.394   4.398   7.951  2.2554  0.6664  0.4497
 4283SOL     OW24310   1.435   0.720   2.498 -0.6419  0.2889  0.2583
 4283SOL    HW124311   1.481   0.750   2.420  0.6314  0.6747  1.1497
 4283SOL    HW224312   1.503   0.656   2.516 -0.9447 -1.1543 -3.7293
 4284SOL     OW24313   2.471   1.294  13.601 -0.1403 -0.4006  0.7920
 4284SOL    HW124314   2.458   1.199  13.603  0.7939 -0.5635 -0.6462
 4284SOL    HW224315   2.541   1.308  13.665  1.6424 -0.8222 -1.0697
 4285SOL     OW24316   2.052   3.547   2.491 -0.2498  0.0480  0.1511
 4285SOL    HW124317   1.976   3.494   2.470  0.2757 -0.8772  0.5877
 4285SOL    HW224318   2.112   3.496   2.436  1.2276  1.0918  0.7628
 4286SOL     OW24319   1.172   0.846  10.702  0.3196 -0.4435 -0.0778
 4286SOL    HW124320   1.167   0.875  10.611  1.9174  1.2688  0.3913
 4286SOL    HW224321   1.265   0.840  10.724  0.7148  0.4701 -1.4812
 4287SOL     OW24322   0.581   2.790  10.719 -0.5827  0.5267 -1.2443
 4287SOL    HW124323   0.517   2.720  10.708 -0.8427  0.7711 -1.2715
 4287SOL    HW224324   0.651   2.777  10.655 -1.2131  0.9923 -2.0291
 4288SOL     OW24325   3.659   3.602   3.580 -0.0956 -0.2475 -1.0033
 4288SOL    HW124326   3.707   3.572   3.657 -0.6204  1.7616  0.1072
 4288SOL    HW224327   3.682   3.695   3.571 -0.9006  0.1884  1.5243
 4289SOL     OW24328   2.658   3.867   4.894 -0.7392  0.4040 -0.2679
 4289SOL    HW124329   2.563   3.866   4.898 -0.6356  1.9456  3.0432
 4289SOL    HW224330   2.682   3.878   4.802 -1.4934  0.2720 -0.4802
 4290SOL     OW24331   3.643   0.421   3.413 -0.1251  0.2641 -0.0068
 4290SOL    HW124332   3.599   0.492   3.367 -0.9063  0.6612  1.3559
 4290SOL    HW224333   3.609   0.347   3.362 -1.9971 -1.6866  4.0313
 4291SOL     OW24334   1.973   1.914   5.104  0.0025 -0.0152 -0.3165
 4291SOL    HW124335   2.010   1.907   5.192 -1.3229 -1.2793  0.1425
 4291SOL    HW224336   1.893   1.867   5.129 -0.0814  0.5502  0.4492
 4292SOL     OW24337   0.457   2.716  14.056  0.0626  0.2388 -0.7291
 4292SOL    HW124338   0.457   2.623  14.035 -0.8400 -0.3168  1.7205
 4292SOL    HW224339   0.526   2.758  14.004  0.7638  0.5712  0.4581
 4293SOL     OW24340   0.272   4.269   8.211 -0.1017  0.3688  0.1072
 4293SOL    HW124341   0.199   4.234   8.159  1.0479 -2.5857  0.4709
 4293SOL    HW224342   0.271   4.362   8.187  0.4231  0.4176  0.2796
 4294SOL     OW24343   2.095   4.160   3.774  0.0795  0.4391  0.3585
 4294SOL    HW124344   2.126   4.211   3.849 -0.7344  1.3074  0.1113
 4294SOL    HW224345   2.006   4.194   3.764 -0.5725 -1.0673  1.0650
 4295SOL     OW24346   4.202   3.255   3.336 -0.2405  0.4549 -0.4743
 4295SOL    HW124347   4.160   3.337   3.312 -1.5955  0.3375  1.5689
 4295SOL    HW224348   4.289   3.268   3.297  2.2226 -0.5445  4.7108
 4296SOL     OW24349   4.185   2.820   8.231 -0.0159  0.7467  0.3431
 4296SOL    HW124350   4.119   2.812   8.162  0.6344 -2.3873  0.0855
 4296SOL    HW224351   4.164   2.737   8.273 -0.9184  1.5563  1.4743
 4297SOL     OW24352   2.162   4.430   8.981  0.9640  0.1686 -0.8819
 4297SOL    HW124353   2.255   4.447   8.993  1.1075 -1.5861  0.4902
 4297SOL    HW224354   2.159   4.379   8.900 -1.9536 -1.6900  0.3780
 4298SOL     OW24355   2.203   3.082  13.144 -0.8471 -0.1072  0.1097
 4298SOL    HW124356   2.165   3.133  13.072 -0.0487 -0.6753 -0.7106
 4298SOL    HW224357   2.264   3.145  13.183  1.4060 -1.2703 -1.5542
 4299SOL     OW24358   0.881   0.697   3.865  0.1054 -0.1013  0.4561
 4299SOL    HW124359   0.827   0.619   3.870  2.8335 -1.9953  0.2502
 4299SOL    HW224360   0.951   0.678   3.802 -0.3794 -0.7139  0.1090
 4300SOL     OW24361   3.754   1.393   8.279  0.2330 -0.0377  0.4728
 4300SOL    HW124362   3.762   1.384   8.184 -0.1935  0.2313  0.4130
 4300SOL    HW224363   3.663   1.420   8.292 -0.1626 -0.6913 -0.9150
 4301SOL     OW24364   4.700   4.265   3.196  0.4154 -0.0505 -0.6321
 4301SOL    HW124365   4.608   4.240   3.184  0.3059 -0.3871  0.9054
 4301SOL    HW224366   4.707   4.333   3.129 -0.9053  0.3741 -0.3410
 4302SOL     OW24367   4.239   4.105   2.608 -0.0140 -0.5713  0.6583
 4302SOL    HW124368   4.319   4.121   2.658  0.1042  1.1490 -0.0821
 4302SOL    HW224369   4.254   4.010   2.605  0.0692 -0.6119  3.0071
 4303SOL     OW24370   0.948   3.370   6.187 -0.4516 -0.1812 -0.2750
 4303SOL    HW124371   0.889   3.295   6.187 -0.3035 -0.2838  1.0861
 4303SOL    HW224372   0.961   3.378   6.092  2.0676  2.4744  0.3150
 4304SOL     OW24373   3.064   3.311  16.489  0.1524  0.0595 -0.1156
 4304SOL    HW124374   3.055   3.387  16.431  0.2674 -2.0504 -2.8848
 4304SOL    HW224375   3.013   3.340  16.565  0.2108 -2.7770  1.0044
 4305SOL     OW24376   0.644   4.372   6.902  0.2111 -0.2102  0.2528
 4305SOL    HW124377   0.604   4.423   6.832 -0.7288  2.2390  2.5570
 4305SOL    HW224378   0.724   4.338   6.862 -0.2779 -0.2962 -0.6498
 4306SOL     OW24379   3.571   1.240   4.927  0.4722  0.2142 -0.5537
 4306SOL    HW124380   3.582   1.285   5.010  3.7324 -0.9851 -0.3560
 4306SOL    HW224381   3.565   1.150   4.959 -0.9458 -0.9378 -3.9968
 4307SOL     OW24382   1.645   3.069   8.315 -0.1528 -0.0733 -0.1052
 4307SOL    HW124383   1.678   3.036   8.232  0.6934  1.2242 -0.2876
 4307SOL    HW224384   1.566   3.119   8.293  0.6744  1.0079 -0.6487
 4308SOL     OW24385   3.204   2.456   0.351  0.3794  0.4714  0.0503
 4308SOL    HW124386   3.142   2.495   0.412 -0.3183 -3.9562  2.1153
 4308SOL    HW224387   3.185   2.365   0.375  1.4086 -0.5179 -2.8640
 4309SOL     OW24388   1.032   4.622   0.806  0.1284 -0.0214 -0.3111
 4309SOL    HW124389   1.087   4.695   0.777 -0.1278 -0.0625 -0.9035
 4309SOL    HW224390   0.944   4.655   0.787 -0.9498 -0.8845  3.2785
 4310SOL     OW24391   2.749   3.554   4.833 -0.4419  0.4269  0.5307
 4310SOL    HW124392   2.681   3.552   4.766  1.0771 -3.1673 -0.8678
 4310SOL    HW224393   2.777   3.463   4.831 -0.5377  0.4610 -1.4264
 4311SOL     OW24394   1.378   0.044  13.774  0.2571  0.1849  0.0305
 4311SOL    HW124395   1.293   0.084  13.794 -0.1501 -1.2712  1.2301
 4311SOL    HW224396   1.350   4.708  13.702 -0.5353  2.0982 -1.1733
 4312SOL     OW24397   3.448   0.337   4.854 -0.0655  0.1908 -0.0213
 4312SOL    HW124398   3.383   0.369   4.917 -1.4408 -0.5161 -1.0686
 4312SOL    HW224399   3.527   0.347   4.908  0.2930  2.1050 -0.9186
 4313SOL     OW24400   2.276   2.399  11.618 -0.4420 -0.4182  0.2436
 4313SOL    HW124401   2.310   2.409  11.529 -1.7001 -1.3252 -0.3445
 4313SOL    HW224402   2.355   2.426  11.665  0.9271 -1.6342 -1.3591
 4314SOL     OW24403   0.065   4.369   9.374  0.0871 -0.4387  0.1569
 4314SOL    HW124404   4.698   4.336   9.392  0.4577 -0.0310  2.6747
 4314SOL    HW224405   0.071   4.432   9.446  1.3564  1.9938 -2.0358
 4315SOL     OW24406   0.385   0.815   4.824 -0.0520 -0.0391 -0.6161
 4315SOL    HW124407   0.430   0.870   4.759  0.7564  0.9509  0.7833
 4315SOL    HW224408   0.451   0.754   4.858 -1.7244 -0.7705  1.2830
 4316SOL     OW24409   3.766   0.703   0.092 -0.3329 -0.1376 -0.3849
 4316SOL    HW124410   3.743   0.625   0.041 -0.1140  1.1273 -2.4124
 4316SOL    HW224411   3.696   0.698   0.157  1.7079  0.5243  1.8589
 4317SOL     OW24412   4.559   3.360   4.338 -0.0239  0.2054 -0.1664
 4317SOL    HW124413   4.510   3.435   4.372 -3.0472 -1.0423 -1.8350
 4317SOL    HW224414   4.531   3.289   4.396  0.6104  1.0785  1.2143
 4318SOL     OW24415   2.322   1.779   0.913  0.2521 -0.4296 -0.2340
 4318SOL    HW124416   2.318   1.787   1.009  0.3744 -0.6230 -0.2130
 4318SOL    HW224417   2.233   1.763   0.882  1.2039 -2.0251 -2.1265
 4319SOL     OW24418   0.331   2.858   5.912  0.8153  0.2750 -0.2470
 4319SOL    HW124419   0.388   2.782   5.907 -0.6406 -0.8772  0.8100
 4319SOL    HW224420   0.380   2.930   5.953 -0.3799  1.4702 -0.9008
 4320SOL     OW24421   1.039   3.813  10.934  0.3631 -0.2356  0.4081
 4320SOL    HW124422   1.078   3.895  10.906 -1.2046  1.2835  2.7025
 4320SOL    HW224423   0.979   3.813  10.860  1.0800 -0.9966 -0.1739
 4321SOL     OW24424   2.835   1.640   4.915  1.0443  0.9025 -0.0584
 4321SOL    HW124425   2.749   1.603   4.892  1.3089 -0.4289  1.0928
 4321SOL    HW224426   2.865   1.570   4.973 -2.1398 -0.5053 -0.0953
 4322SOL     OW24427   1.510   3.208  10.966  0.7419 -0.1844 -0.3942
 4322SOL    HW124428   1.520   3.114  10.950 -1.0982  0.0062 -2.7595
 4322SOL    HW224429   1.433   3.200  11.022  0.5970  1.3768 -0.3504
 4323SOL     OW24430   2.857   1.966   7.880 -0.2013  0.9251  0.1639
 4323SOL    HW124431   2.792   1.933   7.941 -0.4944  2.2106  0.5510
 4323SOL    HW224432   2.935   1.920   7.910 -2.4653 -2.0397  1.4472
 4324SOL     OW24433   2.433   1.807   9.877  0.3459  0.4592  0.3597
 4324SOL    HW124434   2.344   1.784   9.852  1.7150 -2.6551 -1.5975
 4324SOL    HW224435   2.440   1.734   9.939 -0.9554 -0.5130 -0.6472
 4325SOL     OW24436   3.810   1.294   1.522  0.0446 -0.1327 -0.3381
 4325SOL    HW124437   3.870   1.262   1.589 -0.2743  0.2057  0.1105
 4325SOL    HW224438   3.740   1.323   1.581  0.7005  2.4087 -0.7985
 4326SOL     OW24439   0.474   3.264   0.371 -0.4582  0.1781  0.4662
 4326SOL    HW124440   0.555   3.233   0.330 -0.4685  1.5148 -0.5806
 4326SOL    HW224441   0.435   3.328   0.310 -1.0323 -0.9018 -0.3163
 4327SOL     OW24442   3.200   3.811  14.699  0.1464  0.0798  0.0766
 4327SOL    HW124443   3.228   3.892  14.741 -1.5174  0.1115  1.1393
 4327SOL    HW224444   3.284   3.770  14.681  0.3816  0.7882 -0.3983
 4328SOL     OW24445   1.318   3.515  10.617  0.1050  0.3179 -0.1538
 4328SOL    HW124446   1.383   3.496  10.550  0.1082 -1.4243  0.3461
 4328SOL    HW224447   1.330   3.435  10.668 -0.4278  0.2188 -0.1867
 4329SOL     OW24448   2.692   2.152  14.386 -0.3051 -0.2731  0.1873
 4329SOL    HW124449   2.643   2.078  14.350 -0.7132 -0.6145  1.4453
 4329SOL    HW224450   2.755   2.171  14.316 -1.5862  1.3224 -0.5498
 4330SOL     OW24451   4.372   0.794   9.737 -0.0451 -0.3628  0.0606
 4330SOL    HW124452   4.415   0.866   9.784  1.8787 -1.6251  0.2455
 4330SOL    HW224453   4.447   0.750   9.698 -0.8770 -0.1868 -1.7191
 4331SOL     OW24454   0.345   1.303  10.238 -0.4145 -0.4211 -1.1893
 4331SOL    HW124455   0.397   1.380  10.260 -0.8328 -0.2437 -0.8136
 4331SOL    HW224456   0.287   1.342  10.173 -2.1935  0.2012  0.7610
 4332SOL     OW24457   4.159   0.440   7.036 -0.1436 -0.5743 -0.2650
 4332SOL    HW124458   4.124   0.462   7.123 -0.2804 -0.9496 -0.2265
 4332SOL    HW224459   4.242   0.487   7.042 -0.6768  0.5640 -1.8917
 4333SOL     OW24460   2.642   2.442   8.730  0.5200  0.2111  0.2802
 4333SOL    HW124461   2.670   2.503   8.798  2.8980 -0.5689  0.0277
 4333SOL    HW224462   2.585   2.498   8.679  3.3407  3.2429  0.4948
 4334SOL     OW24463   1.976   1.239   7.465 -0.2678  0.4281  0.2968
 4334SOL    HW124464   1.987   1.318   7.413  0.8769  0.3849  0.4721
 4334SOL    HW224465   1.962   1.277   7.552  2.0001  0.5739  0.5953
 4335SOL     OW24466   0.047   1.209   5.884 -0.2895  0.7848  0.0412
 4335SOL    HW124467   4.674   1.206   5.865 -0.5087 -0.7712  1.3774
 4335SOL    HW224468   0.077   1.264   5.812 -0.3890  1.5488  0.5778
 4336SOL     OW24469   2.411   1.222   3.789 -0.0238  0.0579  0.8796
 4336SOL    HW124470   2.385   1.224   3.881 -0.1972 -3.7224  0.8892
 4336SOL    HW224471   2.480   1.288   3.795 -0.3307  0.3645  1.0730
 4337SOL     OW24472   3.904   4.333   9.870 -0.1347 -0.0180 -0.3735
 4337SOL    HW124473   3.986   4.381   9.864  0.1931 -0.7053 -1.5043
 4337SOL    HW224474   3.921   4.262   9.932 -0.9069 -0.1297 -0.2862
 4338SOL     OW24475   2.168   1.652   7.770 -0.4403  0.1838 -0.6680
 4338SOL    HW124476   2.093   1.680   7.719 -1.3402 -1.1679 -0.0932
 4338SOL    HW224477   2.222   1.730   7.777 -0.9321  0.3893  0.8100
 4339SOL     OW24478   0.202   2.004  17.003  0.4963 -0.3334 -0.3441
 4339SOL    HW124479   0.196   2.004  16.908  0.0176  1.5817 -0.3081
 4339SOL    HW224480   0.256   2.081  17.018  0.3260 -0.2731 -0.0290
 4340SOL     OW24481   1.718   3.652   7.474  0.5720 -0.4794 -0.0537
 4340SOL    HW124482   1.678   3.686   7.393 -2.0314 -1.2441  0.9258
 4340SOL    HW224483   1.663   3.687   7.544  1.0518  0.1546  0.0098
 4341SOL     OW24484   1.292   2.212   7.112 -0.4034 -0.0876  0.1730
 4341SOL    HW124485   1.364   2.195   7.174 -1.7458  0.4031  1.8783
 4341SOL    HW224486   1.229   2.236   7.180  0.0614 -0.7296  0.8439
 4342SOL     OW24487   3.035   2.063   4.663  0.2251 -0.0858  0.3851
 4342SOL    HW124488   2.984   2.142   4.682  0.8282  0.3027  0.3883
 4342SOL    HW224489   3.036   2.070   4.568 -0.1896 -1.2539  0.2949
 4343SOL     OW24490   3.032   0.903  11.936 -0.2109  0.1319  0.2380
 4343SOL    HW124491   3.027   0.986  11.983 -2.1230  0.0377  0.1949
 4343SOL    HW224492   3.121   0.871  11.954  0.6579  2.1050 -0.6426
 4344SOL     OW24493   3.749   2.011  16.007 -0.1677  0.0795 -0.7089
 4344SOL    HW124494   3.823   1.967  16.049 -0.0377  1.6024  0.6348
 4344SOL    HW224495   3.765   2.104  16.022 -0.9680  0.3161 -1.2703
 4345SOL     OW24496   1.730   3.261  13.007  0.0199  0.1429  0.1401
 4345SOL    HW124497   1.639   3.283  13.025  0.0269 -1.5969  2.2012
 4345SOL    HW224498   1.721   3.230  12.917  1.2024  1.0250 -0.2948
 4346SOL     OW24499   1.404   3.529   5.247 -0.2433 -0.3291 -0.2869
 4346SOL    HW124500   1.419   3.435   5.249 -1.5610 -0.5427 -0.6462
 4346SOL    HW224501   1.494   3.559   5.237 -0.7263  2.0985  2.6614
 4347SOL     OW24502   3.839   0.021   7.546 -0.0763  0.0475 -0.1591
 4347SOL    HW124503   3.794   4.666   7.508 -0.7008 -1.1349  2.8677
 4347SOL    HW224504   3.829   4.711   7.636 -0.9374 -1.1943 -0.6744
 4348SOL     OW24505   0.448   1.324   7.017  0.2512  0.4937  0.0812
 4348SOL    HW124506   0.418   1.290   7.101  2.2854  0.8494  0.9556
 4348SOL    HW224507   0.510   1.254   6.993 -0.3217 -0.3970  1.2249
 4349SOL     OW24508   2.549   3.644  11.606  0.1748  0.3813 -0.4265
 4349SOL    HW124509   2.547   3.707  11.534 -1.0416  1.9454  0.9622
 4349SOL    HW224510   2.643   3.649  11.621  0.0530  0.5585  0.2748
 4350SOL     OW24511   2.077   4.314   9.867 -0.0779 -0.1601 -0.3710
 4350SOL    HW124512   2.059   4.328   9.774  2.2570  0.7472 -0.6872
 4350SOL    HW224513   2.106   4.223   9.871 -1.9913 -0.8045 -1.3558
 4351SOL     OW24514   1.348   4.114   8.355 -0.1444  0.4640  0.5093
 4351SOL    HW124515   1.365   4.122   8.449 -1.6722 -1.0758  0.9059
 4351SOL    HW224516   1.338   4.199   8.314 -0.4496  0.7977  1.2880
 4352SOL     OW24517   2.728   2.190   5.678 -0.5259 -0.5082  0.1292
 4352SOL    HW124518   2.725   2.114   5.736  2.7340 -0.2021  0.7340
 4352SOL    HW224519   2.648   2.233   5.707  1.1477  2.8074 -0.1233
 4353SOL     OW24520   2.488   0.405  14.748 -0.7339 -0.2252  0.5766
 4353SOL    HW124521   2.489   0.363  14.834 -0.5059 -0.5099  0.4362
 4353SOL    HW224522   2.443   0.341  14.694 -0.8783  0.3238  0.0429
 4354SOL     OW24523   4.084   3.623  12.782  0.0484  0.2552  0.3450
 4354SOL    HW124524   4.007   3.621  12.725 -1.1854  1.7996  1.9414
 4354SOL    HW224525   4.135   3.693  12.740  2.0576 -0.9533  0.7957
 4355SOL     OW24526   0.856   3.199   5.173  0.4892  0.0739 -0.2285
 4355SOL    HW124527   0.822   3.239   5.093  1.1478 -0.5894 -0.8393
 4355SOL    HW224528   0.891   3.120   5.132  0.5308 -0.2426  0.4074
 4356SOL     OW24529   2.402   0.026  12.378 -0.1730  0.3244  0.3216
 4356SOL    HW124530   2.402   0.047  12.472 -2.4829  3.9163 -0.4958
 4356SOL    HW224531   2.441   0.105  12.342 -0.8027  0.6787  0.4253
 4357SOL     OW24532   1.968   0.684   8.618 -0.3813  0.0838 -0.0626
 4357SOL    HW124533   1.948   0.758   8.675  0.1093 -0.3812  0.7161
 4357SOL    HW224534   1.882   0.681   8.576 -0.3670  3.0319 -0.3422
 4358SOL     OW24535   0.048   3.060   4.810  0.1913 -0.5318 -0.3558
 4358SOL    HW124536   0.014   2.979   4.848 -0.7094 -0.8793 -1.8843
 4358SOL    HW224537   0.026   3.115   4.885 -0.1569  0.2129 -0.9971
 4359SOL     OW24538   2.239   3.226   9.740  0.2711  0.2700  0.0984
 4359SOL    HW124539   2.155   3.270   9.726  1.7115  2.7240 -0.8057
 4359SOL    HW224540   2.247   3.161   9.671  2.1309 -0.8764  1.3853
 4360SOL     OW24541   3.742   3.728   0.918  0.0975 -0.0510  0.0555
 4360SOL    HW124542   3.652   3.746   0.892  0.3480 -3.0354 -2.8145
 4360SOL    HW224543   3.759   3.811   0.963 -0.8828 -0.0631  0.4453
 4361SOL     OW24544   1.718   0.562  15.056 -0.1604  0.1896 -0.2464
 4361SOL    HW124545   1.681   0.568  14.968  0.3534 -0.8372 -0.5241
 4361SOL    HW224546   1.658   0.497  15.093 -0.1293  0.4031  0.1821
 4362SOL     OW24547   1.358   3.289  17.334  0.3188 -0.4324 -0.0036
 4362SOL    HW124548   1.284   3.347  17.353  0.6708  0.4238 -1.2729
 4362SOL    HW224549   1.425   3.353  17.311 -0.1539 -0.3392 -1.1080
 4363SOL     OW24550   0.790   0.788   2.230 -0.0062  0.1177 -0.0379
 4363SOL    HW124551   0.715   0.799   2.288  1.3597  1.5824  1.4947
 4363SOL    HW224552   0.766   0.859   2.171  0.5210 -2.4739 -3.3788
 4364SOL     OW24553   4.191   0.975   8.822 -0.1257  0.5743 -0.7604
 4364SOL    HW124554   4.158   0.960   8.911  0.1019 -0.2951 -0.8132
 4364SOL    HW224555   4.271   0.923   8.813 -0.4194  0.1958 -1.2103
 4365SOL     OW24556   2.042   4.597   3.778 -0.2239  0.0423 -0.3599
 4365SOL    HW124557   2.136   4.604   3.762 -0.4417  0.7968 -1.2669
 4365SOL    HW224558   2.033   4.507   3.810  2.7196 -0.5865 -1.2993
 4366SOL     OW24559   0.887   3.334  11.005 -0.4461 -0.2227 -0.2972
 4366SOL    HW124560   0.919   3.424  11.010  0.3044 -0.5400  0.5532
 4366SOL    HW224561   0.903   3.310  10.914  2.5402 -0.3002  0.2561
 4367SOL     OW24562   1.477   4.336   4.579 -0.0737  0.6873  0.1894
 4367SOL    HW124563   1.494   4.243   4.593  3.9225  1.2527 -0.9321
 4367SOL    HW224564   1.439   4.339   4.491  2.5922 -0.8382 -1.0035
 4368SOL     OW24565   2.653   2.167   6.284 -0.3532  0.2498 -0.0538
 4368SOL    HW124566   2.626   2.195   6.197  1.3718  1.8705 -0.0617
 4368SOL    HW224567   2.584   2.211   6.335 -1.1513 -0.9502 -0.0888
 4369SOL     OW24568   1.377   0.921  16.417  0.0194  0.5418  0.0475
 4369SOL    HW124569   1.463   0.884  16.398 -0.5442 -1.2960  1.0304
 4369SOL    HW224570   1.380   0.902  16.511  0.9705  0.1747 -0.0647
 4370SOL     OW24571   2.248   3.766   6.009 -0.0829 -0.0203  0.8335
 4370SOL    HW124572   2.303   3.830   6.052 -1.7087  2.0672 -0.1935
 4370SOL    HW224573   2.261   3.794   5.918 -0.2440  1.1791  1.1878
 4371SOL     OW24574   2.772   0.391   0.274  0.1684 -0.3163  0.3208
 4371SOL    HW124575   2.771   0.305   0.232  0.6412  0.4111 -1.1383
 4371SOL    HW224576   2.734   0.442   0.203  0.6524  0.1798  0.4186
 4372SOL     OW24577   3.477   2.772   6.210 -0.3667 -0.1735 -0.0493
 4372SOL    HW124578   3.516   2.838   6.267 -0.4056 -1.0611  1.0271
 4372SOL    HW224579   3.392   2.744   6.244 -1.1089  0.3240 -1.5270
 4373SOL     OW24580   2.457   3.682   6.466  0.2374 -0.2561  0.7912
 4373SOL    HW124581   2.365   3.709   6.474  0.5308  1.0067 -0.1135
 4373SOL    HW224582   2.452   3.609   6.403 -1.0942  0.7191 -0.2427
 4374SOL     OW24583   1.018   0.073   8.661  0.2519  0.2235  0.0957
 4374SOL    HW124584   0.993   0.093   8.751  0.0259 -1.9726  0.5181
 4374SOL    HW224585   0.958   0.133   8.615  1.4861  0.9612 -0.5604
 4375SOL     OW24586   2.639   2.343   4.218  0.2735 -0.0054  0.1230
 4375SOL    HW124587   2.577   2.271   4.226  1.0274 -0.9618 -2.5175
 4375SOL    HW224588   2.724   2.311   4.249 -0.2214 -2.9009 -1.6147
 4376SOL     OW24589   4.449   2.747  15.472  0.1875  0.2580  0.0901
 4376SOL    HW124590   4.464   2.786  15.386  0.7761  2.3514  1.1610
 4376SOL    HW224591   4.425   2.823  15.524 -0.2195  0.9992 -1.2047
 4377SOL     OW24592   1.894   0.347   9.702 -0.5256 -0.1509 -0.0372
 4377SOL    HW124593   1.969   0.316   9.753 -3.0426 -0.8366  3.2844
 4377SOL    HW224594   1.843   0.409   9.754  0.2292  0.4871 -0.0507
 4378SOL     OW24595   1.344   4.663  16.862  0.4522  0.0426 -0.1522
 4378SOL    HW124596   1.354   4.619  16.946  0.4548  0.1228 -0.1114
 4378SOL    HW224597   1.358   4.582  16.812 -2.7083 -1.0702  0.8020
 4379SOL     OW24598   3.062   4.649  16.605 -0.4954  0.3246 -0.5217
 4379SOL    HW124599   3.018   4.642  16.520 -3.1073 -1.3193  0.9730
 4379SOL    HW224600   3.058   0.024  16.610  3.0217  0.5218 -1.5657
 4380SOL     OW24601   2.141   3.078  15.136  0.3498 -0.2483 -0.1883
 4380SOL    HW124602   2.125   2.984  15.129  0.0649 -0.3447  1.6881
 4380SOL    HW224603   2.236   3.074  15.123  0.3243 -0.6453 -0.2309
 4381SOL     OW24604   4.551   0.297   2.453  0.0276  0.2058  0.2606
 4381SOL    HW124605   4.631   0.285   2.403  0.0263  3.0558 -0.4112
 4381SOL    HW224606   4.513   0.368   2.401 -0.1472  0.4985  0.7829
 4382SOL     OW24607   3.230   4.134   8.790  0.1557 -0.4108  0.0021
 4382SOL    HW124608   3.284   4.213   8.795  1.4746 -1.3216  0.1551
 4382SOL    HW224609   3.220   4.114   8.883  0.2648 -2.0987 -0.3484
 4383SOL     OW24610   4.226   0.510  11.575 -0.2552 -0.0512  0.1082
 4383SOL    HW124611   4.162   0.440  11.566 -0.0911 -0.2561  0.5451
 4383SOL    HW224612   4.290   0.465  11.631 -1.1337 -0.1993  0.9867
 4384SOL     OW24613   2.357   0.223   5.058  0.0089  0.0330 -0.3462
 4384SOL    HW124614   2.304   0.193   5.132  0.5377 -1.3139 -0.5246
 4384SOL    HW224615   2.410   0.144   5.046 -1.4080 -0.7453 -1.4692
 4385SOL     OW24616   2.577   3.246   5.607 -0.2975 -0.5841 -0.4647
 4385SOL    HW124617   2.651   3.200   5.648  0.2811 -0.3392 -1.2479
 4385SOL    HW224618   2.555   3.193   5.530 -0.0075  0.3979 -1.2133
 4386SOL     OW24619   3.196   2.030  14.013  0.4949  0.0162 -0.2192
 4386SOL    HW124620   3.207   2.007  13.921  0.6061 -0.5866 -0.0498
 4386SOL    HW224621   3.162   1.947  14.045  0.6770  0.7722  1.9791
 4387SOL     OW24622   1.735   3.508  16.779 -0.3268  0.0050  0.2709
 4387SOL    HW124623   1.827   3.518  16.752 -0.1712  1.1460  1.2133
 4387SOL    HW224624   1.701   3.592  16.748 -0.7167 -0.7114 -1.2535
 4388SOL     OW24625   0.106   3.878   9.732 -0.2525 -0.7244 -0.3105
 4388SOL    HW124626   0.067   3.954   9.775  0.0018  1.5047 -4.0468
 4388SOL    HW224627   0.191   3.906   9.700 -0.7106 -0.1435 -1.0085
 4389SOL     OW24628   2.197   3.559   4.733  0.1394  0.1507  0.4622
 4389SOL    HW124629   2.215   3.550   4.826 -1.4551 -2.8162  0.4925
 4389SOL    HW224630   2.176   3.652   4.737  0.1985  0.1484  0.7985
 4390SOL     OW24631   2.260   4.345   8.506  0.1260  0.5159 -0.0425
 4390SOL    HW124632   2.350   4.324   8.480  0.5033  1.6299  0.3607
 4390SOL    HW224633   2.246   4.428   8.462  2.8716  0.8614 -0.3072
 4391SOL     OW24634   3.449   0.588   5.987 -0.2258 -0.2007  0.4674
 4391SOL    HW124635   3.403   0.518   5.942 -0.4940 -1.5864  2.9211
 4391SOL    HW224636   3.381   0.655   5.977 -0.2674 -0.3715 -0.4210
 4392SOL     OW24637   1.152   2.573   7.579 -0.3317 -0.2004  0.0665
 4392SOL    HW124638   1.181   2.566   7.488 -0.3796 -0.5632  0.0766
 4392SOL    HW224639   1.240   2.586   7.613  0.3824 -1.2340 -1.4016
 4393SOL     OW24640   1.447   3.583   1.821 -0.0825  0.3241 -0.1253
 4393SOL    HW124641   1.473   3.674   1.809  0.5399 -0.0112 -1.2829
 4393SOL    HW224642   1.385   3.583   1.894 -0.2680 -0.1526 -0.2876
 4394SOL     OW24643   3.421   1.467   1.515  0.0140 -0.5305  0.2504
 4394SOL    HW124644   3.459   1.456   1.428 -0.1107  1.6632 -0.0634
 4394SOL    HW224645   3.328   1.484   1.500  0.0512 -1.1657 -0.7474
 4395SOL     OW24646   4.657   3.927   3.870  0.8734 -0.5939 -0.5908
 4395SOL    HW124647   4.587   3.933   3.806 -0.1113  1.4954  0.6891
 4395SOL    HW224648   4.635   3.850   3.922 -1.8355  1.6087  1.5653
 4396SOL     OW24649   0.609   1.231   6.246  0.1006 -0.1033 -0.2885
 4396SOL    HW124650   0.647   1.252   6.161  1.4220  0.7389  0.5272
 4396SOL    HW224651   0.577   1.140   6.240  0.1596  0.0857 -3.4129
 4397SOL     OW24652   3.136   0.285   8.371  0.3176  0.0847 -0.2589
 4397SOL    HW124653   3.110   0.365   8.326 -1.8362 -0.3304  0.2255
 4397SOL    HW224654   3.196   0.319   8.438 -1.7154  0.8481  1.1638
 4398SOL     OW24655   2.927   4.189   5.400 -0.2621 -0.5464 -0.1171
 4398SOL    HW124656   2.856   4.135   5.431 -0.0512  0.5726  2.3252
 4398SOL    HW224657   2.912   4.275   5.440  2.0581 -0.5152  0.7153
 4399SOL     OW24658   4.635   0.687   8.430 -0.2505  0.0828  0.1166
 4399SOL    HW124659   4.571   0.622   8.401 -0.1509  1.0376 -2.2043
 4399SOL    HW224660   4.602   0.756   8.372 -1.5158 -0.7612 -0.1668
 4400SOL     OW24661   1.007   1.735   3.462 -0.0253  0.1662 -0.5433
 4400SOL    HW124662   0.981   1.665   3.403 -1.4879  1.0319 -0.9357
 4400SOL    HW224663   1.029   1.803   3.399  0.9930 -0.9287 -1.3586
 4401SOL     OW24664   4.694   4.721   1.887  0.0865  0.3725  0.0205
 4401SOL    HW124665   4.669   4.651   1.948 -2.6943  1.2553 -0.1313
 4401SOL    HW224666   4.608   0.041   1.888 -0.1532 -0.1005 -1.8042
 4402SOL     OW24667   0.672   2.215   3.634  0.4846  0.1237  0.0643
 4402SOL    HW124668   0.683   2.176   3.721 -1.7361  0.0598  0.3129
 4402SOL    HW224669   0.751   2.269   3.624  0.1625  1.1528  2.8964
 4403SOL     OW24670   3.660   3.430   9.121 -0.1979  0.0495  0.2314
 4403SOL    HW124671   3.722   3.400   9.055  1.5612  0.2652  1.7766
 4403SOL    HW224672   3.691   3.388   9.202 -0.7777 -3.4831 -1.3909
 4404SOL     OW24673   3.530   4.002   8.131 -0.2476 -0.1836 -0.6272
 4404SOL    HW124674   3.559   4.072   8.189  0.4831 -2.5300  1.8231
 4404SOL    HW224675   3.576   3.926   8.168 -2.2751  1.0006  4.1877
 4405SOL     OW24676   2.751   1.009   8.448  0.2351 -0.2656 -0.2250
 4405SOL    HW124677   2.690   1.071   8.487  0.5305  1.2771 -2.2353
 4405SOL    HW224678   2.821   0.990   8.511  0.4845  1.8507  0.1280
 4406SOL     OW24679   0.467   1.893   5.261  0.0223  0.4443 -0.1524
 4406SOL    HW124680   0.490   1.805   5.290  2.2700  1.4950  1.2177
 4406SOL    HW224681   0.375   1.901   5.288  0.2546  0.5351  0.5951
 4407SOL     OW24682   3.333   4.062   4.099  0.3946  0.3573 -0.7362
 4407SOL    HW124683   3.384   4.080   4.021  0.1892  0.5665 -0.8215
 4407SOL    HW224684   3.263   4.008   4.062 -1.0949  2.8373 -1.4637
 4408SOL     OW24685   3.309   2.772   5.819  0.1430 -0.4897 -0.0313
 4408SOL    HW124686   3.238   2.827   5.853  0.7399  0.2211  0.0648
 4408SOL    HW224687   3.390   2.813   5.850 -1.7732  0.6555  3.5168
 4409SOL     OW24688   0.577   3.291   2.667 -0.4101 -0.9172 -0.0763
 4409SOL    HW124689   0.596   3.230   2.739  1.1257 -0.2128  0.1158
 4409SOL    HW224690   0.659   3.283   2.618 -0.9423  0.9995 -1.2953
 4410SOL     OW24691   4.224   3.673   5.139 -0.3243 -0.3572  0.3147
 4410SOL    HW124692   4.147   3.724   5.164 -0.9869  0.3022 -2.9949
 4410SOL    HW224693   4.232   3.602   5.202  1.4968  1.2339  1.8979
 4411SOL     OW24694   2.408   0.247   4.624  0.8409 -0.5978 -0.3592
 4411SOL    HW124695   2.501   0.264   4.638  0.6993 -0.3085  0.1939
 4411SOL    HW224696   2.386   0.314   4.559  2.8728 -0.2922 -0.7233
 4412SOL     OW24697   4.457   3.916  16.785 -0.0235  0.1764 -0.3906
 4412SOL    HW124698   4.371   3.943  16.815 -0.0393  0.4225 -0.6474
 4412SOL    HW224699   4.459   3.828  16.822 -0.4691 -0.5828 -2.1267
 4413SOL     OW24700   2.585   1.221  17.191  0.3692 -0.2098 -0.2303
 4413SOL    HW124701   2.535   1.209  17.110 -2.0928 -0.3945  1.3282
 4413SOL    HW224702   2.527   1.198  17.263  2.7145 -0.1351  1.6964
 4414SOL     OW24703   3.255   2.856   0.128 -0.0458  0.0791  0.2712
 4414SOL    HW124704   3.347   2.868   0.103 -0.1860  1.0921  0.2237
 4414SOL    HW224705   3.257   2.909   0.208  1.3542 -1.4416  1.2309
 4415SOL     OW24706   1.984   1.499   0.672  0.1203  0.2140  0.2365
 4415SOL    HW124707   2.069   1.455   0.685 -0.0630  0.0264  0.8127
 4415SOL    HW224708   2.021   1.586   0.659  1.4780 -0.0834  2.0109
 4416SOL     OW24709   2.742   3.819   6.100  0.7746  0.1581  0.2522
 4416SOL    HW124710   2.680   3.867   6.046 -0.9493 -1.2007  1.0175
 4416SOL    HW224711   2.697   3.734   6.097  0.8586  0.0936  0.9005
 4417SOL     OW24712   1.890   2.450   7.957  0.8014 -0.4597 -0.0082
 4417SOL    HW124713   1.847   2.501   7.888  0.5208 -2.6482 -1.4224
 4417SOL    HW224714   1.826   2.456   8.028 -1.6705  1.2670 -2.3553
 4418SOL     OW24715   2.043   1.669   5.930 -0.6599  0.4434  0.4736
 4418SOL    HW124716   2.121   1.662   5.875 -0.0547 -1.7337  1.6383
 4418SOL    HW224717   1.977   1.692   5.864 -0.6583  0.7537  0.5801
 4419SOL     OW24718   1.324   3.609   6.385  0.0364 -0.3060  0.5337
 4419SOL    HW124719   1.401   3.637   6.435 -0.3063 -1.9483  1.9809
 4419SOL    HW224720   1.368   3.573   6.308 -0.3467  1.8040 -0.6873
 4420SOL     OW24721   2.530   3.051   5.349 -0.6002 -0.1759  0.2853
 4420SOL    HW124722   2.439   3.034   5.372 -0.4758 -0.5803  0.4767
 4420SOL    HW224723   2.590   2.992   5.395 -0.2958  0.6912  0.9839
 4421SOL     OW24724   0.753   4.714   7.252  0.3512 -0.4197  0.7729
 4421SOL    HW124725   0.752   4.641   7.190 -1.9929 -0.0684  0.4036
 4421SOL    HW224726   0.722   4.676   7.334 -0.1345 -2.7390 -0.4814
 4422SOL     OW24727   0.373   3.440  12.002 -0.2421 -0.2811 -1.3678
 4422SOL    HW124728   0.453   3.392  12.025 -0.6180  0.6048  1.8733
 4422SOL    HW224729   0.381   3.466  11.911 -2.2498 -0.3405 -1.5556
 4423SOL     OW24730   3.208   3.466  15.119  0.0249 -0.0613 -0.3477
 4423SOL    HW124731   3.201   3.398  15.052  1.8619 -0.2893 -0.3028
 4423SOL    HW224732   3.280   3.435  15.173 -0.2857 -0.6017 -0.2457
 4424SOL     OW24733   0.844   3.321  16.630 -0.4019 -0.3626 -0.1004
 4424SOL    HW124734   0.793   3.310  16.549 -1.4046 -0.0052  0.4763
 4424SOL    HW224735   0.916   3.268  16.598 -0.0135 -0.3206  0.7060
 4425SOL     OW24736   3.562   4.403  14.015  0.5546  0.0334 -0.1694
 4425SOL    HW124737   3.590   4.334  13.955 -3.2766 -1.4473 -0.2819
 4425SOL    HW224738   3.596   4.484  13.978 -0.5641  1.1307  1.2060
 4426SOL     OW24739   3.814   4.050   4.611 -0.2107  0.1769  0.1566
 4426SOL    HW124740   3.845   4.022   4.697  0.9261  0.5744 -0.1271
 4426SOL    HW224741   3.736   3.996   4.600 -0.8878  0.9744  1.0582
 4427SOL     OW24742   4.496   0.198   3.166 -0.0503  0.2504 -0.2428
 4427SOL    HW124743   4.524   0.239   3.084  0.6478 -0.0563 -0.1622
 4427SOL    HW224744   4.489   0.107   3.136 -0.5378 -0.2767  1.4795
 4428SOL     OW24745   1.248   0.972   6.766  0.0455  0.0311  0.2210
 4428SOL    HW124746   1.305   1.003   6.836  0.0860  0.7293 -0.1153
 4428SOL    HW224747   1.294   1.005   6.688  1.0734  0.3842  0.9840
 4429SOL     OW24748   0.690   0.180  11.046  0.7518 -0.5442  0.5868
 4429SOL    HW124749   0.727   0.180  11.134  0.8170  0.1789  0.5593
 4429SOL    HW224750   0.601   0.152  11.070  0.3843  0.2909  0.1867
 4430SOL     OW24751   0.306   1.307   1.847  0.0901 -0.1232 -0.5924
 4430SOL    HW124752   0.233   1.294   1.786 -1.5800  2.1214  0.8942
 4430SOL    HW224753   0.311   1.403   1.842  1.1395 -0.1607 -0.1263
 4431SOL     OW24754   0.625   3.202   4.310 -0.6063 -0.0284  0.1715
 4431SOL    HW124755   0.690   3.229   4.375  2.3675 -0.1118 -2.7259
 4431SOL    HW224756   0.565   3.157   4.369 -1.1974  2.1977  1.2624
 4432SOL     OW24757   4.010   4.046   9.964  0.0450  0.2514  0.7302
 4432SOL    HW124758   4.042   3.958   9.983 -0.8657  0.2616  2.2631
 4432SOL    HW224759   4.052   4.098  10.033  0.4051  0.3201  0.4614
 4433SOL     OW24760   4.533   1.891   8.886  0.0751 -0.4217 -0.2656
 4433SOL    HW124761   4.621   1.859   8.909  0.9844  2.7865  0.6946
 4433SOL    HW224762   4.505   1.913   8.975  2.7270  1.9794 -0.0184
 4434SOL     OW24763   3.792   3.188  12.935  0.0709  0.2207 -0.7659
 4434SOL    HW124764   3.732   3.262  12.947  2.3168  2.0081 -0.6088
 4434SOL    HW224765   3.819   3.155  13.020  1.0694  0.6021 -0.9414
 4435SOL     OW24766   0.520   0.784  14.035  0.0316 -0.8423  0.2275
 4435SOL    HW124767   0.517   0.851  13.966  0.8118 -0.7822  0.2530
 4435SOL    HW224768   0.615   0.787  14.049 -0.1738 -0.8722  1.6032
 4436SOL     OW24769   4.019   3.135   5.913 -0.2019  0.0101  0.0157
 4436SOL    HW124770   3.957   3.207   5.922 -0.1453 -0.0490  0.8681
 4436SOL    HW224771   4.105   3.170   5.936  0.1632  0.9778 -2.8068
 4437SOL     OW24772   1.954   1.198   5.934 -0.2331 -0.5314 -0.3178
 4437SOL    HW124773   1.934   1.270   5.994  1.8879  0.0955 -0.3630
 4437SOL    HW224774   1.895   1.222   5.864 -0.8265  0.8656  0.6666
 4438SOL     OW24775   0.403   2.974  13.395 -0.1688  0.4661 -0.0775
 4438SOL    HW124776   0.343   3.048  13.407 -0.3889 -0.0440  1.9273
 4438SOL    HW224777   0.405   2.962  13.300 -0.8823  0.8340 -0.1378
 4439SOL     OW24778   3.925   2.899   7.636 -0.0424 -0.4147 -0.0634
 4439SOL    HW124779   3.929   2.953   7.715 -1.2431 -1.3743  0.6554
 4439SOL    HW224780   4.015   2.873   7.617 -0.8540 -0.9881 -3.1077
 4440SOL     OW24781   0.136   0.249   2.862  0.0003  0.5612 -0.3190
 4440SOL    HW124782   0.155   0.314   2.930  0.8988 -0.5649  0.4942
 4440SOL    HW224783   0.041   0.261   2.859 -0.0712 -0.3654 -1.8491
 4441SOL     OW24784   1.080   0.834   4.922  0.0457  0.8087 -0.1815
 4441SOL    HW124785   1.078   0.817   5.016 -0.0019 -0.5339 -0.4335
 4441SOL    HW224786   1.031   0.759   4.890 -0.7042  0.6531  1.3661
 4442SOL     OW24787   2.650   4.135   2.182  0.6204  0.1440 -0.2207
 4442SOL    HW124788   2.686   4.199   2.120  1.0129  0.6592  0.5298
 4442SOL    HW224789   2.582   4.102   2.123  0.2918 -1.2676  0.9516
 4443SOL     OW24790   2.497   3.261   4.754  0.0731 -0.1605  0.6208
 4443SOL    HW124791   2.424   3.277   4.813 -1.0505  0.7289 -0.9991
 4443SOL    HW224792   2.456   3.187   4.710 -1.1685  0.7876  0.1968
 4444SOL     OW24793   3.896   1.033  13.903 -0.0207  0.0682  0.1774
 4444SOL    HW124794   3.821   1.078  13.864 -0.4634 -1.8501 -1.1976
 4444SOL    HW224795   3.847   0.968  13.955 -0.9764  0.7641  0.1448
 4445SOL     OW24796   0.109   2.246  10.922 -0.4021 -0.9207  0.1506
 4445SOL    HW124797   0.200   2.261  10.897  0.1734  1.1555  3.3247
 4445SOL    HW224798   0.086   2.177  10.861  0.3301 -1.5175  0.5424
 4446SOL     OW24799   2.515   0.383   5.311  0.2402 -0.4364  0.2343
 4446SOL    HW124800   2.549   0.402   5.224  0.4504  2.7511  0.9865
 4446SOL    HW224801   2.430   0.341   5.297  1.4780 -2.3452 -1.4862
 4447SOL     OW24802   3.902   2.387   4.195  0.1585  0.7861  0.6303
 4447SOL    HW124803   3.985   2.431   4.209  0.4409  0.4502  0.0262
 4447SOL    HW224804   3.932   2.342   4.116 -0.0225 -0.4039  1.2540
 4448SOL     OW24805   2.674   4.119  10.781  0.2086  0.2607 -0.1935
 4448SOL    HW124806   2.700   4.163  10.861  0.1304  0.6505 -0.3822
 4448SOL    HW224807   2.680   4.031  10.818 -0.6251  0.4222  0.3092
 4449SOL     OW24808   0.918   0.983   6.524  0.2391  0.3927  0.5891
 4449SOL    HW124809   1.005   1.002   6.560  0.2755  1.5458 -0.1127
 4449SOL    HW224810   0.950   0.908   6.473 -0.0993  0.8781 -0.3444
 4450SOL     OW24811   0.105   0.956   4.776 -1.0539 -0.6897  0.5344
 4450SOL    HW124812   0.192   0.919   4.785 -0.2987  1.0208  0.1809
 4450SOL    HW224813   0.123   1.048   4.761 -1.4161 -0.4714  1.4057
 4451SOL     OW24814   0.040   0.599   7.568 -0.5254  0.7136 -0.2096
 4451SOL    HW124815   0.087   0.519   7.549 -2.4987 -0.5501  0.1861
 4451SOL    HW224816   0.070   0.605   7.659  2.9714  0.4116 -1.3473
 4452SOL     OW24817   1.051   3.095   8.270  0.2479 -0.0010 -0.3200
 4452SOL    HW124818   1.121   3.030   8.275 -0.5326 -0.7697  0.5366
 4452SOL    HW224819   1.090   3.147   8.340 -2.0450  0.9129  0.2584
 4453SOL     OW24820   0.435   4.584   7.346 -0.0886  0.2310 -0.0851
 4453SOL    HW124821   0.527   4.580   7.372 -0.4886 -0.3302  1.2722
 4453SOL    HW224822   0.399   4.632   7.421 -0.8332 -0.3765 -0.0407
 4454SOL     OW24823   0.481   3.069  15.799 -0.2391 -1.1483  0.2073
 4454SOL    HW124824   0.419   3.094  15.730  0.2010  0.2540  0.3283
 4454SOL    HW224825   0.480   3.146  15.856  2.2703  0.3474 -1.8163
 4455SOL     OW24826   2.413   3.596  13.865  0.1275 -0.1049 -0.0606
 4455SOL    HW124827   2.399   3.553  13.781  1.0655 -0.1419 -0.2017
 4455SOL    HW224828   2.408   3.684  13.830 -2.0656 -0.1708  0.0872
 4456SOL     OW24829   3.800   0.947   3.797  0.3116  0.1561 -0.1795
 4456SOL    HW124830   3.801   0.925   3.891  0.4416  1.3069  0.0834
 4456SOL    HW224831   3.884   0.907   3.775  0.4965  1.7765 -2.3282
 4457SOL     OW24832   4.470   3.069   6.907 -0.2735  1.2311 -0.0168
 4457SOL    HW124833   4.562   3.046   6.917 -0.4574 -0.2274 -1.6483
 4457SOL    HW224834   4.472   3.160   6.936  0.9538  0.8120  1.1847
 4458SOL     OW24835   0.460   2.093   6.578 -0.3444 -0.4731  0.2638
 4458SOL    HW124836   0.404   2.106   6.502  3.5150 -0.6084 -2.5538
 4458SOL    HW224837   0.530   2.044   6.536 -1.5744  0.1145 -2.4688
 4459SOL     OW24838   0.768   3.566   3.384 -0.3249 -0.1508 -0.1278
 4459SOL    HW124839   0.783   3.476   3.354 -0.9547 -0.9044  1.8088
 4459SOL    HW224840   0.826   3.573   3.460 -0.7363  2.2927 -0.0576
 4460SOL     OW24841   0.245   1.505   2.880  0.3678 -0.0643 -0.2932
 4460SOL    HW124842   0.224   1.596   2.900  0.7988 -0.3032  1.2372
 4460SOL    HW224843   0.309   1.483   2.948 -0.8755 -1.6201  0.3867
 4461SOL     OW24844   2.986   2.695   7.866  0.4973  0.2315 -0.4815
 4461SOL    HW124845   3.070   2.713   7.824  0.3905  1.5845 -0.0983
 4461SOL    HW224846   3.014   2.685   7.957  1.9787 -0.5080 -1.0155
 4462SOL     OW24847   4.702   2.564  11.626  0.0729  0.2954 -0.2717
 4462SOL    HW124848   4.625   2.522  11.588 -0.4349 -0.6558  1.8267
 4462SOL    HW224849   4.703   2.650  11.585  0.1435 -0.3730 -1.6911
 4463SOL     OW24850   4.103   1.537   4.174 -0.2170 -0.0409 -0.6172
 4463SOL    HW124851   4.050   1.466   4.140 -2.0832  1.0425  0.0074
 4463SOL    HW224852   4.181   1.537   4.119  0.7000 -1.0702  0.6600
 4464SOL     OW24853   3.589   4.114   9.929 -0.8479 -0.1359 -0.5010
 4464SOL    HW124854   3.655   4.044   9.930 -0.5128  0.1856  0.4076
 4464SOL    HW224855   3.520   4.076   9.876 -1.0199 -0.3473 -0.1275
 4465SOL     OW24856   1.982   3.938  14.486 -0.1573  0.4539  0.1365
 4465SOL    HW124857   2.024   3.852  14.490  0.5345  0.7775 -0.0050
 4465SOL    HW224858   2.063   3.983  14.459 -0.2009  1.1197  1.0971
 4466SOL     OW24859   2.172   0.426   8.846  0.1214  0.0150 -0.2299
 4466SOL    HW124860   2.179   0.449   8.754  0.1533 -1.9307 -0.7162
 4466SOL    HW224861   2.148   0.334   8.838 -0.0289 -0.1180  1.7630
 4467SOL     OW24862   0.455   1.629   1.512  0.1646  0.4619 -0.9285
 4467SOL    HW124863   0.443   1.540   1.480  0.2438  0.6036 -1.3644
 4467SOL    HW224864   0.368   1.666   1.498 -0.1637  0.0581  0.1176
 4468SOL     OW24865   2.673   1.336  11.422  0.1135 -0.2838 -0.1005
 4468SOL    HW124866   2.611   1.407  11.404 -0.0779 -0.2035  0.8860
 4468SOL    HW224867   2.718   1.328  11.338  1.6384 -0.3570  0.7163
 4469SOL     OW24868   2.656   4.081   6.737  0.5685  0.2611  0.2753
 4469SOL    HW124869   2.724   4.106   6.674  0.9515  0.7587  0.8937
 4469SOL    HW224870   2.604   4.016   6.688  1.4314 -1.6383  1.9051
 4470SOL     OW24871   1.479   2.795   9.751 -0.0190 -0.5122 -0.0654
 4470SOL    HW124872   1.564   2.751   9.748 -0.7092 -1.8229 -0.4320
 4470SOL    HW224873   1.441   2.769   9.668 -2.9426  1.5243  0.6099
 4471SOL     OW24874   4.214   0.797   4.813 -0.1654 -0.3619  0.0358
 4471SOL    HW124875   4.204   0.703   4.795 -0.3954 -0.1020 -1.1382
 4471SOL    HW224876   4.177   0.832   4.733  0.2139 -0.0385  0.0032
 4472SOL     OW24877   1.536   1.432  12.102 -0.2147 -0.2912  0.0775
 4472SOL    HW124878   1.600   1.377  12.057  1.3401  1.2055  0.4523
 4472SOL    HW224879   1.589   1.476  12.169 -2.2187 -1.2634  2.2897
 4473SOL     OW24880   4.293   4.154  11.734  0.3657  0.3203  0.3993
 4473SOL    HW124881   4.276   4.068  11.773 -2.3359  1.0662  0.8423
 4473SOL    HW224882   4.278   4.204  11.814 -1.1371  0.0393  0.2918
 4474SOL     OW24883   2.013   1.632   3.153  0.2327  0.2096  0.6029
 4474SOL    HW124884   1.954   1.581   3.208  0.0904 -2.5795 -2.1385
 4474SOL    HW224885   1.951   1.693   3.115  0.0571  0.0480  0.6302
 4475SOL     OW24886   2.214   3.479   5.015 -0.1181 -0.2729 -0.6171
 4475SOL    HW124887   2.248   3.397   4.980  2.4113  2.4151 -4.3969
 4475SOL    HW224888   2.129   3.462   5.057  0.3401  0.5597  0.6672
 4476SOL     OW24889   1.193   2.738   1.899  0.3627  0.4213  0.0580
 4476SOL    HW124890   1.250   2.661   1.896  1.9037  1.5315  0.7179
 4476SOL    HW224891   1.247   2.801   1.948 -0.4990  2.2303 -1.3235
 4477SOL     OW24892   1.475   4.135  10.933  0.0725 -0.0175  0.0332
 4477SOL    HW124893   1.562   4.101  10.913  1.0076  2.0253  0.6694
 4477SOL    HW224894   1.501   4.223  10.959 -0.9395 -0.0519  1.1446
 4478SOL     OW24895   2.946   3.818   4.788  0.6767 -0.2580 -0.1044
 4478SOL    HW124896   2.890   3.786   4.718  0.8724  1.0012 -0.8473
 4478SOL    HW224897   2.913   3.768   4.863 -0.9833  2.7421  1.1590
 4479SOL     OW24898   4.605   4.238   9.103 -0.3068  0.1815 -0.6322
 4479SOL    HW124899   4.583   4.183   9.027  0.4187  1.8056 -2.0134
 4479SOL    HW224900   4.678   4.188   9.140  0.8840  1.8673 -0.6919
 4480SOL     OW24901   4.572   3.641   6.784 -0.4073 -0.1607  0.2897
 4480SOL    HW124902   4.632   3.567   6.788 -1.3016 -0.8332  1.2700
 4480SOL    HW224903   4.633   3.713   6.801 -0.4593 -0.2237  0.7459
 4481SOL     OW24904   4.238   1.242   7.344  0.0178 -0.0363  0.2778
 4481SOL    HW124905   4.223   1.314   7.283 -0.0422 -0.0506  0.2760
 4481SOL    HW224906   4.151   1.206   7.360  0.0476 -0.4249 -0.4663
 4482SOL     OW24907   1.541   3.136   6.940  0.2189 -0.0106 -0.0449
 4482SOL    HW124908   1.612   3.160   6.881 -0.6959 -2.2402 -2.0625
 4482SOL    HW224909   1.467   3.177   6.895  1.3638  0.6522 -1.3335
 4483SOL     OW24910   1.213   1.348  12.250  0.0289 -0.0731  0.1858
 4483SOL    HW124911   1.192   1.257  12.232 -1.7900  0.2493  0.6388
 4483SOL    HW224912   1.176   1.350  12.339 -1.0409 -2.0522 -0.2098
 4484SOL     OW24913   3.358   1.147   5.699  0.8413  0.3774  0.0304
 4484SOL    HW124914   3.425   1.083   5.725 -1.3467 -0.5712  3.3692
 4484SOL    HW224915   3.320   1.104   5.623 -2.4105 -2.1568  3.1141
 4485SOL     OW24916   0.143   4.397   3.540 -0.1298  0.2033 -0.3679
 4485SOL    HW124917   0.168   4.313   3.504 -0.9919 -0.2191  0.0166
 4485SOL    HW224918   0.214   4.406   3.604 -1.5763  0.0291  1.2643
 4486SOL     OW24919   4.491   1.090   0.303  0.1047  0.3036  0.1792
 4486SOL    HW124920   4.419   1.027   0.292  0.7862 -0.7963  1.8919
 4486SOL    HW224921   4.437   1.168   0.314  0.5538  0.6514 -0.1098
 4487SOL     OW24922   0.237   2.985   3.995 -0.4475 -0.3045  0.1174
 4487SOL    HW124923   0.304   2.982   4.063 -0.7648  0.7283  0.4745
 4487SOL    HW224924   0.280   3.009   3.913  0.0341 -1.1773  0.1073
 4488SOL     OW24925   0.437   1.756   6.417 -0.7935 -0.3638 -0.2540
 4488SOL    HW124926   0.423   1.722   6.506  0.8161 -1.6463 -0.4913
 4488SOL    HW224927   0.435   1.683   6.355 -2.6988 -0.7775  0.2867
 4489SOL     OW24928   3.461   0.804   0.325  0.5545  0.3888  0.0718
 4489SOL    HW124929   3.523   0.737   0.353  1.2323  0.2631 -1.7152
 4489SOL    HW224930   3.394   0.799   0.393 -0.3466  1.9008 -0.7131
 4490SOL     OW24931   1.235   1.283  17.415 -0.2835  0.5741 -0.0848
 4490SOL    HW124932   1.310   1.275  17.473 -0.7082 -1.9239  0.1175
 4490SOL    HW224933   1.178   1.341  17.466 -1.0448 -0.0532 -0.2205
 4491SOL     OW24934   1.203   4.606  11.913 -0.4191  0.1948  0.6102
 4491SOL    HW124935   1.294   4.575  11.912 -1.4214 -2.6622 -0.9133
 4491SOL    HW224936   1.156   4.547  11.855  0.6741 -0.2853  0.2029
 4492SOL     OW24937   3.656   0.575   7.830 -0.5409  0.0023  0.1275
 4492SOL    HW124938   3.674   0.662   7.794 -1.7522 -0.5712 -1.8712
 4492SOL    HW224939   3.699   0.513   7.771 -0.2263  0.2569  0.0820
 4493SOL     OW24940   3.026   3.854   6.406  0.3289 -0.0535  0.1598
 4493SOL    HW124941   2.987   3.882   6.324 -1.4640 -2.5266  0.1877
 4493SOL    HW224942   3.122   3.860   6.400  0.3379  0.3035  0.6445
 4494SOL     OW24943   1.603   0.793   2.302  0.2651  0.5010  0.1810
 4494SOL    HW124944   1.695   0.807   2.279  0.8086 -2.0433  0.7835
 4494SOL    HW224945   1.582   0.712   2.254  3.9066  0.2352 -0.9827
 4495SOL     OW24946   2.191   3.563   3.685  0.4757  0.2160  0.0138
 4495SOL    HW124947   2.217   3.585   3.775 -0.2965  1.6886 -0.1239
 4495SOL    HW224948   2.119   3.626   3.674  0.5537  0.1950 -0.6292
 4496SOL     OW24949   4.497   4.397   2.028 -0.1102  0.1366  0.2004
 4496SOL    HW124950   4.439   4.461   1.985  0.5709  0.1383 -0.7141
 4496SOL    HW224951   4.583   4.440   2.030 -0.3113  0.5171  0.7196
 4497SOL     OW24952   2.310   3.584   3.950  0.0849  0.1009  0.1519
 4497SOL    HW124953   2.394   3.606   3.991 -0.6087  1.1308  1.0166
 4497SOL    HW224954   2.317   3.489   3.947 -1.5992 -0.0326  0.4255
 4498SOL     OW24955   1.228   0.245  13.996 -0.0294  0.0819 -0.2466
 4498SOL    HW124956   1.210   0.335  14.024  0.1631  0.4982 -1.4563
 4498SOL    HW224957   1.313   0.233  14.039 -0.0735  0.0735 -0.1610
 4499SOL     OW24958   0.434   3.014   2.532 -0.0153  0.4619  0.7572
 4499SOL    HW124959   0.502   2.950   2.511 -0.4594  0.1736  0.1902
 4499SOL    HW224960   0.472   3.095   2.499  0.2281 -0.5833 -1.5039
 4500SOL     OW24961   4.482   2.978  14.757  0.2370  0.8222  0.1704
 4500SOL    HW124962   4.424   3.040  14.802  2.3135  0.7778  2.8706
 4500SOL    HW224963   4.418   2.909  14.736  1.5951 -0.0709 -1.0291
 4501SOL     OW24964   0.363   1.758  10.190 -0.4773 -0.3909 -0.3234
 4501SOL    HW124965   0.392   1.751  10.100 -0.6474  0.5385 -0.4544
 4501SOL    HW224966   0.322   1.845  10.183  0.1677 -0.1983 -1.7221
 4502SOL     OW24967   4.241   0.452  15.384 -0.5721 -0.4146 -0.8684
 4502SOL    HW124968   4.278   0.499  15.309 -1.2865 -2.6780 -2.6228
 4502SOL    HW224969   4.316   0.442  15.441 -0.3055 -0.3920 -1.2132
 4503SOL     OW24970   1.385   0.474   9.160 -0.2561  0.0957  0.1672
 4503SOL    HW124971   1.470   0.475   9.203  0.3670  0.4518 -1.0628
 4503SOL    HW224972   1.348   0.388   9.178  1.5791 -0.3726  1.7214
 4504SOL     OW24973   2.936   0.126   5.214  0.5680 -0.0196  0.4859
 4504SOL    HW124974   3.024   0.143   5.246 -0.8428  2.0804  3.2881
 4504SOL    HW224975   2.895   0.067   5.278  1.1520 -0.3078  0.5981
 4505SOL     OW24976   0.893   1.736   9.843 -0.4470  0.4031 -0.2318
 4505SOL    HW124977   0.848   1.744   9.759 -0.9239 -1.3515 -0.1475
 4505SOL    HW224978   0.985   1.721   9.823 -0.2137  0.0514  1.1468
 4506SOL     OW24979   2.290   1.158   1.809  0.4937  0.1554  0.3422
 4506SOL    HW124980   2.330   1.123   1.729 -0.3493  0.7635 -0.3471
 4506SOL    HW224981   2.203   1.189   1.782 -0.0307 -2.9810 -1.5757
 4507SOL     OW24982   0.326   3.540   1.822 -0.4495  0.0866 -0.3514
 4507SOL    HW124983   0.380   3.619   1.820 -0.3800  0.0194 -0.9141
 4507SOL    HW224984   0.269   3.567   1.894 -1.7952 -0.5332 -1.1932
 4508SOL     OW24985   1.346   4.565   6.325 -0.5406 -1.0706  0.3218
 4508SOL    HW124986   1.425   4.613   6.351 -1.9851  1.7489 -0.5568
 4508SOL    HW224987   1.295   4.635   6.284 -0.2297 -0.8577  0.2981
 4509SOL     OW24988   3.527   0.355  10.134 -0.6056  0.4197  0.1118
 4509SOL    HW124989   3.607   0.305  10.120 -1.1536 -1.0813  2.3576
 4509SOL    HW224990   3.551   0.446  10.150  0.0321  0.6810 -2.3308
 4510SOL     OW24991   3.030   1.361   3.147 -0.5460 -0.0447 -0.6055
 4510SOL    HW124992   2.944   1.393   3.121 -2.0788 -2.4505  1.4892
 4510SOL    HW224993   3.090   1.435   3.139 -2.0360  1.2130 -0.0209
 4511SOL     OW24994   2.781   1.410  12.357 -0.1414  0.3131  0.4061
 4511SOL    HW124995   2.780   1.349  12.284 -0.8425  1.3229 -0.4296
 4511SOL    HW224996   2.760   1.492  12.312 -1.6865  0.4442  1.3857
 4512SOL     OW24997   1.435   3.992  16.793  0.2739  0.8127  0.1722
 4512SOL    HW124998   1.409   4.025  16.880  0.4315 -0.9110  0.8683
 4512SOL    HW224999   1.381   3.913  16.787  3.6159 -1.4453  0.2094
 4513SOL     OW25000   4.618   2.556   7.499  0.0731 -0.1585  0.0274
 4513SOL    HW125001   4.527   2.532   7.483 -0.3590  1.9966 -0.7142
 4513SOL    HW225002   4.615   2.648   7.524  1.0468 -0.7785  2.4604
 4514SOL     OW25003   4.707   1.535  13.027  0.1346  0.1493 -0.6044
 4514SOL    HW125004   4.715   1.538  13.123 -1.6448  2.2496 -0.5160
 4514SOL    HW225005   4.669   1.623  13.019  0.2405  0.4954  2.5405
 4515SOL     OW25006   0.877   0.497   5.881 -0.2200 -0.1545  0.0151
 4515SOL    HW125007   0.907   0.550   5.954 -1.2516  0.1266  0.2330
 4515SOL    HW225008   0.959   0.457   5.851 -1.5932 -2.7726 -0.2610
 4516SOL     OW25009   1.014   4.225   4.655 -0.4049  0.4068  0.6038
 4516SOL    HW125010   0.958   4.244   4.731 -0.6249 -1.0653  0.8294
 4516SOL    HW225011   1.048   4.314   4.645 -0.8137  0.6001  0.9453
 4517SOL     OW25012   3.946   0.875   8.336 -0.4084  0.2113 -0.2563
 4517SOL    HW125013   3.932   0.847   8.246 -3.6161  2.2020 -0.3678
 4517SOL    HW225014   3.981   0.964   8.331 -1.9009  0.7701 -0.7802
 4518SOL     OW25015   3.796   1.789   0.532 -0.4844  0.2121 -0.0831
 4518SOL    HW125016   3.853   1.712   0.529 -2.0929 -0.9987  0.6728
 4518SOL    HW225017   3.860   1.861   0.535  0.8306 -0.9131 -0.9640
 4519SOL     OW25018   1.293   1.059   7.393  0.4508  0.3321 -0.5890
 4519SOL    HW125019   1.377   1.066   7.438  0.8368 -1.2010 -1.0672
 4519SOL    HW225020   1.261   0.973   7.421 -1.3779  1.6076  1.2636
 4520SOL     OW25021   2.566   0.308   4.180 -0.2282 -0.0585 -0.1248
 4520SOL    HW125022   2.481   0.273   4.205 -0.1378 -1.1438 -1.3024
 4520SOL    HW225023   2.598   0.247   4.113  1.3426 -1.6369  2.0596
 4521SOL     OW25024   1.404   0.907   8.010  0.3174  0.3758  0.2153
 4521SOL    HW125025   1.314   0.934   8.026  0.8093  0.9087  2.2176
 4521SOL    HW225026   1.443   0.990   8.036 -0.3841  0.9938 -0.7433
 4522SOL     OW25027   4.229   3.768   7.287  0.3928 -0.0530 -0.2920
 4522SOL    HW125028   4.165   3.733   7.225 -1.8672 -1.6941  2.9247
 4522SOL    HW225029   4.249   3.858   7.262 -0.1276  1.2744  4.0583
 4523SOL     OW25030   3.500   4.617   2.969 -0.4671  0.1199  0.5120
 4523SOL    HW125031   3.540   4.581   3.047 -0.2085 -1.7119 -0.4639
 4523SOL    HW225032   3.568   4.679   2.944 -0.4884 -0.2149 -0.3932
 4524SOL     OW25033   3.280   4.077   7.627  0.0433 -0.7134 -0.3170
 4524SOL    HW125034   3.362   4.098   7.672  0.1840 -1.9089 -0.0347
 4524SOL    HW225035   3.279   3.982   7.624  0.8599 -0.8089  2.0725
 4525SOL     OW25036   1.426   0.187   7.927  0.7226  0.1765 -0.1271
 4525SOL    HW125037   1.444   0.183   7.833 -0.3216 -1.8009 -0.2339
 4525SOL    HW225038   1.369   0.113   7.948  1.8501 -0.9800 -1.1496
 4526SOL     OW25039   1.665   2.717   6.189 -0.7671 -0.1103 -0.0425
 4526SOL    HW125040   1.619   2.793   6.224  0.2747 -0.1313  1.4064
 4526SOL    HW225041   1.608   2.691   6.117  1.9927  0.4219 -2.4087
 4527SOL     OW25042   0.553   0.087   2.410 -0.6785  0.1913 -0.1735
 4527SOL    HW125043   0.609   0.120   2.480 -1.4682  2.8630 -0.7757
 4527SOL    HW225044   0.528   0.169   2.366  1.4532  0.0680 -1.6108
 4528SOL     OW25045   2.502   3.704  13.526  0.1281 -0.0853  0.7674
 4528SOL    HW125046   2.595   3.682  13.516  0.3570  0.3530  2.0499
 4528SOL    HW225047   2.509   3.745  13.612  0.7858  0.4388  0.4668
 4529SOL     OW25048   0.907   1.576   6.583 -0.0383 -0.0109  0.0517
 4529SOL    HW125049   0.850   1.499   6.581 -1.4820  1.1110 -1.4980
 4529SOL    HW225050   0.864   1.626   6.652  1.3114  1.0564  0.1394
 4530SOL     OW25051   4.683   1.928  15.689 -0.7467  0.6529 -0.3935
 4530SOL    HW125052   0.045   1.940  15.735 -0.3682 -1.6699 -0.4760
 4530SOL    HW225053   4.682   1.833  15.682 -2.4031  0.9001 -3.7610
 4531SOL     OW25054   2.810   2.281   3.820 -0.3620  0.4796 -0.0930
 4531SOL    HW125055   2.902   2.254   3.819 -1.2129 -2.4422  1.3058
 4531SOL    HW225056   2.812   2.373   3.849  0.4948  1.6614 -3.9139
 4532SOL     OW25057   0.478   2.832   2.955 -0.2337 -0.6708 -0.2684
 4532SOL    HW125058   0.547   2.841   2.889  0.1638 -0.6302  0.1520
 4532SOL    HW225059   0.534   2.808   3.029  0.6365 -0.5416 -0.8821
 4533SOL     OW25060   3.098   2.399  13.913  0.2149 -0.4737 -0.3132
 4533SOL    HW125061   3.106   2.383  14.007 -0.1617 -0.6952 -0.3206
 4533SOL    HW225062   3.044   2.324  13.887 -1.3676  0.6919 -0.4035
 4534SOL     OW25063   4.403   4.680   9.158  0.1410  0.0388 -0.6120
 4534SOL    HW125064   4.470   4.618   9.130 -0.7568 -0.3612 -1.9014
 4534SOL    HW225065   4.436   0.033   9.107 -0.8741  0.3001 -0.8943
 4535SOL     OW25066   2.950   2.350  13.652 -0.1862 -0.1626  0.6402
 4535SOL    HW125067   2.862   2.346  13.689 -0.0537  0.6231  1.0449
 4535SOL    HW225068   2.992   2.272  13.689  1.6379  0.4871 -0.0930
 4536SOL     OW25069   3.562   3.855   0.171 -0.0814 -0.1195  0.5685
 4536SOL    HW125070   3.639   3.860   0.228  0.9456 -2.9882 -0.5632
 4536SOL    HW225071   3.558   3.947   0.145 -1.5126 -0.5389 -0.6583
 4537SOL     OW25072   2.106   2.707   6.390  0.2616 -0.4260 -0.4010
 4537SOL    HW125073   2.177   2.766   6.413 -0.4668  0.4302 -0.3396
 4537SOL    HW225074   2.153   2.626   6.375  2.6654  1.1941 -1.6065
 4538SOL     OW25075   4.403   2.822   6.422 -0.2789 -0.2890 -0.0781
 4538SOL    HW125076   4.496   2.838   6.436 -0.7939  2.9578 -0.4989
 4538SOL    HW225077   4.406   2.795   6.330 -1.8155  2.5449 -0.9394
 4539SOL     OW25078   3.311   0.972   1.027 -0.4848  0.5245  0.4843
 4539SOL    HW125079   3.272   0.891   1.060 -0.1554 -0.2409 -1.0273
 4539SOL    HW225080   3.269   0.978   0.941  0.0268 -1.0225  0.1426
 4540SOL     OW25081   2.590   4.177   2.635  0.2365 -0.2839  0.3389
 4540SOL    HW125082   2.523   4.219   2.582  1.1764  1.0764  0.2237
 4540SOL    HW225083   2.547   4.115   2.693 -0.5687 -0.1238 -0.0897
 4541SOL     OW25084   3.909   1.842   6.273 -0.1239  0.3651  0.3207
 4541SOL    HW125085   3.859   1.892   6.338 -1.5958 -1.7014  0.7858
 4541SOL    HW225086   3.888   1.755   6.306  0.2594 -0.1889 -0.8730
 4542SOL     OW25087   3.402   1.683   2.470  0.2072  0.0781 -0.4727
 4542SOL    HW125088   3.395   1.778   2.479 -0.9613 -0.0695  0.2545
 4542SOL    HW225089   3.318   1.650   2.438 -0.0200 -0.5334  0.7348
 4543SOL     OW25090   0.291   2.871  11.896  0.1822  0.3482  0.1309
 4543SOL    HW125091   0.265   2.961  11.880  0.0074  0.4331  0.8733
 4543SOL    HW225092   0.333   2.851  11.812  1.0039  1.2344  0.3297
 4544SOL     OW25093   3.843   1.044   7.084 -0.0292 -0.6633 -0.6451
 4544SOL    HW125094   3.923   0.992   7.077 -0.4496 -1.7130  2.4616
 4544SOL    HW225095   3.866   1.113   7.147 -1.0289 -0.7788 -0.1517
 4545SOL     OW25096   2.585   2.442   6.180 -0.3580 -0.3830  0.0258
 4545SOL    HW125097   2.495   2.419   6.205  0.0513 -0.4911  1.4020
 4545SOL    HW225098   2.588   2.384   6.104  0.6642  1.3083 -1.2286
 4546SOL     OW25099   3.013   0.990   2.392 -0.3289  0.3513 -0.1767
 4546SOL    HW125100   3.014   0.918   2.329  0.9809  0.0300  0.2268
 4546SOL    HW225101   3.099   0.985   2.434  0.2184  0.5922 -1.2676
 4547SOL     OW25102   0.444   2.915  10.166  0.7488  0.6022  0.6908
 4547SOL    HW125103   0.435   2.993  10.221 -0.7346  1.7051 -1.0977
 4547SOL    HW225104   0.540   2.910  10.164  0.6808 -0.2333 -0.2137
 4548SOL     OW25105   2.082   4.326   1.624 -0.1293  0.4092 -0.4523
 4548SOL    HW125106   2.163   4.317   1.673  0.3811  1.7719 -1.0493
 4548SOL    HW225107   2.034   4.249   1.654  1.8601 -1.1962 -1.4217
 4549SOL     OW25108   2.948   3.275   4.357  0.1155  0.5010 -0.1204
 4549SOL    HW125109   2.931   3.215   4.284 -0.5751 -0.7344  1.0525
 4549SOL    HW225110   2.889   3.233   4.420  0.7381 -0.7317 -0.3581
 4550SOL     OW25111   3.256   2.515   5.702  0.4059  0.8060  0.6897
 4550SOL    HW125112   3.284   2.465   5.778 -0.6355  0.3067  0.7438
 4550SOL    HW225113   3.286   2.603   5.726 -0.5703  0.0695  4.6116
 4551SOL     OW25114   1.131   4.336   4.264  0.1023  0.4077 -0.2790
 4551SOL    HW125115   1.097   4.247   4.272  2.6318 -0.4436  0.7974
 4551SOL    HW225116   1.067   4.370   4.201 -0.7212  1.6335  1.2139
 4552SOL     OW25117   4.186   4.565   9.922 -0.2394  0.2473  0.1190
 4552SOL    HW125118   4.110   4.613   9.888 -0.4218 -0.2351 -0.1455
 4552SOL    HW225119   4.183   4.481   9.877  1.3292 -2.2707  4.6841
 4553SOL     OW25120   0.745   3.558   1.999 -0.7178 -0.4776 -0.0567
 4553SOL    HW125121   0.714   3.565   1.909 -3.2486  3.2521  1.1095
 4553SOL    HW225122   0.785   3.644   2.009  0.1998 -1.1379  2.2048
 4554SOL     OW25123   4.291   4.285  10.514 -0.2168 -0.0172 -0.5527
 4554SOL    HW125124   4.199   4.264  10.535  0.0590 -0.0820  0.6337
 4554SOL    HW225125   4.285   4.292  10.419  0.7643 -1.0205 -0.6874
 4555SOL     OW25126   1.466   1.783   0.030  0.7346  0.0275 -0.0500
 4555SOL    HW125127   1.421   1.796  17.632 -0.4329 -0.7211  0.4647
 4555SOL    HW225128   1.404   1.841   0.076 -2.4676 -2.9710 -0.5865
 4556SOL     OW25129   2.150   0.911   5.863  0.1783  0.1328  0.3886
 4556SOL    HW125130   2.083   0.843   5.872  0.5291 -0.3233 -0.5078
 4556SOL    HW225131   2.120   0.971   5.795  0.3691 -0.7538 -0.4812
 4557SOL     OW25132   4.250   2.681  11.357  0.3642 -0.1159  0.4835
 4557SOL    HW125133   4.310   2.606  11.349 -0.7216 -1.0425  1.0315
 4557SOL    HW225134   4.295   2.729  11.426  2.3744 -0.9248 -0.2665
 4558SOL     OW25135   3.033   2.690   8.151 -0.0415  0.1241 -0.2341
 4558SOL    HW125136   2.989   2.772   8.172  1.6691  0.6376  1.3174
 4558SOL    HW225137   3.035   2.649   8.237 -0.9349 -0.6320 -0.5749
 4559SOL     OW25138   1.611   1.412   3.170 -0.5773 -0.1569  0.5214
 4559SOL    HW125139   1.612   1.317   3.181  1.9051 -0.1727  0.2203
 4559SOL    HW225140   1.517   1.430   3.163 -0.9530 -1.5178  2.2873
 4560SOL     OW25141   2.872   1.332  17.324 -0.0250  0.7079  0.1609
 4560SOL    HW125142   2.780   1.358  17.326 -1.0090 -2.5497 -3.1477
 4560SOL    HW225143   2.921   1.391  17.381 -0.1862  1.3932 -0.4073
 4561SOL     OW25144   3.034   0.971   4.140  0.6285  0.0916  0.9591
 4561SOL    HW125145   3.095   0.977   4.067  1.8904 -1.6481  1.8448
 4561SOL    HW225146   2.976   1.043   4.118 -0.0521 -1.0444 -0.9572
 4562SOL     OW25147   0.256   0.801  10.415 -0.2464 -0.0885 -0.2565
 4562SOL    HW125148   0.165   0.819  10.388 -0.0200  2.3734  0.5684
 4562SOL    HW225149   0.313   0.878  10.419 -0.9185  0.3537  0.7433
 4563SOL     OW25150   3.182   3.697   3.331  0.8513  0.8680 -0.1142
 4563SOL    HW125151   3.194   3.786   3.300 -0.1880  1.2105  0.4501
 4563SOL    HW225152   3.086   3.697   3.330  0.8113 -0.1215  2.4084
 4564SOL     OW25153   2.705   3.192   4.908 -0.2260  0.1083  0.6427
 4564SOL    HW125154   2.624   3.197   4.858 -0.7420 -0.0851  1.4600
 4564SOL    HW225155   2.681   3.225   4.995  0.4313 -0.7429  1.1577
 4565SOL     OW25156   3.305   0.414   1.229 -0.2524  0.1677 -0.0453
 4565SOL    HW125157   3.344   0.443   1.146 -1.6664  2.5373  0.1126
 4565SOL    HW225158   3.254   0.336   1.207  0.3418 -0.4834  0.8864
 4566SOL     OW25159   4.663   1.661   6.642  0.1249  0.0443  0.0771
 4566SOL    HW125160   4.640   1.734   6.700  1.2455  0.9447 -0.5923
 4566SOL    HW225161   4.717   1.704   6.574  1.3761  0.6960  1.4728
 4567SOL     OW25162   1.068   2.561   4.345  0.0968 -0.3915 -0.1237
 4567SOL    HW125163   1.115   2.509   4.410 -0.2775 -1.6950 -0.8885
 4567SOL    HW225164   1.045   2.495   4.279 -1.9457  1.4253 -1.2306
 4568SOL     OW25165   3.279   0.112   7.695  0.0980 -0.4350  0.3134
 4568SOL    HW125166   3.189   0.123   7.664  0.1308  1.0994  0.7726
 4568SOL    HW225167   3.298   0.018   7.695 -1.0367 -0.6526 -2.1848
 4569SOL     OW25168   2.772   3.767  13.621  0.6476  0.3673  0.3374
 4569SOL    HW125169   2.819   3.829  13.677  0.6113 -3.1744  4.3136
 4569SOL    HW225170   2.789   3.683  13.663 -0.9537 -0.6582 -1.0802
 4570SOL     OW25171   2.748   2.034   4.163  0.7141 -0.2064  0.1816
 4570SOL    HW125172   2.831   1.996   4.192  0.0035 -0.6859  1.5733
 4570SOL    HW225173   2.688   1.963   4.185  0.2845  0.9872  2.8020
 4571SOL     OW25174   0.173   2.576   3.430 -0.9938 -0.2738  0.3432
 4571SOL    HW125175   0.180   2.660   3.385  0.5951 -0.6480 -0.1235
 4571SOL    HW225176   0.139   2.596   3.517 -0.2028  0.3420  0.5121
 4572SOL     OW25177   3.442   1.036  15.955  0.1016  0.1370  0.5873
 4572SOL    HW125178   3.436   1.121  15.912  0.5949 -1.6428 -3.1070
 4572SOL    HW225179   3.533   1.041  15.985 -0.3642  1.8873  1.6590
 4573SOL     OW25180   3.015   0.502   2.329 -0.3703 -0.1473 -0.0637
 4573SOL    HW125181   3.098   0.468   2.365  0.1582  1.5005  0.2491
 4573SOL    HW225182   3.007   0.440   2.257  0.3667 -2.4454  1.8028
 4574SOL     OW25183   0.829   3.088  12.916  0.2365  0.2616  0.1207
 4574SOL    HW125184   0.790   3.013  12.871  0.3669  1.8773 -2.7146
 4574SOL    HW225185   0.845   3.150  12.844  1.0423  0.7840  0.7484
 4575SOL     OW25186   3.331   4.312   9.846  0.5272 -0.3258 -0.6015
 4575SOL    HW125187   3.352   4.219   9.851  1.9720  0.1087  1.2653
 4575SOL    HW225188   3.235   4.316   9.844  0.4550 -3.1408 -2.5842
 4576SOL     OW25189   4.464   1.193  11.330  0.8454 -0.4312 -0.1745
 4576SOL    HW125190   4.546   1.147  11.350  2.2327  2.3277  0.4003
 4576SOL    HW225191   4.499   1.282  11.334 -1.7068  0.5412  0.3731
 4577SOL     OW25192   3.194   4.530   1.750 -0.6842 -0.6892  0.4599
 4577SOL    HW125193   3.116   4.515   1.803 -0.2235  0.4578  1.4362
 4577SOL    HW225194   3.270   4.528   1.807 -0.3024  0.1701 -0.0303
 4578SOL     OW25195   3.695   0.290   7.993  0.8345 -0.3930 -0.3507
 4578SOL    HW125196   3.625   0.354   7.978  1.9202  1.3094  1.8654
 4578SOL    HW225197   3.642   0.215   8.021  0.3525 -1.0301 -3.0341
 4579SOL     OW25198   0.331   3.690   1.018  0.0938  0.0665 -0.2671
 4579SOL    HW125199   0.392   3.638   1.071 -0.9866 -1.9712 -1.0290
 4579SOL    HW225200   0.388   3.706   0.943 -2.0186 -0.0953 -1.8824
 4580SOL     OW25201   2.687   0.345   7.368 -0.7074 -0.2682  0.5794
 4580SOL    HW125202   2.652   0.312   7.285  0.6554 -0.9192  0.2589
 4580SOL    HW225203   2.734   0.420   7.331 -0.4187 -1.7710 -2.0733
 4581SOL     OW25204   4.053   2.992   8.547 -0.0207 -0.2593 -0.5799
 4581SOL    HW125205   3.972   2.941   8.549  2.0913 -3.4999  1.0887
 4581SOL    HW225206   4.023   3.050   8.617 -1.0190 -1.9177  0.3537
 4582SOL     OW25207   3.502   2.908   3.026  0.5792 -0.9730 -0.3094
 4582SOL    HW125208   3.494   2.978   3.091  2.3638 -3.0779  2.2079
 4582SOL    HW225209   3.457   2.950   2.953 -0.8632 -2.0612 -0.0494
 4583SOL     OW25210   1.998   0.428   3.143  0.1458 -0.3468 -0.2321
 4583SOL    HW125211   1.989   0.468   3.230  2.7745  0.2201 -0.2512
 4583SOL    HW225212   2.032   0.339   3.155 -2.1974 -1.3212 -0.6589
 4584SOL     OW25213   3.532   0.938   4.659 -0.4659  0.1527  0.6265
 4584SOL    HW125214   3.595   0.897   4.719  0.4975 -0.6371 -0.9319
 4584SOL    HW225215   3.458   0.956   4.717 -1.5045  0.9406 -0.9421
 4585SOL     OW25216   2.069   1.123   8.231  0.2957 -0.2326  0.3854
 4585SOL    HW125217   1.991   1.101   8.181 -1.3175  3.0969  1.4756
 4585SOL    HW225218   2.027   1.147   8.313  0.7515 -0.4679  0.6866
 4586SOL     OW25219   2.679   4.283  10.564  0.7923  0.2075 -0.2999
 4586SOL    HW125220   2.705   4.240  10.645  1.6870  0.2674 -0.5514
 4586SOL    HW225221   2.743   4.238  10.509  0.6734  0.6875 -0.8333
 4587SOL     OW25222   2.900   2.181   0.829 -0.5649  0.0123 -0.7579
 4587SOL    HW125223   2.933   2.265   0.797 -0.9658  1.0470  1.5559
 4587SOL    HW225224   2.958   2.112   0.796 -0.9623 -0.1511 -1.1094
 4588SOL     OW25225   0.941   2.665   4.982  0.1766 -0.2525 -0.4042
 4588SOL    HW125226   0.902   2.750   4.963  2.9236  0.8561 -1.0552
 4588SOL    HW225227   0.869   2.613   5.017  0.1294 -1.2667 -1.9844
 4589SOL     OW25228   0.479   4.195   6.148 -0.2341 -0.0994 -0.6174
 4589SOL    HW125229   0.401   4.219   6.098 -0.1451 -1.1509 -1.2738
 4589SOL    HW225230   0.528   4.166   6.070 -0.1499  1.2239 -1.0495
 4590SOL     OW25231   2.025   2.209   2.617 -0.1147 -0.1835 -0.2438
 4590SOL    HW125232   2.027   2.271   2.544  2.0820  0.7950  0.6311
 4590SOL    HW225233   2.118   2.184   2.614  0.0359  0.1915  1.2575
 4591SOL     OW25234   2.897   0.212  11.930  0.5577 -0.5801  0.2195
 4591SOL    HW125235   2.899   0.127  11.974 -1.9182  0.0129  1.5053
 4591SOL    HW225236   2.953   0.197  11.854  0.1534 -1.0990  0.0240
 4592SOL     OW25237   1.330   3.793  13.214 -0.1623 -0.2696 -0.4796
 4592SOL    HW125238   1.252   3.812  13.266  1.2127 -0.2435  1.5463
 4592SOL    HW225239   1.384   3.872  13.220 -1.1646  0.5479 -2.2804
 4593SOL     OW25240   2.837   2.307   4.831 -0.4296 -0.2015  0.1913
 4593SOL    HW125241   2.866   2.388   4.790  0.7965 -0.8714 -0.2705
 4593SOL    HW225242   2.877   2.314   4.918 -1.9896  0.6858  0.8430
 4594SOL     OW25243   1.681   3.361   8.287  0.5952 -0.1793 -0.5063
 4594SOL    HW125244   1.708   3.297   8.221  1.0262 -1.8480  1.2765
 4594SOL    HW225245   1.636   3.423   8.229  0.2225  0.6015  0.6048
 4595SOL     OW25246   1.677   3.931   7.287 -0.1819 -0.4344  0.4421
 4595SOL    HW125247   1.667   3.844   7.249 -1.3548 -0.0530 -0.1334
 4595SOL    HW225248   1.772   3.943   7.285 -0.4802  1.5600 -1.3611
 4596SOL     OW25249   3.087   3.776   5.212 -0.4377 -0.0091 -0.1855
 4596SOL    HW125250   3.048   3.689   5.198  1.4637 -0.6384 -1.4986
 4596SOL    HW225251   3.180   3.759   5.197  0.6134  3.5387  2.4203
 4597SOL     OW25252   4.339   3.546   4.066  0.1181  0.0138  0.3596
 4597SOL    HW125253   4.413   3.492   4.037 -0.8730 -0.5554 -1.0966
 4597SOL    HW225254   4.263   3.490   4.052  0.6147 -0.3025 -1.1120
 4598SOL     OW25255   3.064   2.960  16.206  0.0604  0.3157 -0.0044
 4598SOL    HW125256   3.047   2.937  16.115  1.4331 -2.5463  0.4396
 4598SOL    HW225257   3.011   3.036  16.228  0.9439  1.2673 -1.1732
 4599SOL     OW25258   3.033   2.692   5.342 -0.5579  0.4455  0.1050
 4599SOL    HW125259   2.973   2.708   5.269  0.4302 -1.8815 -1.1948
 4599SOL    HW225260   3.023   2.602   5.373  0.5396  1.0523  2.1934
 4600SOL     OW25261   1.282   1.423  17.063 -0.0208 -0.0296 -0.3328
 4600SOL    HW125262   1.302   1.337  17.099 -2.0198  0.0292  0.9465
 4600SOL    HW225263   1.281   1.477  17.142  1.8685  0.8842 -0.9208
 4601SOL     OW25264   4.698   1.434  14.593  0.5247 -0.5267  0.2421
 4601SOL    HW125265   4.705   1.349  14.550 -0.3109 -0.7155  0.4825
 4601SOL    HW225266   4.618   1.464  14.549  0.5158 -0.4718  0.2948
 4602SOL     OW25267   2.105   2.649   9.347  0.3037 -0.0865 -0.0002
 4602SOL    HW125268   2.038   2.590   9.313  0.6812 -0.9503  0.7570
 4602SOL    HW225269   2.124   2.711   9.276  2.4237  0.0863  0.7164
 4603SOL     OW25270   1.625   2.994   9.934  0.5596  0.4871  0.2318
 4603SOL    HW125271   1.568   2.930   9.891  1.3512  1.2003 -1.8852
 4603SOL    HW225272   1.571   3.051   9.987 -0.8104  0.0670 -0.7221
 4604SOL     OW25273   1.831   0.180   7.685  0.0434  0.6255  0.5142
 4604SOL    HW125274   1.815   0.260   7.634 -1.9661 -0.0576  0.0918
 4604SOL    HW225275   1.905   0.207   7.740 -0.9479 -0.3422  2.3289
 4605SOL     OW25276   2.808   0.665   7.560  0.4089 -0.5136  0.1885
 4605SOL    HW125277   2.734   0.708   7.517  0.3644  0.1159  0.9014
 4605SOL    HW225278   2.851   0.629   7.482 -1.2370 -1.7689 -0.1490
 4606SOL     OW25279   3.539   2.379   4.988 -0.2552 -0.5637  0.4832
 4606SOL    HW125280   3.546   2.398   4.895  0.3035  1.2791  0.9092
 4606SOL    HW225281   3.573   2.290   4.982  0.7994 -0.2017  1.1715
 4607SOL     OW25282   4.501   2.724   3.547  0.2968 -0.1106 -0.1043
 4607SOL    HW125283   4.422   2.766   3.582  0.1070  1.8629 -2.9366
 4607SOL    HW225284   4.531   2.799   3.497 -1.6440  0.1693 -0.8713
 4608SOL     OW25285   3.299   2.746   2.251  0.1302 -0.1050 -0.1552
 4608SOL    HW125286   3.328   2.837   2.244  3.1414 -1.0969 -0.7010
 4608SOL    HW225287   3.247   2.743   2.171  1.1203  2.6760 -0.9213
 4609SOL     OW25288   1.869   3.832   6.415 -0.1026 -0.7608  0.2688
 4609SOL    HW125289   1.824   3.915   6.429  1.0593 -0.3341  1.5426
 4609SOL    HW225290   1.933   3.851   6.347 -0.2106 -1.4418 -0.0241
 4610SOL     OW25291   4.279   3.038  12.641  0.2760 -0.1286 -0.3236
 4610SOL    HW125292   4.213   3.004  12.581 -1.3011  0.5208  1.0320
 4610SOL    HW225293   4.256   3.131  12.645 -2.9809 -0.9012 -0.4673
 4611SOL     OW25294   3.249   1.212   8.251  0.7965 -0.3827 -0.0717
 4611SOL    HW125295   3.215   1.181   8.335 -0.2905 -0.1990 -0.4418
 4611SOL    HW225296   3.206   1.155   8.188 -1.7195 -1.0237  2.2608
 4612SOL     OW25297   2.368   0.978  17.645 -0.5432  0.0443  0.0762
 4612SOL    HW125298   2.378   0.883  17.645  2.1500  0.3029  2.7592
 4612SOL    HW225299   2.381   0.996  17.552  0.4700  0.2258  0.2552
 4613SOL     OW25300   0.863   0.609   6.144 -0.0072 -0.2174  0.0002
 4613SOL    HW125301   0.844   0.702   6.131 -0.5718 -0.2205  0.7970
 4613SOL    HW225302   0.775   0.571   6.152 -0.2903  0.2632 -0.8795
 4614SOL     OW25303   3.842   3.822   2.763  0.3174 -0.4249  0.2105
 4614SOL    HW125304   3.896   3.760   2.811  0.8015 -0.8683 -0.8950
 4614SOL    HW225305   3.898   3.856   2.692 -2.4025 -1.1479 -2.2675
 4615SOL     OW25306   3.711   3.165   6.683 -0.0949 -0.0774  0.1696
 4615SOL    HW125307   3.754   3.086   6.652 -1.1209  0.1328 -1.8282
 4615SOL    HW225308   3.617   3.148   6.672  0.2582  0.5291 -3.9011
 4616SOL     OW25309   1.075   2.683   4.725 -0.1183  0.2984 -0.2982
 4616SOL    HW125310   1.018   2.676   4.802  0.1627 -0.7682 -0.1946
 4616SOL    HW225311   1.148   2.644   4.772 -1.3151  1.6608  2.7087
 4617SOL     OW25312   2.881   4.304   7.868  0.3068  0.5504 -0.0876
 4617SOL    HW125313   2.801   4.356   7.879 -0.1736 -0.2785  0.3152
 4617SOL    HW225314   2.846   4.235   7.812 -0.5357 -1.2475  2.6378
 4618SOL     OW25315   2.460   0.090   8.101 -0.2080 -0.0922 -0.3054
 4618SOL    HW125316   2.387   0.034   8.127  2.2599 -1.7247  2.9793
 4618SOL    HW225317   2.496   0.119   8.184 -1.3294 -0.0298  0.1571
 4619SOL     OW25318   0.024   3.549   6.493  0.0825  0.7502 -0.1746
 4619SOL    HW125319   0.059   3.464   6.464  0.6826  0.3742  1.6700
 4619SOL    HW225320   4.717   3.525   6.582 -0.5370 -0.7151 -0.7472
 4620SOL     OW25321   2.823   2.858   9.515 -0.9078 -0.2107 -0.2634
 4620SOL    HW125322   2.781   2.917   9.578  1.8960 -0.2527  1.6539
 4620SOL    HW225323   2.844   2.785   9.574  0.2198  0.0579 -0.3287
 4621SOL     OW25324   1.156   2.719   5.151 -0.5572  0.7042 -0.3955
 4621SOL    HW125325   1.182   2.635   5.189  1.6854  1.6969  0.2852
 4621SOL    HW225326   1.074   2.685   5.115 -0.0301 -3.1063  1.9885
 4622SOL     OW25327   0.339   2.236   7.514  0.3404  0.8479 -0.3370
 4622SOL    HW125328   0.270   2.278   7.566  0.1051  0.8998 -0.6920
 4622SOL    HW225329   0.303   2.253   7.427 -0.3577  0.6429 -0.0878
 4623SOL     OW25330   0.748   0.046   3.071 -0.0326 -0.3867  0.5240
 4623SOL    HW125331   0.801   0.104   3.126 -1.1720  0.7693  0.3803
 4623SOL    HW225332   0.766   4.681   3.109  0.7640 -0.0709  0.8733
 4624SOL     OW25333   1.025   0.498   2.518  0.2425  0.2162  0.4796
 4624SOL    HW125334   0.967   0.428   2.490 -1.0781  1.7235 -0.5762
 4624SOL    HW225335   0.972   0.532   2.590  1.7491 -0.2157  1.7888
 4625SOL     OW25336   0.356   4.445   2.593  0.6151 -0.0028  0.4659
 4625SOL    HW125337   0.360   4.540   2.607 -0.1491 -0.0146  0.7597
 4625SOL    HW225338   0.415   4.432   2.519  0.9046 -1.3658  0.9387
 4626SOL     OW25339   1.822   2.705   9.923  0.3822 -0.5934 -0.1280
 4626SOL    HW125340   1.886   2.696   9.994  1.3782  2.4588 -0.6344
 4626SOL    HW225341   1.781   2.790   9.941 -1.9397 -1.9239  0.8364
 4627SOL     OW25342   1.339   3.827  15.356 -0.7396  0.9014 -0.3177
 4627SOL    HW125343   1.375   3.916  15.355 -1.7521  1.2555 -2.8248
 4627SOL    HW225344   1.256   3.847  15.312 -1.5471 -1.5649  0.1286
 4628SOL     OW25345   3.429   0.049   5.537 -0.3639  0.0116 -0.5982
 4628SOL    HW125346   3.424   0.051   5.633  0.0451 -3.2219 -0.5264
 4628SOL    HW225347   3.444   4.676   5.527  2.2991  0.5762 -1.8086
 4629SOL     OW25348   1.853   1.249   0.928 -0.3466 -0.5151 -0.1456
 4629SOL    HW125349   1.770   1.202   0.921 -0.1842 -1.1579  2.1347
 4629SOL    HW225350   1.845   1.292   1.013 -1.1848 -1.5578  0.3096
 4630SOL     OW25351   0.439   0.076   4.263 -0.3688  0.3320  0.3637
 4630SOL    HW125352   0.455   0.015   4.336 -2.1367  0.2001  0.6587
 4630SOL    HW225353   0.380   0.027   4.205 -1.0371  1.5432  0.0228
 4631SOL     OW25354   1.773   2.127   3.861  0.1021  0.7985 -0.1249
 4631SOL    HW125355   1.859   2.149   3.897 -0.8603 -0.0428  2.7272
 4631SOL    HW225356   1.745   2.070   3.933 -1.1349 -0.2843 -1.4537
 4632SOL     OW25357   4.136   0.385   6.750  0.0171 -0.0606 -0.2963
 4632SOL    HW125358   4.194   0.423   6.817  2.5072 -0.9472 -1.9365
 4632SOL    HW225359   4.062   0.365   6.808 -0.4977  1.8032 -0.3069
 4633SOL     OW25360   2.114   0.688   0.534 -0.0383  0.0877  0.0864
 4633SOL    HW125361   2.116   0.726   0.446  3.1218 -0.5993 -0.1502
 4633SOL    HW225362   2.078   0.600   0.521  0.5132 -0.2448  0.7981
 4634SOL     OW25363   2.266   4.094   8.031 -0.4578  0.0043  0.0889
 4634SOL    HW125364   2.264   4.008   7.988 -0.0045  0.6630 -1.2247
 4634SOL    HW225365   2.172   4.115   8.027 -0.2485  0.6108 -1.8278
 4635SOL     OW25366   0.786   1.150  17.657 -0.4426  0.0392  0.3708
 4635SOL    HW125367   0.808   1.203   0.049  1.1613 -0.8211  0.4982
 4635SOL    HW225368   0.874   1.150  17.620  0.2054 -1.7471  1.9090
 4636SOL     OW25369   3.862   0.792  11.324 -0.0585 -0.1200 -0.4735
 4636SOL    HW125370   3.933   0.736  11.292  0.5919 -0.0940  0.8938
 4636SOL    HW225371   3.915   0.830  11.394 -2.3646  0.8790  0.7296
 4637SOL     OW25372   0.225   1.967   9.592 -0.6624  0.6859  0.1232
 4637SOL    HW125373   0.306   1.918   9.578 -0.2987  0.7114  2.0279
 4637SOL    HW225374   0.248   2.002   9.678 -2.2753  2.2438 -0.0860
 4638SOL     OW25375   3.904   0.711  10.917  0.0263 -0.0300 -0.3290
 4638SOL    HW125376   3.902   0.726  10.823  1.0048 -1.9213 -0.6508
 4638SOL    HW225377   3.950   0.627  10.920 -0.8442 -0.4977  0.0463
 4639SOL     OW25378   3.218   2.540   3.019 -0.1764 -0.6855  0.4318
 4639SOL    HW125379   3.263   2.610   3.067 -0.0732 -0.9096  0.6669
 4639SOL    HW225380   3.238   2.565   2.929 -0.3990 -1.0594  0.2806
 4640SOL     OW25381   3.688   3.385   2.943  0.1432 -0.0548  0.3668
 4640SOL    HW125382   3.748   3.361   2.872 -1.3795  0.2704 -1.0508
 4640SOL    HW225383   3.606   3.338   2.924 -1.1219  3.4251 -2.8965
 4641SOL     OW25384   3.086   1.594  16.001  0.1730  0.2191 -0.0331
 4641SOL    HW125385   3.093   1.678  16.046 -1.1405  0.4776 -0.3320
 4641SOL    HW225386   3.016   1.550  16.050  0.4270  0.0751  0.2029
 4642SOL     OW25387   4.378   2.485   4.115  0.0274  0.5162 -0.4762
 4642SOL    HW125388   4.336   2.515   4.034 -2.0038  0.0000  0.3842
 4642SOL    HW225389   4.389   2.392   4.096 -1.4623 -0.1922  2.0233
 4643SOL     OW25390   1.203   3.315   4.662 -0.1443 -0.0325 -0.6474
 4643SOL    HW125391   1.281   3.261   4.649 -1.0742 -1.3486 -0.7615
 4643SOL    HW225392   1.221   3.371   4.587  0.0869  1.4238  0.4867
 4644SOL     OW25393   1.504   3.674   2.284 -0.4975  0.1019 -0.1271
 4644SOL    HW125394   1.535   3.599   2.231 -0.1231  0.1339  0.0487
 4644SOL    HW225395   1.548   3.652   2.366 -0.3949 -0.9194 -0.4501
 4645SOL     OW25396   4.193   0.405  14.330 -0.0044 -0.1510 -0.2606
 4645SOL    HW125397   4.147   0.353  14.397 -1.0170  1.2976  0.1830
 4645SOL    HW225398   4.120   0.452  14.289  0.7293  1.6830  0.5299
 4646SOL     OW25399   4.290   1.856   0.544 -0.5209  0.4295 -0.4552
 4646SOL    HW125400   4.322   1.837   0.456  1.0673  2.8925 -0.3915
 4646SOL    HW225401   4.315   1.771   0.579 -0.1538  0.5138 -0.5150
 4647SOL     OW25402   4.357   2.753  13.355 -0.0887  0.2737  0.3968
 4647SOL    HW125403   4.296   2.783  13.287  0.5102 -0.2499 -0.3837
 4647SOL    HW225404   4.365   2.659  13.339 -1.0190 -0.3143  3.4634
 4648SOL     OW25405   0.807   2.637   5.751  0.4716 -0.6614 -0.0072
 4648SOL    HW125406   0.876   2.680   5.803  1.0433 -0.9328 -0.5374
 4648SOL    HW225407   0.787   2.709   5.691 -0.8395  0.2329  1.5126
 4649SOL     OW25408   4.482   3.936   3.674 -0.0003  0.4853 -0.0933
 4649SOL    HW125409   4.537   4.003   3.633  1.2021 -0.7773 -0.5304
 4649SOL    HW225410   4.446   3.908   3.590 -0.4085 -0.0947  0.2845
 4650SOL     OW25411   0.676   0.478   1.246 -0.3244  0.2906 -0.0046
 4650SOL    HW125412   0.666   0.531   1.325 -1.8216 -0.2773  0.1811
 4650SOL    HW225413   0.608   0.413   1.261 -0.6310  0.3963 -0.8992
 4651SOL     OW25414   2.284   3.647   0.982  0.5943  0.0913  0.3279
 4651SOL    HW125415   2.268   3.556   1.004  2.7612 -1.0237 -2.8140
 4651SOL    HW225416   2.192   3.676   0.981  0.0027 -1.7858  1.2569
 4652SOL     OW25417   2.644   2.795   2.777 -0.6747 -0.0897  1.2124
 4652SOL    HW125418   2.606   2.883   2.774  0.6176  0.4608  1.0338
 4652SOL    HW225419   2.684   2.802   2.863 -2.0662  1.7709  1.7062
 4653SOL     OW25420   2.133   2.754  16.552 -0.4412 -0.4622  0.0372
 4653SOL    HW125421   2.050   2.724  16.514 -1.7902  0.7001  2.0536
 4653SOL    HW225422   2.171   2.667  16.566 -0.3938 -0.6261 -1.1074
 4654SOL     OW25423   3.784   2.435   7.214 -0.2173  0.2749 -0.1241
 4654SOL    HW125424   3.873   2.401   7.222  0.2339  1.0169 -2.1608
 4654SOL    HW225425   3.798   2.489   7.137 -1.9173  0.9834  0.0613
 4655SOL     OW25426   1.025   0.594   9.120  0.2869  0.1721 -0.2329
 4655SOL    HW125427   1.033   0.544   9.039  3.4571 -0.2378  0.3147
 4655SOL    HW225428   1.029   0.687   9.096 -0.6636  0.3977  0.4804
 4656SOL     OW25429   2.202   0.292   4.817  0.5556  0.3442 -0.2652
 4656SOL    HW125430   2.270   0.267   4.755  1.3783 -1.2286  1.2961
 4656SOL    HW225431   2.236   0.278   4.905 -0.3410 -1.5650 -0.2347
 4657SOL     OW25432   0.712   3.328  10.561  0.2504  0.5731  0.5574
 4657SOL    HW125433   0.694   3.318  10.467 -0.8755  0.7125  0.7514
 4657SOL    HW225434   0.653   3.399  10.589 -0.7400  0.0209 -0.1019
 4658SOL     OW25435   0.827   0.511   8.225  0.6703 -0.0086 -0.5025
 4658SOL    HW125436   0.777   0.429   8.220 -1.0830  1.1136 -1.2728
 4658SOL    HW225437   0.842   0.522   8.131  0.9316 -0.7733 -0.5571
 4659SOL     OW25438   3.361   4.487  17.140 -0.0946 -0.0629  1.0520
 4659SOL    HW125439   3.349   4.417  17.076 -1.9799  1.1598  0.0630
 4659SOL    HW225440   3.341   4.567  17.091 -0.8197 -1.0845 -0.3045
 4660SOL     OW25441   3.874   4.443  10.989 -0.1000 -0.4985  0.9356
 4660SOL    HW125442   3.962   4.479  10.996 -0.3925  0.2611  0.6754
 4660SOL    HW225443   3.880   4.374  10.924 -0.5059  0.5004 -0.1629
 4661SOL     OW25444   4.465   3.313   7.040  0.6134 -0.7897 -0.1908
 4661SOL    HW125445   4.553   3.344   7.062  1.3229 -2.8770 -0.1082
 4661SOL    HW225446   4.416   3.358   7.109 -0.6190 -0.5433 -1.2251
 4662SOL     OW25447   3.097   2.952  14.346  0.6154  0.7795 -0.3701
 4662SOL    HW125448   3.168   3.009  14.317 -0.2058  1.0368 -1.8910
 4662SOL    HW225449   3.039   2.966  14.271  0.0503 -2.3721 -0.5273
 4663SOL     OW25450   1.831   2.670   4.729  0.2248  0.0507 -0.3694
 4663SOL    HW125451   1.760   2.735   4.731 -1.2318 -1.5535  0.2833
 4663SOL    HW225452   1.821   2.642   4.638 -0.1730 -0.1409 -0.2685
 4664SOL     OW25453   1.399   0.879   5.878  0.0398 -0.4035 -0.3322
 4664SOL    HW125454   1.431   0.886   5.788 -3.4940  0.6917 -1.4856
 4664SOL    HW225455   1.353   0.795   5.885  1.3881 -1.3002 -2.1887
 4665SOL     OW25456   2.298   1.873   7.716  0.0351  0.1922 -0.1195
 4665SOL    HW125457   2.344   1.913   7.790 -0.3741  1.3491 -0.4892
 4665SOL    HW225458   2.344   1.920   7.646  1.7003 -0.2110  0.6913
 4666SOL     OW25459   1.466   1.798   2.028 -0.0645 -0.4600 -0.1052
 4666SOL    HW125460   1.419   1.873   1.991  0.7961  0.3927  0.5055
 4666SOL    HW225461   1.507   1.836   2.106 -0.8454 -0.2862  0.2172
 4667SOL     OW25462   3.060   4.210   7.571  0.7555 -0.2676 -0.3520
 4667SOL    HW125463   3.149   4.181   7.590  0.3456 -1.1034  0.2871
 4667SOL    HW225464   3.053   4.177   7.481  1.2188  1.8546 -1.1575
 4668SOL     OW25465   1.246   3.895   5.986 -0.0050 -0.2649  0.2415
 4668SOL    HW125466   1.310   3.882   5.916 -1.7700  0.4653 -1.5137
 4668SOL    HW225467   1.225   3.806   6.012 -0.2441 -0.5170 -0.8264
 4669SOL     OW25468   2.494   2.468   5.739  0.2546 -0.6508  0.0625
 4669SOL    HW125469   2.496   2.560   5.765 -0.8657 -0.7812  0.6136
 4669SOL    HW225470   2.527   2.476   5.650  1.3001  1.7283  0.6763
 4670SOL     OW25471   4.307   1.410   8.937 -0.0930  0.4111 -0.6550
 4670SOL    HW125472   4.273   1.444   9.019  1.6996  0.0835  0.2205
 4670SOL    HW225473   4.302   1.481   8.873 -1.9473 -0.4865 -1.5283
 4671SOL     OW25474   2.996   1.361   8.771 -0.0893 -0.3490  0.0632
 4671SOL    HW125475   2.923   1.342   8.712 -1.0203  2.7231  0.2413
 4671SOL    HW225476   2.960   1.412   8.843  0.5766  1.6581 -1.0346
 4672SOL     OW25477   3.346   4.548   7.739  0.0806 -0.4353 -0.4336
 4672SOL    HW125478   3.257   4.539   7.704 -0.6099  0.6405  1.0779
 4672SOL    HW225479   3.330   4.548   7.833 -4.1572  1.1115 -1.1494
 4673SOL     OW25480   0.490   3.109   3.044  0.3415 -0.4211  0.8688
 4673SOL    HW125481   0.568   3.131   2.993 -0.2562 -1.7796 -0.6434
 4673SOL    HW225482   0.448   3.040   2.992 -0.4920 -0.6068  1.7914
 4674SOL     OW25483   1.540   3.366   4.054  0.5020 -0.3770  0.1830
 4674SOL    HW125484   1.620   3.406   4.089 -0.9479  3.3469 -0.7303
 4674SOL    HW225485   1.578   3.356   3.967 -1.0680  2.7259 -0.8524
 4675SOL     OW25486   2.960   2.861  11.282  0.3787 -0.0881 -0.4490
 4675SOL    HW125487   2.936   2.954  11.274 -0.1061 -0.1619  0.1019
 4675SOL    HW225488   2.986   2.846  11.191 -1.1733 -0.8627 -0.7618
 4676SOL     OW25489   3.204   3.508  10.717  0.1446 -0.0849  0.2465
 4676SOL    HW125490   3.298   3.499  10.700 -0.0027  0.9836 -1.2162
 4676SOL    HW225491   3.180   3.542  10.631 -0.7383 -0.0384  0.5180
 4677SOL     OW25492   1.458   1.845   7.857  0.0795  0.9331  0.5142
 4677SOL    HW125493   1.520   1.894   7.804 -0.0720 -0.4215 -0.9022
 4677SOL    HW225494   1.496   1.833   7.944  1.6691  0.8242 -0.2055
 4678SOL     OW25495   3.418   0.307   9.187  0.7098  0.0819 -0.0283
 4678SOL    HW125496   3.499   0.337   9.147  0.5300 -0.0640 -0.5044
 4678SOL    HW225497   3.449   0.294   9.277  0.0831  0.6037  0.2621
 4679SOL     OW25498   1.817   3.911   2.634  0.9965  0.3211 -0.1659
 4679SOL    HW125499   1.797   3.968   2.708  2.3577  2.2595 -1.3098
 4679SOL    HW225500   1.802   3.829   2.681 -1.7801  1.2467  0.5453
 4680SOL     OW25501   3.515   3.593   6.425 -0.0885  0.2594  0.7898
 4680SOL    HW125502   3.472   3.519   6.469  0.5273 -0.8939 -0.5579
 4680SOL    HW225503   3.471   3.667   6.468  0.8680 -0.3035  2.7710
 4681SOL     OW25504   1.878   3.756   5.206 -0.4195 -0.0129  0.2203
 4681SOL    HW125505   1.932   3.686   5.240  1.1292  0.1345 -1.9662
 4681SOL    HW225506   1.873   3.735   5.113 -0.2244 -0.4731  0.3182
 4682SOL     OW25507   0.020   3.702  17.306  0.2847  0.5347 -0.3577
 4682SOL    HW125508   4.678   3.753  17.254 -0.4460 -0.1194 -0.1256
 4682SOL    HW225509   0.102   3.735  17.270  0.5483 -1.0622 -1.2599
 4683SOL     OW25510   2.166   3.956  11.347  0.3317 -0.4324  0.1492
 4683SOL    HW125511   2.162   3.985  11.438 -2.9002 -1.6331  0.3930
 4683SOL    HW225512   2.076   3.932  11.325 -0.1926  1.4061  0.3213
 4684SOL     OW25513   0.535   2.060   3.881 -0.3598 -0.6448  0.4793
 4684SOL    HW125514   0.623   2.023   3.867  0.3972  0.5659  2.1141
 4684SOL    HW225515   0.516   2.044   3.973  1.5247  1.1417  1.1629
 4685SOL     OW25516   4.467   3.718   2.718  0.1275  0.8685 -0.2590
 4685SOL    HW125517   4.499   3.754   2.635 -0.5913  0.9910 -0.4759
 4685SOL    HW225518   4.374   3.715   2.698  0.4305  1.1991 -1.7257
 4686SOL     OW25519   1.876   0.550  17.649  1.0874  0.1425  0.2241
 4686SOL    HW125520   1.809   0.484  17.629  0.1938  1.0578  0.2468
 4686SOL    HW225521   1.919   0.501   0.033  0.5178  0.4891  0.8170
 4687SOL     OW25522   0.744   1.676  14.020 -0.7708 -0.0620 -0.4056
 4687SOL    HW125523   0.816   1.649  14.077 -0.3119  0.9826 -0.4997
 4687SOL    HW225524   0.688   1.598  14.023  0.2929 -0.7816  1.3538
 4688SOL     OW25525   1.060   2.742   8.348 -0.5563  0.2249  0.5015
 4688SOL    HW125526   0.979   2.714   8.304  0.2824  0.1460 -1.0116
 4688SOL    HW225527   1.115   2.748   8.270  0.3798  0.8001  1.2121
 4689SOL     OW25528   4.411   4.118   6.910  0.3573 -0.2274  0.5892
 4689SOL    HW125529   4.412   4.106   6.815  1.1379 -1.9828  0.8144
 4689SOL    HW225530   4.358   4.045   6.943  0.7943 -0.5765  0.5145
 4690SOL     OW25531   2.182   3.710   6.498  0.3384 -0.6595  0.2812
 4690SOL    HW125532   2.137   3.729   6.580 -0.6035 -0.8256 -0.1986
 4690SOL    HW225533   2.138   3.629   6.475  0.3933 -0.8383  0.8012
 4691SOL     OW25534   4.131   1.598   5.061 -0.3942  0.5460  0.7394
 4691SOL    HW125535   4.040   1.614   5.087 -0.9329 -1.8350  0.3558
 4691SOL    HW225536   4.180   1.677   5.083  0.3276  0.6766 -1.3600
 4692SOL     OW25537   1.875   2.513   1.135 -0.1285 -0.2787  0.4627
 4692SOL    HW125538   1.781   2.526   1.132 -0.0739 -0.2397 -1.1263
 4692SOL    HW225539   1.890   2.480   1.224  0.5166  2.4211  1.3674
 4693SOL     OW25540   1.546   2.259   6.673  0.5304  0.4289  0.1124
 4693SOL    HW125541   1.606   2.225   6.740 -0.2547 -0.1164  0.5469
 4693SOL    HW225542   1.461   2.244   6.715  0.1173 -1.0138 -1.2175
 4694SOL     OW25543   0.012   4.092  16.531 -0.4860 -0.0860 -0.2862
 4694SOL    HW125544   0.025   4.002  16.560 -0.4023 -0.0948 -0.3521
 4694SOL    HW225545   4.639   4.101  16.514  0.1795  0.6917 -3.5763
 4695SOL     OW25546   3.538   4.150   6.254  0.2112 -0.3174 -0.2091
 4695SOL    HW125547   3.443   4.151   6.267  0.1995 -1.0933 -0.2275
 4695SOL    HW225548   3.536   4.143   6.158  0.2998 -0.6859 -0.1829
 4696SOL     OW25549   2.261   3.802   5.608  0.0283 -0.1637 -0.3671
 4696SOL    HW125550   2.332   3.819   5.670 -0.8161 -0.2459  0.6327
 4696SOL    HW225551   2.280   3.709   5.591 -1.4226 -0.2434 -1.5871
 4697SOL     OW25552   4.516   2.180   6.011 -0.5963  0.4316  0.2083
 4697SOL    HW125553   4.588   2.228   5.970 -0.0701 -0.3703  0.1888
 4697SOL    HW225554   4.450   2.249   6.020 -0.6449  0.4052  0.0591
 4698SOL     OW25555   2.244   4.678   5.869 -0.4021 -0.1502  0.1200
 4698SOL    HW125556   2.257   4.583   5.872  2.1698  0.1915 -0.4757
 4698SOL    HW225557   2.207   4.701   5.784  3.0781 -3.5260 -2.3269
 4699SOL     OW25558   2.119   2.108  16.491  0.2164 -0.1391  0.2607
 4699SOL    HW125559   2.176   2.052  16.544 -1.5627 -1.7051  0.5293
 4699SOL    HW225560   2.135   2.068  16.406 -0.4847 -0.3910  0.2421
 4700SOL     OW25561   2.054   4.283   1.166  0.4205 -0.8208 -0.2581
 4700SOL    HW125562   2.044   4.353   1.231 -0.1884 -1.2765  0.1318
 4700SOL    HW225563   2.140   4.252   1.196  0.5314  0.4427  0.7531
 4701SOL     OW25564   3.182   3.934   4.726 -0.3290  0.3807  0.0902
 4701SOL    HW125565   3.189   3.891   4.641  2.4180  2.4056 -0.6954
 4701SOL    HW225566   3.093   3.910   4.751  0.4924 -1.9960  0.7030
 4702SOL     OW25567   0.417   0.401   6.939  0.0661 -0.5766  0.0032
 4702SOL    HW125568   0.423   0.386   6.845 -1.0337 -1.1216  0.0223
 4702SOL    HW225569   0.465   0.484   6.946 -0.5580 -0.2106 -0.0092
 4703SOL     OW25570   0.567   0.888   9.102  1.0045  0.6533  0.3728
 4703SOL    HW125571   0.547   0.795   9.094 -0.3087  0.9525  0.2480
 4703SOL    HW225572   0.507   0.916   9.171 -0.4171  1.5479 -1.2256
 4704SOL     OW25573   4.527   0.337   2.926 -0.3222  0.3829 -1.3129
 4704SOL    HW125574   4.568   0.368   2.846 -2.8196  2.5772 -1.7393
 4704SOL    HW225575   4.459   0.403   2.936 -1.7727 -1.5440  1.5990
 4705SOL     OW25576   2.328   2.416   2.637  0.2699  0.4008  0.0590
 4705SOL    HW125577   2.399   2.474   2.665  1.1274  0.2382 -1.8150
 4705SOL    HW225578   2.277   2.418   2.718  2.3548  0.8273  1.3619
 4706SOL     OW25579   4.103   2.152   4.969  0.3569 -0.0350  0.7656
 4706SOL    HW125580   4.112   2.144   4.874 -1.2144  1.4039  0.5002
 4706SOL    HW225581   4.025   2.207   4.972  1.3246  1.1875  3.6825
 4707SOL     OW25582   0.393   2.348   2.260  0.2775  0.2676 -0.6336
 4707SOL    HW125583   0.319   2.296   2.227 -1.3353  0.3582  2.7923
 4707SOL    HW225584   0.352   2.434   2.268 -0.1018  0.1788 -1.5319
 4708SOL     OW25585   4.398   2.488   5.601  0.2313  0.1533  0.0311
 4708SOL    HW125586   4.328   2.490   5.667 -0.5151  1.3822 -0.8088
 4708SOL    HW225587   4.389   2.580   5.580  0.7125 -0.2052 -1.6969
 4709SOL     OW25588   2.521   4.291   0.796  0.0169 -0.0322  0.0726
 4709SOL    HW125589   2.528   4.386   0.786  0.5115 -0.2048 -1.2244
 4709SOL    HW225590   2.601   4.262   0.753  0.8552  1.7863  0.4206
 4710SOL     OW25591   1.557   0.233   2.763  0.0041 -0.1899  0.1582
 4710SOL    HW125592   1.617   0.178   2.713  0.5392 -0.3081  0.9298
 4710SOL    HW225593   1.547   0.188   2.846  2.2655 -1.1465 -0.0879
 4711SOL     OW25594   1.586   0.334   8.075  0.1530 -0.2683  0.2238
 4711SOL    HW125595   1.601   0.398   8.005  0.6211 -0.3736  0.2296
 4711SOL    HW225596   1.529   0.278   8.023 -0.1160  1.5672 -1.4679
 4712SOL     OW25597   3.033   0.898  11.396 -1.0072 -0.9164  0.1913
 4712SOL    HW125598   3.055   0.920  11.306 -1.1785 -0.7128  0.1968
 4712SOL    HW225599   3.099   0.942  11.450 -1.2588 -1.3608  0.8576
 4713SOL     OW25600   0.786   3.373   6.464  0.0156 -0.1864 -0.0792
 4713SOL    HW125601   0.752   3.297   6.512  0.3757 -0.1899  0.1651
 4713SOL    HW225602   0.874   3.341   6.446 -0.6315 -1.1204 -1.5502
 4714SOL     OW25603   2.380   1.147   1.505 -0.1809  0.7014 -0.0850
 4714SOL    HW125604   2.466   1.191   1.508 -0.1590  0.6340  0.2851
 4714SOL    HW225605   2.404   1.056   1.522 -0.3167  0.9346  1.3886
 4715SOL     OW25606   2.602   1.310   4.335 -0.2918  0.2134 -0.1412
 4715SOL    HW125607   2.690   1.348   4.333 -0.5320  0.7627 -0.5256
 4715SOL    HW225608   2.625   1.230   4.288 -0.0733  1.2183 -1.7606
 4716SOL     OW25609   4.028   2.301   4.481 -0.8495  0.2052  0.2682
 4716SOL    HW125610   4.087   2.359   4.434  0.8097 -0.8316  1.1010
 4716SOL    HW225611   3.944   2.347   4.482 -0.9924 -0.0386 -0.6225
 4717SOL     OW25612   0.291   0.100  10.639  0.4136  0.3032 -0.0371
 4717SOL    HW125613   0.339   0.022  10.668  0.7151  0.0406 -1.2583
 4717SOL    HW225614   0.334   0.108  10.554  0.9090  0.3905  0.2220
 4718SOL     OW25615   4.268   2.740   4.693 -0.1429 -0.0296 -0.5318
 4718SOL    HW125616   4.303   2.821   4.656 -2.1563  0.6880 -0.8844
 4718SOL    HW225617   4.333   2.707   4.755 -3.6389  1.1432  3.8118
 4719SOL     OW25618   0.038   2.878   2.557  0.2414 -0.5198  0.0788
 4719SOL    HW125619   0.038   2.963   2.513 -2.5022  0.5933  2.2703
 4719SOL    HW225620   0.130   2.860   2.576  0.0878  0.1527  1.4723
 4720SOL     OW25621   1.240   2.607   2.441 -0.0346  0.3216  0.1118
 4720SOL    HW125622   1.174   2.618   2.373 -0.1019  3.9600  0.7815
 4720SOL    HW225623   1.183   2.649   2.506 -2.1746 -1.0623 -0.8471
 4721SOL     OW25624   0.186   2.846   8.613 -0.5122  0.3418  0.5780
 4721SOL    HW125625   0.214   2.824   8.702  0.1625  1.9959  0.7787
 4721SOL    HW225626   0.250   2.910   8.582 -0.3518  0.0125  0.2344
 4722SOL     OW25627   0.617   0.830   2.939 -0.3322  0.0460  0.3215
 4722SOL    HW125628   0.536   0.788   2.969  0.5902  0.6828  3.7488
 4722SOL    HW225629   0.581   0.918   2.952  1.8494  1.3793 -2.9331
 4723SOL     OW25630   0.890   2.059   3.162  0.0987  0.2337  0.0714
 4723SOL    HW125631   0.961   2.001   3.192  0.4842  1.5268  1.6614
 4723SOL    HW225632   0.819   2.008   3.200 -0.0832 -0.2708 -0.9559
 4724SOL     OW25633   4.243   0.704  12.127 -0.0938  0.3730 -0.0531
 4724SOL    HW125634   4.174   0.679  12.065 -1.0321  0.6704  0.8781
 4724SOL    HW225635   4.303   0.755  12.071  0.9790 -2.3989 -1.4205
 4725SOL     OW25636   2.010   1.894   3.431  0.0251 -0.2768 -0.5947
 4725SOL    HW125637   1.999   1.959   3.501  0.7324  1.8676 -2.4716
 4725SOL    HW225638   2.059   1.945   3.366 -1.0071  0.0620 -1.1143
 4726SOL     OW25639   1.150   1.319   1.645 -0.2659  0.2259 -0.2468
 4726SOL    HW125640   1.108   1.400   1.619 -1.4949 -1.0404 -2.2063
 4726SOL    HW225641   1.158   1.269   1.563  0.2431 -0.0885 -0.0069
 4727SOL     OW25642   0.181   4.664   8.553 -0.1611  0.2457 -0.0908
 4727SOL    HW125643   0.211   4.668   8.644  1.6382  1.8323 -0.7646
 4727SOL    HW225644   0.165   0.036   8.540  2.2069  0.8033  1.0096
 4728SOL     OW25645   0.848   0.087   2.497 -0.2660 -0.4913 -0.1338
 4728SOL    HW125646   0.884   0.175   2.497  2.1963 -1.4899 -0.3897
 4728SOL    HW225647   0.763   0.101   2.539 -0.3628 -2.2152  0.2379
 4729SOL     OW25648   0.835   1.854   8.921  0.4841  0.6332  0.2077
 4729SOL    HW125649   0.842   1.880   8.829  1.4390 -1.0168 -0.1778
 4729SOL    HW225650   0.914   1.804   8.937 -1.4424 -1.8419  1.9373
 4730SOL     OW25651   0.374   1.215   7.960 -0.2019  0.2331  0.2559
 4730SOL    HW125652   0.379   1.215   8.056 -3.3174  2.4247  0.4316
 4730SOL    HW225653   0.313   1.284   7.934  2.3719  1.9088 -1.2861
 4731SOL     OW25654   1.948   4.309   4.213  0.3296  0.7071 -0.2365
 4731SOL    HW125655   1.902   4.225   4.207  0.6360  0.6906 -2.3833
 4731SOL    HW225656   1.910   4.354   4.288  0.9076  0.2072  0.3668
 4732SOL     OW25657   3.974   4.650   0.992  0.8525  0.4110  0.2969
 4732SOL    HW125658   4.006   4.565   0.961 -0.3686 -1.2250  3.5383
 4732SOL    HW225659   3.981   4.710   0.919  0.2681  0.2905  0.1431
 4733SOL     OW25660   3.860   1.454   7.239 -0.4815  0.3030 -0.8759
 4733SOL    HW125661   3.873   1.360   7.225 -0.3594  0.4532 -1.7414
 4733SOL    HW225662   3.914   1.473   7.316 -1.3266 -0.8396 -0.0031
 4734SOL     OW25663   2.259   0.441   0.016  0.4179 -0.1601  0.1211
 4734SOL    HW125664   2.193   0.384  17.663 -2.1645  2.6945  0.3470
 4734SOL    HW225665   2.228   0.461   0.104 -2.1907 -0.5412 -0.7180
 4735SOL     OW25666   3.314   0.282  11.553 -0.1361 -0.2744  0.0501
 4735SOL    HW125667   3.399   0.276  11.511 -0.7588  2.6297 -1.6444
 4735SOL    HW225668   3.329   0.358  11.609 -3.6040  0.8748 -0.5414
 4736SOL     OW25669   0.597   1.188   9.459 -0.5957 -0.1344  0.3725
 4736SOL    HW125670   0.565   1.241   9.532 -0.2662  2.2542 -1.2214
 4736SOL    HW225671   0.648   1.118   9.499 -0.5118 -0.1279  0.2777
 4737SOL     OW25672   3.307   0.301   3.598  0.0571  0.5356 -0.0596
 4737SOL    HW125673   3.345   0.365   3.659  0.3417 -0.5037  0.8539
 4737SOL    HW225674   3.226   0.292   3.648  0.8627  0.9861  1.3242
 4738SOL     OW25675   1.149   1.646   6.241  0.2735 -0.2451 -0.4336
 4738SOL    HW125676   1.169   1.585   6.170  0.1778  0.8095 -1.3796
 4738SOL    HW225677   1.183   1.724   6.197 -1.1008  2.1411  2.7888
 4739SOL     OW25678   2.406   4.031   3.452 -0.0026  0.6107 -0.1263
 4739SOL    HW125679   2.369   3.995   3.371 -2.3996  1.3550  0.6180
 4739SOL    HW225680   2.324   4.016   3.500  0.7157  1.2391  1.2951
 4740SOL     OW25681   2.110   2.404   4.753 -0.0762  0.4138 -0.4340
 4740SOL    HW125682   2.148   2.451   4.678 -1.3769  1.2326 -0.5742
 4740SOL    HW225683   2.103   2.484   4.805 -2.1848  0.5178 -0.9099
 4741SOL     OW25684   3.676   0.323   9.036  0.1459  0.1006  0.0660
 4741SOL    HW125685   3.757   0.291   8.996 -0.4228 -1.7749  0.3725
 4741SOL    HW225686   3.635   0.363   8.960 -0.0732  0.6209  0.4597
 4742SOL     OW25687   4.377   3.360  16.373  0.7591  0.0967  0.1598
 4742SOL    HW125688   4.327   3.351  16.292 -1.8779  1.7637  1.6442
 4742SOL    HW225689   4.460   3.396  16.341  1.8505  0.2620  3.1657
 4743SOL     OW25690   4.500   1.955   5.650 -0.0483 -1.1967 -0.3375
 4743SOL    HW125691   4.406   1.974   5.647  0.1485 -0.2652 -0.6993
 4743SOL    HW225692   4.536   2.038   5.678 -2.1311 -0.5498  0.4557
 4744SOL     OW25693   3.341   2.269  12.125 -0.7371  0.3360  0.1171
 4744SOL    HW125694   3.345   2.237  12.215 -2.0203  1.1145  0.4479
 4744SOL    HW225695   3.432   2.249  12.103 -1.0102 -3.1334  2.1341
 4745SOL     OW25696   2.024   0.094   6.166  0.1460  0.2310 -0.1334
 4745SOL    HW125697   1.955   0.057   6.111 -0.7560  0.1484  1.0678
 4745SOL    HW225698   2.098   0.036   6.148 -0.7819 -0.5690 -1.3823
 4746SOL     OW25699   4.228   3.053   6.498  1.0168  0.2192 -0.2880
 4746SOL    HW125700   4.281   2.979   6.469  0.1128 -0.6123  0.2109
 4746SOL    HW225701   4.252   3.051   6.590 -1.4480 -1.2526  0.3388
 4747SOL     OW25702   1.153   1.232  12.542 -0.1438  0.2335  0.4169
 4747SOL    HW125703   1.113   1.160  12.591  0.4943 -1.6942 -1.8808
 4747SOL    HW225704   1.110   1.312  12.572  0.5157  0.6353  0.3047
 4748SOL     OW25705   0.368   1.812   4.579  0.4346 -0.5665 -0.2925
 4748SOL    HW125706   0.446   1.795   4.526 -0.2216  1.1961 -1.8374
 4748SOL    HW225707   0.308   1.855   4.518 -0.2789  0.0726  0.8721
 4749SOL     OW25708   3.333   0.352   0.576  0.1755 -0.4755 -0.0534
 4749SOL    HW125709   3.240   0.329   0.566  0.3913 -1.2634 -0.2564
 4749SOL    HW225710   3.351   0.285   0.642 -1.1331 -0.1341  0.6527
 4750SOL     OW25711   2.014   2.098  12.071  0.0276 -0.1211 -0.1764
 4750SOL    HW125712   2.024   2.007  12.098 -2.2899 -1.2139 -3.0172
 4750SOL    HW225713   2.064   2.133  12.145 -1.9317  0.8383  0.7002
 4751SOL     OW25714   3.355   4.310   7.348  0.0897 -0.2850 -0.2472
 4751SOL    HW125715   3.422   4.242   7.336  1.0446  0.5573  0.3270
 4751SOL    HW225716   3.404   4.339   7.425  3.6555 -1.3480 -2.0744
 4752SOL     OW25717   3.332   4.596   8.474  0.2222 -0.1192  0.3021
 4752SOL    HW125718   3.402   4.648   8.514 -1.5484  1.2150  1.6961
 4752SOL    HW225719   3.372   4.511   8.460 -1.1681 -0.3728 -2.1765
 4753SOL     OW25720   3.208   0.730  17.257  0.0462 -0.0764 -0.0020
 4753SOL    HW125721   3.295   0.722  17.296 -1.3425 -1.1615  2.8603
 4753SOL    HW225722   3.162   0.664  17.310  0.5337  0.4444  1.0752
 4754SOL     OW25723   4.291   1.489   7.912 -0.3007  0.0917 -0.2607
 4754SOL    HW125724   4.231   1.510   7.984 -0.8622 -0.6071 -0.5133
 4754SOL    HW225725   4.357   1.558   7.916 -2.3922  2.1103 -0.2628
 4755SOL     OW25726   3.815   3.883   9.392 -0.3110 -0.1212  0.1870
 4755SOL    HW125727   3.819   3.794   9.357 -3.4410 -0.3812  0.4875
 4755SOL    HW225728   3.723   3.885   9.419  0.5012  0.7404  2.8963
 4756SOL     OW25729   3.302   1.925   8.384  0.7944 -0.3343  0.0170
 4756SOL    HW125730   3.379   1.898   8.334  1.2820  1.5720 -0.2835
 4756SOL    HW225731   3.228   1.931   8.323  2.3454 -1.2179 -1.9496
 4757SOL     OW25732   4.232   2.528   3.073 -0.0769 -0.6179 -0.3249
 4757SOL    HW125733   4.295   2.552   3.005 -2.1914 -0.9111 -2.3812
 4757SOL    HW225734   4.159   2.583   3.045  0.5586  1.5198  2.2150
 4758SOL     OW25735   1.237   2.817   3.626 -0.4253 -0.2953 -0.2426
 4758SOL    HW125736   1.203   2.804   3.715 -1.9467  0.9606 -0.6294
 4758SOL    HW225737   1.241   2.913   3.624  1.3662 -0.3199  1.9834
 4759SOL     OW25738   0.538   2.438   7.208  0.0396 -0.0750  0.5828
 4759SOL    HW125739   0.573   2.518   7.169  1.1947 -1.3920 -1.0706
 4759SOL    HW225740   0.451   2.469   7.232 -0.0718 -1.7744  2.3248
 4760SOL     OW25741   1.489   3.950   2.297  0.2330 -0.6397 -0.7978
 4760SOL    HW125742   1.507   3.857   2.315 -0.1678 -1.0316 -2.4087
 4760SOL    HW225743   1.455   3.939   2.208 -2.6246 -0.2603  0.2598
 4761SOL     OW25744   3.613   4.336   2.280 -0.1215  0.2356 -0.2937
 4761SOL    HW125745   3.635   4.281   2.205 -0.6839 -0.2375 -0.1119
 4761SOL    HW225746   3.548   4.284   2.328 -0.7311  3.3677  2.2405
 4762SOL     OW25747   2.992   0.181  16.652  0.1824 -0.6140 -0.1050
 4762SOL    HW125748   3.042   0.255  16.619 -1.1876  0.8943  1.2006
 4762SOL    HW225749   2.908   0.226  16.648  0.3520 -0.0497  2.7204
 4763SOL     OW25750   0.577   2.888   5.019  0.2070  0.3443  0.3343
 4763SOL    HW125751   0.662   2.923   4.992  0.5128 -0.5952  0.0707
 4763SOL    HW225752   0.598   2.795   5.032  0.8747  0.3464 -0.7066
 4764SOL     OW25753   1.003   1.988   8.123 -0.4199  0.5565 -0.1081
 4764SOL    HW125754   0.983   2.076   8.093 -1.3335 -0.7251 -3.2642
 4764SOL    HW225755   1.084   1.977   8.073 -0.7043  3.0776 -1.0983
 4765SOL     OW25756   2.993   0.825  10.345 -0.1114 -0.2811 -0.1653
 4765SOL    HW125757   2.987   0.732  10.368  0.2905 -0.1350  0.5084
 4765SOL    HW225758   3.068   0.828  10.285  1.3534 -4.1918  1.4856
 4766SOL     OW25759   3.647   2.586   6.057 -0.1275 -0.4200 -0.4547
 4766SOL    HW125760   3.658   2.498   6.092 -2.2405  0.1006  1.5594
 4766SOL    HW225761   3.628   2.638   6.135  0.3544  1.3809 -1.5257
 4767SOL     OW25762   1.896   1.600   4.447 -0.5263 -0.3067  0.1966
 4767SOL    HW125763   1.971   1.548   4.417 -1.1025 -0.3774 -1.1365
 4767SOL    HW225764   1.854   1.542   4.510 -1.9954 -2.0270 -2.3447
 4768SOL     OW25765   0.685   0.018  10.212 -0.1005 -0.0031 -0.3617
 4768SOL    HW125766   0.729   4.657  10.189 -0.9738 -0.4463 -0.4137
 4768SOL    HW225767   0.675   0.013  10.307  0.4775  0.7841 -0.2557
 4769SOL     OW25768   2.675   0.928   3.777  0.3897 -0.1396  0.0012
 4769SOL    HW125769   2.693   0.894   3.689 -0.1118  0.7780 -0.4642
 4769SOL    HW225770   2.705   1.019   3.771  0.7119 -0.1306  1.9360
 4770SOL     OW25771   1.544   0.285   8.745  0.0336  0.0908  0.6655
 4770SOL    HW125772   1.491   0.339   8.803  2.0685  1.0057  1.6386
 4770SOL    HW225773   1.530   0.198   8.782 -2.7475  0.2620  0.0440
 4771SOL     OW25774   0.462   0.101   1.828 -0.2728  0.3206  0.4949
 4771SOL    HW125775   0.488   0.078   1.739  0.1003  1.4793  0.2970
 4771SOL    HW225776   0.547   0.111   1.873 -0.2430 -1.8963  0.9064
 4772SOL     OW25777   3.736   1.717   5.198  0.4965  0.7526  0.1169
 4772SOL    HW125778   3.667   1.705   5.132  0.7882  1.8765 -0.4093
 4772SOL    HW225779   3.684   1.728   5.277 -0.6735  2.9080 -0.9385
 4773SOL     OW25780   4.114   1.504   9.874  0.8105 -0.4539  0.5704
 4773SOL    HW125781   4.052   1.431   9.884 -1.2751  1.0796 -1.2528
 4773SOL    HW225782   4.164   1.481   9.796  0.9255  3.7302 -0.5789
 4774SOL     OW25783   1.977   3.924   9.944  0.2179 -0.1981  0.4584
 4774SOL    HW125784   1.921   3.849   9.964  0.2362 -0.4480 -0.4321
 4774SOL    HW225785   1.927   3.992   9.988  0.0234 -0.6682  0.9595
 4775SOL     OW25786   4.171   2.808   2.583 -0.0482  0.2037 -0.1532
 4775SOL    HW125787   4.098   2.859   2.616  0.5009  1.6278 -1.1417
 4775SOL    HW225788   4.233   2.880   2.568  1.7400 -1.2972  0.0063
 4776SOL     OW25789   0.684   4.244  14.862  0.5086  0.0189 -0.3684
 4776SOL    HW125790   0.647   4.248  14.950 -3.3195 -1.3637 -1.9221
 4776SOL    HW225791   0.649   4.162  14.828  1.8239 -1.4416  1.7812
 4777SOL     OW25792   3.091   0.718   6.558 -0.2289 -0.6128  1.1423
 4777SOL    HW125793   3.130   0.654   6.498 -1.5225 -1.2169  0.9418
 4777SOL    HW225794   3.088   0.795   6.502  1.4849 -2.0446 -0.9677
 4778SOL     OW25795   0.270   2.866   4.982 -0.2778  0.2328  0.1565
 4778SOL    HW125796   0.227   2.826   4.906 -1.6596  2.1066 -0.0390
 4778SOL    HW225797   0.335   2.798   4.998  1.6447  1.7261 -1.4174
 4779SOL     OW25798   0.722   0.129   3.335 -0.4442  0.1121 -0.3498
 4779SOL    HW125799   0.656   0.195   3.310  0.1477  1.1408  0.7671
 4779SOL    HW225800   0.684   0.046   3.308 -0.0264 -0.0607 -0.4013
 4780SOL     OW25801   3.898   3.744  10.068  0.0871 -0.2855 -0.4304
 4780SOL    HW125802   3.978   3.769  10.113 -1.3496 -0.3942  2.1804
 4780SOL    HW225803   3.899   3.653  10.097  1.2972  0.5190  2.0657
 4781SOL     OW25804   1.610   0.522   2.884 -0.3916 -0.4708 -0.5456
 4781SOL    HW125805   1.570   0.437   2.864 -1.3955 -0.2445  0.5199
 4781SOL    HW225806   1.542   0.585   2.859 -1.5489 -0.9343  1.4560
 4782SOL     OW25807   4.003   1.982   2.535 -0.2911 -0.1308 -0.1690
 4782SOL    HW125808   3.910   1.965   2.521 -0.2726  1.1465 -1.9063
 4782SOL    HW225809   4.034   1.930   2.609 -1.5649  0.2327  0.6225
 4783SOL     OW25810   0.053   1.198   1.431  0.1997 -0.2287 -0.3142
 4783SOL    HW125811   0.064   1.146   1.352  1.1351  1.0382 -1.0252
 4783SOL    HW225812   0.059   1.284   1.389  0.3376 -1.1850 -2.2379
 4784SOL     OW25813   1.674   2.284  15.252  0.1118  0.4771 -0.0126
 4784SOL    HW125814   1.641   2.319  15.335 -0.9232  1.2669 -0.7443
 4784SOL    HW225815   1.631   2.199  15.249  3.5019 -1.2089 -0.5528
 4785SOL     OW25816   4.637   3.438   8.994  0.0789  0.4089 -0.4652
 4785SOL    HW125817   4.547   3.470   8.990 -0.1336  0.0237  1.1946
 4785SOL    HW225818   4.684   3.516   8.967 -0.2281  0.4926 -0.7583
 4786SOL     OW25819   3.688   0.839   8.395  0.7257  0.4172  0.1887
 4786SOL    HW125820   3.773   0.809   8.365  0.6956  3.1836 -2.6326
 4786SOL    HW225821   3.675   0.929   8.363  1.3071  0.3240 -0.2842
 4787SOL     OW25822   0.962   0.172   8.904  0.0887 -0.0124  0.2224
 4787SOL    HW125823   0.867   0.163   8.896  0.2141 -1.4039  0.1567
 4787SOL    HW225824   0.974   0.134   8.992  3.0310 -1.3819 -0.7590
 4788SOL     OW25825   1.394   1.236   6.116 -0.3251 -0.3167  0.6475
 4788SOL    HW125826   1.474   1.184   6.114  0.1125  0.2566  2.6998
 4788SOL    HW225827   1.379   1.256   6.209 -0.0307  0.3819  0.5441
 4789SOL     OW25828   1.855   0.855   2.233  0.3253  0.3049 -0.2868
 4789SOL    HW125829   1.923   0.822   2.175  0.2651  0.9074 -0.6973
 4789SOL    HW225830   1.913   0.870   2.308  0.0819 -1.3690  0.2354
 4790SOL     OW25831   3.573   3.566   5.826  0.1062 -0.0017 -0.3466
 4790SOL    HW125832   3.588   3.522   5.742  1.3878 -0.1215 -0.0648
 4790SOL    HW225833   3.546   3.492   5.880 -1.7683 -0.1392 -1.4772
 4791SOL     OW25834   3.818   0.394  15.951  0.2175  0.0423 -0.0934
 4791SOL    HW125835   3.856   0.479  15.974 -0.4025  0.3999 -0.4051
 4791SOL    HW225836   3.730   0.421  15.925 -0.0694 -1.7637 -0.9707
 4792SOL     OW25837   1.833   0.080  16.267  0.3003  0.4732 -0.5219
 4792SOL    HW125838   1.765   0.142  16.243 -0.3081  1.0850  2.7865
 4792SOL    HW225839   1.826   0.032  16.184 -1.2506  0.3935 -0.3438
 4793SOL     OW25840   4.579   3.070   5.729 -0.4549  0.1657  0.4680
 4793SOL    HW125841   4.526   2.993   5.749 -0.7125 -0.2901 -2.0064
 4793SOL    HW225842   4.666   3.040   5.757  0.6769  0.8687 -2.2136
 4794SOL     OW25843   1.155   3.035   6.340 -0.4165 -0.4441  0.2507
 4794SOL    HW125844   1.090   3.097   6.306  0.2752 -0.1200 -0.4917
 4794SOL    HW225845   1.125   3.019   6.429  0.8327  2.0390  1.1174
 4795SOL     OW25846   3.309   0.988  16.651 -0.6759 -0.1639 -0.0706
 4795SOL    HW125847   3.386   0.940  16.679  0.4988  0.5874 -1.9872
 4795SOL    HW225848   3.332   1.081  16.656  2.4599 -1.1793  3.8803
 4796SOL     OW25849   3.329   0.736   5.148  0.0608 -0.0141  0.1507
 4796SOL    HW125850   3.374   0.802   5.201 -1.3799  1.0317  0.0801
 4796SOL    HW225851   3.237   0.761   5.136  0.1640 -0.0561 -0.7408
 4797SOL     OW25852   1.963   0.034   2.714 -0.2749  0.2246 -0.1932
 4797SOL    HW125853   1.969   0.129   2.698  0.4123 -0.0212 -1.4483
 4797SOL    HW225854   1.954   0.004   2.623  1.4326 -0.3857 -0.1533
 4798SOL     OW25855   4.718   3.468   5.535  0.6824 -0.1481 -0.6069
 4798SOL    HW125856   4.667   3.429   5.464 -0.6124 -0.2587  0.3923
 4798SOL    HW225857   4.668   3.433   5.609  2.3847  0.7217  0.9642
 4799SOL     OW25858   1.313   2.981   7.727  0.3443  0.3019 -0.3123
 4799SOL    HW125859   1.407   2.965   7.733 -0.0997 -2.1733  0.1841
 4799SOL    HW225860   1.305   3.074   7.705 -0.8499  0.1604 -0.4690
 4800SOL     OW25861   3.978   3.239   7.530 -0.5446  0.0340 -0.3539
 4800SOL    HW125862   3.996   3.182   7.605 -2.5724 -1.4453 -1.0004
 4800SOL    HW225863   3.883   3.240   7.519 -0.3188  0.7817 -2.1662
 4801SOL     OW25864   4.562   3.609   0.828  0.0475  0.2263  0.0416
 4801SOL    HW125865   4.515   3.529   0.807 -0.4289  0.1638  1.3805
 4801SOL    HW225866   4.650   3.579   0.850  0.4015 -0.2876 -2.1260
 4802SOL     OW25867   0.221   2.523   6.940 -0.2277  0.2076  0.6204
 4802SOL    HW125868   0.298   2.579   6.952  0.6234 -0.3610 -2.3003
 4802SOL    HW225869   0.252   2.472   6.866  5.9075  1.3299  2.3702
 4803SOL     OW25870   4.452   1.307   8.247 -0.4788  0.1065 -0.0541
 4803SOL    HW125871   4.390   1.356   8.301 -0.6831 -0.4645  0.2254
 4803SOL    HW225872   4.431   1.216   8.266  0.3899 -0.1216 -0.1749
 4804SOL     OW25873   1.956   0.272   3.732  0.0609 -0.3897  0.1959
 4804SOL    HW125874   1.875   0.314   3.760  0.3876 -0.2707  0.9619
 4804SOL    HW225875   2.007   0.269   3.813  0.5509  2.0865 -0.0191
 4805SOL     OW25876   2.503   4.341   3.461 -0.2791 -0.2170 -0.4099
 4805SOL    HW125877   2.589   4.300   3.472 -0.8062 -0.3824  2.8432
 4805SOL    HW225878   2.493   4.367   3.552  0.2971  1.2192 -0.7510
 4806SOL     OW25879   0.924   0.616  10.192 -0.1987 -0.1899  0.0787
 4806SOL    HW125880   0.947   0.596  10.283 -0.1739  0.5421  0.2297
 4806SOL    HW225881   0.887   0.535  10.156 -0.6587 -0.2763  0.7271
 4807SOL     OW25882   1.765   2.154  10.012 -0.1486  0.7212 -0.0306
 4807SOL    HW125883   1.794   2.142  10.102  0.7640 -0.9885 -0.5382
 4807SOL    HW225884   1.709   2.231  10.013 -0.8968  0.1862 -0.5913
 4808SOL     OW25885   3.098   2.470   3.810 -0.0301 -0.3968 -0.4067
 4808SOL    HW125886   3.172   2.454   3.751  0.3633 -0.5040  0.1210
 4808SOL    HW225887   3.083   2.383   3.845  2.4030 -0.8130 -0.3988
 4809SOL     OW25888   4.327   1.493   8.402 -0.2101 -0.2155 -0.1152
 4809SOL    HW125889   4.245   1.473   8.448  0.0190  3.1278  1.7705
 4809SOL    HW225890   4.384   1.521   8.474 -0.0195 -1.4938  0.2240
 4810SOL     OW25891   1.377   1.840   8.827  0.1529 -0.1371 -0.0366
 4810SOL    HW125892   1.318   1.782   8.780  2.0946 -0.4697 -2.0758
 4810SOL    HW225893   1.315   1.883   8.885 -1.9406 -2.4102 -0.5858
 4811SOL     OW25894   1.200   2.833   8.107 -0.4913  0.8027 -0.1963
 4811SOL    HW125895   1.197   2.747   8.064 -0.4859  0.5171  0.3818
 4811SOL    HW225896   1.255   2.883   8.047 -0.3008  0.3034 -0.4433
 4812SOL     OW25897   0.354   1.659  15.425  0.5273  0.2285 -0.7642
 4812SOL    HW125898   0.348   1.649  15.520  2.1380 -0.4480 -0.7291
 4812SOL    HW225899   0.381   1.751  15.420 -0.6874  0.5064 -2.2638
 4813SOL     OW25900   3.673   4.360   6.057  0.4238 -0.3648  0.0151
 4813SOL    HW125901   3.742   4.400   6.004  0.9542 -0.5472  0.5749
 4813SOL    HW225902   3.599   4.421   6.051  0.5234 -0.3285 -0.9655
 4814SOL     OW25903   0.735   3.758   5.462  0.1720 -0.1280  0.3334
 4814SOL    HW125904   0.703   3.670   5.444  0.4368 -0.2324  0.3744
 4814SOL    HW225905   0.777   3.751   5.547 -0.9401  0.5159  0.9255
 4815SOL     OW25906   1.527   0.325   0.265  0.4124 -0.5978 -0.2479
 4815SOL    HW125907   1.568   0.381   0.332  1.2407 -1.5725  0.0654
 4815SOL    HW225908   1.498   0.397   0.209 -1.4784  0.6270  2.3024
 4816SOL     OW25909   0.369   3.978  10.145 -0.1571  0.6934 -0.2700
 4816SOL    HW125910   0.443   3.981  10.085  0.2650 -2.2914  0.1055
 4816SOL    HW225911   0.350   4.072  10.154  0.7837  0.8153  0.5129
 4817SOL     OW25912   3.463   0.196   2.013  0.3076  0.3858 -0.6451
 4817SOL    HW125913   3.389   0.253   2.033  0.8494  0.2367  1.8175
 4817SOL    HW225914   3.541   0.251   2.007  1.1721 -0.8558 -0.8696
 4818SOL     OW25915   0.679   0.684   6.481 -0.2038  0.0376  0.5303
 4818SOL    HW125916   0.676   0.654   6.390  5.0461  4.0888 -0.9469
 4818SOL    HW225917   0.740   0.616   6.506 -0.6751 -0.2437  0.8979
 4819SOL     OW25918   1.151   0.571  17.035 -0.1127 -0.0525  0.1346
 4819SOL    HW125919   1.133   0.483  17.000  0.4289 -1.2329  2.8248
 4819SOL    HW225920   1.244   0.582  17.016  0.0197 -0.3529  0.6008
 4820SOL     OW25921   0.543   0.617   7.289  0.1929 -0.0273  1.2085
 4820SOL    HW125922   0.548   0.522   7.281  0.1467 -0.1073  2.0473
 4820SOL    HW225923   0.449   0.633   7.285  0.4883  1.8608  1.8786
 4821SOL     OW25924   2.275   1.797   4.000  0.4484 -0.5286  0.6602
 4821SOL    HW125925   2.347   1.735   3.985 -0.0911 -1.1663  0.7295
 4821SOL    HW225926   2.252   1.823   3.911  0.9821  0.5460  0.8255
 4822SOL     OW25927   4.503   3.909  16.506  0.0979 -0.4334 -0.0827
 4822SOL    HW125928   4.536   3.824  16.478  0.3227 -0.6529  0.8558
 4822SOL    HW225929   4.490   3.895  16.599 -2.3781 -0.4033 -0.4011
 4823SOL     OW25930   2.352   1.387   6.388  0.9711 -0.0279 -0.4975
 4823SOL    HW125931   2.417   1.458   6.387  0.4870  0.4229 -0.2080
 4823SOL    HW225932   2.309   1.393   6.303 -0.6432  0.6656  0.3742
 4824SOL     OW25933   4.697   2.171  13.410 -0.2675  0.1553 -0.3964
 4824SOL    HW125934   4.640   2.217  13.471 -1.0830 -1.7081  0.2568
 4824SOL    HW225935   4.673   2.079  13.401 -0.4990  0.3635 -1.8539
 4825SOL     OW25936   0.506   3.804   8.798  0.0472  0.5697  0.2073
 4825SOL    HW125937   0.481   3.894   8.779 -0.6698  1.0764  3.4302
 4825SOL    HW225938   0.591   3.813   8.842  0.8497  0.0744 -1.2439
 4826SOL     OW25939   4.241   0.952  17.173  0.1032 -0.2154  0.1717
 4826SOL    HW125940   4.177   0.882  17.163 -0.4265  0.3590 -0.3813
 4826SOL    HW225941   4.187   1.017  17.218 -0.7926 -0.6374 -0.2888
 4827SOL     OW25942   0.794   1.978   7.481  0.0096 -0.2536 -0.0152
 4827SOL    HW125943   0.839   2.062   7.488  0.5974 -0.4155 -1.9466
 4827SOL    HW225944   0.724   1.986   7.546 -2.2945  0.5807 -2.6067
 4828SOL     OW25945   0.840   1.722   3.704  0.2113  0.3376  0.5713
 4828SOL    HW125946   0.753   1.737   3.666 -0.7341 -1.3031  2.1228
 4828SOL    HW225947   0.901   1.743   3.633  0.7364  1.4429  1.3454
 4829SOL     OW25948   1.611   2.491  11.447  0.4607 -0.1460  0.2769
 4829SOL    HW125949   1.633   2.521  11.359  0.5340  0.0765  0.3708
 4829SOL    HW225950   1.686   2.441  11.476 -0.2682 -1.0178  0.6610
 4830SOL     OW25951   2.052   1.450   7.303 -0.0726  0.6596  0.0994
 4830SOL    HW125952   2.028   1.539   7.331  0.9414  0.0130  2.9580
 4830SOL    HW225953   1.981   1.436   7.240  0.7173 -0.0377 -0.6340
 4831SOL     OW25954   0.874   1.805   2.085  0.0775  0.2259  0.3393
 4831SOL    HW125955   0.958   1.779   2.123  0.1046 -0.5259 -0.2280
 4831SOL    HW225956   0.893   1.897   2.101  2.0168  0.1847 -1.7550
 4832SOL     OW25957   3.854   2.969  16.826  0.0520 -0.5503 -0.1097
 4832SOL    HW125958   3.845   3.012  16.910 -0.3490 -1.4872  0.3278
 4832SOL    HW225959   3.917   3.032  16.791 -0.2774  1.1456  2.3483
 4833SOL     OW25960   3.238   3.946  17.032  0.0535  0.1978 -0.7510
 4833SOL    HW125961   3.228   3.977  16.942  0.0683  1.3925 -0.3381
 4833SOL    HW225962   3.178   3.871  17.031 -2.1712  1.9901 -1.3454
 4834SOL     OW25963   1.636   0.968   5.080 -0.2471 -0.3600 -0.0522
 4834SOL    HW125964   1.550   0.931   5.099 -1.8423  1.8911 -3.1508
 4834SOL    HW225965   1.686   0.897   5.122  1.1239 -0.3008 -1.5768
 4835SOL     OW25966   4.574   4.566   6.163  0.0967 -0.1320 -0.3011
 4835SOL    HW125967   4.614   4.587   6.079  2.2905  1.6680  1.1851
 4835SOL    HW225968   4.549   4.654   6.192 -1.6833 -0.4805 -0.7864
 4836SOL     OW25969   3.732   0.076  17.506  0.2659  0.2988 -0.4779
 4836SOL    HW125970   3.729   0.141  17.575  0.2710  1.1614 -1.2953
 4836SOL    HW225971   3.686   0.126  17.439  0.2648  0.1126 -0.6187
 4837SOL     OW25972   3.796   2.074   0.146 -0.1095 -0.4571 -0.0218
 4837SOL    HW125973   3.764   2.043   0.061 -0.2914  1.6813 -0.7294
 4837SOL    HW225974   3.886   2.098   0.124 -0.4121 -0.1046 -0.8828
 4838SOL     OW25975   0.257   3.064   7.308 -0.6799  0.5167 -0.4168
 4838SOL    HW125976   0.273   3.149   7.347 -0.6387  0.6672 -0.7652
 4838SOL    HW225977   0.319   3.057   7.236  0.4585  1.1289  0.5122
 4839SOL     OW25978   1.983   1.725   2.681 -0.5972  0.6216  0.0301
 4839SOL    HW125979   2.037   1.715   2.759 -1.0921  0.2001  0.3228
 4839SOL    HW225980   2.049   1.749   2.616 -2.1037  1.2902 -1.2661
 4840SOL     OW25981   3.009   1.694  13.100 -0.9061  0.0135  0.4257
 4840SOL    HW125982   2.988   1.666  13.010  1.4899  2.9858 -1.0412
 4840SOL    HW225983   3.029   1.784  13.075 -1.1648 -0.1955 -0.5326
 4841SOL     OW25984   4.710   4.481  10.231 -0.0565 -0.5352  0.6164
 4841SOL    HW125985   4.628   4.518  10.263  0.9347  1.1824  1.1851
 4841SOL    HW225986   0.052   4.535  10.278  0.8354  0.8412 -2.1717
 4842SOL     OW25987   4.205   1.907   8.564 -0.2288  0.4781  0.3379
 4842SOL    HW125988   4.288   1.949   8.590  0.8701 -0.7414 -1.1924
 4842SOL    HW225989   4.171   1.891   8.652  0.4388 -2.7047  0.0305
 4843SOL     OW25990   0.218   1.748   3.002 -0.2804 -0.0863  0.1204
 4843SOL    HW125991   0.297   1.783   3.043 -0.5583  1.8016 -0.9750
 4843SOL    HW225992   0.159   1.821   3.024 -0.5818  0.1073 -1.3725
 4844SOL     OW25993   1.228   2.374   8.679  0.0965  0.3390  0.0609
 4844SOL    HW125994   1.200   2.354   8.589 -1.1084 -1.6218  0.8852
 4844SOL    HW225995   1.323   2.377   8.681  0.0692  0.5800  0.9027
 4845SOL     OW25996   0.314   4.536  17.020 -0.0018  0.3150  0.0718
 4845SOL    HW125997   0.374   4.570  17.087  0.9286  0.9432 -1.0855
 4845SOL    HW225998   0.344   4.592  16.949 -0.4729 -1.0130 -1.1640
 4846SOL     OW25999   0.648   1.139   5.416  0.4200 -0.2754  0.0310
 4846SOL    HW126000   0.721   1.077   5.415  1.7101  1.2116  3.0744
 4846SOL    HW226001   0.640   1.155   5.322  0.9419  2.7528  0.4921
 4847SOL     OW26002   0.097   0.523   2.956  0.2593  0.1063 -1.0481
 4847SOL    HW126003   0.048   0.550   3.033  0.6058  0.4149 -0.9359
 4847SOL    HW226004   0.057   0.573   2.884  1.1154  1.6522 -0.4497
 4848SOL     OW26005   3.618   2.221  12.130  0.5405  0.5906 -0.1377
 4848SOL    HW126006   3.643   2.195  12.218  1.8227 -0.0073 -0.6855
 4848SOL    HW226007   3.611   2.144  12.073  0.0993 -1.4624  2.7054
 4849SOL     OW26008   1.022   3.364   4.370  0.1212  0.3677  0.4980
 4849SOL    HW126009   1.072   3.287   4.344  2.5842  1.9924  0.4618
 4849SOL    HW226010   1.098   3.411   4.404  1.5152 -1.5755  0.0960
 4850SOL     OW26011   3.476   3.373  15.134  0.0389 -0.0209 -0.3002
 4850SOL    HW126012   3.493   3.281  15.156 -0.1560  0.6286  2.6344
 4850SOL    HW226013   3.489   3.422  15.215  1.0483  1.3820 -1.3286
 4851SOL     OW26014   1.030   3.801  10.576 -0.4726 -0.3066 -0.0002
 4851SOL    HW126015   1.009   3.797  10.483  0.8597 -2.6033 -0.1844
 4851SOL    HW226016   0.943   3.796  10.615 -0.6160  2.7495  0.0966
 4852SOL     OW26017   3.216   2.360  17.538 -0.5952  0.1660  0.0690
 4852SOL    HW126018   3.214   2.267  17.560 -0.2812  0.0228 -0.5276
 4852SOL    HW226019   3.175   2.386  17.621  0.7163  1.0225  0.4468
 4853SOL     OW26020   2.419   0.769   6.246  0.5608 -0.5867 -0.4912
 4853SOL    HW126021   2.434   0.696   6.306 -2.8728 -0.2825  0.7507
 4853SOL    HW226022   2.482   0.737   6.181 -0.1723 -1.7553 -0.6371
 4854SOL     OW26023   1.956   4.690   3.535  0.5357 -0.1006  0.1550
 4854SOL    HW126024   1.985   0.060   3.540 -0.2150  0.1195  0.5489
 4854SOL    HW226025   1.979   4.663   3.624  0.7959  4.2523  1.4134
 4855SOL     OW26026   1.468   3.481   3.698  0.4222 -0.5234 -0.3693
 4855SOL    HW126027   1.551   3.524   3.683  1.3339 -2.3169 -0.4621
 4855SOL    HW226028   1.438   3.461   3.609 -0.7714 -1.6954  0.2777
 4856SOL     OW26029   2.910   1.201   2.788 -0.6783  0.4499  0.0454
 4856SOL    HW126030   2.995   1.243   2.772 -1.0492  0.9906 -0.5159
 4856SOL    HW226031   2.928   1.111   2.761  0.8449  0.2538  1.7293
 4857SOL     OW26032   2.412   0.254  14.232  0.3085  0.1788  0.8052
 4857SOL    HW126033   2.499   0.279  14.202 -0.1066 -0.9670 -1.3455
 4857SOL    HW226034   2.430   0.203  14.311 -1.7711  1.9643  2.4608
 4858SOL     OW26035   4.203   3.762   8.803 -0.2197  0.3560 -0.5972
 4858SOL    HW126036   4.265   3.825   8.766 -0.7467  1.0392 -0.3121
 4858SOL    HW226037   4.208   3.783   8.897  1.9894 -0.9115 -0.4414
 4859SOL     OW26038   2.159   2.715   5.086  0.3937  0.5670 -0.1060
 4859SOL    HW126039   2.094   2.654   5.051  1.5122 -0.8971  0.3868
 4859SOL    HW226040   2.238   2.665   5.063  1.7143  2.6812 -0.1940
 4860SOL     OW26041   3.657   2.255   2.572 -0.5416 -0.0406 -0.1910
 4860SOL    HW126042   3.750   2.239   2.589 -0.4170  0.8928  0.0153
 4860SOL    HW226043   3.632   2.191   2.505  1.0237 -2.3074  1.4033
 4861SOL     OW26044   2.696   4.175   0.634  0.5550  0.3438  0.6136
 4861SOL    HW126045   2.662   4.111   0.571  2.2183 -0.3382  0.4167
 4861SOL    HW226046   2.778   4.129   0.648 -0.6855 -2.5370 -1.6478
 4862SOL     OW26047   2.480   4.583   2.122  0.0236  0.3303 -0.4153
 4862SOL    HW126048   2.467   4.673   2.152 -3.5781  0.4353 -2.2916
 4862SOL    HW226049   2.575   4.575   2.124 -0.0841 -0.5761  0.7080
 4863SOL     OW26050   2.348   2.814   0.642 -0.1820 -0.4942  0.2395
 4863SOL    HW126051   2.307   2.901   0.638  0.3206 -0.3909 -2.6346
 4863SOL    HW226052   2.403   2.821   0.564  1.7180 -0.7786  1.5586
 4864SOL     OW26053   0.433   0.381   6.113  0.3453 -0.3190  0.5213
 4864SOL    HW126054   0.522   0.357   6.087 -0.5535 -1.0219 -1.8507
 4864SOL    HW226055   0.373   0.338   6.053  3.0628 -3.8011  0.2742
 4865SOL     OW26056   4.116   0.001   8.499 -0.5999 -0.1197  0.0379
 4865SOL    HW126057   4.115   0.066   8.569 -1.1402 -0.4419  0.3209
 4865SOL    HW226058   4.205   4.686   8.512  0.1012  1.4896 -0.3964
 4866SOL     OW26059   4.498   0.839   8.272 -0.2414 -0.0290  0.2507
 4866SOL    HW126060   4.423   0.891   8.304 -0.2472 -0.3175  0.7066
 4866SOL    HW226061   4.537   0.890   8.201  0.0748  1.2696  1.3640
 4867SOL     OW26062   2.844   2.039  15.157 -0.2456  0.0478  0.3039
 4867SOL    HW126063   2.927   2.086  15.149  0.3407 -0.8551  1.0834
 4867SOL    HW226064   2.812   2.037  15.067 -0.0157 -0.4247  0.2306
 4868SOL     OW26065   2.020   2.393   8.255  0.2259  0.2571  0.4181
 4868SOL    HW126066   1.955   2.324   8.243 -0.9124  0.9956  2.3407
 4868SOL    HW226067   2.093   2.354   8.206 -1.3936 -2.2503 -0.0096
 4869SOL     OW26068   0.620   0.411   3.347  0.2453 -0.0259  0.1321
 4869SOL    HW126069   0.556   0.372   3.406  0.2834  0.9897  0.8403
 4869SOL    HW226070   0.641   0.495   3.388  0.0718  0.2808 -0.4008
 4870SOL     OW26071   0.758   2.484   1.265 -0.5477 -0.1684  0.0934
 4870SOL    HW126072   0.789   2.401   1.228 -1.4099 -0.3544 -0.2073
 4870SOL    HW226073   0.754   2.457   1.357 -0.4661 -2.7168 -0.6467
 4871SOL     OW26074   0.344   0.224   8.129  0.2049  0.5633  0.0105
 4871SOL    HW126075   0.347   0.255   8.219  0.5804  1.7248 -0.3984
 4871SOL    HW226076   0.412   0.156   8.127 -0.6941 -0.3344 -0.1829
 4872SOL     OW26077   4.441   2.762   3.221 -0.3562  0.1301  0.0812
 4872SOL    HW126078   4.393   2.761   3.138  0.1734  0.3802 -0.2242
 4872SOL    HW226079   4.442   2.855   3.240  0.1014  0.3705 -1.1452
 4873SOL     OW26080   2.809   3.171   8.839  0.4746 -0.3483 -0.6580
 4873SOL    HW126081   2.842   3.117   8.767 -0.0595 -0.5247 -0.7737
 4873SOL    HW226082   2.853   3.139   8.917 -1.0454  1.7037  1.0203
 4874SOL     OW26083   4.401   0.495   4.016 -0.3600 -0.4649 -0.1501
 4874SOL    HW126084   4.309   0.486   3.991  0.3288 -1.4754 -2.3601
 4874SOL    HW226085   4.426   0.581   3.982 -0.2351 -0.5830 -0.3611
 4875SOL     OW26086   1.998   2.045  11.805 -0.6843  0.0950  0.4377
 4875SOL    HW126087   1.999   2.087  11.891 -0.9277  0.6250  0.1832
 4875SOL    HW226088   1.908   2.016  11.795 -1.2628  0.8204  3.3794
 4876SOL     OW26089   1.139   1.926   2.397  0.1336  0.5088  0.3124
 4876SOL    HW126090   1.116   2.018   2.390  1.6242  0.9172  0.8204
 4876SOL    HW226091   1.066   1.891   2.448 -0.1268  2.0995  1.0295
 4877SOL     OW26092   1.947   4.715   8.283  0.3789 -0.0626 -0.3088
 4877SOL    HW126093   1.992   0.032   8.208 -1.2635 -0.3913 -1.4487
 4877SOL    HW226094   1.854   0.013   8.274  1.0355  1.8898 -2.8744
 4878SOL     OW26095   2.194   4.719   6.430 -0.2389  0.0800  0.1870
 4878SOL    HW126096   2.249   4.709   6.352 -1.4989  2.1130 -0.9622
 4878SOL    HW226097   2.119   4.663   6.414 -0.2293 -0.1560  1.0175
 4879SOL     OW26098   2.025   3.074  10.207  0.3190 -0.0133  0.0691
 4879SOL    HW126099   2.055   3.158  10.240 -2.2674  1.0548 -0.2728
 4879SOL    HW226100   2.023   3.031  10.292  0.6854 -1.1955 -0.5197
 4880SOL     OW26101   1.127   2.318   5.685 -0.1598 -0.8497  0.1692
 4880SOL    HW126102   1.143   2.296   5.777  2.3384 -0.2974 -0.1396
 4880SOL    HW226103   1.166   2.405   5.673  0.3480 -1.0677  0.2529
 4881SOL     OW26104   4.226   2.879   4.915 -0.1710 -0.4078  0.6190
 4881SOL    HW126105   4.214   2.829   4.835 -3.1553 -1.7307  1.9116
 4881SOL    HW226106   4.174   2.959   4.905 -0.2087 -0.5564 -0.3080
 4882SOL     OW26107   3.707   3.008   4.009 -0.1246  0.1046 -0.0096
 4882SOL    HW126108   3.661   3.086   3.980  0.2275  0.4474  0.3601
 4882SOL    HW226109   3.643   2.965   4.065 -1.4846  1.2388 -0.7068
 4883SOL     OW26110   4.255   4.559   7.727  0.1270 -0.3671 -0.1237
 4883SOL    HW126111   4.314   4.506   7.673  0.4192  0.9532 -1.0862
 4883SOL    HW226112   4.218   4.620   7.663  0.4090  0.4674  0.5203
 4884SOL     OW26113   1.928   1.846   6.522 -0.3941  0.3837 -0.6571
 4884SOL    HW126114   1.987   1.775   6.497  1.6075  1.1541  1.8460
 4884SOL    HW226115   1.843   1.803   6.514  0.2588 -0.8137 -1.1129
 4885SOL     OW26116   3.259   4.600   8.029 -0.2246 -0.5794 -0.0938
 4885SOL    HW126117   3.273   4.635   8.117 -1.8450  0.7784 -0.3924
 4885SOL    HW226118   3.188   4.541   8.053 -0.6634 -0.2776 -0.6552
 4886SOL     OW26119   0.871   3.384   7.492  0.0870  0.2299  0.2162
 4886SOL    HW126120   0.777   3.400   7.480  0.0536  0.0318  0.2104
 4886SOL    HW226121   0.898   3.470   7.460 -1.2440  0.6958  0.3653
 4887SOL     OW26122   3.280   2.965   4.386 -0.3697 -0.4743 -0.5235
 4887SOL    HW126123   3.374   2.965   4.367 -0.1720 -0.5631  0.4380
 4887SOL    HW226124   3.268   2.923   4.471 -1.7958  0.2040 -0.3862
 4888SOL     OW26125   1.394   0.971   5.229  0.2364 -0.0946  0.1750
 4888SOL    HW126126   1.361   1.017   5.307 -0.1956  0.2222 -0.1961
 4888SOL    HW226127   1.361   1.022   5.155  0.8975  1.5417  0.9884
 4889SOL     OW26128   0.180   3.739  17.573  0.1953 -0.1010 -0.1580
 4889SOL    HW126129   0.140   3.679  17.510  0.5703 -0.5706  0.0532
 4889SOL    HW226130   0.107   3.769  17.628 -0.7421  1.3120 -2.1638
 4890SOL     OW26131   1.200   3.943   2.174  0.1544  0.6578 -0.3016
 4890SOL    HW126132   1.160   3.997   2.106  0.3812  2.1278  0.7395
 4890SOL    HW226133   1.279   3.919   2.125 -0.7583  0.9895 -1.9190
 4891SOL     OW26134   0.210   4.337   9.150 -0.0071  0.4335  0.2500
 4891SOL    HW126135   0.250   4.258   9.187 -0.0387 -0.5030 -1.7547
 4891SOL    HW226136   0.155   4.361   9.225 -0.7149  0.6998 -0.3570
 4892SOL     OW26137   1.603   2.519   4.920  0.0575  0.0093  0.6502
 4892SOL    HW126138   1.607   2.427   4.947 -0.5051 -0.0688  0.4832
 4892SOL    HW226139   1.594   2.514   4.825 -2.2940  0.8426  0.8317
 4893SOL     OW26140   4.598   4.147   6.055  0.7224 -0.5188 -0.4829
 4893SOL    HW126141   4.664   4.083   6.030  1.1835  0.1556 -0.9934
 4893SOL    HW226142   4.632   4.163   6.143 -0.2810  1.2089 -0.4062
 4894SOL     OW26143   3.836   1.550   6.148  0.3076 -0.2247 -0.3813
 4894SOL    HW126144   3.754   1.590   6.120  1.6066  0.4474 -3.2391
 4894SOL    HW226145   3.809   1.509   6.230  1.7107  0.3040  0.3384
 4895SOL     OW26146   0.771   4.661   5.415  0.2992 -0.3193 -0.2341
 4895SOL    HW126147   0.744   4.653   5.506 -0.7426  0.4553 -0.4633
 4895SOL    HW226148   0.789   4.573   5.382 -2.2354 -0.9721  0.1326
 4896SOL     OW26149   4.720   0.767  10.196 -0.4381  0.3446  0.2507
 4896SOL    HW126150   0.037   0.805  10.117  0.6865  0.1220  0.6829
 4896SOL    HW226151   4.674   0.698  10.149  0.6568 -1.1328  1.3463
 4897SOL     OW26152   1.997   0.013  17.135 -0.7639  0.4359 -0.0694
 4897SOL    HW126153   1.918   4.692  17.169  1.1152 -1.7936  1.5268
 4897SOL    HW226154   1.966   0.103  17.123  0.8766  1.0794  0.5993
 4898SOL     OW26155   3.379   4.647   3.819  0.4275 -0.2314  0.1234
 4898SOL    HW126156   3.473   4.649   3.802  0.3188 -1.0886 -0.5778
 4898SOL    HW226157   3.377   4.701   3.898  0.3819  0.1002 -0.1024
 4899SOL     OW26158   0.572   0.910   3.704  0.2515  0.0698 -0.4088
 4899SOL    HW126159   0.622   0.829   3.690  2.5785  1.2838  0.6749
 4899SOL    HW226160   0.496   0.917   3.648 -0.5047  1.7699  0.8219
 4900SOL     OW26161   0.585   0.930   8.779  0.1564 -0.1865 -0.0286
 4900SOL    HW126162   0.501   0.885   8.770  0.5875 -0.6860 -1.5339
 4900SOL    HW226163   0.584   0.941   8.874  0.1346  1.3985 -0.2145
 4901SOL     OW26164   1.789   3.557   4.542  0.1116 -0.1082 -0.1292
 4901SOL    HW126165   1.849   3.550   4.468  2.2825 -1.1803  1.7726
 4901SOL    HW226166   1.743   3.473   4.546  0.8943 -0.5740 -0.8176
 4902SOL     OW26167   0.628   0.156   7.059 -0.0404  0.6036  0.3949
 4902SOL    HW126168   0.672   0.086   7.106  1.2290  1.8872  1.1352
 4902SOL    HW226169   0.704   0.183   7.007 -0.3059  0.2055 -0.2023
 4903SOL     OW26170   2.974   3.920   2.840 -0.1355  0.3004 -0.3145
 4903SOL    HW126171   2.985   4.007   2.880 -1.5323  0.8231 -1.0696
 4903SOL    HW226172   3.062   3.896   2.810 -0.3264 -0.1484 -0.4978
 4904SOL     OW26173   0.587   2.554   0.277  0.3715 -0.2323  0.1273
 4904SOL    HW126174   0.634   2.550   0.360  0.8022 -0.0408 -0.1086
 4904SOL    HW226175   0.496   2.555   0.306  0.4245 -0.1173  0.2880
 4905SOL     OW26176   0.481   2.904   7.797  0.5568 -0.6703 -0.8891
 4905SOL    HW126177   0.551   2.842   7.776 -0.1664 -1.8364  0.1151
 4905SOL    HW226178   0.454   2.869   7.882  0.5708  0.3056 -0.4893
 4906SOL     OW26179   2.652   1.118   6.594  0.5397  0.1535 -0.6444
 4906SOL    HW126180   2.560   1.097   6.582 -0.0315  2.1312  0.2039
 4906SOL    HW226181   2.653   1.211   6.571  0.3103  0.0266 -1.1596
 4907SOL     OW26182   3.284   3.325   5.341  0.6603 -0.1382 -0.0050
 4907SOL    HW126183   3.277   3.273   5.422 -1.1279 -1.3086 -0.8975
 4907SOL    HW226184   3.348   3.389   5.370  0.2138  0.6465 -0.7546
 4908SOL     OW26185   2.941   2.295   0.235  0.1684 -0.5182  0.2620
 4908SOL    HW126186   3.006   2.228   0.258  0.5127 -0.4011 -0.3865
 4908SOL    HW226187   2.876   2.282   0.304  0.0061 -0.2685  0.1579
 4909SOL     OW26188   1.183   1.273  15.035  0.6246 -0.2347  0.6531
 4909SOL    HW126189   1.253   1.276  15.101 -0.5109  1.7619  1.7726
 4909SOL    HW226190   1.225   1.329  14.969 -2.1753  0.9180 -0.1372
 4910SOL     OW26191   3.412   3.642   3.047  0.2393 -0.1075  0.3376
 4910SOL    HW126192   3.414   3.726   3.094  0.5252 -0.8626  1.6965
 4910SOL    HW226193   3.479   3.659   2.981 -0.6249  2.5831  0.1713
 4911SOL     OW26194   3.681   4.621   4.631  0.2670 -0.1612 -0.2723
 4911SOL    HW126195   3.671   4.535   4.591 -0.8764  0.0405 -0.4350
 4911SOL    HW226196   3.693   4.602   4.724 -3.3402  2.8800  0.8385
 4912SOL     OW26197   4.540   4.592  17.218  0.0797 -0.3592 -0.2515
 4912SOL    HW126198   4.570   4.501  17.213 -2.5837 -1.2282 -0.2146
 4912SOL    HW226199   4.450   4.585  17.187 -0.7823  0.6135  2.0502
 4913SOL     OW26200   1.421   2.583  10.097 -0.0410  0.5110  0.1381
 4913SOL    HW126201   1.347   2.547  10.048 -0.0633 -1.0563  1.3246
 4913SOL    HW226202   1.404   2.672  10.066 -3.6943  0.4189  1.8269
 4914SOL     OW26203   1.237   4.425   1.659  0.1282 -0.5002  0.0613
 4914SOL    HW126204   1.299   4.408   1.588  0.3248  0.1484  0.0708
 4914SOL    HW226205   1.168   4.471   1.610  2.2588  1.8709 -0.7377
 4915SOL     OW26206   2.533   3.437   0.615  0.0890  0.0210 -0.4124
 4915SOL    HW126207   2.604   3.463   0.555  0.1686  0.0633 -0.2994
 4915SOL    HW226208   2.494   3.522   0.631  0.7575 -0.0254  1.4331
 4916SOL     OW26209   3.255   4.172   6.792 -0.7082 -0.4435  0.2562
 4916SOL    HW126210   3.275   4.089   6.837  1.0454  0.4927  1.2184
 4916SOL    HW226211   3.272   4.230   6.866  0.2799  0.3207 -0.5691
 4917SOL     OW26212   0.078   0.131   7.761 -0.0769  0.8824  0.1119
 4917SOL    HW126213   4.715   0.178   7.763 -1.7835 -2.2271  0.9607
 4917SOL    HW226214   0.126   0.184   7.824 -0.7595 -0.2649  1.5846
 4918SOL     OW26215   3.766   0.904   1.419  0.9109  0.1152 -0.2406
 4918SOL    HW126216   3.696   0.886   1.357 -2.2609  0.8339  3.1065
 4918SOL    HW226217   3.784   0.996   1.399 -2.0602  0.7639  0.0494
 4919SOL     OW26218   1.585   3.722   3.469  0.1184 -0.0230  0.0768
 4919SOL    HW126219   1.532   3.799   3.449 -0.3290 -0.8865 -2.1097
 4919SOL    HW226220   1.597   3.685   3.381  0.9086  0.0299  0.1670
 4920SOL     OW26221   0.877   0.838   0.455  0.2952  0.5033 -0.2153
 4920SOL    HW126222   0.912   0.903   0.516 -2.3398 -0.2313  2.0640
 4920SOL    HW226223   0.871   0.887   0.373 -2.8955 -0.2612 -0.4454
 4921SOL     OW26224   0.106   3.730   6.859  0.2923  0.0400 -0.6066
 4921SOL    HW126225   0.150   3.647   6.839  2.6331  1.4595 -1.3284
 4921SOL    HW226226   0.110   3.764   6.770  0.4965 -0.2966 -0.7249
 4922SOL     OW26227   0.478   3.150  10.316  0.2563 -0.0851 -0.5333
 4922SOL    HW126228   0.411   3.197  10.367  1.7303 -0.2944  1.5732
 4922SOL    HW226229   0.542   3.220  10.302  0.1652 -0.1457 -1.2614
 4923SOL     OW26230   3.845   2.947   0.334 -0.1002 -0.4218  0.0253
 4923SOL    HW126231   3.769   2.892   0.353 -1.1168  0.7502 -0.6311
 4923SOL    HW226232   3.805   3.034   0.329  0.7451  0.0027  0.8106
 4924SOL     OW26233   1.567   4.704   5.442  0.6981  0.1386 -1.0103
 4924SOL    HW126234   1.604   0.038   5.373  0.0889 -0.9321 -2.1819
 4924SOL    HW226235   1.477   4.705   5.410 -0.6616 -0.1266  2.8300
 4925SOL     OW26236   1.097   0.421   8.117  0.6704 -0.0246 -0.5403
 4925SOL    HW126237   1.126   0.499   8.166  1.1354 -1.9584  2.2166
 4925SOL    HW226238   1.027   0.451   8.059  0.9795  0.2862 -0.7556
 4926SOL     OW26239   2.046   0.708   4.493 -0.1056  0.4392 -0.1572
 4926SOL    HW126240   2.116   0.743   4.438 -1.3630 -0.9114 -2.6308
 4926SOL    HW226241   2.038   0.776   4.560  1.4719  0.7465 -0.2787
 4927SOL     OW26242   1.960   3.369   3.922  0.4893 -0.5503 -0.2210
 4927SOL    HW126243   1.964   3.452   3.971  1.3128  0.1473 -1.4754
 4927SOL    HW226244   2.038   3.330   3.961  2.5462  3.6637 -0.0547
 4928SOL     OW26245   1.069   4.062  11.386  0.1200 -0.4898 -0.0883
 4928SOL    HW126246   1.141   4.000  11.375  0.1985 -0.6319  1.1600
 4928SOL    HW226247   1.105   4.142  11.348  1.9177 -0.4381  1.7393
 4929SOL     OW26248   1.542   3.078   4.174 -0.2311  0.6935 -0.0652
 4929SOL    HW126249   1.541   3.002   4.233  0.5735  1.3071  0.7476
 4929SOL    HW226250   1.514   3.027   4.098 -0.3173 -0.0625  0.4735
 4930SOL     OW26251   0.327   3.945   7.484 -0.1362 -0.1766 -0.4068
 4930SOL    HW126252   0.338   4.033   7.522  0.8693  0.0138 -1.1418
 4930SOL    HW226253   0.392   3.945   7.413  0.7586 -2.1466  0.4281
 4931SOL     OW26254   3.944   4.111  13.577 -0.2157 -0.0034 -0.0132
 4931SOL    HW126255   4.001   4.188  13.575 -0.0344 -0.1497 -0.3687
 4931SOL    HW226256   3.928   4.100  13.671  0.6088  0.7196  0.2226
 4932SOL     OW26257   2.955   3.056   9.149 -0.6881 -0.3354 -0.1594
 4932SOL    HW126258   2.907   3.136   9.173 -0.3128 -0.1974  0.1322
 4932SOL    HW226259   3.022   3.098   9.095 -0.1576  1.6489  2.0535
 4933SOL     OW26260   1.435   4.123   1.662 -0.1480  0.2234  0.1675
 4933SOL    HW126261   1.509   4.180   1.680 -0.5957  1.2808 -1.4200
 4933SOL    HW226262   1.375   4.196   1.646 -0.9798 -0.2639  1.0563
 4934SOL     OW26263   0.780   3.256   3.296  0.6795  0.1260 -0.2186
 4934SOL    HW126264   0.715   3.292   3.236  0.3003 -1.7399 -0.9172
 4934SOL    HW226265   0.739   3.243   3.381 -0.9230 -2.5123 -1.4203
 4935SOL     OW26266   1.965   0.038  15.482 -0.1077  0.1615  0.5223
 4935SOL    HW126267   1.999   0.121  15.448  0.6985 -0.5024 -0.2919
 4935SOL    HW226268   1.945   0.061  15.573 -0.2695 -0.5051  0.6549
 4936SOL     OW26269   0.685   4.481   5.977 -0.3873 -0.1152  0.4821
 4936SOL    HW126270   0.620   4.422   5.938 -0.5023  0.5855 -0.3735
 4936SOL    HW226271   0.754   4.417   5.992  0.7370  1.6197  2.6567
 4937SOL     OW26272   0.373   4.096   4.470 -0.5974  0.6280 -0.1395
 4937SOL    HW126273   0.386   4.075   4.563  0.2779  2.5846  0.1904
 4937SOL    HW226274   0.461   4.071   4.440 -0.8872 -1.0976  0.4223
 4938SOL     OW26275   3.391   0.985   1.367  0.4632 -0.0766 -0.2032
 4938SOL    HW126276   3.446   1.026   1.300  1.9589  1.0183  1.6792
 4938SOL    HW226277   3.347   0.917   1.316  1.5694 -2.0645  1.5262
 4939SOL     OW26278   1.194   4.157   6.587 -0.2713 -0.3792  0.1395
 4939SOL    HW126279   1.108   4.187   6.615 -0.3292 -0.7230  0.3207
 4939SOL    HW226280   1.235   4.244   6.586 -1.5196  0.1186 -5.6153
 4940SOL     OW26281   0.239   0.415   5.264 -0.1425 -0.5178 -0.0697
 4940SOL    HW126282   0.325   0.375   5.258 -0.6479 -1.6862  0.5168
 4940SOL    HW226283   0.266   0.507   5.270  0.6589 -0.7724  0.1863
 4941SOL     OW26284   1.064   0.494   6.296  0.0569 -0.3801  0.2822
 4941SOL    HW126285   1.010   0.544   6.234  3.1064  0.7663 -1.4735
 4941SOL    HW226286   0.991   0.473   6.354 -0.7590 -2.1181 -1.3986
 4942SOL     OW26287   1.341   1.449   3.028 -0.9366 -0.6721 -0.4505
 4942SOL    HW126288   1.370   1.358   3.038 -0.8269 -0.6371 -0.4584
 4942SOL    HW226289   1.360   1.461   2.935 -0.6254  3.8449  0.1809
 4943SOL     OW26290   0.597   4.259   1.211 -0.0341  0.0711  0.2531
 4943SOL    HW126291   0.517   4.237   1.258  0.9295 -3.0123  0.4467
 4943SOL    HW226292   0.572   4.339   1.165  2.6556  0.2311 -0.9640
 4944SOL     OW26293   4.678   2.963   7.910  0.2499  0.5968 -0.5657
 4944SOL    HW126294   0.012   2.992   7.983 -1.4484 -0.5986  1.1586
 4944SOL    HW226295   4.700   3.018   7.834  0.4433  0.6107 -0.5012
 4945SOL     OW26296   4.281   1.129   1.766 -0.1359  0.4826  0.2089
 4945SOL    HW126297   4.208   1.120   1.827 -0.1302 -0.4993  0.0732
 4945SOL    HW226298   4.312   1.212   1.801 -0.6627  0.7667  0.0091
 4946SOL     OW26299   2.713   1.627  15.473  0.5119 -0.0169 -0.2779
 4946SOL    HW126300   2.626   1.616  15.433 -0.1391 -0.7028  1.3110
 4946SOL    HW226301   2.749   1.700  15.423  1.4753 -0.3073 -0.0021
 4947SOL     OW26302   1.336   0.729   8.366  0.0174  0.1081  0.1204
 4947SOL    HW126303   1.245   0.705   8.351 -0.5929  3.6895 -2.0456
 4947SOL    HW226304   1.380   0.657   8.321  1.8357  0.6268  1.0741
 4948SOL     OW26305   2.973   2.294   5.090 -0.6686 -0.2334 -0.0928
 4948SOL    HW126306   3.029   2.219   5.072  0.6282  0.6155  0.3693
 4948SOL    HW226307   3.026   2.370   5.064  0.3317 -0.9765 -0.2235
 4949SOL     OW26308   1.933   1.589   9.735  0.5986 -0.2835  0.3074
 4949SOL    HW126309   1.859   1.648   9.717  0.6081 -0.3354  0.1029
 4949SOL    HW226310   1.883   1.520   9.779  1.9985 -1.7019 -0.3386
 4950SOL     OW26311   1.586   2.011   8.831 -0.0783  0.1449  0.3735
 4950SOL    HW126312   1.503   1.963   8.832  0.6684 -1.1589 -0.0360
 4950SOL    HW226313   1.556   2.096   8.798  0.6448  0.4485  0.5012
 4951SOL     OW26314   4.121   1.988  11.612  0.1375 -0.9858 -0.9966
 4951SOL    HW126315   4.186   1.939  11.662 -1.3836  1.5085  3.3989
 4951SOL    HW226316   4.155   1.969  11.524 -1.8635 -0.6439 -1.8400
 4952SOL     OW26317   4.625   2.321   4.015  0.0315  0.3689  0.2450
 4952SOL    HW126318   4.643   2.415   4.007  0.1134  0.3546  0.2564
 4952SOL    HW226319   4.709   2.281   4.037 -1.9914 -4.0693 -0.3047
 4953SOL     OW26320   0.265   3.290   9.419 -0.4938  0.4362  0.4024
 4953SOL    HW126321   0.272   3.231   9.344 -2.9615  0.0040  0.5139
 4953SOL    HW226322   0.314   3.239   9.484 -1.4400 -0.4421  0.4264
 4954SOL     OW26323   1.626   4.211  14.831 -0.3838 -0.2988  0.5257
 4954SOL    HW126324   1.556   4.151  14.806 -1.6266  2.0162 -1.5756
 4954SOL    HW226325   1.703   4.154  14.822  0.2863  0.6953 -0.1341
 4955SOL     OW26326   4.031   4.213   9.053  0.4276 -0.1223  0.8067
 4955SOL    HW126327   4.097   4.275   9.083 -1.2774  0.6032  3.0475
 4955SOL    HW226328   4.000   4.197   9.142  0.0589 -2.4843  0.2662
 4956SOL     OW26329   2.494   0.993  14.262 -0.8821 -0.2741 -0.3964
 4956SOL    HW126330   2.448   1.044  14.328  1.0282  1.5389 -0.4874
 4956SOL    HW226331   2.520   0.918  14.315 -3.9389  0.5525  2.3053
 4957SOL     OW26332   1.792   3.097   5.362 -0.0179 -0.3551 -0.1406
 4957SOL    HW126333   1.833   3.032   5.420 -0.6524 -0.4582  0.1876
 4957SOL    HW226334   1.836   3.170   5.405 -0.6917 -0.4325  0.6697
 4958SOL     OW26335   0.048   1.580   7.150 -0.2913 -0.5048  0.0958
 4958SOL    HW126336   0.058   1.552   7.242  1.0757 -1.2189 -0.2705
 4958SOL    HW226337   0.004   1.503   7.114  0.6835 -1.2848  0.5712
 4959SOL     OW26338   2.708   3.606   6.480 -0.4659  0.2328  0.2661
 4959SOL    HW126339   2.624   3.651   6.479  0.6457  2.3319  3.0105
 4959SOL    HW226340   2.689   3.516   6.508 -0.1861  0.2983  0.6627
 4960SOL     OW26341   2.413   3.979   8.805  0.2037  0.5390 -0.1766
 4960SOL    HW126342   2.497   3.997   8.763 -0.8383 -0.6360 -2.7193
 4960SOL    HW226343   2.413   3.888   8.775 -2.1841  0.2468  0.7158
 4961SOL     OW26344   4.146   0.398   8.493  0.4800 -0.3190 -0.4203
 4961SOL    HW126345   4.061   0.440   8.488  0.4963  0.0867  2.6143
 4961SOL    HW226346   4.178   0.408   8.404  0.7667  3.4052  0.0857
 4962SOL     OW26347   3.811   3.685  10.820  0.0097 -0.5254  0.4330
 4962SOL    HW126348   3.795   3.647  10.734 -1.3090 -0.8745  0.8361
 4962SOL    HW226349   3.733   3.737  10.837 -1.2837 -1.8728 -1.5355
 4963SOL     OW26350   4.576   3.348   5.744  0.3146  0.0533 -0.2218
 4963SOL    HW126351   4.565   3.253   5.750 -1.6604  0.2105 -1.3564
 4963SOL    HW226352   4.580   3.372   5.836  1.1135  3.3894 -1.1058
 4964SOL     OW26353   0.416   3.134   5.704  0.7385  0.6026 -0.3065
 4964SOL    HW126354   0.449   3.124   5.615  3.5887  1.5572  0.6269
 4964SOL    HW226355   0.435   3.226   5.724  2.5869  0.0478  0.5094
 4965SOL     OW26356   0.883   0.384   7.568 -0.3519 -0.2224 -0.1911
 4965SOL    HW126357   0.890   0.329   7.490 -1.0081 -0.7468  0.1137
 4965SOL    HW226358   0.912   0.467   7.530  2.2465 -1.0642 -0.0397
 4966SOL     OW26359   1.313   4.597   3.875 -0.2401 -0.1519  0.0677
 4966SOL    HW126360   1.238   4.543   3.899  0.7544 -2.8295 -2.8347
 4966SOL    HW226361   1.375   4.532   3.841 -0.0236 -0.2496  0.6488
 4967SOL     OW26362   3.284   3.487  14.775 -0.0509 -0.2647 -0.0230
 4967SOL    HW126363   3.294   3.393  14.787  1.0149  0.1191  2.0878
 4967SOL    HW226364   3.191   3.511  14.775 -0.4094 -1.6611  1.6516
 4968SOL     OW26365   0.822   0.962  11.267  0.0640 -0.3134 -0.2893
 4968SOL    HW126366   0.807   0.898  11.198 -1.1087 -0.5282  0.1594
 4968SOL    HW226367   0.918   0.965  11.265  0.0714 -0.2665  0.0579
 4969SOL     OW26368   2.759   4.246   3.525 -0.3202  0.0905 -0.5759
 4969SOL    HW126369   2.780   4.321   3.580 -0.7035 -0.7068  0.6559
 4969SOL    HW226370   2.821   4.184   3.563  0.1807  0.6783 -0.4471
 4970SOL     OW26371   0.589   3.105   1.493 -0.4159  0.0174  0.0479
 4970SOL    HW126372   0.593   3.095   1.588  3.8709 -0.5946 -0.2137
 4970SOL    HW226373   0.623   3.019   1.470  1.0391  0.5592  0.1407
 4971SOL     OW26374   0.814   1.703   6.798 -0.1118 -0.1124 -0.1585
 4971SOL    HW126375   0.728   1.683   6.836  0.2550 -0.3185  0.5479
 4971SOL    HW226376   0.856   1.729   6.880 -0.5255  1.8778 -0.5740
 4972SOL     OW26377   1.151   3.786   1.324  0.2660  0.4877  0.0603
 4972SOL    HW126378   1.209   3.812   1.395 -0.1214  0.0161  0.5498
 4972SOL    HW226379   1.132   3.695   1.348 -0.6916  0.0839 -2.1923
 4973SOL     OW26380   2.206   3.048   3.657  0.5090  0.4165 -0.0248
 4973SOL    HW126381   2.176   3.135   3.632 -1.2436 -0.0413  0.4158
 4973SOL    HW226382   2.212   3.003   3.573  0.0890 -0.3827  0.3641
 4974SOL     OW26383   1.453   4.363   8.468 -0.6957  0.0036 -0.6879
 4974SOL    HW126384   1.428   4.408   8.549 -2.0610 -2.4258  0.2321
 4974SOL    HW226385   1.513   4.296   8.501  0.7032  0.2213 -2.7751
 4975SOL     OW26386   4.141   2.940   3.709 -0.5411 -0.1849  0.2674
 4975SOL    HW126387   4.085   2.962   3.783 -1.2587  0.6890 -0.5462
 4975SOL    HW226388   4.095   2.866   3.672 -1.8387  0.4814  0.5667
 4976SOL     OW26389   3.485   3.191  12.389  0.7540  0.4846 -0.3567
 4976SOL    HW126390   3.426   3.130  12.346  1.7000 -0.5998 -0.0999
 4976SOL    HW226391   3.531   3.131  12.447 -1.3316 -0.6926  0.0778
 4977SOL     OW26392   2.372   3.295  13.469  0.1990 -0.5270 -0.4378
 4977SOL    HW126393   2.386   3.288  13.374  1.4674 -1.5264 -0.1791
 4977SOL    HW226394   2.312   3.223  13.484  1.7390 -1.6183  0.4288
 4978SOL     OW26395   1.855   0.490  13.705  0.3916 -0.1398  0.5732
 4978SOL    HW126396   1.794   0.493  13.779 -0.1206  0.5278  0.1239
 4978SOL    HW226397   1.799   0.530  13.639  0.0793 -0.9501  0.3508
 4979SOL     OW26398   1.714   4.182   5.345  0.6876 -0.4107 -0.2416
 4979SOL    HW126399   1.621   4.197   5.365  0.3035  0.4863 -2.6878
 4979SOL    HW226400   1.737   4.275   5.344  1.4094 -0.6175 -2.1669
 4980SOL     OW26401   4.054   3.200   6.291 -0.5528 -0.2326 -0.1799
 4980SOL    HW126402   4.100   3.170   6.370 -0.1777  3.1127  0.8664
 4980SOL    HW226403   3.982   3.137   6.298  0.1554 -1.0529 -0.2360
 4981SOL     OW26404   3.741   2.541  11.175  0.3962  0.0980  0.7112
 4981SOL    HW126405   3.651   2.541  11.207 -0.0642  0.3517 -0.5837
 4981SOL    HW226406   3.773   2.453  11.193 -0.0224 -0.6221 -2.0080
 4982SOL     OW26407   0.131   3.026  16.673 -0.1576  0.2617 -0.5716
 4982SOL    HW126408   0.113   3.119  16.683  1.0388  0.4262  0.0651
 4982SOL    HW226409   0.200   3.022  16.739 -0.8209  0.5738  0.1357
 4983SOL     OW26410   3.303   0.116   4.871  0.6363 -0.4958 -0.1751
 4983SOL    HW126411   3.339   0.063   4.799  2.3207  0.6936 -0.1960
 4983SOL    HW226412   3.366   0.188   4.871 -1.6999  1.5874 -2.3978
 4984SOL     OW26413   0.108   2.853  10.848  0.0331 -0.0056  0.0688
 4984SOL    HW126414   0.147   2.901  10.775  1.5922  1.1863  1.6788
 4984SOL    HW226415   0.127   2.760  10.833 -2.1617 -0.4295 -0.0420
 4985SOL     OW26416   4.142   3.720   6.741 -0.2957 -0.3964  0.4841
 4985SOL    HW126417   4.069   3.668   6.775 -1.6028  0.2829 -1.3055
 4985SOL    HW226418   4.096   3.756   6.665 -0.0454 -2.2259 -0.5239
 4986SOL     OW26419   0.832   3.850  14.287  0.1629  0.2592  0.4815
 4986SOL    HW126420   0.918   3.880  14.318  1.9110 -1.9128 -2.2810
 4986SOL    HW226421   0.807   3.926  14.234 -0.0061 -0.1074  0.0388
 4987SOL     OW26422   3.155   2.409   6.200  0.3032  0.2247 -0.4545
 4987SOL    HW126423   3.235   2.439   6.242 -0.2472 -0.5124  1.1362
 4987SOL    HW226424   3.103   2.392   6.279  0.5885 -1.7502 -0.6912
 4988SOL     OW26425   3.633   2.960   8.422 -0.0204 -0.4012  0.3001
 4988SOL    HW126426   3.701   3.028   8.417  0.1490 -0.4795  1.5248
 4988SOL    HW226427   3.684   2.886   8.389 -0.5199 -1.0088  0.8925
 4989SOL     OW26428   3.131   2.932   5.943  0.2973  0.5786 -0.0893
 4989SOL    HW126429   3.070   3.003   5.961  0.6467  1.2750 -1.6670
 4989SOL    HW226430   3.081   2.853   5.965 -1.7581  1.7557 -0.5486
 4990SOL     OW26431   1.909   3.527   5.532  0.4426 -0.3617 -0.3682
 4990SOL    HW126432   1.824   3.509   5.491  1.7536  0.8293 -3.5092
 4990SOL    HW226433   1.873   3.577   5.606  0.7772 -0.4434 -0.1520
 4991SOL     OW26434   3.580   0.782  12.122  0.3034  0.6526  0.7160
 4991SOL    HW126435   3.599   0.741  12.038  1.4249 -2.1219  2.2966
 4991SOL    HW226436   3.613   0.870  12.106 -0.6818  0.7163 -0.9080
 4992SOL     OW26437   1.941   2.759   5.249 -0.6000 -0.1510 -0.0408
 4992SOL    HW126438   2.031   2.730   5.234 -0.6265  0.0306 -0.5478
 4992SOL    HW226439   1.932   2.840   5.200  0.6538  0.3519  0.5804
 4993SOL     OW26440   2.308   4.294   1.771  0.7610 -0.4436  0.0850
 4993SOL    HW126441   2.359   4.219   1.738  0.8491  0.1898 -1.2126
 4993SOL    HW226442   2.356   4.323   1.849 -2.0413  3.9750  0.1741
 4994SOL     OW26443   2.299   0.202  14.667 -0.1325  0.0245  0.4249
 4994SOL    HW126444   2.229   0.251  14.624 -1.2697 -1.3831  0.6645
 4994SOL    HW226445   2.266   0.112  14.666 -0.0278  0.0039 -1.2127
 4995SOL     OW26446   3.665   2.360   8.894 -0.6450  0.5749 -0.2421
 4995SOL    HW126447   3.613   2.357   8.974  0.8856  1.2141  0.7687
 4995SOL    HW226448   3.632   2.442   8.858  1.4743  1.6838  0.4113
 4996SOL     OW26449   1.474   1.493   5.050  0.1825 -0.0202 -0.0110
 4996SOL    HW126450   1.569   1.486   5.039  0.2975  0.1481  0.8772
 4996SOL    HW226451   1.464   1.542   5.132  0.6781  0.0438  0.0131
 4997SOL     OW26452   0.342   1.676   3.938  0.4212  0.2558  0.4167
 4997SOL    HW126453   0.278   1.637   3.999 -0.9794  1.8899 -0.0026
 4997SOL    HW226454   0.420   1.622   3.952  0.0423 -0.6368 -0.8804
 4998SOL     OW26455   3.712   0.316   4.934  0.2575 -0.1015  0.2527
 4998SOL    HW126456   3.719   0.273   4.849  0.1749  2.5569 -1.0739
 4998SOL    HW226457   3.760   0.398   4.926 -0.1282  0.0930 -0.0580
 4999SOL     OW26458   0.907   4.218   8.142  0.1113 -0.4895 -0.2448
 4999SOL    HW126459   0.940   4.181   8.224 -1.3861 -1.8907 -0.2727
 4999SOL    HW226460   0.942   4.148   8.086 -0.3197 -0.8557 -0.0518
 5000SOL     OW26461   0.712   2.617   5.134 -0.2873  0.0209  0.1734
 5000SOL    HW126462   0.733   2.525   5.118  1.8358 -0.3150  4.9783
 5000SOL    HW226463   0.631   2.615   5.185 -0.7127  1.6731 -0.4528
 5001SOL     OW26464   3.865   3.419   1.346  0.0303  0.5296  0.0042
 5001SOL    HW126465   3.823   3.505   1.346  0.4174  0.7140 -1.8434
 5001SOL    HW226466   3.834   3.394   1.433  0.4203  0.8102  0.2241
 5002SOL     OW26467   1.680   4.698   5.690 -0.2537  0.0833  1.3182
 5002SOL    HW126468   1.641   0.059   5.720  0.3285  0.5223  0.8771
 5002SOL    HW226469   1.637   4.690   5.605  1.8962  0.2145  0.2124
 5003SOL     OW26470   2.682   2.576   7.609 -0.1706 -0.1212 -0.0897
 5003SOL    HW126471   2.706   2.490   7.573  1.1516  0.4794 -0.6590
 5003SOL    HW226472   2.767   2.595   7.647  0.1429  1.0849 -1.3852
 5004SOL     OW26473   0.441   1.447   3.056  0.1372  0.3598 -0.3310
 5004SOL    HW126474   0.440   1.451   3.151 -1.3663 -0.2021 -0.3239
 5004SOL    HW226475   0.535   1.442   3.043  0.4519 -1.6579  2.7670
 5005SOL     OW26476   4.422   3.046   6.068 -0.0506 -0.1130 -0.4974
 5005SOL    HW126477   4.479   3.084   6.134 -1.9347 -0.5022  1.3428
 5005SOL    HW226478   4.362   2.995   6.122 -0.0753  0.9221  0.4421
 5006SOL     OW26479   2.403   1.410   4.031  0.6482 -0.0105 -0.1325
 5006SOL    HW126480   2.310   1.394   4.050  0.4369  0.6364 -0.6170
 5006SOL    HW226481   2.396   1.488   3.977  1.3914 -0.0621 -0.3023
 5007SOL     OW26482   3.557   3.797  12.774  0.5896 -0.3024  0.1643
 5007SOL    HW126483   3.467   3.764  12.776  1.5587 -2.8812  1.7170
 5007SOL    HW226484   3.547   3.876  12.828  0.1750  0.2399 -0.7085
 5008SOL     OW26485   4.598   3.206   1.318 -0.1247  0.4129 -0.0256
 5008SOL    HW126486   4.516   3.242   1.352 -0.4834  1.5861 -2.2047
 5008SOL    HW226487   4.639   3.280   1.274 -1.1560  0.4792 -0.8824
 5009SOL     OW26488   4.712   2.678   2.110  0.0791 -0.4197  0.0345
 5009SOL    HW126489   0.057   2.745   2.128  0.3119 -1.2717  2.3902
 5009SOL    HW226490   4.631   2.727   2.095 -0.4749 -1.4705 -0.4114
 5010SOL     OW26491   3.116   0.663  14.524  0.1899 -0.3752 -0.3215
 5010SOL    HW126492   3.050   0.723  14.558  3.1743  3.2983 -0.9844
 5010SOL    HW226493   3.105   0.587  14.582  2.0721 -0.5344 -0.1741
 5011SOL     OW26494   2.522   1.517   8.737 -0.0931  0.1165 -0.2483
 5011SOL    HW126495   2.566   1.452   8.792 -0.5088 -0.0899 -0.1598
 5011SOL    HW226496   2.595   1.564   8.695 -0.4657  1.0491  0.1478
 5012SOL     OW26497   1.495   3.139  10.150 -0.0536  0.5376  0.1487
 5012SOL    HW126498   1.581   3.109  10.179 -0.0535  0.6167  0.2305
 5012SOL    HW226499   1.438   3.072  10.188 -0.8378  0.7498 -0.6593
 5013SOL     OW26500   0.225   1.018   0.778 -0.5145 -0.0925 -0.2704
 5013SOL    HW126501   0.154   1.005   0.715  0.3198 -2.4996 -0.7030
 5013SOL    HW226502   0.293   1.055   0.721 -0.2368 -0.4140 -0.1489
 5014SOL     OW26503   4.230   1.159   7.962  0.1648  0.2680  0.3382
 5014SOL    HW126504   4.189   1.237   7.999  0.2832  1.1594 -1.4256
 5014SOL    HW226505   4.226   1.110   8.045  1.3748  0.8310  0.7327
 5015SOL     OW26506   2.373   0.117   1.135 -0.1603  0.8900  0.6241
 5015SOL    HW126507   2.464   0.102   1.111 -0.3087  2.0064 -0.6139
 5015SOL    HW226508   2.382   0.171   1.213 -1.3945  1.5148  0.3305
 5016SOL     OW26509   2.395   4.376   2.562 -0.0407  0.4556 -0.3580
 5016SOL    HW126510   2.456   4.403   2.493  2.1368 -0.1902  1.3020
 5016SOL    HW226511   2.342   4.455   2.565  1.2327  1.2067  2.1408
 5017SOL     OW26512   0.452   3.547   2.641 -0.7307  0.0588 -0.1657
 5017SOL    HW126513   0.540   3.566   2.674 -0.2078 -1.6987 -0.5834
 5017SOL    HW226514   0.446   3.452   2.640 -1.1859  0.0987 -1.2643
 5018SOL     OW26515   3.245   4.641   5.062  0.0974  0.3756 -0.1383
 5018SOL    HW126516   3.274   4.707   5.000 -2.6112  1.1319 -0.5683
 5018SOL    HW226517   3.174   4.595   5.017 -0.2029 -0.1287  0.8504
 5019SOL     OW26518   4.094   2.362   0.499 -0.2641  0.4303  0.2093
 5019SOL    HW126519   4.041   2.399   0.429  0.0026 -0.2375 -0.3475
 5019SOL    HW226520   4.099   2.439   0.556 -3.0613  0.6396  0.1485
 5020SOL     OW26521   1.361   3.570  15.683  0.1016 -0.5681 -0.3306
 5020SOL    HW126522   1.347   3.559  15.589  1.7206  1.2540 -0.7935
 5020SOL    HW226523   1.387   3.479  15.696  3.3565  0.4796  0.4895
 5021SOL     OW26524   0.448   0.062   1.323 -0.4027  0.1169  0.0191
 5021SOL    HW126525   0.455   4.717   1.254  0.1280  1.6981 -1.4598
 5021SOL    HW226526   0.362   0.048   1.362  0.1361  1.5311  1.7289
 5022SOL     OW26527   3.581   0.805   1.213 -0.0307 -0.0053  0.1717
 5022SOL    HW126528   3.507   0.766   1.260  2.1857 -1.2400  2.6643
 5022SOL    HW226529   3.581   0.753   1.133  1.7845  0.4304 -0.1012
 5023SOL     OW26530   3.306   3.009   4.014 -0.0242 -0.8643 -0.1711
 5023SOL    HW126531   3.353   3.010   3.930  1.1903 -1.9238  0.5031
 5023SOL    HW226532   3.375   2.996   4.079 -0.5033 -1.4534  0.2033
 5024SOL     OW26533   1.660   2.262  12.841 -0.0535 -0.2742  0.6255
 5024SOL    HW126534   1.586   2.215  12.880 -0.5715 -0.7866 -0.9576
 5024SOL    HW226535   1.719   2.198  12.801 -0.4750  0.0981 -0.6280
 5025SOL     OW26536   0.300   0.646   3.875  0.0719 -0.0054  0.1014
 5025SOL    HW126537   0.360   0.632   3.802 -1.4073  0.7230 -1.2482
 5025SOL    HW226538   0.360   0.645   3.950 -0.6212  0.0488  0.6662
 5026SOL     OW26539   0.396   0.890  12.640  0.3643 -0.0528  0.2599
 5026SOL    HW126540   0.415   0.866  12.549 -1.3030 -0.4462  0.0212
 5026SOL    HW226541   0.487   0.902  12.667  0.8649  1.6540 -2.1612
 5027SOL     OW26542   3.852   4.284   1.644 -0.1202  0.3404  0.2852
 5027SOL    HW126543   3.836   4.354   1.582 -0.5475 -1.3630 -1.5441
 5027SOL    HW226544   3.770   4.287   1.692 -0.4944  1.8729 -0.4760
 5028SOL     OW26545   0.493   0.671   4.069  0.2481 -0.4780 -0.8185
 5028SOL    HW126546   0.558   0.732   4.037 -1.0417  1.3435  0.0413
 5028SOL    HW226547   0.536   0.595   4.109  1.8704 -0.5473 -2.6978
 5029SOL     OW26548   1.751   2.367   9.767  0.2607 -0.3594  0.1857
 5029SOL    HW126549   1.783   2.283   9.800 -2.5619 -1.6191 -0.2835
 5029SOL    HW226550   1.691   2.390   9.837 -1.3229 -0.7685 -1.0250
 5030SOL     OW26551   0.372   4.686   2.944  0.3755  0.1766  0.1785
 5030SOL    HW126552   0.423   4.623   2.994  0.3505  0.4469  0.5509
 5030SOL    HW226553   0.407   4.659   2.859  0.7382  0.7868  0.1363
 5031SOL     OW26554   1.135   4.364  11.045 -0.0439  0.1731  0.2487
 5031SOL    HW126555   1.183   4.281  11.038 -0.3486 -0.1092  1.5163
 5031SOL    HW226556   1.144   4.380  11.139  0.1314  0.2046  0.2260
 5032SOL     OW26557   1.781   4.013   5.976 -0.7049  0.2683  0.3277
 5032SOL    HW126558   1.872   4.004   6.005 -0.6780 -0.1644  0.1151
 5032SOL    HW226559   1.776   4.092   5.923  0.4778  1.0928  1.4556
 5033SOL     OW26560   1.626   0.568   3.185 -0.1937 -0.7321  0.0658
 5033SOL    HW126561   1.628   0.593   3.092  0.1014 -2.4411 -0.3870
 5033SOL    HW226562   1.625   0.472   3.179 -1.0215 -0.5168 -3.6632
 5034SOL     OW26563   3.998   0.645   5.508 -0.3885 -0.3261  0.7183
 5034SOL    HW126564   3.916   0.650   5.459 -0.6016 -3.4743  0.7688
 5034SOL    HW226565   3.995   0.549   5.508 -0.6320 -0.3210 -0.7473
 5035SOL     OW26566   3.230   1.229   2.628 -0.0911 -0.3883 -0.1321
 5035SOL    HW126567   3.297   1.264   2.570  0.5973 -2.5157 -0.6379
 5035SOL    HW226568   3.273   1.242   2.712 -3.6142 -1.5730  1.8654
 5036SOL     OW26569   1.746   0.765   4.464  0.7094 -0.5416  0.1045
 5036SOL    HW126570   1.758   0.670   4.459 -1.1456 -0.7056 -1.2894
 5036SOL    HW226571   1.830   0.793   4.426 -0.3683 -0.2032 -2.0397
 5037SOL     OW26572   0.822   2.196  14.087 -0.1088 -0.3472  0.0908
 5037SOL    HW126573   0.829   2.153  14.002 -2.3796 -0.5237 -0.0149
 5037SOL    HW226574   0.730   2.223  14.083 -0.5640 -1.8917  0.0942
 5038SOL     OW26575   4.648   0.961   8.083 -0.1966  0.3850 -0.1723
 5038SOL    HW126576   4.678   0.883   8.035  2.8646 -0.2148  2.6989
 5038SOL    HW226577   4.592   1.005   8.019  0.2628  0.7974 -0.2903
 5039SOL     OW26578   0.685   2.045   4.784 -0.1586 -0.0402  0.0900
 5039SOL    HW126579   0.651   1.971   4.835  0.1221  0.7261  1.3702
 5039SOL    HW226580   0.694   2.106   4.857 -0.7756 -0.8995  0.8816
 5040SOL     OW26581   1.328   0.007   5.308  1.1855  0.0567  0.2324
 5040SOL    HW126582   1.253   0.058   5.278  3.2720  2.6301 -0.6390
 5040SOL    HW226583   1.398   0.013   5.242  0.3314 -2.2104 -0.8949
 5041SOL     OW26584   0.577   2.584   3.985  0.0077  0.0752 -0.1665
 5041SOL    HW126585   0.596   2.678   3.982 -2.0168  0.4180 -2.1058
 5041SOL    HW226586   0.629   2.555   3.910  0.2566 -0.0265  0.0444
 5042SOL     OW26587   0.301   1.461  10.019  0.0351  0.3091  0.3059
 5042SOL    HW126588   0.366   1.524   9.988 -0.7102  0.9186 -0.0046
 5042SOL    HW226589   0.222   1.512  10.040 -0.7387 -1.0766  0.7357
 5043SOL     OW26590   2.050   3.725   7.794  0.3866  0.3703 -0.1464
 5043SOL    HW126591   2.049   3.635   7.760 -0.7434  1.2682 -2.4899
 5043SOL    HW226592   1.988   3.705   7.865 -0.3217  0.2056 -0.8113
 5044SOL     OW26593   3.719   0.763   1.658 -0.7936 -0.3434  0.6441
 5044SOL    HW126594   3.633   0.802   1.675 -1.5106 -2.1448  1.2190
 5044SOL    HW226595   3.731   0.800   1.571 -1.1534 -0.5714  0.4958
 5045SOL     OW26596   0.431   1.045   3.383 -0.4456  0.1286 -0.1919
 5045SOL    HW126597   0.519   1.009   3.372 -0.6727  0.9582 -4.5018
 5045SOL    HW226598   0.396   1.020   3.298 -0.0242  0.1336 -0.3644
 5046SOL     OW26599   3.696   1.096   3.037 -0.4462 -0.3062 -0.2700
 5046SOL    HW126600   3.667   1.009   3.009  2.6731 -0.8927 -1.6979
 5046SOL    HW226601   3.787   1.100   3.007 -0.1915 -0.2597  0.5020
 5047SOL     OW26602   3.906   0.047  11.924 -0.5030  0.3126  0.2067
 5047SOL    HW126603   3.849   0.050  12.001 -0.0528  0.5375  0.5277
 5047SOL    HW226604   3.887   4.676  11.907  0.3302  0.2634 -0.4525
 5048SOL     OW26605   1.474   4.595   5.941  0.0117 -0.6567  0.2959
 5048SOL    HW126606   1.403   4.602   5.877  1.1752 -2.3483 -1.1933
 5048SOL    HW226607   1.468   4.678   5.989 -0.3023 -0.5238  0.0311
 5049SOL     OW26608   3.315   4.419   6.701  0.6337  0.3371 -0.3842
 5049SOL    HW126609   3.299   4.408   6.795  2.8949  2.3523  0.2312
 5049SOL    HW226610   3.334   4.512   6.690 -1.3965  0.7192 -0.7961
 5050SOL     OW26611   4.375   2.341   1.552 -0.0117 -0.1066 -0.3852
 5050SOL    HW126612   4.332   2.404   1.610 -2.5119 -0.9289 -1.3382
 5050SOL    HW226613   4.320   2.263   1.560  2.2572 -1.8032 -1.1496
 5051SOL     OW26614   1.809   4.454  17.289  0.2530  0.1138  0.9431
 5051SOL    HW126615   1.879   4.391  17.273  0.7410  0.8969  0.0195
 5051SOL    HW226616   1.836   4.482  17.377  0.8448 -1.3509  1.2260
 5052SOL     OW26617   4.468   4.611   3.412  0.3231  0.0365  0.0570
 5052SOL    HW126618   4.528   4.682   3.433  1.1009 -1.1733  1.8581
 5052SOL    HW226619   4.389   4.641   3.456 -0.0789 -1.6975  0.5045
 5053SOL     OW26620   0.922   1.561   3.247  0.4745 -0.7333 -0.3293
 5053SOL    HW126621   0.873   1.479   3.257 -1.1898  0.0826 -1.6593
 5053SOL    HW226622   0.948   1.568   3.155  2.9949  0.6959  0.4806
 5054SOL     OW26623   1.884   2.238   2.018  0.3052  0.0765 -0.2849
 5054SOL    HW126624   1.928   2.246   2.102  1.3010 -0.0197 -0.7945
 5054SOL    HW226625   1.956   2.240   1.955  1.2985 -2.4004  0.8083
 5055SOL     OW26626   3.068   2.206   3.207 -0.3889  0.0055  0.3929
 5055SOL    HW126627   3.096   2.203   3.116 -1.3034 -1.2763  0.1559
 5055SOL    HW226628   3.146   2.184   3.257  0.1442  0.0738 -0.4184
 5056SOL     OW26629   0.636   4.628  14.152 -0.2241 -0.0723  0.1688
 5056SOL    HW126630   0.676   4.698  14.100 -1.0639 -0.8089 -1.4702
 5056SOL    HW226631   0.562   4.672  14.193  1.3115  1.6319  1.1245
 5057SOL     OW26632   1.726   1.622   6.124  0.5853  0.2862  0.6259
 5057SOL    HW126633   1.687   1.709   6.117  0.6487  0.2580 -0.0292
 5057SOL    HW226634   1.669   1.560   6.079 -1.9057  2.7698  0.3587
 5058SOL     OW26635   3.374   4.471  16.081 -0.4689 -0.2978 -0.2485
 5058SOL    HW126636   3.367   4.566  16.090  0.5329 -0.4167  1.6425
 5058SOL    HW226637   3.413   4.444  16.164  1.7813 -1.7353 -1.7639
 5059SOL     OW26638   1.656   1.696  15.715  0.3768  0.1961 -0.3965
 5059SOL    HW126639   1.688   1.616  15.674 -1.5434 -1.2571  0.8779
 5059SOL    HW226640   1.584   1.664  15.770  0.9247 -1.6123 -0.7283
 5060SOL     OW26641   4.216   1.566   8.151 -0.4892  0.1771  0.1934
 5060SOL    HW126642   4.268   1.545   8.228  0.7297  1.2485 -0.3464
 5060SOL    HW226643   4.187   1.657   8.162  0.1968  0.6750 -2.1542
 5061SOL     OW26644   3.447   0.800  14.825  0.1167 -0.4875  0.3907
 5061SOL    HW126645   3.354   0.805  14.848  0.8151  1.4382  2.8310
 5061SOL    HW226646   3.479   0.768  14.909 -1.2692  0.3731  1.2480
 5062SOL     OW26647   4.467   1.277   3.961 -0.1731  0.2430 -0.8212
 5062SOL    HW126648   4.448   1.342   3.894 -1.5079 -0.1331 -0.8072
 5062SOL    HW226649   4.538   1.223   3.926  0.0347 -0.2896  0.4074
 5063SOL     OW26650   3.561   3.658   6.732 -0.3672 -0.1349  0.1668
 5063SOL    HW126651   3.547   3.595   6.802  0.4750  0.1627  0.6003
 5063SOL    HW226652   3.470   3.675   6.707  0.1055  1.2037 -0.6869
 5064SOL     OW26653   0.552   1.276   1.765  0.4454  0.0323  0.1497
 5064SOL    HW126654   0.472   1.308   1.806 -0.5399 -2.3915  0.1166
 5064SOL    HW226655   0.538   1.295   1.672 -0.0093  2.0970  0.6438
 5065SOL     OW26656   2.900   0.618  11.988 -0.1099  0.3403 -0.3844
 5065SOL    HW126657   2.815   0.633  11.946 -0.6569  0.3624  0.7483
 5065SOL    HW226658   2.950   0.585  11.913 -1.6281  0.9262 -1.6542
 5066SOL     OW26659   0.158   3.284   6.306 -0.2815 -0.4563  0.4936
 5066SOL    HW126660   0.236   3.334   6.283 -0.8515 -0.4341 -1.4074
 5066SOL    HW226661   0.120   3.278   6.218  1.6111 -0.6001 -0.3211
 5067SOL     OW26662   3.343   0.700   1.299  0.6682 -0.0613  0.1969
 5067SOL    HW126663   3.309   0.697   1.388  0.7346 -1.8683  0.1558
 5067SOL    HW226664   3.326   0.609   1.272  1.7217 -0.1244 -0.2689
 5068SOL     OW26665   3.615   0.402   3.988  0.1559 -0.0088 -0.6943
 5068SOL    HW126666   3.677   0.346   3.941  1.1544 -0.8312  1.6201
 5068SOL    HW226667   3.531   0.404   3.943  0.7038  1.0860 -1.7079
 5069SOL     OW26668   4.673   3.629   3.698 -0.0906  1.5563  0.6910
 5069SOL    HW126669   4.696   3.717   3.729  0.6330  1.3226  0.8297
 5069SOL    HW226670   4.577   3.630   3.704 -0.0041 -0.0409  2.6731
 5070SOL     OW26671   4.092   0.719   8.652 -0.0272  0.4953 -0.0570
 5070SOL    HW126672   4.070   0.653   8.718  0.6675 -0.4435 -0.7648
 5070SOL    HW226673   4.063   0.787   8.713 -1.7273 -1.0232  0.8486
 5071SOL     OW26674   4.001   0.416   5.213  0.2212  0.4132  0.4748
 5071SOL    HW126675   3.946   0.338   5.208  1.2534 -0.2187 -0.8922
 5071SOL    HW226676   3.961   0.455   5.291 -0.9369  1.4822 -0.6467
 5072SOL     OW26677   1.210   1.825   4.965 -0.1292 -0.3067 -0.0444
 5072SOL    HW126678   1.228   1.732   4.972 -0.5706 -0.2718  1.5288
 5072SOL    HW226679   1.273   1.864   5.026  0.4593 -1.4910  0.0960
 5073SOL     OW26680   3.822   4.061  11.051  0.1527 -0.1362 -0.0396
 5073SOL    HW126681   3.838   4.071  10.957 -1.9661 -1.3817 -0.5245
 5073SOL    HW226682   3.889   4.124  11.079 -0.5651 -0.4620  2.3833
 5074SOL     OW26683   3.924   3.045  13.455  0.4904 -0.8369  0.0832
 5074SOL    HW126684   3.944   3.135  13.480  2.3098 -1.2879  0.2660
 5074SOL    HW226685   3.836   3.048  13.493 -0.1272 -1.8809 -1.2326
 5075SOL     OW26686   1.874   2.892  11.801  0.3686 -0.2535 -0.2865
 5075SOL    HW126687   1.782   2.876  11.820  0.2606  1.7572  0.9103
 5075SOL    HW226688   1.896   2.857  11.714 -0.1620  0.8628 -0.8775
 5076SOL     OW26689   1.834   4.102   2.006  0.2071 -0.2416 -0.3210
 5076SOL    HW126690   1.867   4.190   2.024 -0.0423 -0.3088  0.4456
 5076SOL    HW226691   1.893   4.043   2.052 -0.4426 -0.6493 -0.0085
 5077SOL     OW26692   4.681   2.102   9.567  0.1980  0.0446 -0.3867
 5077SOL    HW126693   0.053   2.091   9.589 -0.3955 -1.5412  1.3339
 5077SOL    HW226694   4.665   2.173   9.629 -2.4158 -1.3152  0.4966
 5078SOL     OW26695   3.243   3.557  12.571  0.0519  0.1314 -0.2132
 5078SOL    HW126696   3.260   3.571  12.478  2.1379  2.2164  0.4607
 5078SOL    HW226697   3.323   3.505  12.579 -0.1924 -0.2628 -0.3477
 5079SOL     OW26698   4.626   2.496   1.061 -0.3596  0.6681 -0.6066
 5079SOL    HW126699   4.671   2.555   1.121 -0.4791 -1.2239  1.3393
 5079SOL    HW226700   4.539   2.493   1.101 -0.4367  0.5145 -0.7889
 5080SOL     OW26701   0.819   3.174   6.895 -0.9688  0.5660  0.5525
 5080SOL    HW126702   0.782   3.199   6.980  2.2500  0.8319  1.8575
 5080SOL    HW226703   0.909   3.174   6.926 -0.3835  1.8383 -1.1826
 5081SOL     OW26704   3.289   0.815   8.420  0.0942  0.6647  0.5435
 5081SOL    HW126705   3.253   0.746   8.477  0.6050  0.5455  0.7284
 5081SOL    HW226706   3.258   0.890   8.470 -0.3815  1.4203 -0.9013
 5082SOL     OW26707   1.485   1.909   3.389 -0.5135  0.0467  0.3184
 5082SOL    HW126708   1.436   1.981   3.349 -1.7778 -0.5545  0.8007
 5082SOL    HW226709   1.575   1.935   3.370 -1.5768  0.7318 -3.8901
 5083SOL     OW26710   2.957   2.586   7.228 -0.0936  0.6332  0.5712
 5083SOL    HW126711   3.014   2.651   7.269 -0.6035  1.0492  0.6174
 5083SOL    HW226712   2.879   2.636   7.204 -0.0588  0.8828  0.9680
 5084SOL     OW26713   2.883   3.824   7.083  0.7853 -0.7227  0.6674
 5084SOL    HW126714   2.809   3.883   7.066  1.0446 -1.6135 -3.5477
 5084SOL    HW226715   2.836   3.757   7.132 -0.5554 -0.6109 -0.4596
 5085SOL     OW26716   2.766   1.727  12.252 -0.0537  0.0332 -0.2497
 5085SOL    HW126717   2.749   1.788  12.324 -0.2846 -1.7366  1.2068
 5085SOL    HW226718   2.810   1.780  12.186 -1.7153  1.3947 -0.2587
 5086SOL     OW26719   0.960   4.287   6.615 -0.0194 -0.3962  0.2735
 5086SOL    HW126720   1.020   4.335   6.559 -2.8845  2.7968 -0.0815
 5086SOL    HW226721   0.885   4.347   6.620  0.4665  0.2730 -0.5692
 5087SOL     OW26722   1.777   0.765   7.068  0.5539  0.2346  0.2451
 5087SOL    HW126723   1.682   0.751   7.065  0.5810 -0.3167  1.6644
 5087SOL    HW226724   1.788   0.860   7.065 -3.6400  0.7369  1.4571
 5088SOL     OW26725   1.799   0.779  14.813 -0.1978 -0.0510 -0.0826
 5088SOL    HW126726   1.767   0.819  14.894 -0.9158  1.8377 -1.3060
 5088SOL    HW226727   1.747   0.700  14.800  1.0802 -1.1327  1.4586
 5089SOL     OW26728   4.641   2.353  15.594  0.0286  0.3275  0.1647
 5089SOL    HW126729   0.006   2.319  15.619 -0.8940 -1.4784  0.8380
 5089SOL    HW226730   4.596   2.283  15.641  1.1698 -0.1656  0.5223
 5090SOL     OW26731   0.920   1.733   5.355 -0.4657 -0.3721 -0.1686
 5090SOL    HW126732   0.930   1.752   5.262 -0.7944 -1.2510 -0.3805
 5090SOL    HW226733   0.871   1.810   5.384 -3.1490 -1.3643 -2.0330
 5091SOL     OW26734   1.528   2.273   8.743  0.1748  0.2108 -0.2978
 5091SOL    HW126735   1.501   2.262   8.651  1.0230 -0.9186 -0.4108
 5091SOL    HW226736   1.600   2.335   8.728 -0.1214  0.9759  1.4838
 5092SOL     OW26737   3.139   3.681   8.942 -0.2083  0.2830 -0.9117
 5092SOL    HW126738   3.233   3.677   8.923  0.1884 -1.3898  1.4063
 5092SOL    HW226739   3.134   3.737   9.020  2.4105  0.7737 -1.0946
 5093SOL     OW26740   2.936   3.207   0.906 -0.5389 -0.5770  0.1816
 5093SOL    HW126741   2.885   3.155   0.969 -0.2838 -1.8492 -0.6519
 5093SOL    HW226742   2.865   3.255   0.864  0.1015 -0.3084 -0.5858
 5094SOL     OW26743   3.420   4.718   4.672  0.0158  0.1997  0.0811
 5094SOL    HW126744   3.511   4.699   4.648 -0.5281 -2.2094 -0.0900
 5094SOL    HW226745   3.387   4.711   4.583 -0.3272 -1.2122  0.3188
 5095SOL     OW26746   3.094   1.255  10.862 -0.0772 -0.2904  0.2468
 5095SOL    HW126747   3.052   1.260  10.948  1.5154  1.2653  0.9418
 5095SOL    HW226748   3.182   1.242  10.898 -0.8992 -1.5459  1.7941
 5096SOL     OW26749   1.519   4.635   4.170 -0.4441 -0.5384 -0.5127
 5096SOL    HW126750   1.467   4.699   4.121 -0.6058  0.6821  1.2354
 5096SOL    HW226751   1.448   4.590   4.217 -0.6414 -0.2764 -0.5583
 5097SOL     OW26752   2.174   4.457   8.176  0.2794  0.0741 -0.9567
 5097SOL    HW126753   2.084   4.432   8.155  0.7906  0.7443 -4.0234
 5097SOL    HW226754   2.166   4.522   8.245  0.4653 -1.5293  0.5786
 5098SOL     OW26755   1.864   3.302  11.062  0.1966  0.0788  0.5123
 5098SOL    HW126756   1.902   3.346  10.986 -1.7138 -1.2415 -1.2061
 5098SOL    HW226757   1.943   3.264  11.099 -0.2382 -1.7982 -0.4788
 5099SOL     OW26758   4.371   3.712   9.730 -0.0188  0.2223  0.0451
 5099SOL    HW126759   4.456   3.700   9.687 -0.0767  0.9760 -0.2958
 5099SOL    HW226760   4.310   3.671   9.668  0.0382  0.0302  0.1184
 5100SOL     OW26761   3.757   0.968   6.263  0.3600 -0.7624  0.2694
 5100SOL    HW126762   3.757   0.925   6.348  1.7525  1.3078  1.3166
 5100SOL    HW226763   3.759   1.062   6.284 -1.4844 -1.0013  1.5254
 5101SOL     OW26764   4.464   0.426   8.917 -0.0776  0.1693  0.4676
 5101SOL    HW126765   4.415   0.496   8.874  0.8831  0.7825  0.3752
 5101SOL    HW226766   4.473   0.462   9.005 -3.4716  0.2720  0.7913
 5102SOL     OW26767   1.595   4.606   0.376  0.1020  0.6419  0.2083
 5102SOL    HW126768   1.639   4.551   0.441  2.5538  1.6797 -0.5576
 5102SOL    HW226769   1.507   4.608   0.412  0.3095  0.2599  0.7308
 5103SOL     OW26770   3.282   4.017   7.195  0.2289 -0.3303  0.0836
 5103SOL    HW126771   3.198   4.026   7.240 -0.3725 -1.9494 -0.7059
 5103SOL    HW226772   3.322   3.953   7.254  0.0045 -0.3786  0.1818
 5104SOL     OW26773   0.953   3.844   2.479 -0.3558  0.2310 -0.1834
 5104SOL    HW126774   0.987   3.840   2.389 -1.3280 -1.2292 -0.4798
 5104SOL    HW226775   0.994   3.768   2.521 -0.7933 -0.7893 -1.6085
 5105SOL     OW26776   3.396   3.207  11.362 -0.2414 -0.0133  0.3179
 5105SOL    HW126777   3.450   3.242  11.433  1.7985 -0.2531 -1.0904
 5105SOL    HW226778   3.310   3.216  11.402 -0.4401  0.3872 -0.1999
 5106SOL     OW26779   4.329   1.869  12.149 -0.3541 -0.3046  0.3619
 5106SOL    HW126780   4.273   1.826  12.084 -1.1858 -0.4939  1.1993
 5106SOL    HW226781   4.335   1.809  12.223 -0.8015 -1.5580 -0.6185
 5107SOL     OW26782   3.383   1.338   5.873  0.5140 -0.2838 -0.0977
 5107SOL    HW126783   3.472   1.366   5.848  0.3117  0.3038 -0.1525
 5107SOL    HW226784   3.369   1.279   5.799  2.2694 -1.8465  0.8104
 5108SOL     OW26785   3.151   2.628   7.490 -0.2210  0.2054  0.0005
 5108SOL    HW126786   3.132   2.549   7.439  1.9300  0.6260 -1.4495
 5108SOL    HW226787   3.135   2.696   7.424 -2.0993 -0.2398 -0.0054
 5109SOL     OW26788   0.771   3.794   3.024 -0.2607 -0.4983 -0.0420
 5109SOL    HW126789   0.731   3.860   2.967  1.0373 -0.4938 -0.9517
 5109SOL    HW226790   0.753   3.821   3.114  1.0746  0.2035  0.0135
 5110SOL     OW26791   0.815   1.695   7.613  0.2054 -0.7768  0.1367
 5110SOL    HW126792   0.772   1.629   7.667 -1.4558  0.0889 -0.1024
 5110SOL    HW226793   0.810   1.662   7.523  0.0108  0.7085 -0.4046
 5111SOL     OW26794   0.340   2.363   2.645  0.2641 -0.0075 -0.3591
 5111SOL    HW126795   0.413   2.308   2.673  0.2597  0.4616  0.5760
 5111SOL    HW226796   0.356   2.437   2.704 -0.3311 -1.6622  1.8665
 5112SOL     OW26797   3.790   3.268  12.462 -0.0480 -0.0774 -0.4464
 5112SOL    HW126798   3.707   3.250  12.505  0.3620  0.8620  0.7226
 5112SOL    HW226799   3.800   3.361  12.484 -0.5279  0.1654 -1.2604
 5113SOL     OW26800   1.953   1.947   7.440 -0.0464 -0.6982  0.0354
 5113SOL    HW126801   2.045   1.963   7.460 -0.3926  2.1398 -0.5953
 5113SOL    HW226802   1.912   1.943   7.526  1.5518  1.4939  0.9145
 5114SOL     OW26803   0.834   1.986   4.103  0.6386 -0.1297  0.0991
 5114SOL    HW126804   0.916   2.029   4.130  1.1808  0.0170 -1.7498
 5114SOL    HW226805   0.827   2.006   4.010  2.7937 -2.6744 -0.5906
 5115SOL     OW26806   2.553   2.149   4.444 -0.2111  0.1684 -0.2441
 5115SOL    HW126807   2.489   2.100   4.495  0.6217 -0.2432  0.3977
 5115SOL    HW226808   2.630   2.166   4.499 -0.8396  1.6821  0.1596
 5116SOL     OW26809   2.767   2.762   6.724 -0.0316  0.1970  0.4356
 5116SOL    HW126810   2.681   2.727   6.747  0.9240  0.2255  4.1132
 5116SOL    HW226811   2.752   2.849   6.762 -0.7677 -1.2910  3.6029
 5117SOL     OW26812   0.980   2.671   8.055  0.3223 -0.1882 -0.3022
 5117SOL    HW126813   0.972   2.758   8.093  0.0163  0.1139 -1.0529
 5117SOL    HW226814   0.907   2.672   7.992 -0.5987  0.7549  0.7753
 5118SOL     OW26815   0.841   3.988   7.981  0.0547  0.3618  0.6617
 5118SOL    HW126816   0.832   3.952   8.069 -0.0382 -0.2665  0.3941
 5118SOL    HW226817   0.753   3.982   7.943 -0.3789 -0.2407  1.7829
 5119SOL     OW26818   4.495   0.984   4.617  0.0505  0.3360 -0.4575
 5119SOL    HW126819   4.580   0.941   4.619 -0.4032 -0.5191  0.9590
 5119SOL    HW226820   4.527   1.069   4.589 -1.3896  1.7454  2.1789
 5120SOL     OW26821   1.767   2.528   6.826  0.3498 -0.4510 -0.1983
 5120SOL    HW126822   1.818   2.471   6.883 -1.4399  0.0415  1.9035
 5120SOL    HW226823   1.835   2.594   6.809  0.5078 -0.5510  0.0555
 5121SOL     OW26824   1.607   3.090   6.185  0.5550 -0.9942  0.1480
 5121SOL    HW126825   1.587   3.006   6.226 -0.9446 -1.2146 -1.0141
 5121SOL    HW226826   1.631   3.145   6.259 -0.1128 -1.7752  0.9356
 5122SOL     OW26827   4.456   4.191   3.073 -0.2650 -0.2996  0.0448
 5122SOL    HW126828   4.408   4.128   3.127  0.7024 -1.2369 -0.1831
 5122SOL    HW226829   4.408   4.273   3.086  3.3903  1.6339  1.6571
 5123SOL     OW26830   1.284   2.951  11.324  0.6024  0.4833 -0.4116
 5123SOL    HW126831   1.314   2.883  11.385 -1.1215 -1.3676 -1.6385
 5123SOL    HW226832   1.304   2.912  11.239 -0.6568 -1.2044  0.0598
 5124SOL     OW26833   2.361   4.616  14.673 -0.0011  0.9129  0.0248
 5124SOL    HW126834   2.432   4.631  14.735  2.7947 -1.6030 -2.5599
 5124SOL    HW226835   2.391   4.531  14.641  1.1475  1.1383  0.5272
 5125SOL     OW26836   0.613   1.048   7.558 -0.8974 -0.3011  0.6145
 5125SOL    HW126837   0.520   1.070   7.567 -1.6017 -2.5995 -1.1850
 5125SOL    HW226838   0.642   1.094   7.637 -0.0466 -0.3866  0.3529
 5126SOL     OW26839   4.569   3.256   3.353  0.3701  0.5680  0.8161
 5126SOL    HW126840   4.590   3.349   3.348 -0.9162  0.8492  0.4167
 5126SOL    HW226841   4.582   3.248   3.447 -2.6873  1.6989  1.3289
 5127SOL     OW26842   0.428   0.922   0.922  0.2594  0.2526  0.0771
 5127SOL    HW126843   0.449   0.873   0.843  0.0275  0.7004 -0.2609
 5127SOL    HW226844   0.352   0.968   0.889 -0.5429 -2.3654 -1.6767
 5128SOL     OW26845   0.122   3.096   7.711  0.1489  0.1316  0.9570
 5128SOL    HW126846   0.183   3.167   7.734  0.1244  0.3834  0.2393
 5128SOL    HW226847   0.180   3.025   7.684 -1.2373 -0.3029 -0.8604
 5129SOL     OW26848   0.878   1.837   8.365  0.7054  0.0222 -0.1280
 5129SOL    HW126849   0.895   1.898   8.294 -0.8075 -0.6225 -1.0424
 5129SOL    HW226850   0.916   1.760   8.321 -0.6678 -0.8359  0.1940
 5130SOL     OW26851   2.630   0.815   7.137 -0.5290 -0.4675  0.1843
 5130SOL    HW126852   2.698   0.855   7.192 -0.3418  1.5243 -1.4715
 5130SOL    HW226853   2.688   0.784   7.067 -1.4135  1.4023 -1.3975
 5131SOL     OW26854   2.339   3.341   6.011 -0.4354  0.4055 -0.4709
 5131SOL    HW126855   2.280   3.406   6.049 -1.9089 -0.4530 -1.2660
 5131SOL    HW226856   2.275   3.276   5.981 -0.1169 -1.0841  2.0978
 5132SOL     OW26857   3.477   2.993   5.141 -0.2804 -0.3638  0.2334
 5132SOL    HW126858   3.420   3.066   5.118  1.4520  0.4093 -1.6200
 5132SOL    HW226859   3.452   2.974   5.231  0.6649  1.8715  0.9559
 5133SOL     OW26860   3.617   0.958   0.496  0.3217 -0.3794 -0.0828
 5133SOL    HW126861   3.606   0.878   0.445  1.4247  0.2146 -1.2536
 5133SOL    HW226862   3.710   0.951   0.518 -0.0067 -0.0805  1.4199
 5134SOL     OW26863   0.806   1.663   1.865  0.2748 -0.1173 -0.2118
 5134SOL    HW126864   0.881   1.604   1.872 -0.4159 -0.8338  1.1600
 5134SOL    HW226865   0.825   1.705   1.949  0.7700  1.1401 -0.9458
 5135SOL     OW26866   3.974   0.856   0.226 -0.1611  0.1270 -0.1689
 5135SOL    HW126867   3.910   0.800   0.182  1.7853 -1.0818 -1.4894
 5135SOL    HW226868   3.937   0.870   0.313 -2.9917 -1.2805 -1.1289
 5136SOL     OW26869   2.258   1.575  13.774  0.0550  0.0647  0.2996
 5136SOL    HW126870   2.337   1.586  13.827 -0.7405 -1.1005  1.7538
 5136SOL    HW226871   2.284   1.538  13.690  1.0687  2.2064 -0.3071
 5137SOL     OW26872   2.292   4.535  15.280 -0.5567 -0.4490  0.0868
 5137SOL    HW126873   2.248   4.614  15.251  1.4625  0.0193 -1.7081
 5137SOL    HW226874   2.297   4.485  15.199  2.1999 -2.4067  1.4623
 5138SOL     OW26875   0.833   0.024  14.653 -0.3392 -0.2954  0.2767
 5138SOL    HW126876   0.869   4.687  14.586  1.5383  2.0269 -0.7016
 5138SOL    HW226877   0.755   0.059  14.608 -0.8375  0.0442  1.3961
 5139SOL     OW26878   4.432   0.964   3.494  0.0252  0.0425 -0.2455
 5139SOL    HW126879   4.423   0.964   3.399 -1.6433  0.0044 -0.0795
 5139SOL    HW226880   4.345   0.954   3.532  1.4594 -1.8367  2.5911
 5140SOL     OW26881   0.882   2.932   8.130  0.3472  0.0691 -0.1174
 5140SOL    HW126882   0.802   2.895   8.167 -0.0689  0.2552 -0.8294
 5140SOL    HW226883   0.924   2.971   8.206 -0.7492 -0.7672  0.9174
 5141SOL     OW26884   3.172   1.638   4.639  0.8338 -0.7055 -0.0543
 5141SOL    HW126885   3.188   1.549   4.670 -1.7998 -0.2653  2.5667
 5141SOL    HW226886   3.163   1.689   4.720 -2.4889 -2.4591  0.6759
 5142SOL     OW26887   3.548   3.444   6.912 -0.3744  0.6640  0.4642
 5142SOL    HW126888   3.634   3.409   6.888 -2.0651 -3.9156  1.1027
 5142SOL    HW226889   3.513   3.363   6.948  2.2701 -0.0170  1.5169
 5143SOL     OW26890   4.006   3.444   2.738  0.0934 -0.4411 -0.0654
 5143SOL    HW126891   3.979   3.495   2.661 -2.1863 -0.5560  0.6720
 5143SOL    HW226892   3.945   3.371   2.731 -1.0225  0.5355 -0.5054
 5144SOL     OW26893   2.532   1.589   2.980  0.2910 -0.0306 -0.2218
 5144SOL    HW126894   2.441   1.619   2.986 -0.0307 -0.8777 -0.8895
 5144SOL    HW226895   2.581   1.647   3.038 -1.8808  1.3374  0.2586
 5145SOL     OW26896   1.327   1.418   7.634  0.5247  0.0135  0.5033
 5145SOL    HW126897   1.288   1.430   7.547  0.8720 -3.4664 -0.1637
 5145SOL    HW226898   1.405   1.472   7.626 -0.0235  0.6190 -0.7531
 5146SOL     OW26899   3.272   3.390  11.945 -0.2039 -0.0513  0.5824
 5146SOL    HW126900   3.240   3.480  11.950  0.1737  0.1447 -0.5156
 5146SOL    HW226901   3.266   3.350  12.032  1.7463 -2.9236 -0.6107
 5147SOL     OW26902   1.173   3.430   7.938  1.0121 -0.0416  0.2065
 5147SOL    HW126903   1.165   3.464   7.849 -0.3176 -2.8617 -0.7391
 5147SOL    HW226904   1.092   3.385   7.960  0.1783  1.1698 -0.4327
 5148SOL     OW26905   3.295   2.661  17.575  0.0180  0.3327 -0.1837
 5148SOL    HW126906   3.332   2.701  17.653 -0.2098 -0.2437  0.2237
 5148SOL    HW226907   3.288   2.566  17.587 -0.6999  0.7348  2.4957
 5149SOL     OW26908   3.014   2.886   6.912 -0.0544  0.4959 -0.2486
 5149SOL    HW126909   2.995   2.948   6.842  1.5137  0.6730 -0.5255
 5149SOL    HW226910   2.992   2.942   6.986 -1.7727  1.1501 -1.2434
 5150SOL     OW26911   2.531   3.362   9.524  0.4082 -0.2756 -0.2715
 5150SOL    HW126912   2.544   3.435   9.585 -0.1015 -2.8332  2.8985
 5150SOL    HW226913   2.478   3.411   9.460  1.8763 -0.2112 -1.4234
 5151SOL     OW26914   4.169   2.227  11.728 -0.2478  0.6858 -0.1763
 5151SOL    HW126915   4.147   2.142  11.692 -1.5876  0.7580  0.4731
 5151SOL    HW226916   4.084   2.271  11.717  0.2417  1.7050  0.0746
 5152SOL     OW26917   0.773   1.729   4.185  0.2855  0.2650  0.1601
 5152SOL    HW126918   0.811   1.808   4.147  0.7617  0.1938  0.4856
 5152SOL    HW226919   0.845   1.673   4.214  2.9631  2.8070 -1.5892
 5153SOL     OW26920   0.237   3.084   6.518 -0.4760  0.2745  0.1570
 5153SOL    HW126921   0.292   3.156   6.548  0.1483  0.4264 -1.3373
 5153SOL    HW226922   0.196   3.130   6.445 -0.7187  1.2834  0.9374
 5154SOL     OW26923   2.518   0.536  14.037 -0.7331 -0.2432  0.0364
 5154SOL    HW126924   2.613   0.537  14.052 -0.3932  1.2737 -2.3543
 5154SOL    HW226925   2.499   0.471  14.105  1.0375 -0.0294  0.7411
 5155SOL     OW26926   0.291   0.212   3.352  0.1988  0.1113 -0.2668
 5155SOL    HW126927   0.229   0.144   3.326 -0.1222  0.4115 -0.2814
 5155SOL    HW226928   0.239   0.254   3.420  1.4713  0.7232  0.3414
 5156SOL     OW26929   2.732   2.429   6.415  0.4375  0.1818 -0.5444
 5156SOL    HW126930   2.669   2.474   6.471  1.3918  0.5171  0.2727
 5156SOL    HW226931   2.687   2.422   6.331 -0.4814  1.1171 -0.1335
 5157SOL     OW26932   2.125   1.466   4.354  0.5205 -0.1926 -0.1652
 5157SOL    HW126933   2.211   1.454   4.393  0.6995  2.4651  0.2980
 5157SOL    HW226934   2.155   1.533   4.293  1.0043 -0.6079 -0.3803
 5158SOL     OW26935   2.345   4.661   3.146 -0.2264 -0.4959 -0.4256
 5158SOL    HW126936   2.418   4.615   3.188 -0.5221 -0.4308  0.1674
 5158SOL    HW226937   2.404   4.720   3.100 -1.6626  1.7109  0.5273
 5159SOL     OW26938   0.029   0.167  14.387 -0.0129  0.3451  0.3963
 5159SOL    HW126939   0.118   0.151  14.356  1.2142 -0.4763  4.3114
 5159SOL    HW226940   0.035   0.156  14.482  0.2388  2.0754  0.5846
 5160SOL     OW26941   4.039   0.550   7.249  0.5526 -0.2399 -0.0863
 5160SOL    HW126942   4.028   0.536   7.343 -1.8135  0.5137 -0.2602
 5160SOL    HW226943   3.950   0.531   7.218 -0.2130  2.6110  0.3146
 5161SOL     OW26944   2.527   0.005   5.778  0.1009 -0.3677 -0.0520
 5161SOL    HW126945   2.435   4.702   5.788 -0.4440  1.7330 -0.0706
 5161SOL    HW226946   2.523   0.089   5.822  2.6820 -0.4803  0.3763
 5162SOL     OW26947   2.103   1.713   5.522  0.3919 -0.2286 -0.0508
 5162SOL    HW126948   2.060   1.761   5.451 -0.0717 -0.1582  0.2721
 5162SOL    HW226949   2.135   1.781   5.581  2.5797 -1.0462 -0.3097
 5163SOL     OW26950   2.213   0.189   5.326  0.4907  0.1920 -0.2893
 5163SOL    HW126951   2.188   0.112   5.378  2.2592  0.4442  0.9618
 5163SOL    HW226952   2.136   0.245   5.336  0.9961  0.5560  1.6290
 5164SOL     OW26953   3.811   3.362   6.834  0.3740 -0.4739  0.7647
 5164SOL    HW126954   3.767   3.289   6.790 -1.4036  1.1718 -0.2029
 5164SOL    HW226955   3.895   3.354   6.788 -1.4157  1.0113 -2.7994
 5165SOL     OW26956   1.104   3.292   6.680  0.4271  0.0720 -0.4432
 5165SOL    HW126957   1.032   3.340   6.719  0.3455 -2.2517  2.2713
 5165SOL    HW226958   1.098   3.325   6.590 -0.1265  0.5666 -0.2189
 5166SOL     OW26959   4.112   1.869   9.135  0.3945  0.4581 -0.3459
 5166SOL    HW126960   4.049   1.825   9.191  1.1894  1.2716  1.1884
 5166SOL    HW226961   4.192   1.833   9.174  0.3320  0.6770 -0.0160
 5167SOL     OW26962   1.014   3.940   3.629 -0.0306  0.0386  0.3567
 5167SOL    HW126963   1.050   3.993   3.700  2.1694  1.9243 -2.2125
 5167SOL    HW226964   1.044   3.850   3.644 -1.5793 -0.1724  2.3314
 5168SOL     OW26965   0.773   2.922  13.698 -0.4297 -0.0334 -0.2540
 5168SOL    HW126966   0.813   2.977  13.631 -1.1585 -0.7876 -1.3049
 5168SOL    HW226967   0.685   2.913  13.663  0.2388 -1.8407 -1.4501
 5169SOL     OW26968   3.694   0.123  15.914 -0.3671  0.0825 -0.0111
 5169SOL    HW126969   3.680   0.149  15.823 -0.7254  1.3281  0.4003
 5169SOL    HW226970   3.619   0.168  15.952  1.0177  2.5859 -0.2073
 5170SOL     OW26971   0.545   4.567   1.140  0.3122  0.7138 -0.5079
 5170SOL    HW126972   0.516   4.599   1.055  2.3278  0.5711 -1.2414
 5170SOL    HW226973   0.624   4.616   1.160  0.9051 -0.5550  0.2941
 5171SOL     OW26974   0.913   2.158  10.556 -0.1504  0.8414 -0.3266
 5171SOL    HW126975   0.837   2.200  10.516 -1.7982 -1.4138  0.4308
 5171SOL    HW226976   0.914   2.206  10.639 -0.4725 -0.8526  0.6642
 5172SOL     OW26977   1.758   2.254   6.192 -0.1422  0.5239  0.2393
 5172SOL    HW126978   1.752   2.168   6.232  2.8202 -0.0273 -0.4734
 5172SOL    HW226979   1.798   2.236   6.107  2.3482 -0.4196  1.6035
 5173SOL     OW26980   0.752   0.546   4.360 -0.2383 -0.1188 -0.2664
 5173SOL    HW126981   0.705   0.467   4.335 -4.1012  2.1348 -0.0583
 5173SOL    HW226982   0.766   0.522   4.451  0.8051  0.9640 -0.1329
 5174SOL     OW26983   0.426   3.229   9.757 -0.5091 -0.5718 -0.0823
 5174SOL    HW126984   0.476   3.203   9.680 -0.0386 -1.5156  0.5457
 5174SOL    HW226985   0.392   3.144   9.786 -0.2397  0.2577  2.6747
 5175SOL     OW26986   3.114   4.720   2.059  0.3462  0.4726 -0.0968
 5175SOL    HW126987   3.049   0.032   1.998  1.5673 -0.0981 -1.7200
 5175SOL    HW226988   3.057   4.673   2.120  1.2250 -0.3416  0.1094
 5176SOL     OW26989   3.216   3.453   7.102 -0.3873 -0.3434 -0.3873
 5176SOL    HW126990   3.292   3.405   7.136 -0.3808 -1.5200 -2.0480
 5176SOL    HW226991   3.173   3.385   7.050  0.8545 -1.2427 -0.2226
 5177SOL     OW26992   0.223   2.719  12.393 -0.2215  0.2942 -0.3314
 5177SOL    HW126993   0.150   2.658  12.403  0.5487 -0.5477  0.2828
 5177SOL    HW226994   0.292   2.669  12.350  2.9437  1.4574  3.3494
 5178SOL     OW26995   1.531   2.749  13.409 -0.2038  0.3847 -0.4183
 5178SOL    HW126996   1.594   2.818  13.431  0.2610 -0.3013  0.4069
 5178SOL    HW226997   1.564   2.722  13.323 -0.6330  2.2592 -1.1632
 5179SOL     OW26998   0.760   2.533   3.772 -0.0351 -0.0054  0.1251
 5179SOL    HW126999   0.760   2.588   3.693 -0.0622 -1.1992 -0.6998
 5179SOL    HW227000   0.797   2.455   3.730 -0.1749  0.1556 -0.2934
 5180SOL     OW27001   1.540   3.770   4.421  0.6695  0.3253  0.3963
 5180SOL    HW127002   1.566   3.690   4.467 -0.7819  0.0072  0.6393
 5180SOL    HW227003   1.612   3.779   4.358 -1.3935  0.2404 -2.0027
 5181SOL     OW27004   2.093   3.711  14.470 -0.1099 -0.1151  0.3378
 5181SOL    HW127005   2.149   3.750  14.403  0.4967  2.1810  2.2058
 5181SOL    HW227006   2.074   3.627  14.428 -0.2795  0.2452 -0.3059
 5182SOL     OW27007   4.489   0.944   3.106 -0.1813  0.2404  0.4504
 5182SOL    HW127008   4.535   0.993   3.174 -0.3333  0.7777  0.1619
 5182SOL    HW227009   4.482   1.013   3.041  0.0083  0.3463  0.5435
 5183SOL     OW27010   4.472   3.055   4.976  0.2006 -0.3953 -0.3980
 5183SOL    HW127011   4.392   3.018   4.940 -0.7783 -0.0750  1.4662
 5183SOL    HW227012   4.531   2.980   4.973  2.7053  1.6604 -2.6302
 5184SOL     OW27013   0.590   2.029  10.268 -0.0992  0.6565  0.3765
 5184SOL    HW127014   0.509   2.001  10.224  0.5338  0.1889 -0.5030
 5184SOL    HW227015   0.658   1.985  10.217 -0.0588  1.4966 -0.2864
 5185SOL     OW27016   4.681   2.472   8.294  0.1010 -0.4981 -0.0286
 5185SOL    HW127017   4.712   2.382   8.304  1.3270 -0.2523 -1.6058
 5185SOL    HW227018   0.034   2.523   8.327 -0.7592  1.9615 -1.9128
 5186SOL     OW27019   3.756   3.681   6.565  0.6435 -0.2040  0.2836
 5186SOL    HW127020   3.686   3.657   6.625  0.2081  1.3719  0.4238
 5186SOL    HW227021   3.707   3.680   6.482  2.4349  1.4615 -0.8078
 5187SOL     OW27022   3.571   1.484  17.413  0.3133  0.3359 -0.1109
 5187SOL    HW127023   3.490   1.440  17.389  0.9538 -1.0785  0.3466
 5187SOL    HW227024   3.632   1.448  17.348  2.0256  0.0692  1.6427
 5188SOL     OW27025   3.008   2.032   6.313 -0.1443 -0.3624  0.2055
 5188SOL    HW127026   3.021   2.114   6.360  0.4177 -0.3082 -0.0416
 5188SOL    HW227027   3.064   2.035   6.235 -2.3929  2.8125 -1.2704
 5189SOL     OW27028   1.114   0.376   4.318 -0.1315 -0.4820  0.8154
 5189SOL    HW127029   1.108   0.433   4.394 -0.0025  0.2765  0.2615
 5189SOL    HW227030   1.025   0.344   4.330  0.0007 -1.5465 -1.1028
 5190SOL     OW27031   2.768   3.470   7.676 -0.0230 -0.4993 -0.8944
 5190SOL    HW127032   2.822   3.400   7.640  0.3413  2.0720 -5.4226
 5190SOL    HW227033   2.696   3.422   7.717  2.2362 -2.0561  1.2373
 5191SOL     OW27034   4.148   1.927   0.846  0.0505 -0.0980  0.3915
 5191SOL    HW127035   4.158   1.834   0.823 -1.6241  0.1936 -1.4838
 5191SOL    HW227036   4.221   1.968   0.799 -0.7221  0.5757 -0.2154
 5192SOL     OW27037   2.394   3.806   7.629 -0.1908  0.0899  0.1616
 5192SOL    HW127038   2.411   3.798   7.722 -0.4805 -1.6028  0.0698
 5192SOL    HW227039   2.445   3.884   7.608 -0.4929  0.9333  2.5627
 5193SOL     OW27040   0.447   0.552  10.801 -0.1295  0.0875  0.4252
 5193SOL    HW127041   0.398   0.544  10.882 -0.2034 -0.6282  0.3037
 5193SOL    HW227042   0.491   0.636  10.813 -0.5814  0.5306 -0.9701
 5194SOL     OW27043   1.546   1.950   2.232 -0.3612 -0.0869  0.1704
 5194SOL    HW127044   1.570   2.043   2.234  0.1220 -0.1824 -1.0887
 5194SOL    HW227045   1.537   1.937   2.326 -0.2881  0.9224  0.3180
 5195SOL     OW27046   3.220   3.757   4.463  0.4398 -0.2774  0.0481
 5195SOL    HW127047   3.246   3.702   4.389  1.0682 -0.1287  0.1555
 5195SOL    HW227048   3.246   3.847   4.441 -2.5831  0.2852 -1.2373
 5196SOL     OW27049   1.312   4.686   2.243 -0.2348  0.5977  0.1567
 5196SOL    HW127050   1.230   0.014   2.244  0.9265  2.5935 -0.8204
 5196SOL    HW227051   1.325   4.677   2.148  1.9544 -0.3620  0.5550
 5197SOL     OW27052   3.975   3.378  10.698  0.1757  0.1843 -0.0315
 5197SOL    HW127053   3.999   3.296  10.654 -2.8983 -0.9174  0.3687
 5197SOL    HW227054   3.970   3.442  10.627 -4.8814 -0.8400 -0.5970
 5198SOL     OW27055   1.211   3.390  11.546  0.0369  0.6748  0.9247
 5198SOL    HW127056   1.177   3.438  11.470  0.7205  0.4649  0.4854
 5198SOL    HW227057   1.170   3.305  11.537 -0.6304  0.8376  2.5398
 5199SOL     OW27058   0.456   1.248   3.873 -0.4538 -0.9819  0.4865
 5199SOL    HW127059   0.483   1.322   3.819 -2.6103 -1.0646 -0.7090
 5199SOL    HW227060   0.360   1.246   3.874 -0.4715 -0.1530 -0.2392
 5200SOL     OW27061   2.188   1.782   8.267 -0.3321  0.5304  0.4186
 5200SOL    HW127062   2.192   1.841   8.342 -0.9831  1.5280 -0.3304
 5200SOL    HW227063   2.139   1.709   8.305 -1.7919  1.4895  0.3606
 5201SOL     OW27064   1.012   4.103   2.278  0.0739  0.1169 -0.6280
 5201SOL    HW127065   1.049   4.157   2.348  0.3357 -0.0424 -0.6451
 5201SOL    HW227066   1.081   4.038   2.272 -1.2227 -1.3255  0.2937
 5202SOL     OW27067   0.786   3.474  11.466 -0.3921 -0.2673 -0.4883
 5202SOL    HW127068   0.720   3.458  11.399 -0.5607 -1.1871 -0.1029
 5202SOL    HW227069   0.809   3.384  11.489 -1.9104  0.1526  2.7087
 5203SOL     OW27070   2.689   4.583   6.579 -0.7506  0.1189 -0.2319
 5203SOL    HW127071   2.723   4.669   6.602 -1.8191  0.2354  0.9094
 5203SOL    HW227072   2.724   4.518   6.640 -0.4104 -0.8734 -1.4808
 5204SOL     OW27073   2.552   1.727   7.487  0.0974  0.5542 -0.4661
 5204SOL    HW127074   2.575   1.652   7.433 -0.4114  0.8168 -1.0640
 5204SOL    HW227075   2.504   1.674   7.550 -0.6166  1.9712  0.1854
 5205SOL     OW27076   0.710   1.074   3.886 -0.0523  0.6913 -0.3881
 5205SOL    HW127077   0.681   1.007   3.824 -0.6569 -0.3784  1.0603
 5205SOL    HW227078   0.636   1.135   3.889 -0.6368 -0.1203  1.5285
 5206SOL     OW27079   2.621   2.735  15.147  0.2177 -0.5541  0.0702
 5206SOL    HW127080   2.700   2.786  15.166 -1.1944  0.9934  1.7543
 5206SOL    HW227081   2.610   2.751  15.053 -1.0392 -0.8806  0.1600
 5207SOL     OW27082   1.051   3.422   5.926  0.0134 -0.2734  0.6452
 5207SOL    HW127083   0.960   3.427   5.899  0.1125  1.0136  0.5131
 5207SOL    HW227084   1.103   3.400   5.849  0.8379 -0.8286  1.3593
 5208SOL     OW27085   1.807   1.420  10.468  0.3446  0.1824 -0.4588
 5208SOL    HW127086   1.761   1.357  10.412 -1.5527  0.1505  1.1507
 5208SOL    HW227087   1.860   1.354  10.512 -3.5403 -1.7904  1.3157
 5209SOL     OW27088   0.880   3.647   4.313 -0.2805 -0.0099  0.3399
 5209SOL    HW127089   0.901   3.686   4.398  0.6164 -1.8315  0.9667
 5209SOL    HW227090   0.940   3.572   4.316 -0.7081 -0.3147  1.4626
 5210SOL     OW27091   1.502   0.210   4.252 -0.4475  0.7926  0.1329
 5210SOL    HW127092   1.434   0.169   4.198 -0.3861 -0.2955  0.8807
 5210SOL    HW227093   1.494   0.174   4.340 -2.0535 -2.3865 -1.2817
 5211SOL     OW27094   2.027   0.550  11.580  0.0761 -0.0116 -0.4960
 5211SOL    HW127095   1.979   0.490  11.636 -0.0788  1.5830  1.0909
 5211SOL    HW227096   2.004   0.638  11.611 -1.4930 -0.1297 -1.3243
 5212SOL     OW27097   2.289   1.443  11.798 -0.3602  0.4730 -0.0459
 5212SOL    HW127098   2.257   1.353  11.797 -0.2435  0.4248  0.6104
 5212SOL    HW227099   2.259   1.460  11.887 -1.5223  1.9202 -0.7118
 5213SOL     OW27100   0.259   0.521  17.420 -0.2516  0.5026  0.4144
 5213SOL    HW127101   0.310   0.513  17.339 -1.2479  0.0470 -0.1628
 5213SOL    HW227102   0.223   0.608  17.406 -0.3376  0.5534  0.9525
 5214SOL     OW27103   0.664   0.093  12.749  0.0810  0.3931 -0.5008
 5214SOL    HW127104   0.649   0.179  12.788 -0.1022 -0.4633  1.3543
 5214SOL    HW227105   0.595   0.042  12.792  1.1824  0.2483  1.0890
 5215SOL     OW27106   1.541   3.775   6.459  0.5110 -0.3474 -0.8332
 5215SOL    HW127107   1.521   3.848   6.518 -0.6050  0.5309 -2.2997
 5215SOL    HW227108   1.594   3.814   6.390 -0.8393  0.8606 -1.1821
 5216SOL     OW27109   2.424   3.677   3.236 -0.4029  0.3185  0.3397
 5216SOL    HW127110   2.441   3.600   3.183 -1.5891  1.5435 -1.8013
 5216SOL    HW227111   2.387   3.642   3.317  0.7865 -0.9186  0.3405
 5217SOL     OW27112   3.109   3.506   4.301 -0.5358  0.6344  0.4890
 5217SOL    HW127113   3.075   3.561   4.230 -1.4345 -1.1733 -0.4732
 5217SOL    HW227114   3.042   3.438   4.312  1.6698 -1.7165 -0.5794
 5218SOL     OW27115   2.628   3.859   4.616  0.7200  0.4908  0.8799
 5218SOL    HW127116   2.656   3.871   4.525 -0.3643 -0.2212  0.4457
 5218SOL    HW227117   2.587   3.944   4.630  2.5893  1.6672 -0.9055
 5219SOL     OW27118   4.391   2.411   3.248  0.0055  0.0425  0.0566
 5219SOL    HW127119   4.432   2.332   3.213  1.8676 -0.7789  4.0291
 5219SOL    HW227120   4.336   2.444   3.178 -0.6320  0.0762  0.5736
 5220SOL     OW27121   0.057   4.685   4.765  0.2509  0.0672  0.4023
 5220SOL    HW127122   0.031   0.021   4.692  0.6518  1.1781  1.1276
 5220SOL    HW227123   0.089   4.609   4.716 -3.0819 -0.8807 -0.3143
 5221SOL     OW27124   1.768   1.111   6.483 -0.1388 -0.2411  0.2360
 5221SOL    HW127125   1.762   1.019   6.460  0.8116  0.1243 -1.4699
 5221SOL    HW227126   1.797   1.160   6.405  1.3495  0.5706  1.3030
 5222SOL     OW27127   0.727   2.554   6.161 -0.3142 -0.4664 -0.5834
 5222SOL    HW127128   0.805   2.600   6.191 -1.2307  0.4095  0.4599
 5222SOL    HW227129   0.689   2.525   6.245  0.0971 -1.2819 -0.6795
 5223SOL     OW27130   2.921   4.466  11.980 -0.2201  0.4688  0.3650
 5223SOL    HW127131   2.995   4.410  11.958 -1.3711  0.2291 -2.7977
 5223SOL    HW227132   2.861   4.419  12.039 -1.1340  0.8990 -0.2191
 5224SOL     OW27133   2.290   2.266  10.748 -0.0000  0.3183  0.1070
 5224SOL    HW127134   2.216   2.222  10.790  0.6323 -1.4306 -0.6509
 5224SOL    HW227135   2.293   2.236  10.657  0.5010  0.4121  0.0945
 5225SOL     OW27136   0.559   4.459   2.425  0.1396  0.0112  0.2112
 5225SOL    HW127137   0.623   4.412   2.477  1.1563 -1.6661 -2.5472
 5225SOL    HW227138   0.616   4.487   2.353  2.4841 -2.9476  0.9457
 5226SOL     OW27139   2.679   2.037   2.256 -0.3627  0.1433  0.2943
 5226SOL    HW127140   2.625   1.992   2.190  0.5363 -0.3979 -0.0712
 5226SOL    HW227141   2.666   2.128   2.230  0.6271 -0.0881 -0.9882
 5227SOL     OW27142   3.698   2.863   5.089  0.1526 -0.2216 -0.3074
 5227SOL    HW127143   3.744   2.899   5.165  2.3715 -0.8925 -1.3205
 5227SOL    HW227144   3.618   2.916   5.087 -1.2203 -2.2958  0.1363
 5228SOL     OW27145   0.622   1.036   0.395 -0.3044 -0.3006  0.2380
 5228SOL    HW127146   0.684   1.008   0.328  0.3993  0.4888  0.5659
 5228SOL    HW227147   0.637   1.130   0.393  1.6462 -0.6116  0.5234
 5229SOL     OW27148   2.638   2.284  15.005 -0.2793 -0.1209 -0.0485
 5229SOL    HW127149   2.573   2.217  15.027  0.2882 -0.6243  0.0968
 5229SOL    HW227150   2.703   2.231  14.958 -0.5225 -0.2505 -0.2423
 5230SOL     OW27151   3.838   2.659   2.936  0.2685 -0.1190  0.4435
 5230SOL    HW127152   3.838   2.744   2.980 -3.1931  0.8324 -1.3658
 5230SOL    HW227153   3.772   2.670   2.868 -0.4255  2.2638  1.4923
 5231SOL     OW27154   4.185   3.065  12.172 -0.5398  1.0104 -0.0179
 5231SOL    HW127155   4.150   3.102  12.253 -0.1660 -1.7751  1.3956
 5231SOL    HW227156   4.148   3.120  12.102  0.5598  1.0095 -0.6097
 5232SOL     OW27157   3.388   4.156   3.032 -0.6240  0.3164  0.2701
 5232SOL    HW127158   3.384   4.158   2.936  1.4838 -2.7456  0.1226
 5232SOL    HW227159   3.397   4.250   3.046  0.5338  0.0326  1.4559
 5233SOL     OW27160   0.885   0.367   1.107  0.3038 -0.2552 -0.0202
 5233SOL    HW127161   0.942   0.347   1.182  0.5943  0.4768 -0.0429
 5233SOL    HW227162   0.807   0.406   1.149 -0.3653 -3.8574  2.0494
 5234SOL     OW27163   1.719   0.504   9.071 -0.5044 -0.1622 -0.1544
 5234SOL    HW127164   1.657   0.475   9.138 -1.3868 -0.1495 -0.9797
 5234SOL    HW227165   1.776   0.428   9.062  0.1360  0.3225 -0.2068
 5235SOL     OW27166   1.033   2.953  15.081 -0.7791  0.0663 -0.1735
 5235SOL    HW127167   1.043   3.012  15.155 -0.8637 -0.5049  0.2939
 5235SOL    HW227168   1.121   2.942  15.045 -0.0932  1.5422  1.0406
 5236SOL     OW27169   2.550   4.506   3.238  0.6008  0.0312 -0.5342
 5236SOL    HW127170   2.576   4.438   3.175 -0.7046  0.1467 -1.2030
 5236SOL    HW227171   2.527   4.449   3.312  1.5997  3.1210  2.1105
 5237SOL     OW27172   3.364   1.746   0.972  0.1089  0.0180  0.4254
 5237SOL    HW127173   3.282   1.749   0.922 -0.2729  0.4059  1.0809
 5237SOL    HW227174   3.377   1.840   0.987 -0.8483  0.5059 -1.7424
 5238SOL     OW27175   0.131   2.324   9.552 -0.0964  0.5068  0.1187
 5238SOL    HW127176   0.113   2.416   9.574  0.0440  0.2119  1.4233
 5238SOL    HW227177   0.225   2.311   9.563 -0.3416 -1.2351  0.1956
 5239SOL     OW27178   0.058   0.014   5.713 -0.6622  0.2430  0.0050
 5239SOL    HW127179   0.043   0.089   5.771  0.5370 -0.2432  0.9444
 5239SOL    HW227180   4.691   4.700   5.698 -0.7500 -0.8537  3.0142
 5240SOL     OW27181   0.394   3.169  11.852  0.4797  0.1426  0.0086
 5240SOL    HW127182   0.479   3.168  11.809  0.5474  0.6310  0.1340
 5240SOL    HW227183   0.417   3.154  11.944 -0.0024 -1.2494 -0.0896
 5241SOL     OW27184   0.065   2.024  10.805 -0.4509 -0.3178 -0.5717
 5241SOL    HW127185   0.010   1.947  10.789  1.4381 -1.7891 -0.0414
 5241SOL    HW227186   0.078   2.058  10.716 -1.4034  1.6548  0.0489
 5242SOL     OW27187   3.105   2.991   6.263  0.2162 -0.1461  0.3837
 5242SOL    HW127188   3.122   2.901   6.294 -0.4193 -0.5121 -0.3533
 5242SOL    HW227189   3.026   3.013   6.311  0.0634 -0.0999  0.1068
 5243SOL     OW27190   4.459   2.114  12.104  0.2644 -0.7282  0.4606
 5243SOL    HW127191   4.423   2.027  12.119  1.4537 -1.1556  0.7949
 5243SOL    HW227192   4.528   2.108  12.170  0.5845  0.7990  0.2599
 5244SOL     OW27193   0.082   4.210   0.013  0.0633  0.0985 -0.9391
 5244SOL    HW127194   0.001   4.158   0.015 -1.8138  3.0828 -0.1086
 5244SOL    HW227195   0.080   4.230  17.605 -1.4558 -1.2977 -1.2209
 5245SOL     OW27196   2.831   4.194  10.325  0.4854 -0.3110 -0.0339
 5245SOL    HW127197   2.792   4.125  10.271 -1.4651  0.0779  0.9158
 5245SOL    HW227198   2.858   4.248  10.251 -1.9027 -0.1946 -0.8112
 5246SOL     OW27199   4.435   4.375   0.863 -0.4465  0.3243  0.1976
 5246SOL    HW127200   4.433   4.296   0.917  1.8490  1.1342  1.4246
 5246SOL    HW227201   4.379   4.341   0.792  0.5687  0.2437 -0.5688
 5247SOL     OW27202   0.791   0.944   0.194 -0.2665 -0.3862 -0.1016
 5247SOL    HW127203   0.802   1.039   0.192 -0.6048 -0.3418  0.0867
 5247SOL    HW227204   0.776   0.921   0.102 -2.8458 -1.2032  0.5214
 5248SOL     OW27205   1.121   3.059  16.799  0.1436 -0.2694  0.3992
 5248SOL    HW127206   1.055   3.110  16.847  0.0980  0.6025 -0.5801
 5248SOL    HW227207   1.206   3.087  16.831  1.5169 -1.2514 -2.3947
 5249SOL     OW27208   4.107   3.656  13.160  0.2390  0.2070  0.3832
 5249SOL    HW127209   4.152   3.727  13.206  0.6138  0.7413 -0.7898
 5249SOL    HW227210   4.031   3.701  13.124 -0.1503  0.7232  1.8357
 5250SOL     OW27211   3.782   1.667   8.551 -0.0596 -0.4353 -0.3811
 5250SOL    HW127212   3.872   1.658   8.517 -0.2558  0.3389 -1.1168
 5250SOL    HW227213   3.753   1.577   8.543  3.7497 -1.6028 -1.4317
 5251SOL     OW27214   0.922   1.383   3.773 -0.0198  0.2172  0.0557
 5251SOL    HW127215   0.964   1.297   3.779 -0.1467  0.1032 -0.7298
 5251SOL    HW227216   0.994   1.442   3.796  2.0856 -1.3176 -2.5556
 5252SOL     OW27217   3.884   3.549   5.672 -0.1586  0.1181  0.4152
 5252SOL    HW127218   3.935   3.469   5.684  0.9553  0.9779  1.3603
 5252SOL    HW227219   3.893   3.579   5.762  0.2037 -1.2286  0.8376
 5253SOL     OW27220   0.812   0.511  15.853 -0.0730 -0.2636  0.1021
 5253SOL    HW127221   0.818   0.461  15.772 -0.8831 -0.2096  0.0114
 5253SOL    HW227222   0.850   0.446  15.912  1.0096  1.7965  1.6553
 5254SOL     OW27223   2.178   1.887  12.446 -0.1651  0.0648 -0.0035
 5254SOL    HW127224   2.157   1.796  12.424 -2.1756  0.4595  0.2609
 5254SOL    HW227225   2.161   1.924  12.359 -1.7917 -0.5309  0.0729
 5255SOL     OW27226   1.924   3.861  11.225 -1.0218 -0.2399  0.1378
 5255SOL    HW127227   1.902   3.834  11.136 -3.5079  0.4173  0.5435
 5255SOL    HW227228   1.885   3.789  11.275 -1.7592  0.0877  0.0401
 5256SOL     OW27229   0.206   3.647  15.453 -0.2798 -0.4990  0.1614
 5256SOL    HW127230   0.224   3.740  15.438 -0.4855 -0.5721 -0.5514
 5256SOL    HW227231   0.137   3.639  15.386 -1.0718 -0.9407  1.0397
 5257SOL     OW27232   4.440   4.362   5.449 -0.4157  0.7095  0.1989
 5257SOL    HW127233   4.464   4.317   5.368  0.3735  1.2394  0.1379
 5257SOL    HW227234   4.363   4.407   5.414 -1.0209 -0.4230  0.0898
 5258SOL     OW27235   2.312   0.814  12.455 -0.3134  0.1641 -0.0567
 5258SOL    HW127236   2.394   0.828  12.407 -0.9378  1.0589 -0.8482
 5258SOL    HW227237   2.259   0.784  12.382  0.2187 -0.2883 -0.2561
 5259SOL     OW27238   3.987   1.625   5.374  0.4507 -0.3479  0.3458
 5259SOL    HW127239   4.012   1.561   5.307  1.8979 -0.9479  1.4483
 5259SOL    HW227240   3.918   1.679   5.335  0.1126 -0.3913  0.8876
 5260SOL     OW27241   2.677   3.632   1.457  0.1274  0.3723 -0.0096
 5260SOL    HW127242   2.730   3.646   1.380  3.6458  2.4385  2.8050
 5260SOL    HW227243   2.593   3.675   1.441  0.4728  0.9198 -0.3592
 5261SOL     OW27244   3.316   1.693  13.829  0.1083  0.5352  0.2259
 5261SOL    HW127245   3.411   1.697  13.817 -0.0730 -0.2207 -1.3811
 5261SOL    HW227246   3.304   1.730  13.916 -2.2887 -0.4624  0.3188
 5262SOL     OW27247   0.888   1.103   3.469 -0.1771 -0.2665 -0.1415
 5262SOL    HW127248   0.978   1.115   3.499 -0.4616  0.2296  0.5229
 5262SOL    HW227249   0.862   1.043   3.539 -0.0878 -0.3386 -0.1707
 5263SOL     OW27250   1.332   2.248   8.153  0.1619 -0.0870  0.0692
 5263SOL    HW127251   1.313   2.174   8.210  0.2395  0.1630  0.4223
 5263SOL    HW227252   1.332   2.324   8.211  1.0716  1.5106 -2.0128
 5264SOL     OW27253   2.062   0.581   7.716 -0.2710  0.2802  0.7995
 5264SOL    HW127254   2.098   0.535   7.791 -0.7040 -1.0301  0.2095
 5264SOL    HW227255   2.003   0.514   7.680 -1.9096  1.7804  0.6562
 5265SOL     OW27256   0.358   0.246  11.233 -0.3727 -0.8041  0.5802
 5265SOL    HW127257   0.298   0.247  11.159 -0.1472 -1.3872  0.3876
 5265SOL    HW227258   0.378   0.339  11.238 -1.0067 -0.7692  2.8032
 5266SOL     OW27259   2.829   1.949   6.985  0.6556  0.4060 -0.2373
 5266SOL    HW127260   2.818   1.997   6.904  1.9955  1.3437  0.1355
 5266SOL    HW227261   2.778   1.999   7.048  3.3308  2.1379  0.5609
 5267SOL     OW27262   3.056   2.530   4.960  0.0755  0.2647  0.5256
 5267SOL    HW127263   3.133   2.579   4.988 -1.7180  2.8806  0.8766
 5267SOL    HW227264   3.043   2.565   4.872 -0.0567 -2.8354 -0.6791
 5268SOL     OW27265   0.065   2.152   3.154 -0.2789 -0.0100  0.0759
 5268SOL    HW127266   0.108   2.158   3.240 -1.9380  4.1790  0.5849
 5268SOL    HW227267   0.117   2.205   3.093 -1.2948  0.6517 -0.2117
 5269SOL     OW27268   2.263   3.742   8.679 -0.6394 -0.4986 -0.2788
 5269SOL    HW127269   2.207   3.817   8.700  1.5570  0.6462  1.5805
 5269SOL    HW227270   2.221   3.676   8.735 -0.2641 -0.0555  0.5345
 5270SOL     OW27271   1.509   2.153   7.263  0.0054  0.1426 -0.2327
 5270SOL    HW127272   1.553   2.068   7.259  1.8639  1.0301  1.8126
 5270SOL    HW227273   1.514   2.176   7.355  0.2042 -0.9286  0.0276
 5271SOL     OW27274   1.912   0.092   3.215 -0.1985 -0.1686 -0.1541
 5271SOL    HW127275   1.856   0.128   3.285  0.6452  0.4510  0.1983
 5271SOL    HW227276   1.879   0.009   3.180  2.7840 -1.2516 -0.3594
 5272SOL     OW27277   1.992   1.106   5.379 -0.3426 -0.2103  0.2293
 5272SOL    HW127278   1.963   1.030   5.330  0.7636 -0.1097 -0.5751
 5272SOL    HW227279   1.909   1.125   5.425 -0.9172 -1.7464 -0.1788
 5273SOL     OW27280   0.249   1.505   0.913  0.1189  0.7831  0.2372
 5273SOL    HW127281   0.294   1.530   0.832 -1.5848  1.8365 -0.3691
 5273SOL    HW227282   0.156   1.507   0.893 -0.2352 -2.5193  1.5178
 5274SOL     OW27283   0.546   1.763   8.276 -0.3287  0.0724 -0.5031
 5274SOL    HW127284   0.529   1.719   8.193 -0.6432  1.2052 -1.0528
 5274SOL    HW227285   0.612   1.830   8.258 -1.8379  0.9936 -2.7270
 5275SOL     OW27286   3.045   2.111   4.391  0.0603  0.1817  0.1754
 5275SOL    HW127287   3.121   2.163   4.363  2.1614 -3.2239 -0.4673
 5275SOL    HW227288   2.975   2.166   4.357 -0.6948 -0.4440  0.7158
 5276SOL     OW27289   4.094   3.736  12.351  0.0906  0.4824  0.4932
 5276SOL    HW127290   4.126   3.743  12.261 -1.2730  1.6210  0.1004
 5276SOL    HW227291   4.008   3.769  12.325  0.1886  1.8148  1.8625
 5277SOL     OW27292   3.065   0.003   5.607 -0.1121 -0.1491 -0.5206
 5277SOL    HW127293   2.972   4.703   5.615 -0.4367  1.8921  0.8410
 5277SOL    HW227294   3.102   4.650   5.654 -1.1608 -0.5751 -0.3469
 5278SOL     OW27295   0.116   0.988   9.955 -0.2537 -0.9000  0.4682
 5278SOL    HW127296   0.145   1.069   9.913 -0.6855  0.1692  2.2380
 5278SOL    HW227297   0.198   0.948   9.985 -0.6154 -0.2016  2.3410
 5279SOL     OW27298   0.440   2.204   6.934 -0.0449 -0.3750 -0.2874
 5279SOL    HW127299   0.458   2.224   7.026 -1.6233 -0.5201  0.0582
 5279SOL    HW227300   0.468   2.284   6.890  0.3197  0.4647  1.4914
 5280SOL     OW27301   2.921   0.426   6.414  0.0183 -0.3285  0.0390
 5280SOL    HW127302   2.860   0.498   6.401 -0.9802 -1.5319 -1.8997
 5280SOL    HW227303   2.997   0.484   6.420 -0.4871  0.3081  0.2478
 5281SOL     OW27304   4.281   3.902   3.435  0.3434 -0.2354 -0.3688
 5281SOL    HW127305   4.361   3.871   3.392  1.4425 -0.3819  1.7319
 5281SOL    HW227306   4.234   3.823   3.462 -0.6123  0.0797 -1.1292
 5282SOL     OW27307   1.374   4.251   3.308 -0.3875  0.0431 -0.0135
 5282SOL    HW127308   1.410   4.320   3.253 -0.8465  1.3979  1.3944
 5282SOL    HW227309   1.295   4.225   3.261  1.0645 -2.9168 -0.8155
 5283SOL     OW27310   1.577   1.266  17.317 -0.4558 -0.1978 -0.3223
 5283SOL    HW127311   1.535   1.252  17.402  1.3009  3.5100  1.1472
 5283SOL    HW227312   1.642   1.197  17.333 -0.5304 -0.5648 -1.5905
 5284SOL     OW27313   4.010   3.755   0.317  0.0699  0.1160 -0.1579
 5284SOL    HW127314   3.941   3.757   0.383  1.4328 -1.0335  1.2838
 5284SOL    HW227315   4.013   3.846   0.287  2.2616  0.4445  1.0923
 5285SOL     OW27316   0.046   1.191   8.932 -0.2312  0.8390 -0.1507
 5285SOL    HW127317   0.029   1.281   8.958  1.1991  0.6614  1.4027
 5285SOL    HW227318   0.091   1.204   8.848 -0.8813 -0.2815 -0.6847
 5286SOL     OW27319   0.543   3.553  10.560 -1.0276 -0.1305 -0.6396
 5286SOL    HW127320   0.451   3.545  10.537 -1.2137  0.8639 -0.2558
 5286SOL    HW227321   0.539   3.613  10.634 -0.2256  0.7083 -1.2664
 5287SOL     OW27322   1.164   4.018   8.846 -0.0251  0.3681  0.1035
 5287SOL    HW127323   1.192   3.934   8.883  0.3193  0.5182  0.1814
 5287SOL    HW227324   1.121   4.056   8.923  1.1581 -1.6814  1.7692
 5288SOL     OW27325   3.583   3.864   8.638  0.1468 -0.2902  0.1171
 5288SOL    HW127326   3.656   3.881   8.578  1.9275 -1.1219  2.0746
 5288SOL    HW227327   3.608   3.783   8.682 -0.7647  0.4863  2.0352
 5289SOL     OW27328   2.525   3.086   2.496  0.0921 -0.3734 -0.6474
 5289SOL    HW127329   2.497   3.112   2.583 -1.5705 -0.0215 -1.2942
 5289SOL    HW227330   2.609   3.045   2.518 -0.1938 -1.1978 -1.0683
 5290SOL     OW27331   3.141   3.016  17.616  0.3403  0.0284 -0.3094
 5290SOL    HW127332   3.058   3.037  17.657  0.6939  1.8856 -0.5235
 5290SOL    HW227333   3.179   2.967   0.003  0.3415 -0.1991 -0.4624
 5291SOL     OW27334   1.313   2.820   9.967 -0.1095  0.4402  0.0458
 5291SOL    HW127335   1.374   2.815   9.894 -0.3674  0.1482 -0.1486
 5291SOL    HW227336   1.251   2.886   9.935  0.5559  0.4229 -1.2764
 5292SOL     OW27337   1.388   3.933   1.453 -0.2054 -0.2376  0.2448
 5292SOL    HW127338   1.374   3.851   1.500  1.0716 -1.4850 -1.5530
 5292SOL    HW227339   1.402   3.995   1.525 -0.1799 -1.5709  1.3775
 5293SOL     OW27340   2.056   0.790   1.450 -0.2701  0.0074  0.0579
 5293SOL    HW127341   2.144   0.777   1.415 -0.2482 -1.1124  0.5112
 5293SOL    HW227342   2.048   0.885   1.449 -1.0233 -0.0680 -1.9404
 5294SOL     OW27343   1.893   0.781   5.856  0.1212  0.3951 -0.4623
 5294SOL    HW127344   1.892   0.708   5.917 -0.8084 -0.0153 -0.9800
 5294SOL    HW227345   1.885   0.855   5.916  0.4807  0.2115 -0.1898
 5295SOL     OW27346   2.121   2.827   2.009  0.0139 -0.1472  0.4707
 5295SOL    HW127347   2.088   2.752   1.961 -1.4313  0.7083  0.1204
 5295SOL    HW227348   2.216   2.825   1.996  0.2089 -0.7852  1.9504
 5296SOL     OW27349   0.256   3.800  15.851 -0.5812  0.8569  0.0532
 5296SOL    HW127350   0.165   3.827  15.857 -1.4278 -1.9761  0.1801
 5296SOL    HW227351   0.296   3.882  15.880 -1.7117  1.4223 -0.0032
 5297SOL     OW27352   2.640   1.706   6.930  0.3068 -0.6435  0.4305
 5297SOL    HW127353   2.690   1.776   6.971  1.1498 -0.5733 -0.7291
 5297SOL    HW227354   2.641   1.729   6.837  1.7841  0.1562  0.6443
 5298SOL     OW27355   4.194   4.343   9.752  0.7671 -0.0552 -0.0992
 5298SOL    HW127356   4.168   4.325   9.662 -0.8717 -2.6768  0.9030
 5298SOL    HW227357   4.248   4.267   9.777 -0.7680 -0.7561  1.0639
 5299SOL     OW27358   3.151   4.414   3.723 -0.5973 -0.6270  0.2930
 5299SOL    HW127359   3.176   4.506   3.727 -1.1110 -0.5074  0.7194
 5299SOL    HW227360   3.130   4.395   3.815 -0.5645  0.7046  0.5696
 5300SOL     OW27361   3.972   1.277   1.753 -0.6225 -0.3114  0.0851
 5300SOL    HW127362   3.999   1.215   1.820  2.4247  0.0511 -0.8073
 5300SOL    HW227363   3.980   1.354   1.808 -2.0678 -1.1866  1.5195
 5301SOL     OW27364   3.620   3.345   8.197 -0.1320  0.4292  0.2071
 5301SOL    HW127365   3.582   3.432   8.191 -0.2151  0.3139 -0.9952
 5301SOL    HW227366   3.698   3.384   8.156  0.6678  0.5742  1.8773
 5302SOL     OW27367   0.411   1.860   3.166  0.6838  0.4213 -0.0975
 5302SOL    HW127368   0.506   1.847   3.166  0.7064  0.6593  1.1330
 5302SOL    HW227369   0.402   1.940   3.217 -1.5791  0.1052 -0.0351
 5303SOL     OW27370   3.947   3.081  10.598  0.6227 -0.7943  0.4790
 5303SOL    HW127371   4.023   3.046  10.552  0.6938  0.4933 -0.3923
 5303SOL    HW227372   3.883   3.117  10.536  0.2391 -4.0300 -0.9998
 5304SOL     OW27373   2.292   3.188   4.311 -0.2839 -0.1016 -0.1083
 5304SOL    HW127374   2.340   3.260   4.352  1.6848  0.0711 -2.6901
 5304SOL    HW227375   2.357   3.118   4.317  0.9608  0.8874 -2.0528
 5305SOL     OW27376   2.930   0.724   1.714  0.5521  0.0841  0.2950
 5305SOL    HW127377   2.993   0.682   1.772 -0.0463 -1.3286 -0.0870
 5305SOL    HW227378   2.856   0.738   1.772  1.8416  0.3627  1.8632
 5306SOL     OW27379   2.933   1.323   9.328 -0.2622  0.7147 -0.2876
 5306SOL    HW127380   2.992   1.308   9.254 -0.1502  0.6861 -0.1920
 5306SOL    HW227381   2.950   1.248   9.385 -2.3275  0.3288 -0.1909
 5307SOL     OW27382   0.984   0.053   4.690  0.9374 -0.3236 -0.4259
 5307SOL    HW127383   0.889   0.057   4.679  0.7822  1.2291  1.4817
 5307SOL    HW227384   1.008   0.145   4.681  1.5924 -0.4094  0.4579
 5308SOL     OW27385   3.483   3.202   7.662 -0.4191  0.1978  0.2029
 5308SOL    HW127386   3.455   3.289   7.690 -3.5902  0.0068 -2.5046
 5308SOL    HW227387   3.520   3.181   7.748  1.1700 -0.9378 -0.7498
 5309SOL     OW27388   1.273   2.862   0.005 -0.2273 -0.2684 -0.1051
 5309SOL    HW127389   1.248   2.941  17.643 -0.8780 -1.1852 -1.2752
 5309SOL    HW227390   1.299   2.806  17.618  0.0393  0.4177 -0.5445
 5310SOL     OW27391   2.460   1.010  17.382  0.7939  0.8228  0.0504
 5310SOL    HW127392   2.537   0.983  17.432  1.0064 -0.2134 -0.8405
 5310SOL    HW227393   2.495   0.984  17.296 -0.6886 -0.3606 -0.2000
 5311SOL     OW27394   2.107   0.236   2.857 -0.9390 -0.3419  0.0914
 5311SOL    HW127395   2.151   0.239   2.942 -0.7142 -1.5347  0.0260
 5311SOL    HW227396   2.052   0.159   2.876 -0.4302 -0.8545 -0.5240
 5312SOL     OW27397   0.201   4.659   1.746  0.6258  0.0216 -0.0706
 5312SOL    HW127398   0.121   4.688   1.790  0.1087 -0.5850 -0.6178
 5312SOL    HW227399   0.247   4.612   1.815 -0.9190 -0.6175  0.5148
 5313SOL     OW27400   4.078   2.816  13.544  0.1172  0.4303 -0.5144
 5313SOL    HW127401   4.121   2.782  13.465  2.1430  1.9902 -0.0975
 5313SOL    HW227402   4.037   2.899  13.520  1.9512  1.2405 -0.9148
 5314SOL     OW27403   2.977   3.955   6.156  0.5581 -0.0329 -0.1696
 5314SOL    HW127404   2.899   3.904   6.138  0.6856 -0.2386 -0.1345
 5314SOL    HW227405   3.042   3.913   6.099  0.8307  2.1162 -1.4706
 5315SOL     OW27406   1.611   1.527   7.593  0.4827 -0.6051 -0.3657
 5315SOL    HW127407   1.633   1.616   7.564  1.0363 -0.3109  0.9781
 5315SOL    HW227408   1.643   1.544   7.682 -2.9967  1.2937  0.4981
 5316SOL     OW27409   0.780   1.207   8.469 -0.0971  0.5088 -0.0050
 5316SOL    HW127410   0.827   1.168   8.395  3.5833  0.3266  2.4519
 5316SOL    HW227411   0.820   1.294   8.466 -0.1602  0.5567  0.5539
 5317SOL     OW27412   1.842   0.041  15.196  0.6484 -0.4289 -0.4374
 5317SOL    HW127413   1.833   0.032  15.291 -0.8975  1.4508 -0.4202
 5317SOL    HW227414   1.766   0.095  15.175  2.5938  2.1612 -0.7110
 5318SOL     OW27415   3.051   4.084  17.188  0.1454  0.0238  0.3126
 5318SOL    HW127416   3.083   4.167  17.222  0.9320 -0.4626  0.7651
 5318SOL    HW227417   3.124   4.059  17.132  1.6169  3.8007  0.5887
 5319SOL     OW27418   1.279   2.766  11.553 -0.3562 -0.1167 -0.8632
 5319SOL    HW127419   1.214   2.809  11.610  1.0411  2.5935 -1.3134
 5319SOL    HW227420   1.220   2.699  11.518 -1.3023  0.3756 -0.2372
 5320SOL     OW27421   1.696   1.714   6.462 -0.2995 -0.1495 -0.5558
 5320SOL    HW127422   1.711   1.627   6.426 -2.0627 -0.5492 -0.3024
 5320SOL    HW227423   1.602   1.716   6.479 -0.2252 -0.0178 -0.1397
 5321SOL     OW27424   3.302   3.521   2.610 -0.8822  0.5576 -0.2780
 5321SOL    HW127425   3.278   3.515   2.703 -1.7899 -0.8698 -0.6015
 5321SOL    HW227426   3.232   3.464   2.578 -0.0701 -0.4543 -0.2521
 5322SOL     OW27427   2.427   4.400  17.317  0.0238  0.0041  0.9671
 5322SOL    HW127428   2.408   4.343  17.392  0.9646  0.3180  1.4569
 5322SOL    HW227429   2.447   4.331  17.254  0.4383  1.7533 -0.7851
 5323SOL     OW27430   1.814   1.344   4.244 -0.3101 -0.1223 -0.5681
 5323SOL    HW127431   1.761   1.344   4.323 -0.8590 -1.4695 -0.9292
 5323SOL    HW227432   1.823   1.437   4.224  3.7469 -0.5095 -0.5463
 5324SOL     OW27433   4.459   2.972  16.434 -0.3597 -0.5105  0.5165
 5324SOL    HW127434   4.513   2.925  16.498  0.5686 -0.2114 -0.0398
 5324SOL    HW227435   4.512   2.973  16.354 -1.8934  1.4236 -0.4465
 5325SOL     OW27436   3.340   3.777   5.587  0.6086 -1.3004  0.2791
 5325SOL    HW127437   3.329   3.727   5.667 -0.9577 -0.7735  0.3958
 5325SOL    HW227438   3.250   3.806   5.573  0.8543 -1.2252 -1.2083
 5326SOL     OW27439   1.232   2.721   5.472  0.0063 -0.2948  0.6749
 5326SOL    HW127440   1.234   2.754   5.382  1.2410  0.6857  1.0611
 5326SOL    HW227441   1.187   2.798   5.508 -0.8224 -0.7495  0.6243
 5327SOL     OW27442   3.072   3.492   5.138  0.1233  0.1038  0.2235
 5327SOL    HW127443   3.168   3.497   5.145  0.1242  0.2557  0.1068
 5327SOL    HW227444   3.058   3.439   5.060  0.1036  1.1179 -0.4631
 5328SOL     OW27445   3.900   2.285   1.644  0.2464 -0.0109 -0.0382
 5328SOL    HW127446   3.936   2.218   1.586  1.4748 -1.7132  2.7027
 5328SOL    HW227447   3.828   2.308   1.585 -0.3238 -0.3039  0.5469
 5329SOL     OW27448   1.915   2.290   2.868 -0.2973  0.0919 -0.9345
 5329SOL    HW127449   1.957   2.247   2.793  0.8838 -0.5950  0.1090
 5329SOL    HW227450   1.852   2.224   2.899  0.6876 -0.0580  0.8082
 5330SOL     OW27451   3.656   1.094  14.050  0.0141 -0.3818 -0.1428
 5330SOL    HW127452   3.644   1.115  13.957 -2.6729  1.1241  0.5459
 5330SOL    HW227453   3.657   1.181  14.089  0.9723 -0.2515 -0.4619
 5331SOL     OW27454   4.307   4.298   4.993  0.1704  0.2311  0.5725
 5331SOL    HW127455   4.375   4.363   4.975  0.3743 -0.0506  0.3253
 5331SOL    HW227456   4.336   4.269   5.079  0.4011 -0.4101  0.2781
 5332SOL     OW27457   2.691   0.070  14.233  0.3483 -0.0250 -0.0141
 5332SOL    HW127458   2.638   0.068  14.312 -0.6710 -0.7073 -0.7129
 5332SOL    HW227459   2.749   0.003  14.267  1.2852 -0.1206 -1.7855
 5333SOL     OW27460   0.190   0.936   5.916 -0.3205 -0.3062  0.2509
 5333SOL    HW127461   0.135   1.014   5.923  0.8967  0.7963 -2.4140
 5333SOL    HW227462   0.273   0.981   5.898  1.3358 -2.7993  1.7759
 5334SOL     OW27463   1.940   0.308   5.598 -0.1940  0.0338 -0.4923
 5334SOL    HW127464   1.970   0.341   5.514  0.0392  0.0743 -0.3905
 5334SOL    HW227465   1.927   0.392   5.642 -1.0489 -0.1561 -0.3740
 5335SOL     OW27466   1.331   1.401  14.837  0.2633 -0.1855  0.6660
 5335SOL    HW127467   1.414   1.444  14.855 -0.5545  1.3589  0.7847
 5335SOL    HW227468   1.330   1.401  14.741  0.4912 -1.9265  0.6649
 5336SOL     OW27469   3.688   1.118  17.439 -0.3346 -0.0115  0.0453
 5336SOL    HW127470   3.708   1.201  17.484 -2.5511  2.8208 -4.2071
 5336SOL    HW227471   3.747   1.053  17.477  2.2429  0.6230 -2.9157
 5337SOL     OW27472   3.215   0.223  11.273 -0.6947 -0.2456  0.1165
 5337SOL    HW127473   3.211   0.276  11.353 -1.7371  0.3920 -0.3547
 5337SOL    HW227474   3.179   0.141  11.307  2.0022 -1.1182  0.8343
 5338SOL     OW27475   1.307   2.035   6.908  0.3929 -0.1960  0.0883
 5338SOL    HW127476   1.249   1.985   6.965  1.8089  1.5555  3.0141
 5338SOL    HW227477   1.327   2.103   6.972  1.1618  0.1618 -0.5274
 5339SOL     OW27478   3.850   1.561   4.399  0.0708 -0.4660  0.5663
 5339SOL    HW127479   3.879   1.630   4.459 -1.0306 -0.5305  1.1620
 5339SOL    HW227480   3.921   1.497   4.406  0.2037 -0.3693  0.0876
 5340SOL     OW27481   1.719   3.820   8.202 -0.0963  0.1990  0.2183
 5340SOL    HW127482   1.625   3.820   8.218  0.2896 -0.2742  2.4773
 5340SOL    HW227483   1.745   3.735   8.237 -1.4002 -0.4390 -0.3626
 5341SOL     OW27484   0.853   2.859   4.281  0.4594  0.0943  0.5244
 5341SOL    HW127485   0.916   2.836   4.349  1.9314  1.8365 -0.2512
 5341SOL    HW227486   0.908   2.877   4.205 -0.5657 -2.1440 -0.7285
 5342SOL     OW27487   0.665   0.814   7.117  0.0825 -0.1438 -0.0558
 5342SOL    HW127488   0.634   0.742   7.171  0.8120  0.2915  0.9321
 5342SOL    HW227489   0.655   0.875   7.191 -1.8857 -0.7570  0.1962
 5343SOL     OW27490   0.779   1.597  15.549  0.4352  0.5664  0.8950
 5343SOL    HW127491   0.848   1.663  15.544  0.3753  0.5914  0.4583
 5343SOL    HW227492   0.703   1.653  15.567 -0.7943 -0.6980 -0.4234
 5344SOL     OW27493   0.829   3.223   5.850 -0.1042 -0.0835  0.3996
 5344SOL    HW127494   0.777   3.303   5.859  0.1380 -0.0738  1.8273
 5344SOL    HW227495   0.759   3.158   5.850  0.5230 -0.7507 -1.2282
 5345SOL     OW27496   2.837   3.800   6.611 -0.5347 -0.6920  0.0730
 5345SOL    HW127497   2.884   3.826   6.532  1.0079  0.5692  1.4257
 5345SOL    HW227498   2.777   3.734   6.576 -1.0428 -0.9065  1.3550
 5346SOL     OW27499   2.802   1.294  12.107 -0.4083 -0.2231 -0.3729
 5346SOL    HW127500   2.815   1.208  12.147  1.3521  0.3176  0.2565
 5346SOL    HW227501   2.707   1.300  12.097 -0.1192  0.5073 -2.6380
 5347SOL     OW27502   3.821   2.300   8.306  0.4627 -0.3046 -0.4938
 5347SOL    HW127503   3.731   2.271   8.321 -0.6061  1.8267 -2.6956
 5347SOL    HW227504   3.837   2.366   8.373 -0.8028 -1.8121  1.2657
 5348SOL     OW27505   3.968   3.780   5.186  0.7187  0.0996  0.0412
 5348SOL    HW127506   3.961   3.874   5.167  0.2325 -0.2083 -1.2671
 5348SOL    HW227507   3.883   3.746   5.157  1.1302 -1.1213  0.2814
 5349SOL     OW27508   4.564   3.158   1.822  0.2990  0.8570  0.1806
 5349SOL    HW127509   4.603   3.241   1.849 -1.1728  1.8370 -0.7344
 5349SOL    HW227510   4.621   3.123   1.753  0.3525  0.5756  0.3667
 5350SOL     OW27511   3.539   3.230   2.416 -0.0128 -0.0435  0.3055
 5350SOL    HW127512   3.477   3.164   2.447  0.3339 -0.2542  0.5459
 5350SOL    HW227513   3.592   3.176   2.357 -0.4601 -2.7681  2.3726
 5351SOL     OW27514   2.954   2.366   5.658 -0.1799  0.0608  0.0776
 5351SOL    HW127515   2.872   2.320   5.674 -1.1973  1.4902 -0.9491
 5351SOL    HW227516   3.023   2.310   5.694 -0.0731  0.5829  0.6863
 5352SOL     OW27517   1.042   3.327   0.943  0.3596 -0.3413  0.7037
 5352SOL    HW127518   1.055   3.257   0.879  0.3194  0.2581  0.0305
 5352SOL    HW227519   1.106   3.395   0.920  1.0157 -0.9819  0.6531
 5353SOL     OW27520   3.223   2.211  13.633  0.2412  0.0268 -0.4837
 5353SOL    HW127521   3.316   2.188  13.630 -0.1557 -1.6306  0.0192
 5353SOL    HW227522   3.214   2.295  13.588 -1.8210 -0.1223 -0.3333
 5354SOL     OW27523   1.971   4.003  10.586  0.1034 -0.0624  0.8862
 5354SOL    HW127524   2.037   4.001  10.655 -0.1108 -1.4344  1.0480
 5354SOL    HW227525   1.939   3.913  10.588 -0.1199  0.0096  0.4636
 5355SOL     OW27526   1.909   3.230   5.851 -0.5265  0.6793 -0.3427
 5355SOL    HW127527   1.914   3.177   5.932 -1.9690 -0.1059 -0.7774
 5355SOL    HW227528   1.940   3.163   5.790  0.8053  0.2444  0.8045
 5356SOL     OW27529   1.568   3.780  15.175  0.2210  0.0904  0.2653
 5356SOL    HW127530   1.501   3.827  15.225  0.7749  3.2364 -1.9543
 5356SOL    HW227531   1.649   3.779  15.225  0.2065  3.6785  0.3667
 5357SOL     OW27532   1.704   3.298  17.083 -0.4540  0.3760  0.5080
 5357SOL    HW127533   1.706   3.207  17.113 -2.5633  0.6467  1.4862
 5357SOL    HW227534   1.657   3.348  17.149 -0.9442 -2.1090  2.0400
 5358SOL     OW27535   0.700   4.708   7.749 -0.1905  0.2114  0.7030
 5358SOL    HW127536   0.779   0.020   7.704 -0.1018 -0.6345  0.2448
 5358SOL    HW227537   0.724   4.641   7.813  1.4190  0.3013  0.2149
 5359SOL     OW27538   1.205   1.056   5.541  0.2150 -0.0742 -0.1432
 5359SOL    HW127539   1.289   1.095   5.563 -0.3086 -0.2634  2.2343
 5359SOL    HW227540   1.161   1.138   5.517  1.3514  0.6877  0.3862
 5360SOL     OW27541   2.895   0.553  12.434  0.7556  0.0668  0.2675
 5360SOL    HW127542   2.957   0.591  12.497 -0.3179  0.7604  0.9084
 5360SOL    HW227543   2.864   0.629  12.385  0.3102 -0.3427 -0.0710
 5361SOL     OW27544   2.475   3.454   5.766  0.0039  0.4012  0.1215
 5361SOL    HW127545   2.534   3.390   5.726  0.0981  0.9248 -0.5742
 5361SOL    HW227546   2.462   3.413   5.851 -0.3570  0.9858  0.3486
 5362SOL     OW27547   1.961   3.983   7.319 -0.0376 -0.1807 -0.7925
 5362SOL    HW127548   1.989   4.000   7.409  1.2749 -1.6842 -0.9136
 5362SOL    HW227549   2.015   4.040   7.264 -0.2424  0.8287  0.0364
 5363SOL     OW27550   2.472   3.549  17.013  0.6530 -0.9524  0.1884
 5363SOL    HW127551   2.385   3.585  16.997  0.4039 -2.3325 -1.5760
 5363SOL    HW227552   2.446   3.458  17.025 -3.3101  0.0684 -0.5059
 5364SOL     OW27553   4.710   1.898  13.430 -0.2830 -0.0979 -0.0632
 5364SOL    HW127554   4.655   1.841  13.376  0.6577 -0.1745 -0.9411
 5364SOL    HW227555   0.040   1.835  13.481 -0.2791  0.2573  0.3734
 5365SOL     OW27556   3.705   2.498   5.767  0.7060  0.5084  0.1747
 5365SOL    HW127557   3.677   2.529   5.854 -0.2126 -1.3172  0.5316
 5365SOL    HW227558   3.667   2.410   5.767 -0.0722  0.8430  0.9098
 5366SOL     OW27559   4.489   3.622   8.230 -0.5577 -0.1145 -0.1150
 5366SOL    HW127560   4.460   3.546   8.281 -2.1149  1.8331  1.8848
 5366SOL    HW227561   4.459   3.706   8.265  3.3215  1.3020 -0.1592
 5367SOL     OW27562   3.883   2.699  11.797  0.1088  0.2883 -0.0571
 5367SOL    HW127563   3.862   2.617  11.841  0.7722 -0.5800 -1.3270
 5367SOL    HW227564   3.957   2.731  11.848  0.0346  1.3140 -0.5892
 5368SOL     OW27565   0.175   2.411   7.633 -0.3433  0.5618  0.4263
 5368SOL    HW127566   0.225   2.480   7.677 -0.3065  1.6298 -1.2747
 5368SOL    HW227567   0.145   2.365   7.711 -1.0824 -0.1308 -0.2690
 5369SOL     OW27568   2.629   4.571   2.614 -0.1642  0.0972  0.1919
 5369SOL    HW127569   2.558   4.622   2.574 -2.5085 -2.5266  1.0123
 5369SOL    HW227570   2.644   4.501   2.551 -0.6939 -0.1616  0.3470
 5370SOL     OW27571   4.610   3.767   1.095  0.1049  0.3433  0.2076
 5370SOL    HW127572   4.548   3.701   1.126  0.4315 -0.1731 -0.2459
 5370SOL    HW227573   4.664   3.717   1.034 -3.1768 -1.1187 -1.4964
 5371SOL     OW27574   4.111   0.583  17.207 -0.5635 -0.5534 -0.2513
 5371SOL    HW127575   4.031   0.533  17.224 -0.8303 -0.5257 -1.4310
 5371SOL    HW227576   4.071   0.670  17.212 -0.1021 -0.3541 -0.0057
 5372SOL     OW27577   0.072   3.393   8.096  0.1759 -0.3710 -0.1410
 5372SOL    HW127578   0.097   3.302   8.115  1.5872 -0.1445 -0.8999
 5372SOL    HW227579   0.162   3.422   8.085 -0.0708  0.9866  1.5076
 5373SOL     OW27580   0.706   2.503   6.432  0.0624 -0.5698 -0.2144
 5373SOL    HW127581   0.634   2.565   6.435  0.5884  0.0210  0.3817
 5373SOL    HW227582   0.772   2.573   6.438 -0.5396 -0.1268  1.3153
 5374SOL     OW27583   1.328   1.840   4.002  0.1175  0.6125  0.1750
 5374SOL    HW127584   1.331   1.914   3.941  1.8276  0.6295  0.3045
 5374SOL    HW227585   1.381   1.859   4.079 -2.0911 -1.5372  2.2362
 5375SOL     OW27586   2.595   0.275   7.103  0.3740 -0.2182  0.1794
 5375SOL    HW127587   2.575   0.189   7.066  0.3307 -0.6422  1.1885
 5375SOL    HW227588   2.609   0.324   7.022 -0.8980 -2.5618 -1.4886
 5376SOL     OW27589   3.027   4.417   8.209 -0.2026  0.1004  0.5847
 5376SOL    HW127590   2.983   4.498   8.234  0.0549 -0.8778  4.2744
 5376SOL    HW227591   3.047   4.382   8.296  0.0181  1.6870  1.1739
 5377SOL     OW27592   2.975   0.548   0.367 -0.0547  0.2548  0.5775
 5377SOL    HW127593   3.051   0.525   0.314 -0.8000 -2.5166  0.6596
 5377SOL    HW227594   2.911   0.479   0.344 -1.3976  0.9338  2.2934
 5378SOL     OW27595   3.941   4.043   9.692  0.1222  0.2339 -0.1073
 5378SOL    HW127596   3.977   4.025   9.779  0.8924 -0.0616 -0.4852
 5378SOL    HW227597   3.896   4.127   9.706  1.0401  0.7898 -0.4917
 5379SOL     OW27598   4.435   4.662   3.078 -0.1671  0.3933 -0.1265
 5379SOL    HW127599   4.490   4.653   3.000 -1.1391  1.0798 -0.8844
 5379SOL    HW227600   4.357   4.648   3.025 -0.5468 -0.1412  0.5691
 5380SOL     OW27601   0.910   2.689   1.912 -0.6346  0.1399 -0.1078
 5380SOL    HW127602   1.004   2.711   1.913 -0.4608 -0.5322 -1.2138
 5380SOL    HW227603   0.904   2.667   1.819 -1.1153 -2.2071  0.4685
 5381SOL     OW27604   3.606   4.271   1.789 -0.4738  0.0503  0.3299
 5381SOL    HW127605   3.619   4.269   1.884 -2.1749  0.5296  0.5839
 5381SOL    HW227606   3.593   4.181   1.759  1.0003  0.5078 -1.6376
 5382SOL     OW27607   2.383   0.722   1.966 -0.1097  0.3736  0.0745
 5382SOL    HW127608   2.368   0.637   2.007  0.9154  0.3742  0.4398
 5382SOL    HW227609   2.449   0.758   2.025 -2.2854  1.6461  1.7176
 5383SOL     OW27610   3.838   0.252   4.681 -0.2821 -0.1684  0.0128
 5383SOL    HW127611   3.786   0.313   4.628 -0.7102  1.7118  2.5956
 5383SOL    HW227612   3.922   0.297   4.689 -2.0120  2.4822  3.2200
 5384SOL     OW27613   1.405   2.767  13.645  0.1287 -0.1815 -0.0431
 5384SOL    HW127614   1.468   2.833  13.674  0.4854  0.3510 -1.9992
 5384SOL    HW227615   1.446   2.735  13.564 -1.2070 -0.5777 -0.5631
 5385SOL     OW27616   2.733   0.040  16.183  0.0305  0.5170  0.0046
 5385SOL    HW127617   2.702   4.705  16.255  0.2632  2.2820  1.4735
 5385SOL    HW227618   2.808   0.080  16.227 -0.7709  1.2178  0.7176
 5386SOL     OW27619   3.552   4.627   7.996  0.3085  0.1560  0.5129
 5386SOL    HW127620   3.543   4.703   8.054  2.7570  1.0570 -0.2616
 5386SOL    HW227621   3.462   4.597   7.999  1.5912 -3.7930 -0.5045
 5387SOL     OW27622   3.528   4.384  12.277  0.7513  0.1184  0.3411
 5387SOL    HW127623   3.604   4.413  12.226 -0.0038  2.6290  0.6259
 5387SOL    HW227624   3.487   4.329  12.210 -1.7146  1.1710  0.9855
 5388SOL     OW27625   2.497   2.083   6.881  0.0779 -0.3118 -0.1880
 5388SOL    HW127626   2.546   2.144   6.826 -1.6598  0.1883 -1.1845
 5388SOL    HW227627   2.547   2.056   6.958 -0.7073 -1.3873 -0.0560
 5389SOL     OW27628   4.389   4.050   4.673 -0.5702 -0.1580  0.4473
 5389SOL    HW127629   4.317   4.111   4.692 -1.4444 -0.4178 -2.0128
 5389SOL    HW227630   4.434   4.101   4.606 -0.4943  1.4022  1.6696
 5390SOL     OW27631   2.820   0.974  11.603  0.1050  0.2908 -0.3783
 5390SOL    HW127632   2.910   0.972  11.570  1.1790  1.5459  2.5103
 5390SOL    HW227633   2.822   0.908  11.673 -0.6447 -1.3621 -1.9212
 5391SOL     OW27634   0.424   1.242   2.361 -0.3095 -0.0756  0.1071
 5391SOL    HW127635   0.422   1.247   2.266 -1.7510  2.8819  0.2878
 5391SOL    HW227636   0.460   1.329   2.383  1.0637 -0.8788  1.1052
 5392SOL     OW27637   3.199   4.111   5.677  0.1694  0.4501  0.1693
 5392SOL    HW127638   3.174   4.039   5.619 -0.3721  0.1554  0.7666
 5392SOL    HW227639   3.132   4.179   5.664  0.2585  0.0938 -2.2903
 5393SOL     OW27640   3.759   3.538  15.985 -0.1438  0.4689 -0.1462
 5393SOL    HW127641   3.760   3.619  16.035  1.6153  0.2897  0.0870
 5393SOL    HW227642   3.842   3.539  15.938 -0.0554 -2.4192 -0.0837
 5394SOL     OW27643   0.826   2.889   6.672 -0.0763  0.3340 -0.3704
 5394SOL    HW127644   0.745   2.839   6.681  0.4501 -0.7120 -1.5565
 5394SOL    HW227645   0.844   2.877   6.765  0.5181 -2.8793 -0.9120
 5395SOL     OW27646   2.097   3.337  16.782 -0.0894 -0.4677  0.0537
 5395SOL    HW127647   2.033   3.345  16.853 -1.2777 -1.4604 -0.9052
 5395SOL    HW227648   2.069   3.414  16.733 -0.8472 -0.0295  1.1682
 5396SOL     OW27649   2.693   3.297  14.864 -0.3094  0.3405 -0.1275
 5396SOL    HW127650   2.666   3.363  14.800 -3.6823 -0.7123  0.2538
 5396SOL    HW227651   2.787   3.317  14.861 -0.2694  0.5750  2.4552
 5397SOL     OW27652   3.074   0.462   4.975 -0.0469 -0.1760 -0.0942
 5397SOL    HW127653   3.075   0.416   4.890  2.1808 -1.2250  0.5005
 5397SOL    HW227654   2.981   0.481   4.981 -0.1279 -0.1824 -1.3321
 5398SOL     OW27655   1.788   0.143   1.849 -0.1999  0.0049 -0.3200
 5398SOL    HW127656   1.758   0.083   1.917 -0.8872 -2.2645 -2.6422
 5398SOL    HW227657   1.854   0.192   1.899 -1.3645  0.7675  0.4666
 5399SOL     OW27658   0.514   2.149   4.382 -0.4258  0.4749 -0.6858
 5399SOL    HW127659   0.429   2.160   4.340 -0.5394 -1.7071 -1.0366
 5399SOL    HW227660   0.491   2.161   4.475 -0.0739 -0.9583 -0.4102
 5400SOL     OW27661   0.096   0.190   4.062 -0.1133 -0.1425 -0.3627
 5400SOL    HW127662   0.121   0.144   3.982 -2.2460 -1.9408  0.0188
 5400SOL    HW227663   0.007   0.219   4.042  0.2939  0.0419 -1.9233
 5401SOL     OW27664   4.529   0.233  14.976 -0.0265  0.1846 -0.8019
 5401SOL    HW127665   4.600   0.253  14.915 -1.1814 -0.3952 -2.3405
 5401SOL    HW227666   4.581   0.175  15.033  1.1237  0.3273 -1.6871
 5402SOL     OW27667   0.697   4.046   8.301 -0.2157 -0.5609 -0.4622
 5402SOL    HW127668   0.747   3.965   8.303 -0.4508 -0.6513  2.0044
 5402SOL    HW227669   0.761   4.104   8.260 -0.9300  1.6515  1.5647
 5403SOL     OW27670   4.365   4.173  16.060 -0.2501 -0.0473  0.5832
 5403SOL    HW127671   4.305   4.246  16.076 -0.6086 -0.3981  0.8150
 5403SOL    HW227672   4.342   4.146  15.971  0.6531  2.4248 -0.4207
 5404SOL     OW27673   0.260   0.684   8.966  0.1899  0.5080 -0.3021
 5404SOL    HW127674   0.166   0.666   8.962 -0.5296  3.7658  2.3089
 5404SOL    HW227675   0.267   0.762   8.912 -2.2014 -1.1579 -3.0090
 5405SOL     OW27676   0.465   3.421   9.950  0.0441  0.3787 -0.4100
 5405SOL    HW127677   0.390   3.462   9.906 -1.2238 -0.3609  1.0531
 5405SOL    HW227678   0.504   3.369   9.880 -0.2641 -1.1641  0.5767
 5406SOL     OW27679   3.800   3.958   1.015 -0.1990 -0.3312 -0.2665
 5406SOL    HW127680   3.872   3.927   1.069  0.7889 -0.3302 -1.5866
 5406SOL    HW227681   3.835   4.032   0.965 -1.9123 -0.7267 -2.0656
 5407SOL     OW27682   2.881   1.654  12.843 -0.1841 -0.1759  0.2664
 5407SOL    HW127683   2.893   1.626  12.752 -2.7555 -1.3745  0.3037
 5407SOL    HW227684   2.844   1.740  12.828  0.9757  0.0737 -1.1669
 5408SOL     OW27685   3.440   4.680   6.590  0.5487 -0.5258 -0.1864
 5408SOL    HW127686   3.477   4.656   6.505 -0.7137  1.4849 -1.3074
 5408SOL    HW227687   3.516   0.009   6.620 -0.2193 -1.5473  3.4919
 5409SOL     OW27688   4.409   0.932   9.253  0.4782  0.0400  0.3467
 5409SOL    HW127689   4.500   0.940   9.280  0.4604  0.9127  0.1457
 5409SOL    HW227690   4.372   0.972   9.332  0.4721 -0.1465  0.4404
 5410SOL     OW27691   0.644   3.495   8.935 -0.0879 -0.0785 -0.1020
 5410SOL    HW127692   0.739   3.501   8.929 -0.1920  2.1226  0.5779
 5410SOL    HW227693   0.630   3.554   9.010 -0.1719  0.5095 -0.5794
 5411SOL     OW27694   1.432   3.860   1.733  0.6923 -0.2724 -0.3849
 5411SOL    HW127695   1.342   3.876   1.762  0.3701 -1.6025 -0.6475
 5411SOL    HW227696   1.456   3.952   1.721  0.6517 -0.1813  0.1953
 5412SOL     OW27697   0.052   4.688  11.994 -1.2157 -0.2189 -0.1621
 5412SOL    HW127698   0.120   4.674  11.928 -0.7666  2.5524 -0.3052
 5412SOL    HW227699   0.070   4.607  12.040  0.3691  1.1138  1.5554
 5413SOL     OW27700   2.037   0.972   6.579 -0.3506 -0.1377  0.2013
 5413SOL    HW127701   2.053   0.883   6.549 -2.8280 -0.6872  0.4640
 5413SOL    HW227702   1.981   0.950   6.654 -1.9113  2.6075 -0.1397
 5414SOL     OW27703   3.208   0.706  16.661 -0.4840 -0.4387  0.4808
 5414SOL    HW127704   3.122   0.674  16.689 -1.1349  1.2582  0.4004
 5414SOL    HW227705   3.206   0.795  16.697 -0.3938 -0.1519 -0.2343
 5415SOL     OW27706   3.405   3.788  11.341 -0.3924 -0.1491  0.2710
 5415SOL    HW127707   3.469   3.718  11.358  0.4264  0.7426  0.8787
 5415SOL    HW227708   3.453   3.842  11.279  0.6008  0.7830  1.8467
 5416SOL     OW27709   0.163   3.926   0.903 -0.2037 -0.2237  0.2131
 5416SOL    HW127710   0.116   3.849   0.934 -0.1724  0.3268  1.6537
 5416SOL    HW227711   0.222   3.951   0.975 -0.0559 -0.8038  0.2890
 5417SOL     OW27712   2.551   0.417   1.413 -0.1094  0.1165 -0.2528
 5417SOL    HW127713   2.476   0.359   1.405  0.3956 -0.8875  2.2365
 5417SOL    HW227714   2.584   0.408   1.323 -0.7589  0.7767 -0.5507
 5418SOL     OW27715   2.692   2.985   7.574 -0.4715 -0.2465  0.1506
 5418SOL    HW127716   2.751   2.987   7.649 -1.2544 -0.8112  0.7791
 5418SOL    HW227717   2.651   3.070   7.590  0.3611  0.0217  0.7948
 5419SOL     OW27718   0.150   1.090   7.776 -0.2146 -0.8554  0.1193
 5419SOL    HW127719   0.186   1.119   7.691 -1.1569 -2.8138 -0.9438
 5419SOL    HW227720   0.184   1.001   7.788 -0.0062 -0.7640  0.2160
 5420SOL     OW27721   1.566   2.335  12.030 -0.2642 -0.0742  1.4499
 5420SOL    HW127722   1.604   2.419  12.003 -0.9659 -0.7691 -1.7204
 5420SOL    HW227723   1.649   2.311  12.070 -0.2219 -1.2702  0.6263
 5421SOL     OW27724   2.454   3.511   6.228  0.0276  0.2794 -0.3510
 5421SOL    HW127725   2.502   3.522   6.146  0.9409  0.4347  0.2071
 5421SOL    HW227726   2.367   3.495   6.192 -0.2665 -0.5749  0.7262
 5422SOL     OW27727   2.686   1.456   5.723  0.1370 -0.1452 -0.9296
 5422SOL    HW127728   2.761   1.491   5.771 -0.4313 -1.1424  0.6590
 5422SOL    HW227729   2.669   1.528   5.661 -0.2253  0.5704 -0.0013
 5423SOL     OW27730   0.654   0.548   2.683  0.2083 -0.3493 -0.2340
 5423SOL    HW127731   0.645   0.639   2.656 -1.4936  0.0287  1.6567
 5423SOL    HW227732   0.568   0.538   2.724  0.8481  0.3341  1.2509
 5424SOL     OW27733   3.812   3.871   2.316 -0.0018 -0.2244  1.0508
 5424SOL    HW127734   3.758   3.862   2.238  0.9172  1.5159  0.2105
 5424SOL    HW227735   3.745   3.874   2.384 -1.9586  0.2651 -0.9099
 5425SOL     OW27736   1.681   0.149  17.266  0.0527 -0.2279 -0.4491
 5425SOL    HW127737   1.598   0.185  17.232  0.1537 -0.6041 -1.0931
 5425SOL    HW227738   1.723   0.232  17.290 -0.6544  0.3851 -1.3107
 5426SOL     OW27739   0.832   3.599   3.666  0.2332 -0.2987 -0.3839
 5426SOL    HW127740   0.745   3.637   3.656  0.4735  0.1859 -0.6509
 5426SOL    HW227741   0.844   3.596   3.761  0.3338  0.8694 -0.3605
 5427SOL     OW27742   4.577   3.187   7.735 -0.1816  0.3448 -0.1193
 5427SOL    HW127743   4.659   3.148   7.704 -0.1063 -0.6911  1.3934
 5427SOL    HW227744   4.605   3.276   7.754  1.1177  0.4335 -2.4549
 5428SOL     OW27745   0.080   1.784   8.159 -0.2929  0.0946 -0.1786
 5428SOL    HW127746   0.165   1.742   8.143  1.1411  2.6794  0.5057
 5428SOL    HW227747   0.029   1.715   8.201  1.7791 -1.6025 -0.4034
 5429SOL     OW27748   3.770   2.437  12.479 -0.0479  0.1224  0.2582
 5429SOL    HW127749   3.789   2.476  12.564  1.3098  2.6643 -1.2190
 5429SOL    HW227750   3.855   2.395  12.465 -0.0348  0.8360 -1.8579
 5430SOL     OW27751   2.926   4.498   3.352  0.3268  0.2275  0.2702
 5430SOL    HW127752   3.007   4.448   3.348 -0.9024 -1.7455  0.0893
 5430SOL    HW227753   2.878   4.463   3.277 -0.5406 -2.0882  1.8744
 5431SOL     OW27754   2.298   4.216   1.295  0.3572 -0.1232  0.5108
 5431SOL    HW127755   2.363   4.285   1.308 -0.2735  0.7426 -0.9825
 5431SOL    HW227756   2.351   4.157   1.241  2.6159  1.1353  1.3423
 5432SOL     OW27757   3.216   0.755   1.540 -0.5208 -0.1943 -0.2504
 5432SOL    HW127758   3.169   0.838   1.541  0.2094  0.2255 -0.6256
 5432SOL    HW227759   3.141   0.695   1.538 -0.1040 -0.8449  3.5494
 5433SOL     OW27760   4.259   2.988   3.457  0.0491  0.7596  0.1533
 5433SOL    HW127761   4.225   2.985   3.546  1.6646 -1.0955  0.7058
 5433SOL    HW227762   4.238   3.077   3.428  0.0947  0.5619 -0.5043
 5434SOL     OW27763   3.824   3.869   8.872 -0.5022 -0.3353 -0.0619
 5434SOL    HW127764   3.882   3.917   8.812 -0.5822  1.2941  1.1814
 5434SOL    HW227765   3.867   3.879   8.956  2.8344 -0.9404 -1.6924
 5435SOL     OW27766   2.056   4.363   9.598 -0.0353  0.8132  0.3750
 5435SOL    HW127767   2.101   4.348   9.515  0.0171 -0.2033  0.5900
 5435SOL    HW227768   1.965   4.367   9.570 -0.9438  1.0626  3.3204
 5436SOL     OW27769   4.689   3.039  11.817  0.5684  0.5398  0.7878
 5436SOL    HW127770   4.656   2.978  11.883 -0.6934  0.3909  0.0387
 5436SOL    HW227771   4.666   2.990  11.738  1.4285  0.8202  0.3758
 5437SOL     OW27772   4.681   1.947  10.488 -0.2809  0.0227  0.2594
 5437SOL    HW127773   4.672   1.874  10.549 -0.1808 -0.7072 -0.6033
 5437SOL    HW227774   4.621   2.009  10.531  1.9640  0.8309  2.2250
 5438SOL     OW27775   1.712   0.501   6.488 -0.1832  0.0449 -0.2549
 5438SOL    HW127776   1.704   0.507   6.392 -0.7704 -0.8271 -0.2565
 5438SOL    HW227777   1.757   0.417   6.499 -0.9628 -0.2361  0.6777
 5439SOL     OW27778   2.687   4.330   4.797 -0.3015  0.8312 -0.3835
 5439SOL    HW127779   2.705   4.424   4.808  1.1274  0.5802 -0.6022
 5439SOL    HW227780   2.638   4.319   4.879  2.2264 -1.8924  0.7541
 5440SOL     OW27781   1.271   1.351   2.302  0.8175 -0.3830 -0.7250
 5440SOL    HW127782   1.341   1.345   2.366  0.9871 -1.8854 -1.0589
 5440SOL    HW227783   1.316   1.329   2.221 -0.1845 -1.8995 -0.8597
 5441SOL     OW27784   4.370   3.677   7.006  0.5819  0.5697 -0.1010
 5441SOL    HW127785   4.427   3.633   6.943  0.5522 -0.3189  0.4915
 5441SOL    HW227786   4.430   3.672   7.080  0.0626 -3.1120  0.0973
 5442SOL     OW27787   3.718   1.175   1.302 -0.2322  0.1723  0.0415
 5442SOL    HW127788   3.638   1.229   1.302  0.3684  1.0647 -0.4135
 5442SOL    HW227789   3.768   1.213   1.374 -0.7432  0.0195  0.4768
 5443SOL     OW27790   0.760   0.370  12.208 -0.1886  0.3965 -0.6123
 5443SOL    HW127791   0.715   0.433  12.264  3.6489  1.3692  1.3693
 5443SOL    HW227792   0.832   0.341  12.264  0.2675  1.7510 -0.5135
 5444SOL     OW27793   1.273   2.614  13.870 -0.1993  1.0430  0.4471
 5444SOL    HW127794   1.317   2.625  13.954  0.8197 -0.8662  0.1589
 5444SOL    HW227795   1.329   2.657  13.806  3.0503 -3.5485  0.2367
 5445SOL     OW27796   3.562   2.614   8.202  0.0292  0.4655 -0.3030
 5445SOL    HW127797   3.498   2.662   8.149 -0.7895  0.0164  0.2810
 5445SOL    HW227798   3.554   2.522   8.176  0.6872  0.6630 -1.2171
 5446SOL     OW27799   2.184   1.080   6.937 -0.0325 -0.0161  0.2103
 5446SOL    HW127800   2.213   1.009   6.880 -0.7024 -0.4973  0.4802
 5446SOL    HW227801   2.155   1.149   6.878 -3.3743  0.1163  2.0043
 5447SOL     OW27802   2.625   3.744   5.544 -0.2877  0.7620 -0.2522
 5447SOL    HW127803   2.664   3.660   5.521  3.9238  2.9163 -0.8812
 5447SOL    HW227804   2.570   3.717   5.618  0.6775 -0.6702 -0.0614
 5448SOL     OW27805   1.051   0.066   2.259  0.7753  0.4728 -0.3068
 5448SOL    HW127806   1.023   0.155   2.280  0.9970  0.3109  0.6864
 5448SOL    HW227807   0.971   0.027   2.226  2.4619 -2.3896 -1.0212
 5449SOL     OW27808   2.170   3.985   3.556  0.2094 -0.3179 -0.0227
 5449SOL    HW127809   2.143   4.010   3.644 -1.4436  0.2703 -0.7058
 5449SOL    HW227810   2.132   4.064   3.518  1.1940 -0.0726 -0.5070
 5450SOL     OW27811   1.872   3.253   1.441  0.2769 -0.1232  0.1392
 5450SOL    HW127812   1.827   3.262   1.357 -0.9594  2.1317  1.0596
 5450SOL    HW227813   1.889   3.159   1.444  3.4397  0.3914 -0.8332
 5451SOL     OW27814   1.188   4.632   3.097  0.5967  0.0403  0.3971
 5451SOL    HW127815   1.113   4.589   3.055  0.8967 -1.2533  1.1921
 5451SOL    HW227816   1.171   0.001   3.071  1.4373  0.3040  0.7805
 5452SOL     OW27817   4.349   1.718   7.680  0.4250 -0.7568 -0.2812
 5452SOL    HW127818   4.314   1.689   7.596  1.0051  1.0158 -1.1411
 5452SOL    HW227819   4.268   1.719   7.731 -0.4869 -0.5845 -1.7519
 5453SOL     OW27820   2.886   0.054  17.631  0.0300 -0.1305  0.4219
 5453SOL    HW127821   2.867   0.089   0.033  0.2814 -0.3871  0.5795
 5453SOL    HW227822   2.960   0.102  17.594 -0.7464 -0.6030 -1.7172
 5454SOL     OW27823   0.513   2.971  10.523  0.0020 -0.0927 -0.1626
 5454SOL    HW127824   0.508   3.033  10.449 -5.3640  0.7510  0.8981
 5454SOL    HW227825   0.602   2.992  10.551 -0.7002 -0.6518  2.4163
 5455SOL     OW27826   1.259   4.715   8.711  0.1292  0.1487  0.4468
 5455SOL    HW127827   1.170   0.011   8.682  0.8417 -0.6868 -2.2701
 5455SOL    HW227828   1.249   0.030   8.799  0.5950  3.8405 -1.0306
 5456SOL     OW27829   0.029   2.730   1.637 -0.5187  0.2635 -0.0922
 5456SOL    HW127830   0.044   2.641   1.670  2.3179  0.5001 -0.7332
 5456SOL    HW227831   4.683   2.731   1.568 -1.6044  1.4136  0.9735
 5457SOL     OW27832   3.332   4.016   9.827 -0.2240 -0.3555  0.4637
 5457SOL    HW127833   3.250   4.038   9.782 -1.0229 -4.0245  0.1448
 5457SOL    HW227834   3.323   3.921   9.834 -3.0510 -0.1529 -0.5062
 5458SOL     OW27835   4.404   1.481   5.184  0.0575 -0.1292 -0.1910
 5458SOL    HW127836   4.439   1.568   5.162 -2.5570  0.3468 -2.6068
 5458SOL    HW227837   4.335   1.505   5.245 -0.9860 -1.0532 -0.9898
 5459SOL     OW27838   2.813   0.370  13.294  0.1463  0.6464 -0.1429
 5459SOL    HW127839   2.732   0.404  13.256  0.4763 -0.3101 -1.6850
 5459SOL    HW227840   2.830   0.425  13.371  1.5067  1.3314 -0.9219
 5460SOL     OW27841   2.407   1.138   2.275 -0.0381 -0.6592 -0.0185
 5460SOL    HW127842   2.360   1.057   2.296 -0.4498 -0.9243 -1.9671
 5460SOL    HW227843   2.332   1.183   2.238  1.6914  1.7475 -0.5922
 5461SOL     OW27844   1.268   0.274   8.356  0.5763 -0.0884 -0.2553
 5461SOL    HW127845   1.282   0.358   8.312 -1.4679 -0.4634 -1.6189
 5461SOL    HW227846   1.298   0.293   8.445  0.8408 -0.2603 -0.3058
 5462SOL     OW27847   4.593   3.633   4.561 -0.1693 -0.2285 -0.3796
 5462SOL    HW127848   4.630   3.719   4.541  0.0364 -0.0457  0.8102
 5462SOL    HW227849   4.587   3.635   4.656  1.8363  1.0692 -0.2845
 5463SOL     OW27850   3.581   3.212  11.124 -0.5743  0.3947  0.3688
 5463SOL    HW127851   3.636   3.183  11.197  1.6948  2.1064 -0.6843
 5463SOL    HW227852   3.495   3.214  11.167 -0.5878 -2.3690  0.4755
 5464SOL     OW27853   3.314   4.367   6.977 -0.5410 -0.0012  0.2087
 5464SOL    HW127854   3.401   4.356   7.016 -0.7092  1.3527  0.9761
 5464SOL    HW227855   3.264   4.356   7.058 -0.5736 -0.2327  0.1578
 5465SOL     OW27856   1.385   0.277   3.092 -0.5588 -0.0322 -0.9922
 5465SOL    HW127857   1.374   0.362   3.048  0.6267  0.0738 -1.0741
 5465SOL    HW227858   1.479   0.281   3.108 -1.0479  1.4282  1.6043
 5466SOL     OW27859   4.491   1.540   3.063 -0.1624 -0.4830 -0.2672
 5466SOL    HW127860   4.581   1.535   3.098 -0.4589  0.6989  0.7039
 5466SOL    HW227861   4.458   1.597   3.133 -0.3914 -3.2215  1.8382
 5467SOL     OW27862   1.060   2.854   7.659  0.1868  0.2543  0.1123
 5467SOL    HW127863   1.144   2.890   7.686  0.0627  1.2740 -0.8441
 5467SOL    HW227864   1.096   2.767   7.644 -2.3945 -0.7613 -0.2462
 5468SOL     OW27865   0.590   3.318   2.047 -0.3317  0.6347 -0.1096
 5468SOL    HW127866   0.513   3.374   2.055  0.3205  1.3308  1.2747
 5468SOL    HW227867   0.586   3.308   1.952 -1.0808 -1.3100  0.1338
 5469SOL     OW27868   0.838   0.618  14.729  0.5597  0.3175  0.1501
 5469SOL    HW127869   0.787   0.541  14.753  0.0637  0.1122 -1.5384
 5469SOL    HW227870   0.880   0.643  14.811  0.4201  1.5784 -0.1485
 5470SOL     OW27871   2.369   3.688   5.312  0.2022  0.7136  0.1911
 5470SOL    HW127872   2.414   3.644   5.384  1.4015  2.9556  0.7803
 5470SOL    HW227873   2.434   3.687   5.242 -0.3424 -0.0231 -0.3111
 5471SOL     OW27874   0.156   0.833   8.559 -0.2266  0.0770  0.0110
 5471SOL    HW127875   0.069   0.800   8.536  0.0233  0.3873 -1.3526
 5471SOL    HW227876   0.204   0.755   8.587 -3.8698 -1.4145  2.1180
 5472SOL     OW27877   4.067   0.163  11.729 -0.4964  0.1154  0.2914
 5472SOL    HW127878   4.003   0.119  11.786 -1.4298 -0.9137 -1.5684
 5472SOL    HW227879   4.149   0.152  11.776  0.4241 -0.8641 -1.5560
 5473SOL     OW27880   0.865   3.225  16.095  0.1091  0.3946 -0.0629
 5473SOL    HW127881   0.806   3.269  16.034  0.7566 -0.1011 -1.0489
 5473SOL    HW227882   0.916   3.178  16.028 -0.6627  1.7107 -1.5684
 5474SOL     OW27883   1.279   2.023   5.843 -0.1663  0.2492  0.4373
 5474SOL    HW127884   1.218   1.994   5.774  0.8466  0.6608 -0.6277
 5474SOL    HW227885   1.231   2.082   5.900  2.2177  2.1584  0.4395
 5475SOL     OW27886   2.878   2.212   2.569  0.0926  0.1543 -0.4235
 5475SOL    HW127887   2.917   2.285   2.520 -0.2374  0.4275 -0.2762
 5475SOL    HW227888   2.860   2.246   2.656 -0.2634  0.4053 -0.5968
 5476SOL     OW27889   0.198   3.820   4.639 -0.8143 -0.4257 -0.0163
 5476SOL    HW127890   0.275   3.809   4.583 -0.1435 -0.7582  0.9584
 5476SOL    HW227891   0.211   3.743   4.695  0.5040 -0.6585 -0.6444
 5477SOL     OW27892   3.490   2.244  13.637 -0.4265 -0.7971  0.0038
 5477SOL    HW127893   3.452   2.290  13.711  0.7806 -0.5761  0.4774
 5477SOL    HW227894   3.547   2.314  13.606 -0.4286  0.1155  2.0733
 5478SOL     OW27895   4.458   4.546   4.060 -0.9566 -0.0488  0.1840
 5478SOL    HW127896   4.368   4.518   4.074 -1.5082  1.9862  0.6943
 5478SOL    HW227897   4.450   4.638   4.034  2.7961  0.0241 -0.7312
 5479SOL     OW27898   4.618   1.225   6.754  0.7139  0.2470  0.2123
 5479SOL    HW127899   4.674   1.301   6.770  3.7776 -1.6892 -1.3394
 5479SOL    HW227900   4.666   1.154   6.797  2.0327  1.2118  0.3384
 5480SOL     OW27901   1.037   1.190   6.862  0.3513 -0.0070 -0.0527
 5480SOL    HW127902   1.072   1.121   6.807 -1.6596 -0.2485 -1.0415
 5480SOL    HW227903   1.113   1.248   6.874  1.4018 -0.7533 -2.9495
 5481SOL     OW27904   0.952   4.618  12.735 -0.5403  0.1076  0.4252
 5481SOL    HW127905   0.880   4.581  12.785 -0.4642 -0.0857  0.3925
 5481SOL    HW227906   1.017   4.548  12.747 -1.1797 -0.8047 -1.3619
 5482SOL     OW27907   2.549   2.286  12.487 -0.4760  0.6322 -0.7351
 5482SOL    HW127908   2.499   2.207  12.508  0.5898 -0.1779 -1.2065
 5482SOL    HW227909   2.571   2.323  12.572 -0.8220 -1.2118  0.1692
 5483SOL     OW27910   1.442   1.625   5.283 -0.3933  0.1373 -0.0693
 5483SOL    HW127911   1.409   1.711   5.309  1.8364  1.0655 -0.2541
 5483SOL    HW227912   1.454   1.578   5.366 -0.8125 -1.4198 -0.9140
 5484SOL     OW27913   0.141   0.385   6.978  0.2599 -0.3693 -0.1979
 5484SOL    HW127914   0.134   0.371   7.073 -1.5926 -0.9498 -0.4187
 5484SOL    HW227915   0.235   0.372   6.972  0.1203 -1.5173  0.1199
 5485SOL     OW27916   2.951   3.983  16.895 -0.1663 -0.1488  0.3504
 5485SOL    HW127917   2.892   3.912  16.869 -0.8886 -0.2340  2.2361
 5485SOL    HW227918   2.903   4.025  16.967 -0.3048 -0.8695  0.6712
 5486SOL     OW27919   3.310   1.711   0.592 -0.2328  0.4542 -0.1317
 5486SOL    HW127920   3.397   1.751   0.595  0.7795 -1.6275 -1.1760
 5486SOL    HW227921   3.338   1.623   0.618 -3.6008 -0.5218  0.1225
 5487SOL     OW27922   4.005   4.569  17.463  0.2302  0.3782 -0.1320
 5487SOL    HW127923   3.986   4.499  17.524 -1.1413 -0.4789 -1.5504
 5487SOL    HW227924   4.014   4.641  17.525 -0.1103 -0.2445  0.6323
 5488SOL     OW27925   3.900   2.044   4.383  0.0020 -0.0244 -0.4191
 5488SOL    HW127926   3.966   2.110   4.367 -0.5193  0.7064  0.4470
 5488SOL    HW227927   3.940   1.964   4.349 -1.8864 -2.3970  2.8559
 5489SOL     OW27928   3.342   3.084   5.842  0.4230  0.2864  0.5782
 5489SOL    HW127929   3.407   3.071   5.910  0.9352 -1.8207 -0.3074
 5489SOL    HW227930   3.269   3.036   5.883  1.2247 -1.8118 -0.4347
 5490SOL     OW27931   2.925   3.168  11.303 -0.1159 -0.2561  0.3167
 5490SOL    HW127932   2.831   3.170  11.319 -0.5940 -0.7935 -2.4855
 5490SOL    HW227933   2.920   3.219  11.222  1.9691 -2.7515 -1.3712
 5491SOL     OW27934   4.179   2.266   3.095  0.3316 -0.2172 -0.3715
 5491SOL    HW127935   4.134   2.243   3.014  2.0268  0.0239 -1.3775
 5491SOL    HW227936   4.198   2.359   3.081  0.3545 -0.4053 -1.5694
 5492SOL     OW27937   1.662   2.234   2.437  0.1138  0.6575 -0.3065
 5492SOL    HW127938   1.654   2.191   2.352  1.7874 -1.8502  0.7996
 5492SOL    HW227939   1.691   2.320   2.406  0.3016  1.5555  2.3299
 5493SOL     OW27940   2.163   2.987   2.591  0.0682  0.0260  0.0711
 5493SOL    HW127941   2.087   2.936   2.564  0.2919 -1.1838  1.7332
 5493SOL    HW227942   2.234   2.923   2.598  0.7243  0.5772 -1.4705
 5494SOL     OW27943   3.687   0.888   6.009  0.5691 -0.0008  0.3976
 5494SOL    HW127944   3.706   0.795   6.014  1.1005 -0.0409 -2.5387
 5494SOL    HW227945   3.729   0.920   6.088 -0.7468 -1.1684  1.5653
 5495SOL     OW27946   4.718   4.710   5.427 -0.2075 -0.0207  0.1665
 5495SOL    HW127947   0.015   0.083   5.431 -1.7565  0.3212 -0.9127
 5495SOL    HW227948   0.025   4.675   5.512 -0.1129  1.5384  0.7826
 5496SOL     OW27949   1.579   1.131   3.157 -0.0421  0.4313  0.0062
 5496SOL    HW127950   1.646   1.093   3.100 -1.6523 -2.7249  0.2084
 5496SOL    HW227951   1.506   1.125   3.096 -0.3296  2.3710  0.1824
 5497SOL     OW27952   4.005   1.835   4.197 -0.2420 -0.8469 -0.6022
 5497SOL    HW127953   4.034   1.743   4.199 -1.4007 -1.2353 -1.6326
 5497SOL    HW227954   3.940   1.821   4.128 -0.3065  0.7533 -0.8691
 5498SOL     OW27955   1.302   0.216   4.765 -0.2435  0.3121  0.7892
 5498SOL    HW127956   1.217   0.237   4.727  1.5020  1.0850 -2.6590
 5498SOL    HW227957   1.324   0.302   4.800 -0.5177 -0.0024  1.7309
 5499SOL     OW27958   2.213   0.068   7.392  0.4085 -0.0067 -0.8161
 5499SOL    HW127959   2.126   0.044   7.422  1.2670 -1.9859  0.0710
 5499SOL    HW227960   2.276   0.003   7.422  1.8535  2.1362  0.8111
 5500SOL     OW27961   4.032   3.837   6.009  0.4450 -0.3383 -0.2953
 5500SOL    HW127962   4.021   3.747   5.978 -3.0624  1.1192 -3.2090
 5500SOL    HW227963   4.118   3.847   5.968 -1.2376  2.8904 -3.0815
 5501SOL     OW27964   0.121   1.940   8.400 -0.7753 -0.4064  0.1661
 5501SOL    HW127965   0.133   1.905   8.312  0.9593 -1.4335  0.8138
 5501SOL    HW227966   0.026   1.950   8.412 -0.9767 -0.0800 -1.7586
 5502SOL     OW27967   2.742   1.398   0.622  0.6746  0.5402  0.0622
 5502SOL    HW127968   2.746   1.485   0.582 -0.1240 -0.1890 -1.5856
 5502SOL    HW227969   2.742   1.339   0.547  0.3184  0.3842  0.1851
 5503SOL     OW27970   3.483   4.202   2.729  0.5359  0.7309 -0.0571
 5503SOL    HW127971   3.563   4.150   2.733  0.0156 -0.0950 -0.4151
 5503SOL    HW227972   3.429   4.166   2.659  1.5169  0.1197 -0.4850
 5504SOL     OW27973   4.022   2.316   7.284  0.1014 -0.2674  0.2281
 5504SOL    HW127974   4.063   2.301   7.369  0.0592  1.5061  0.5593
 5504SOL    HW227975   4.026   2.230   7.244 -1.1158 -0.2419  0.0285
 5505SOL     OW27976   2.938   4.276   6.982  0.2799 -0.0965 -0.4531
 5505SOL    HW127977   3.009   4.275   7.047  1.8179 -1.2038 -2.1667
 5505SOL    HW227978   2.937   4.186   6.952  0.1287  0.1226 -1.0954
 5506SOL     OW27979   4.246   1.028   6.673 -0.8704 -0.0445 -0.0842
 5506SOL    HW127980   4.295   1.111   6.677 -1.1250  0.0338  1.3495
 5506SOL    HW227981   4.291   0.977   6.740  0.9440  0.3653 -0.9745
 5507SOL     OW27982   1.829   0.045   3.836 -0.5723  0.2470  0.4714
 5507SOL    HW127983   1.856   0.106   3.768 -0.0833  0.1705  0.5954
 5507SOL    HW227984   1.904   4.707   3.840  0.2979  1.3241 -0.1203
 5508SOL     OW27985   1.976   3.103  13.471  0.3090 -0.0468  0.4588
 5508SOL    HW127986   1.932   3.078  13.390 -0.3173  2.3158  0.0829
 5508SOL    HW227987   2.067   3.076  13.463  0.0048 -1.1412  0.6451
 5509SOL     OW27988   3.515   2.898   0.079 -0.2668 -0.1318 -0.3222
 5509SOL    HW127989   3.516   2.906  17.670  0.9458 -0.3334 -0.3242
 5509SOL    HW227990   3.588   2.954   0.106  1.4061 -1.6109 -1.7779
 5510SOL     OW27991   3.195   0.555   8.186  0.5003 -0.0457  0.3014
 5510SOL    HW127992   3.281   0.549   8.227  1.4374 -0.0100 -1.7018
 5510SOL    HW227993   3.154   0.627   8.235  0.1937  2.6143 -3.9275
 5511SOL     OW27994   2.368   2.525  12.876  0.0733  0.1478 -0.4401
 5511SOL    HW127995   2.352   2.447  12.929  0.3419  0.0294 -0.5316
 5511SOL    HW227996   2.351   2.597  12.936 -0.6164 -1.7198  1.5894
 5512SOL     OW27997   0.074   1.662   5.732  0.3867  0.4359 -0.2100
 5512SOL    HW127998   0.114   1.748   5.744  3.1682 -0.4794 -3.0713
 5512SOL    HW227999   4.701   1.678   5.744 -0.2001 -2.0188 -1.3943
 5513SOL     OW28000   2.282   3.712   8.265  0.2468  0.2739  0.1506
 5513SOL    HW128001   2.216   3.764   8.311 -1.2865 -2.4872  1.1410
 5513SOL    HW228002   2.226   3.644   8.228  0.0454  0.9429 -0.7653
 5514SOL     OW28003   4.452   4.090   7.908 -0.6319 -1.1185 -0.3410
 5514SOL    HW128004   4.369   4.046   7.925 -0.6192 -1.8338 -2.1364
 5514SOL    HW228005   4.500   4.057   7.983 -2.9214 -3.1250  0.2265
 5515SOL     OW28006   1.465   3.986  14.084 -0.1454  0.3551 -0.0111
 5515SOL    HW128007   1.457   3.975  13.989  3.1390 -1.3116 -0.0734
 5515SOL    HW228008   1.559   3.993  14.101  0.2969  0.4475 -2.5804
 5516SOL     OW28009   0.134   4.689   0.113 -0.0730  0.6115  0.1276
 5516SOL    HW128010   0.079   4.682   0.034  0.1605  0.0673  0.0114
 5516SOL    HW228011   0.214   4.677   0.061 -1.6019  2.2675 -2.6352
 5517SOL     OW28012   4.632   1.422   8.953 -0.4367  0.1133 -0.1523
 5517SOL    HW128013   4.576   1.394   9.026 -0.5691 -0.6058 -0.5316
 5517SOL    HW228014   4.584   1.406   8.872 -0.9689  0.3900  0.1064
 5518SOL     OW28015   2.584   2.732   3.639 -0.6890 -0.0140  0.1726
 5518SOL    HW128016   2.663   2.716   3.588 -0.3346  0.8081  0.4724
 5518SOL    HW228017   2.517   2.695   3.582  0.2519 -0.1372 -0.8504
 5519SOL     OW28018   0.191   1.717  13.584 -0.3934  0.1659 -0.0518
 5519SOL    HW128019   0.202   1.697  13.677 -0.3278  0.0740 -0.0786
 5519SOL    HW228020   0.224   1.637  13.543 -1.3785 -1.0915  1.5992
 5520SOL     OW28021   4.091   2.005   1.224 -0.1404  0.6148 -0.0777
 5520SOL    HW128022   4.097   2.054   1.142 -0.2279 -0.0474 -0.4782
 5520SOL    HW228023   3.998   1.994   1.240  0.1087  0.3806  1.2150
 5521SOL     OW28024   4.640   2.309   3.617  0.5838  0.0767 -0.0223
 5521SOL    HW128025   4.695   2.378   3.655 -0.4242  1.4393 -1.0319
 5521SOL    HW228026   4.565   2.363   3.591 -0.2324 -1.8843 -1.7008
 5522SOL     OW28027   1.122   1.418  11.863  0.1960  0.7306  0.5783
 5522SOL    HW128028   1.170   1.460  11.935  0.4971  1.4169 -0.0249
 5522SOL    HW228029   1.156   1.329  11.853  2.3675  1.3818  2.0456
 5523SOL     OW28030   0.563   2.382   6.792 -0.0478  1.2922 -0.0545
 5523SOL    HW128031   0.617   2.338   6.727  1.4103 -0.7609  2.5662
 5523SOL    HW228032   0.626   2.400   6.862 -1.6104 -2.0564  2.2389
 5524SOL     OW28033   3.021   4.651   8.552 -0.2580  0.4607 -0.9222
 5524SOL    HW128034   2.955   4.638   8.484 -1.3159 -0.5757  0.3173
 5524SOL    HW228035   3.065   4.567   8.545 -1.0011  0.0788 -0.9309
 5525SOL     OW28036   2.401   3.041   5.878  0.6037  0.2249  0.2641
 5525SOL    HW128037   2.458   3.108   5.917 -0.4280  1.2183  0.0487
 5525SOL    HW228038   2.434   3.019   5.791 -0.8781 -2.7404  0.4775
 5526SOL     OW28039   4.537   2.730  13.629 -0.1563 -0.5540 -0.0019
 5526SOL    HW128040   4.490   2.728  13.545  2.2605  1.5650 -1.3906
 5526SOL    HW228041   4.481   2.789  13.680  1.0850 -0.3363  1.1053
 5527SOL     OW28042   4.007   2.248   2.887 -0.0974 -0.3150  1.0150
 5527SOL    HW128043   3.939   2.190   2.921 -0.1451 -0.2569  1.0181
 5527SOL    HW228044   3.965   2.280   2.807 -2.0535 -0.4325  1.9952
 5528SOL     OW28045   2.430   2.896   6.323  0.2288 -0.2632  0.6580
 5528SOL    HW128046   2.447   2.901   6.417  1.5054  0.4839  0.3929
 5528SOL    HW228047   2.411   2.987   6.302 -1.6741 -0.7389  0.3172
 5529SOL     OW28048   1.297   3.563   2.886  0.4642 -0.0933  0.2592
 5529SOL    HW128049   1.254   3.582   2.969 -2.3400  1.1182 -1.4606
 5529SOL    HW228050   1.298   3.650   2.846  0.4032 -0.2951 -0.1884
 5530SOL     OW28051   1.746   2.139   9.034 -0.2261 -0.2053  0.4692
 5530SOL    HW128052   1.660   2.097   9.025  0.1645 -0.8310 -0.4055
 5530SOL    HW228053   1.726   2.203   9.101 -2.9949 -1.1042  0.5071
 5531SOL     OW28054   0.896   1.735   6.295 -0.4817 -0.7000  0.2150
 5531SOL    HW128055   0.985   1.715   6.264 -0.1257  1.1966 -0.0162
 5531SOL    HW228056   0.921   1.714   6.385  1.4551 -1.0379 -0.3820
 5532SOL     OW28057   0.727   3.294   8.064 -0.0801 -0.0538  0.3593
 5532SOL    HW128058   0.770   3.283   8.148 -0.4428 -0.6051  0.4704
 5532SOL    HW228059   0.636   3.270   8.084  0.5691 -0.0832  3.1480
 5533SOL     OW28060   1.663   2.030  16.158 -0.5617  0.1142  0.0570
 5533SOL    HW128061   1.587   2.085  16.177  0.4125  0.2587  3.4008
 5533SOL    HW228062   1.733   2.076  16.205 -0.0544 -1.7208  1.0815
 5534SOL     OW28063   2.211   1.978   8.070  0.5903 -0.3377  0.1792
 5534SOL    HW128064   2.288   1.983   8.013  1.4414  3.1163  1.6178
 5534SOL    HW228065   2.213   1.898   8.123  1.2603 -0.0876  0.5322
 5535SOL     OW28066   0.973   0.114   3.467  0.0503  0.0224  0.2364
 5535SOL    HW128067   0.921   0.133   3.389 -0.3058 -0.6749  0.3059
 5535SOL    HW228068   1.046   0.177   3.464 -0.8775  1.0849  0.0632
 5536SOL     OW28069   4.461   0.563  11.160 -0.3914 -0.2419 -0.0633
 5536SOL    HW128070   4.429   0.525  11.078 -0.1756  1.0543 -0.7377
 5536SOL    HW228071   4.546   0.587  11.124  0.7954 -1.1199  2.1736
 5537SOL     OW28072   1.481   1.030   9.174  0.3924 -0.7367  0.0800
 5537SOL    HW128073   1.445   1.060   9.090  0.9256 -3.3822 -1.1138
 5537SOL    HW228074   1.462   0.936   9.166 -4.4975  0.1454  1.2347
 5538SOL     OW28075   2.717   3.545   6.788 -0.0035  0.6379 -0.0306
 5538SOL    HW128076   2.730   3.638   6.767  2.4978  0.5222  1.0336
 5538SOL    HW228077   2.621   3.550   6.789 -0.0875 -1.7034  1.9053
 5539SOL     OW28078   4.482   4.224   8.582 -0.0140 -0.3226 -0.0421
 5539SOL    HW128079   4.511   4.273   8.505 -0.3358 -0.2894 -0.1460
 5539SOL    HW228080   4.389   4.202   8.568  0.2188 -0.1925 -1.8147
 5540SOL     OW28081   3.187   1.043  11.573  0.1120 -0.1212  0.3847
 5540SOL    HW128082   3.215   1.120  11.523 -1.8048  0.9646  0.9747
 5540SOL    HW228083   3.180   1.082  11.660 -0.4085  0.4546  0.0903
 5541SOL     OW28084   1.898   0.855   2.893 -0.0746  0.8205 -0.3916
 5541SOL    HW128085   1.909   0.857   2.798 -0.4795 -0.2010 -0.4573
 5541SOL    HW228086   1.881   0.761   2.899  0.0414  0.9613  2.2921
 5542SOL     OW28087   3.127   0.187   5.893 -0.3077  0.6976  0.2435
 5542SOL    HW128088   3.107   0.112   5.837  1.2827 -0.2766  0.9731
 5542SOL    HW228089   3.133   0.142   5.977 -1.3222 -0.5580 -0.3532
 5543SOL     OW28090   0.184   3.231   6.980 -0.2500 -0.7556  0.0220
 5543SOL    HW128091   0.117   3.253   7.045  1.7007 -1.1047  2.1358
 5543SOL    HW228092   0.252   3.293   7.007  0.0546 -0.8339 -0.5812
 5544SOL     OW28093   0.139   2.737   7.919  0.2445 -0.1630  0.1693
 5544SOL    HW128094   0.179   2.770   8.000  0.9496 -0.4525 -0.0611
 5544SOL    HW228095   0.062   2.793   7.917 -1.1960 -2.1473  0.3572
 5545SOL     OW28096   1.209   1.567  17.339  0.3234 -0.1786  0.3219
 5545SOL    HW128097   1.141   1.607  17.284  1.8197  1.6210 -0.1883
 5545SOL    HW228098   1.161   1.491  17.372  0.1765 -0.0888  0.3185
 5546SOL     OW28099   2.798   4.247   2.791 -0.2455 -0.5313  0.1354
 5546SOL    HW128100   2.866   4.201   2.742 -0.9795 -0.2382 -1.1740
 5546SOL    HW228101   2.718   4.227   2.742  0.7829 -2.2604 -0.8154
 5547SOL     OW28102   3.728   2.245  16.618 -0.5363  0.3731 -0.2418
 5547SOL    HW128103   3.801   2.303  16.638  0.7046 -0.8899 -1.1677
 5547SOL    HW228104   3.661   2.313  16.631 -1.2135 -0.6505  1.5595
 5548SOL     OW28105   1.657   0.043   2.603  0.2133  0.4272  0.3181
 5548SOL    HW128106   1.625   4.702   2.669  0.3003 -0.3876 -0.4088
 5548SOL    HW228107   1.621   4.712   2.531 -0.1598 -0.0349  0.8372
 5549SOL     OW28108   4.252   2.234   5.194 -0.0109 -0.3505  0.4676
 5549SOL    HW128109   4.254   2.329   5.195  1.0323 -0.3548 -2.0743
 5549SOL    HW228110   4.222   2.228   5.103  1.3739  1.3152 -0.1001
 5550SOL     OW28111   1.705   2.027   5.174  0.1483 -0.5526 -0.0560
 5550SOL    HW128112   1.728   2.039   5.266  0.5662  1.2135 -0.3798
 5550SOL    HW228113   1.721   1.934   5.159  1.5549 -0.7993  2.8908
 5551SOL     OW28114   1.817   2.219  16.263 -1.0041 -0.0924  0.1216
 5551SOL    HW128115   1.870   2.270  16.324 -0.2185  1.1788 -1.6443
 5551SOL    HW228116   1.778   2.289  16.212  0.3257  0.5711  0.0111
 5552SOL     OW28117   0.744   1.376   3.978 -0.0911  0.1899 -0.1012
 5552SOL    HW128118   0.814   1.374   3.913  1.2044 -1.3579  1.3400
 5552SOL    HW228119   0.739   1.282   3.996 -4.0386  0.1318 -1.5144
 5553SOL     OW28120   3.505   3.351   5.998 -0.1906 -0.5786 -0.3712
 5553SOL    HW128121   3.522   3.372   6.091  4.0605 -0.6124 -1.1146
 5553SOL    HW228122   3.411   3.368   5.997 -0.3292 -1.5529 -3.0357
 5554SOL     OW28123   4.705   0.163  15.193  0.4204  0.3285 -0.0798
 5554SOL    HW128124   0.053   0.118  15.145 -0.3604  0.1289 -1.0154
 5554SOL    HW228125   0.019   0.252  15.191 -0.0448  0.5669  2.4023
 5555SOL     OW28126   1.467   0.149   6.684 -0.1030 -0.7441 -0.1917
 5555SOL    HW128127   1.517   0.072   6.709  1.2682  0.7116  1.5700
 5555SOL    HW228128   1.476   0.201   6.764 -2.1702  0.5854 -0.8163
 5556SOL     OW28129   3.056   2.526   2.116  0.2801 -0.3026  0.1620
 5556SOL    HW128130   3.025   2.603   2.163  1.2063 -0.2899  0.7345
 5556SOL    HW228131   2.982   2.466   2.128  1.5883 -1.3438  3.1350
 5557SOL     OW28132   0.527   4.491  11.084  0.1198 -0.2828 -0.0331
 5557SOL    HW128133   0.538   4.563  11.146  0.5362 -0.2824 -0.1073
 5557SOL    HW228134   0.436   4.468  11.103 -0.3147  2.7689  1.6219
 5558SOL     OW28135   1.274   4.227   7.651 -0.0873 -0.5898 -0.2656
 5558SOL    HW128136   1.186   4.200   7.625 -0.9537  1.9582  0.0404
 5558SOL    HW228137   1.274   4.322   7.643 -1.1022 -0.7982 -2.8786
 5559SOL     OW28138   2.034   3.755   3.534  0.2101  0.2360  0.4098
 5559SOL    HW128139   2.082   3.837   3.519 -1.6181  1.0815 -0.8596
 5559SOL    HW228140   1.959   3.783   3.481  1.8488  4.1366  0.1656
 5560SOL     OW28141   4.384   3.417   0.902 -0.6263  0.5533  0.5533
 5560SOL    HW128142   4.392   3.471   0.981 -0.2391  3.9222 -1.7534
 5560SOL    HW228143   4.294   3.434   0.874  0.0044  0.3447 -1.5934
 5561SOL     OW28144   0.809   4.143   0.455  0.0969  0.1791  0.3558
 5561SOL    HW128145   0.896   4.118   0.487  0.2286 -1.0109 -0.9255
 5561SOL    HW228146   0.765   4.128   0.539 -0.6941  0.7133  0.0330
 5562SOL     OW28147   4.111   2.341  10.229 -0.7807 -0.7144 -0.2760
 5562SOL    HW128148   4.120   2.264  10.286  1.9304  0.2594  0.6528
 5562SOL    HW228149   4.137   2.310  10.142  0.5133 -1.0651  0.2180
 5563SOL     OW28150   0.830   3.122   1.777 -0.1079 -0.2236  0.4939
 5563SOL    HW128151   0.765   3.180   1.815 -3.0106 -3.5332  0.6160
 5563SOL    HW228152   0.908   3.130   1.833  1.2392 -1.2904 -1.2409
 5564SOL     OW28153   4.245   1.124   4.090  1.0093  0.0750  0.2831
 5564SOL    HW128154   4.287   1.096   4.172 -1.5647  0.2745  1.6881
 5564SOL    HW228155   4.311   1.174   4.043  0.5031  0.4736 -0.0061
 5565SOL     OW28156   3.274   3.212   6.321 -0.6245 -0.2373  0.6997
 5565SOL    HW128157   3.351   3.156   6.317  1.5360  2.6615  1.7898
 5565SOL    HW228158   3.205   3.149   6.299  2.0236 -2.2056 -1.9776
 5566SOL     OW28159   0.242   3.192  13.600 -0.9607  0.5062  0.0193
 5566SOL    HW128160   0.172   3.256  13.615  1.3402  3.5603 -2.0496
 5566SOL    HW228161   0.185   3.120  13.575 -0.1976  0.7002 -2.2832
 5567SOL     OW28162   3.858   1.059  11.698 -0.3717  0.2567  0.0365
 5567SOL    HW128163   3.775   1.054  11.746 -1.3871 -0.4737 -1.8056
 5567SOL    HW228164   3.903   1.137  11.730 -0.0571 -0.2054  0.7198
 5568SOL     OW28165   4.613   1.961   4.832 -0.2636  0.5209 -0.1271
 5568SOL    HW128166   4.665   1.928   4.759 -1.0939  2.4634 -1.5823
 5568SOL    HW228167   4.545   1.894   4.825  0.1940 -0.1950  1.8951
 5569SOL     OW28168   0.425   1.262  10.572 -0.0772 -0.2396 -0.2938
 5569SOL    HW128169   0.365   1.326  10.609 -0.4342 -1.5087  1.3041
 5569SOL    HW228170   0.440   1.298  10.485  0.9454 -1.9252 -0.8199
 5570SOL     OW28171   3.370   0.589   7.136  0.1914 -0.3941 -0.3884
 5570SOL    HW128172   3.365   0.568   7.230 -1.7766  0.2615 -0.3576
 5570SOL    HW228173   3.433   0.661   7.127 -1.4231  1.1032  0.3633
 5571SOL     OW28174   1.846   0.752   9.072 -0.3177  0.0340 -0.0680
 5571SOL    HW128175   1.787   0.728   9.144  1.0740 -2.9718  0.0752
 5571SOL    HW228176   1.909   0.681   9.060 -0.6988 -0.2727 -0.2716
 5572SOL     OW28177   3.191   0.620  12.360 -0.1310  0.3494 -0.9165
 5572SOL    HW128178   3.241   0.687  12.406  1.6366 -1.1713 -0.6548
 5572SOL    HW228179   3.112   0.674  12.348  0.0174  0.7169 -0.2463
 5573SOL     OW28180   4.289   3.460   2.701  0.0841 -0.0904  0.3461
 5573SOL    HW128181   4.198   3.469   2.729 -0.0904 -1.2548  0.1575
 5573SOL    HW228182   4.341   3.470   2.780 -0.6647 -0.5920  0.8943
 5574SOL     OW28183   4.575   1.760   4.428 -0.0540  0.1477 -0.0314
 5574SOL    HW128184   4.542   1.671   4.441  1.0028 -0.0419  1.3383
 5574SOL    HW228185   4.565   1.768   4.333 -1.5997  0.1651  0.1292
 5575SOL     OW28186   4.370   1.064  10.504 -0.4060  0.3188  0.1661
 5575SOL    HW128187   4.367   1.061  10.408  1.7232 -1.1335  0.1392
 5575SOL    HW228188   4.294   1.120  10.523 -0.0188  1.0054 -0.3266
 5576SOL     OW28189   1.812   3.174   4.170 -0.2393 -0.0113  0.4947
 5576SOL    HW128190   1.863   3.123   4.107 -2.5499 -0.4283 -1.0454
 5576SOL    HW228191   1.726   3.141   4.146 -0.8285  1.2244  0.8983
 5577SOL     OW28192   2.902   0.002  12.081  0.4253  0.1055  0.2297
 5577SOL    HW128193   2.827   4.712  12.139  0.3993  0.6374  0.2934
 5577SOL    HW228194   2.927   4.631  12.070  1.1022  0.5084 -1.5694
 5578SOL     OW28195   3.690   1.705   1.232  0.4605 -0.6342  0.4629
 5578SOL    HW128196   3.748   1.633   1.260  3.4280  1.6221  0.1159
 5578SOL    HW228197   3.634   1.652   1.175  0.5732  0.1791 -0.4002
 5579SOL     OW28198   2.482   0.783   8.324 -0.5101  0.7365 -0.0625
 5579SOL    HW128199   2.422   0.857   8.314 -0.4522  1.0582  1.9983
 5579SOL    HW228200   2.518   0.765   8.237 -2.1979  0.6149 -0.7530
 5580SOL     OW28201   3.698   1.510  14.223 -0.0418  0.0149  0.0318
 5580SOL    HW128202   3.673   1.509  14.131  1.2224  1.5206 -0.3226
 5580SOL    HW228203   3.677   1.419  14.245  0.1725 -0.2133 -0.6870
 5581SOL     OW28204   2.022   3.157   3.275 -0.4696  0.4806  0.3064
 5581SOL    HW128205   2.099   3.209   3.254  0.0826  0.1727  1.5426
 5581SOL    HW228206   2.007   3.125   3.186 -0.9093 -2.0943  1.3090
 5582SOL     OW28207   4.095   4.351  13.572 -0.1959 -0.0806  0.3330
 5582SOL    HW128208   4.042   4.408  13.516 -1.0208 -1.0378  0.1208
 5582SOL    HW228209   4.169   4.410  13.579 -0.2086 -0.1573  1.1845
 5583SOL     OW28210   4.688   1.588  11.286 -0.3047 -0.5401  0.1502
 5583SOL    HW128211   4.697   1.494  11.269 -1.6810 -0.8851  1.2759
 5583SOL    HW228212   4.609   1.609  11.236  0.6442  1.4420 -0.4914
 5584SOL     OW28213   4.225   4.521   1.172 -0.2224 -0.1473 -0.0120
 5584SOL    HW128214   4.305   4.521   1.225 -0.9416 -2.0212  1.0705
 5584SOL    HW228215   4.199   4.430   1.165 -0.3958 -0.1858  1.1966
 5585SOL     OW28216   2.939   4.627   4.377  0.1313 -0.1189 -0.3003
 5585SOL    HW128217   2.959   4.534   4.381  0.7741 -0.1359 -4.1992
 5585SOL    HW228218   3.024   4.653   4.342 -0.4348 -1.6412 -2.7926
 5586SOL     OW28219   3.649   0.687   7.473 -0.0778  0.4435  0.3015
 5586SOL    HW128220   3.565   0.651   7.500 -0.2227 -0.8524 -1.8309
 5586SOL    HW228221   3.640   0.781   7.492 -1.1237  0.1124  1.4293
 5587SOL     OW28222   1.101   0.716  13.119 -0.3239  0.0484  0.3423
 5587SOL    HW128223   1.104   0.729  13.214  0.9709  1.8527  0.0485
 5587SOL    HW228224   1.062   0.628  13.114  0.1609 -0.0922 -0.9276
 5588SOL     OW28225   0.135   3.132   8.161 -0.1088 -0.0442 -0.1176
 5588SOL    HW128226   0.227   3.110   8.173 -0.2685 -0.3079  0.6059
 5588SOL    HW228227   0.089   3.059   8.202  2.9689 -1.1539  1.2826
 5589SOL     OW28228   1.640   0.818   4.731  0.0544 -0.3469 -0.2418
 5589SOL    HW128229   1.655   0.833   4.638 -0.0760 -2.1481 -0.5404
 5589SOL    HW228230   1.556   0.781   4.758  1.7698 -3.1495  1.2024
 5590SOL     OW28231   2.620   1.065   4.260  0.3791  0.5536 -0.3894
 5590SOL    HW128232   2.700   1.014   4.266 -0.4527 -0.6813  0.2783
 5590SOL    HW228233   2.581   1.022   4.184  2.6261 -0.2309 -1.1004
 5591SOL     OW28234   1.176   1.614   7.798 -0.4064  0.4049  0.6485
 5591SOL    HW128235   1.214   1.543   7.747 -0.0432  1.0295  0.0460
 5591SOL    HW228236   1.235   1.612   7.874  0.3543 -0.5860  0.0388
 5592SOL     OW28237   0.207   3.202   8.750 -0.5706  0.2145  0.1867
 5592SOL    HW128238   0.114   3.183   8.736  0.0293 -0.4443 -3.0274
 5592SOL    HW228239   0.227   3.252   8.671  2.7523  0.9136  1.4668
 5593SOL     OW28240   3.239   3.132   3.408 -0.1320  0.3242  0.2042
 5593SOL    HW128241   3.222   3.080   3.487  1.2224 -0.7772 -0.2397
 5593SOL    HW228242   3.244   3.212   3.461 -0.6840 -1.5099  3.0082
 5594SOL     OW28243   2.212   3.066  14.561 -0.1274  0.0061  0.6485
 5594SOL    HW128244   2.219   3.013  14.641 -0.9309 -1.9404 -0.5834
 5594SOL    HW228245   2.139   3.123  14.584 -0.2200  0.2273 -0.1947
 5595SOL     OW28246   1.011   2.580  17.221  0.1497  0.1635  0.0236
 5595SOL    HW128247   1.093   2.534  17.201 -1.2098 -1.3667 -2.0497
 5595SOL    HW228248   0.960   2.509  17.260  0.3483  0.1298  0.2187
 5596SOL     OW28249   1.425   1.590  15.892  0.0102 -0.6178 -0.1108
 5596SOL    HW128250   1.381   1.511  15.922 -0.3791 -0.4645 -0.2817
 5596SOL    HW228251   1.393   1.654  15.956 -1.8699 -0.1853 -1.4649
 5597SOL     OW28252   0.783   0.193   5.502 -0.0147  0.6013 -0.0481
 5597SOL    HW128253   0.758   0.164   5.589 -0.1679  0.3786 -0.1668
 5597SOL    HW228254   0.781   0.108   5.459 -1.6118 -0.1302  1.5116
 5598SOL     OW28255   0.467   4.473   5.046  0.5872 -0.2055 -0.4651
 5598SOL    HW128256   0.483   4.477   5.140  0.4093 -0.8283 -0.4067
 5598SOL    HW228257   0.386   4.423   5.036  1.1207 -0.8452 -1.6610
 5599SOL     OW28258   1.373   3.360   7.381 -0.2684  0.5464  0.3432
 5599SOL    HW128259   1.324   3.432   7.422 -0.0381  1.2306 -0.5694
 5599SOL    HW228260   1.452   3.374   7.433  0.1064  0.4543 -0.1977
 5600SOL     OW28261   0.497   3.778   7.724  0.0118  0.1196 -0.3758
 5600SOL    HW128262   0.504   3.854   7.781  0.0434 -0.7886  0.8411
 5600SOL    HW228263   0.433   3.802   7.657 -2.2043 -2.9202  0.6445
 5601SOL     OW28264   2.578   0.946  12.040  0.2683 -0.3262 -0.1946
 5601SOL    HW128265   2.505   0.960  12.100 -0.3423 -3.2519 -0.2916
 5601SOL    HW228266   2.561   1.014  11.974  1.9498  0.0272 -0.2586
 5602SOL     OW28267   2.525   4.224  11.047  0.1019 -0.0274  0.1713
 5602SOL    HW128268   2.431   4.206  11.038  0.3668 -0.0905 -2.4720
 5602SOL    HW228269   2.525   4.253  11.138 -0.3574 -1.3447  0.5952
 5603SOL     OW28270   0.449   1.769   7.242 -0.2971 -0.3700  0.8117
 5603SOL    HW128271   0.354   1.756   7.233  0.0028 -2.2917  0.4864
 5603SOL    HW228272   0.482   1.716   7.170 -0.4400 -1.1920  1.3522
 5604SOL     OW28273   1.229   2.446   2.762 -0.1597  0.3138 -0.3919
 5604SOL    HW128274   1.287   2.461   2.686  0.4347  0.5510  0.1049
 5604SOL    HW228275   1.150   2.430   2.710 -1.1857  0.0824  1.2714
 5605SOL     OW28276   1.139   3.363   8.720  0.4511 -0.0243  0.0711
 5605SOL    HW128277   1.156   3.295   8.785 -0.8635 -1.7398 -1.4020
 5605SOL    HW228278   1.203   3.434   8.730 -0.8680  1.0589  0.8930
 5606SOL     OW28279   4.177   0.180   4.517  0.0458  0.4676 -0.0999
 5606SOL    HW128280   4.139   0.186   4.605  2.3828  0.3715  0.9037
 5606SOL    HW228281   4.263   0.218   4.533 -0.2320  0.0443  2.5031
 5607SOL     OW28282   4.080   2.850   3.177 -0.5813 -0.1785  0.3876
 5607SOL    HW128283   4.066   2.944   3.167  0.2694 -0.1333 -0.3748
 5607SOL    HW228284   4.075   2.827   3.084  0.9960  0.8521  0.0610
 5608SOL     OW28285   3.065   1.469   2.680  0.4103 -0.1990  0.4179
 5608SOL    HW128286   3.039   1.523   2.605  0.5471 -0.6311  0.0549
 5608SOL    HW228287   3.097   1.394   2.630  0.5416 -0.7896  1.3881
 5609SOL     OW28288   3.743   3.739   0.517  0.0428 -0.0486  0.4153
 5609SOL    HW128289   3.668   3.750   0.459  1.2023 -0.0623 -1.0784
 5609SOL    HW228290   3.737   3.646   0.540  0.0017  0.1048  1.0373
 5610SOL     OW28291   1.832   2.231  16.883 -0.5335 -0.9569  0.5531
 5610SOL    HW128292   1.888   2.284  16.940 -1.6232  1.3373 -0.5081
 5610SOL    HW228293   1.890   2.165  16.847 -0.0188  1.5447 -3.1546
 5611SOL     OW28294   1.546   1.943   6.050  0.3000 -0.4967  0.5193
 5611SOL    HW128295   1.587   1.997   5.983 -1.3548 -0.8024 -0.7406
 5611SOL    HW228296   1.611   1.944   6.121 -0.0542 -1.3742  0.8618
 5612SOL     OW28297   1.309   2.390   3.867  0.1946  0.6163 -0.0173
 5612SOL    HW128298   1.404   2.384   3.859  0.1991 -1.6694  1.5966
 5612SOL    HW228299   1.293   2.460   3.930  3.2874 -0.0250  1.4639
 5613SOL     OW28300   0.390   3.656   9.141  0.0557  0.1480  0.0130
 5613SOL    HW128301   0.304   3.674   9.179  1.4179  0.9714  2.7579
 5613SOL    HW228302   0.370   3.587   9.079 -0.2703  0.5046 -0.2775
 5614SOL     OW28303   1.225   0.983   8.590 -0.5982 -0.3478 -0.0737
 5614SOL    HW128304   1.290   0.919   8.563 -1.2144  0.1443 -2.7411
 5614SOL    HW228305   1.202   0.954   8.678 -0.9615  0.2667  0.0380
 5615SOL     OW28306   3.960   4.526   3.256  0.2400  0.1093  0.2352
 5615SOL    HW128307   3.934   4.610   3.218 -1.0961  0.0976  1.1007
 5615SOL    HW228308   3.940   4.547   3.347 -0.7310  0.7174 -0.1149
 5616SOL     OW28309   0.254   2.852   7.627  0.4359  0.0509  0.6199
 5616SOL    HW128310   0.275   2.764   7.660 -1.1358 -0.4086  0.4411
 5616SOL    HW228311   0.335   2.890   7.659  1.0316 -0.6953  0.0071
 5617SOL     OW28312   0.641   2.394  11.805  0.1313 -0.3089  0.3773
 5617SOL    HW128313   0.700   2.435  11.741 -0.6981  0.5265  0.1446
 5617SOL    HW228314   0.670   2.303  11.797 -0.1332 -0.3100 -0.5186
 5618SOL     OW28315   4.655   3.733   5.529  0.2129  0.1722 -0.0214
 5618SOL    HW128316   4.689   3.646   5.511  1.0039  0.2203  1.2228
 5618SOL    HW228317   4.588   3.713   5.593 -0.8871 -1.6021 -1.7239
 5619SOL     OW28318   1.316   0.950   0.606  0.2134  0.3013  0.2715
 5619SOL    HW128319   1.249   0.913   0.663 -1.0494 -1.3671 -2.2889
 5619SOL    HW228320   1.398   0.913   0.638 -0.0328 -0.0557  0.4829
 5620SOL     OW28321   3.358   3.862   7.948 -0.4079  0.9064  0.2996
 5620SOL    HW128322   3.394   3.926   8.009 -1.7016  0.5948  1.3842
 5620SOL    HW228323   3.275   3.841   7.990 -1.2249  0.2070 -1.6390
 5621SOL     OW28324   0.054   3.197   9.013  0.0138  0.1370 -0.6611
 5621SOL    HW128325   0.011   3.158   9.089 -0.8278 -0.5952 -1.5063
 5621SOL    HW228326   4.696   3.242   8.982 -0.2907  0.8949  1.2289
 5622SOL     OW28327   1.955   3.523  16.977  0.3493  0.4551 -0.2018
 5622SOL    HW128328   1.875   3.471  16.969  1.2771 -0.9099 -0.4674
 5622SOL    HW228329   1.911   3.608  16.980 -1.3703 -0.4874  1.3669
 5623SOL     OW28330   2.804   0.917   8.796  0.0891  0.0013 -0.1608
 5623SOL    HW128331   2.710   0.916   8.813  0.2730 -1.4877  0.7388
 5623SOL    HW228332   2.833   0.884   8.881  0.5817  1.2884  0.1671
 5624SOL     OW28333   3.363   0.642   5.463  0.3327 -0.2199  0.6448
 5624SOL    HW128334   3.357   0.738   5.468  2.2033 -0.0892  0.4533
 5624SOL    HW228335   3.293   0.601   5.514 -0.9079  0.8280 -0.2109
 5625SOL     OW28336   4.053   4.259   7.008 -0.3612  0.0022  0.9881
 5625SOL    HW128337   3.980   4.309   6.972  0.9595  0.3593 -1.1489
 5625SOL    HW228338   4.041   4.181   6.954  0.7345  1.1071 -0.8403
 5626SOL     OW28339   0.026   2.718   6.960 -0.4867  0.1006 -0.3286
 5626SOL    HW128340   4.673   2.659   6.944  0.4153 -0.8486 -0.9726
 5626SOL    HW228341   0.100   2.658   6.950  0.0273  0.9432 -1.7344
 5627SOL     OW28342   4.684   2.694   5.982 -0.1304 -0.1005 -0.1803
 5627SOL    HW128343   0.008   2.771   5.947  2.7311 -1.6343  0.0836
 5627SOL    HW228344   4.651   2.655   5.900  2.0384  1.0584 -1.6101
 5628SOL     OW28345   0.143   0.796   6.759  0.3777  0.6725  0.6434
 5628SOL    HW128346   0.072   0.732   6.759  1.5331 -0.6046 -2.3504
 5628SOL    HW228347   0.181   0.788   6.672 -0.1717 -1.6036  0.5998
 5629SOL     OW28348   1.142   1.878   2.122 -0.2721  0.2892 -0.1159
 5629SOL    HW128349   1.204   1.930   2.070  0.2084 -3.0356 -2.8237
 5629SOL    HW228350   1.164   1.898   2.213  0.7157 -3.4453  0.4770
 5630SOL     OW28351   2.092   0.951   2.065  0.3949 -0.2350 -1.0295
 5630SOL    HW128352   2.077   0.891   1.991  0.8828  0.2455 -1.5145
 5630SOL    HW228353   2.179   0.918   2.085 -0.2919 -0.5180  1.4999
 5631SOL     OW28354   4.343   0.724   2.267 -0.1365  0.2587 -0.0081
 5631SOL    HW128355   4.261   0.772   2.275  0.2095  0.6012  1.6046
 5631SOL    HW228356   4.408   0.794   2.270 -1.9644  2.0178 -1.9084
 5632SOL     OW28357   1.580   2.405   7.143  0.7062  0.1921 -0.4233
 5632SOL    HW128358   1.567   2.313   7.165 -0.1785  0.6436  0.9362
 5632SOL    HW228359   1.669   2.398   7.109  0.4806 -4.2541 -0.1140
 5633SOL     OW28360   2.483   0.588  13.309 -0.4207 -0.4641  0.1978
 5633SOL    HW128361   2.491   0.587  13.213 -1.7871  1.0437  0.0587
 5633SOL    HW228362   2.571   0.598  13.345 -0.3890  1.6311 -0.4656
 5634SOL     OW28363   0.352   1.301   5.624  0.1046 -0.3907  0.1822
 5634SOL    HW128364   0.380   1.211   5.605  1.2616  0.2294 -1.0327
 5634SOL    HW228365   0.425   1.347   5.583 -0.0192  0.0716  0.4776
 5635SOL     OW28366   3.725   3.166  10.408 -0.6563 -0.0980  0.2767
 5635SOL    HW128367   3.659   3.226  10.373 -1.4820 -0.5844  0.9865
 5635SOL    HW228368   3.703   3.170  10.501  3.7790  2.0630  1.2442
 5636SOL     OW28369   4.177   0.916   3.575  0.0589  0.5624  0.5441
 5636SOL    HW128370   4.175   0.830   3.532  1.1298  1.2104 -0.7793
 5636SOL    HW228371   4.144   0.963   3.499  0.0265  0.8391  0.7279
 5637SOL     OW28372   1.135   2.262   5.947 -0.3297 -0.0070 -0.5215
 5637SOL    HW128373   1.062   2.224   5.994 -0.6819 -0.8238 -1.7427
 5637SOL    HW228374   1.134   2.347   5.992  0.8602  0.5860 -1.5905
 5638SOL     OW28375   0.157   3.501  15.662 -0.0640  0.4072 -0.5168
 5638SOL    HW128376   0.065   3.484  15.642 -0.2209  0.7120 -0.0682
 5638SOL    HW228377   0.187   3.538  15.579 -0.6173 -0.5608 -1.1542
 5639SOL     OW28378   1.186   2.854  15.483  0.1646 -0.1859 -0.1528
 5639SOL    HW128379   1.199   2.849  15.389  0.1003 -0.5805 -0.1407
 5639SOL    HW228380   1.096   2.884  15.491  1.1512  2.4767  1.1278
 5640SOL     OW28381   0.065   0.539   3.876  0.0546 -0.2564 -0.2911
 5640SOL    HW128382   0.154   0.574   3.884 -0.2257 -0.0633  1.8677
 5640SOL    HW228383   0.090   0.447   3.885  1.0688 -0.0314 -0.7812
 5641SOL     OW28384   2.636   1.982   4.971  0.1506 -0.6136 -0.2154
 5641SOL    HW128385   2.727   1.975   4.942  0.8234 -0.0730  1.7242
 5641SOL    HW228386   2.628   1.893   5.004  1.3789 -0.9739 -0.8817
 5642SOL     OW28387   1.741   3.203  15.667 -0.1206 -0.3531 -0.3527
 5642SOL    HW128388   1.657   3.244  15.648  0.9016  1.1441 -1.6014
 5642SOL    HW228389   1.712   3.124  15.712  4.5160 -2.4606 -1.0509
 5643SOL     OW28390   3.456   4.179  16.480  0.3040  0.1515  0.0821
 5643SOL    HW128391   3.444   4.124  16.403  1.1401 -1.5575  1.1852
 5643SOL    HW228392   3.366   4.193  16.509  0.5349  0.7490  0.5062
 5644SOL     OW28393   1.160   1.484   3.624  0.1450 -0.2056  0.1086
 5644SOL    HW128394   1.248   1.450   3.640  0.2136 -0.5382 -1.0382
 5644SOL    HW228395   1.161   1.575   3.655  1.0832 -0.6839  1.4672
 5645SOL     OW28396   3.931   1.165   7.308 -0.2945  0.3850 -0.1517
 5645SOL    HW128397   3.964   1.074   7.308 -2.2412 -0.2913  1.8688
 5645SOL    HW228398   3.919   1.184   7.400 -1.6666 -0.4120 -0.1715
 5646SOL     OW28399   2.236   4.604   4.632  0.1561 -0.4343 -0.3151
 5646SOL    HW128400   2.163   4.557   4.671 -0.3268  0.9776  0.4601
 5646SOL    HW228401   2.200   4.608   4.543  2.6633  1.5474 -1.2419
 5647SOL     OW28402   3.397   1.354   3.885 -0.3415 -0.7128  0.2052
 5647SOL    HW128403   3.485   1.317   3.888 -0.5720 -1.2878 -0.2038
 5647SOL    HW228404   3.433   1.428   3.836  0.5201 -1.0916  0.2638
 5648SOL     OW28405   2.586   4.401   2.369 -0.6063  0.0510 -0.4535
 5648SOL    HW128406   2.622   4.446   2.293 -0.3295  1.0392  0.2667
 5648SOL    HW228407   2.599   4.312   2.336 -0.3417 -0.9661  2.3925
 5649SOL     OW28408   3.531   1.994   5.158  1.1154 -0.0382 -0.3248
 5649SOL    HW128409   3.597   2.019   5.223  0.2912  3.4896 -0.8128
 5649SOL    HW228410   3.463   2.060   5.174  1.3078 -0.0820  0.6745
 5650SOL     OW28411   0.451   3.858   2.143  0.2272 -0.3123 -0.4110
 5650SOL    HW128412   0.366   3.816   2.154 -0.6137  1.2964 -0.8650
 5650SOL    HW228413   0.515   3.795   2.177 -1.0012 -1.6356 -0.5378
 5651SOL     OW28414   1.141   0.329   3.375 -0.3950 -0.5646 -0.0959
 5651SOL    HW128415   1.099   0.342   3.460  0.9097  0.2433  0.4213
 5651SOL    HW228416   1.189   0.412   3.368 -1.2654 -0.0250  0.3222
 5652SOL     OW28417   4.057   0.217   3.949 -0.2350  0.3105  0.8411
 5652SOL    HW128418   4.018   0.137   3.914 -0.2695  1.2550 -1.2842
 5652SOL    HW228419   4.001   0.227   4.026 -1.2619 -0.0495  0.1377
 5653SOL     OW28420   2.269   0.562   2.426  0.0685 -0.2962 -0.0018
 5653SOL    HW128421   2.199   0.601   2.373  0.1408 -0.7098 -0.4014
 5653SOL    HW228422   2.250   0.623   2.498 -0.6829 -1.4542  0.7860
 5654SOL     OW28423   0.094   1.292   7.240 -0.3419 -0.0121  0.2339
 5654SOL    HW128424   0.051   1.282   7.156 -1.9092  0.7980  0.9393
 5654SOL    HW228425   0.020   1.341   7.275 -0.2652 -1.7026  2.7665
 5655SOL     OW28426   1.732   3.001  17.214 -0.0262  0.6333  0.3511
 5655SOL    HW128427   1.736   2.948  17.134  2.0607  0.9705  0.2331
 5655SOL    HW228428   1.646   3.041  17.204  0.3879  1.3790 -0.2796
 5656SOL     OW28429   2.628   3.227  13.638  0.3499  0.0100  0.4034
 5656SOL    HW128430   2.591   3.262  13.719 -3.2689  1.0609 -1.6652
 5656SOL    HW228431   2.550   3.233  13.581 -0.1661 -0.1148  1.0963
 5657SOL     OW28432   0.515   0.123   8.467  0.1911 -0.7645 -0.0689
 5657SOL    HW128433   0.605   0.118   8.499  0.6269 -1.2795 -1.4067
 5657SOL    HW228434   0.494   0.216   8.477 -0.4057 -0.7119 -1.8463
 5658SOL     OW28435   2.337   1.524   8.542  0.3163 -0.2188 -0.5655
 5658SOL    HW128436   2.355   1.616   8.522 -0.1101  0.1960  0.9701
 5658SOL    HW228437   2.398   1.503   8.612 -0.6067 -1.1629 -0.0480
 5659SOL     OW28438   3.418   3.675  14.911 -0.0322  0.3096 -0.6074
 5659SOL    HW128439   3.412   3.618  14.834  0.5535 -0.2647 -0.2269
 5659SOL    HW228440   3.349   3.639  14.967  0.4742 -0.5021 -0.5103
 5660SOL     OW28441   3.178   1.240   4.924  0.2029  0.0410  0.3585
 5660SOL    HW128442   3.239   1.304   4.886 -0.5827  0.2297 -0.5930
 5660SOL    HW228443   3.132   1.218   4.843  0.1587 -1.5403  0.8263
 5661SOL     OW28444   4.545   2.926   2.111 -0.2339  0.0787  0.1696
 5661SOL    HW128445   4.471   2.960   2.161  0.9310  0.7573  1.4443
 5661SOL    HW228446   4.610   2.997   2.109 -1.5615  1.3359  1.5473
 5662SOL     OW28447   2.266   2.316   8.773  0.2199  0.1535 -0.5658
 5662SOL    HW128448   2.212   2.254   8.822  0.1519  0.3389 -0.4058
 5662SOL    HW228449   2.353   2.303   8.811 -0.4261  2.3465  1.6738
 5663SOL     OW28450   2.410   3.127  11.137 -0.7786  0.1832  0.3421
 5663SOL    HW128451   2.375   3.147  11.224 -0.1662 -1.7115  1.0292
 5663SOL    HW228452   2.479   3.193  11.128  0.2285 -0.8264  0.6191
 5664SOL     OW28453   4.240   3.310  12.648 -0.6271 -0.5392 -0.1256
 5664SOL    HW128454   4.234   3.355  12.564  2.6612 -1.2870 -0.7233
 5664SOL    HW228455   4.154   3.334  12.684 -0.4727  4.2922 -3.0258
 5665SOL     OW28456   2.479   0.117  14.460  0.0205  0.1306 -0.0128
 5665SOL    HW128457   2.543   0.157  14.518 -0.8225 -0.0994  1.0712
 5665SOL    HW228458   2.412   0.085  14.520  1.8845 -1.2344  1.3523
 5666SOL     OW28459   3.230   3.730  11.886 -0.8273  0.0291  0.3755
 5666SOL    HW128460   3.223   3.769  11.798 -1.2307 -0.1253  0.3400
 5666SOL    HW228461   3.160   3.665  11.873 -1.6922  1.5241 -2.6148
 5667SOL     OW28462   0.002   3.200  12.821 -0.0870 -0.0597 -0.1464
 5667SOL    HW128463   0.089   3.160  12.816  0.2184  0.6445 -0.4430
 5667SOL    HW228464   4.692   3.157  12.741 -0.0286  0.7501 -0.6035
 5668SOL     OW28465   2.703   1.852   6.295 -1.0953 -0.3133 -0.0349
 5668SOL    HW128466   2.745   1.837   6.379 -4.0159  2.3943  1.8867
 5668SOL    HW228467   2.729   1.944   6.287 -3.0236  0.1228 -1.3332
 5669SOL     OW28468   0.134   4.334   8.602 -0.3759  0.2952  0.1898
 5669SOL    HW128469   0.137   4.335   8.698 -2.2245  1.2202  0.2421
 5669SOL    HW228470   0.081   4.411   8.583  0.9033  0.3840 -3.0710
 5670SOL     OW28471   3.781   4.283  15.101  0.0060  0.5407  0.1746
 5670SOL    HW128472   3.736   4.292  15.185 -1.0579 -2.5086 -0.0927
 5670SOL    HW228473   3.712   4.273  15.036  0.0791 -3.4840  0.7556
 5671SOL     OW28474   2.636   4.432   8.713  0.2722  0.1797 -0.4307
 5671SOL    HW128475   2.589   4.467   8.638 -1.5333  0.8291  0.9924
 5671SOL    HW228476   2.690   4.510   8.730 -0.1653  0.5701 -0.8412
 5672SOL     OW28477   1.091   0.371  13.053 -0.8082  0.2308 -0.0782
 5672SOL    HW128478   1.054   0.291  13.017 -0.3835 -0.9963  2.1946
 5672SOL    HW228479   1.064   0.368  13.145 -0.3109 -2.9690 -0.0548
 5673SOL     OW28480   2.429   1.135  10.716  0.0906 -0.0010 -1.3468
 5673SOL    HW128481   2.424   1.076  10.641 -0.4824  1.0076 -2.1014
 5673SOL    HW228482   2.522   1.152  10.729  0.3321 -1.4315 -1.2388
 5674SOL     OW28483   2.053   4.546  16.946  0.3695  0.3607  0.4118
 5674SOL    HW128484   2.124   4.520  17.005  1.8444  2.8155 -0.3118
 5674SOL    HW228485   2.013   4.617  16.997  1.8642  1.7318 -0.3290
 5675SOL     OW28486   3.326   3.598   3.545 -0.2286  0.0332  0.4360
 5675SOL    HW128487   3.295   3.656   3.615  0.0220 -0.0746  0.6376
 5675SOL    HW228488   3.264   3.623   3.477  0.0971  2.2934  0.9900
 5676SOL     OW28489   2.101   2.164   5.519  0.3705  0.3717  0.1683
 5676SOL    HW128490   2.153   2.205   5.589 -0.7168  0.8841  0.6755
 5676SOL    HW228491   2.130   2.218   5.446  1.0206  2.2523  1.7950
 5677SOL     OW28492   3.023   2.879  14.000 -0.9319 -0.0326 -0.0679
 5677SOL    HW128493   3.076   2.925  13.936 -3.3402  0.9548 -1.3591
 5677SOL    HW228494   3.005   2.793  13.964 -0.8602  0.3472 -0.9976
 5678SOL     OW28495   1.368   4.103  17.070 -0.1322 -0.2344 -0.0925
 5678SOL    HW128496   1.384   4.033  17.134 -1.9347  0.3864  1.0251
 5678SOL    HW228497   1.339   4.176  17.123 -1.8910 -1.2912  0.4179
 5679SOL     OW28498   1.472   1.656  17.406  0.4878  0.3554  0.1976
 5679SOL    HW128499   1.387   1.612  17.413 -0.4709  2.0706 -0.6793
 5679SOL    HW228500   1.511   1.603  17.337 -1.2864  1.6476 -1.7861
 5680SOL     OW28501   2.527   3.381   4.350  0.1059  0.6534  0.0933
 5680SOL    HW128502   2.569   3.356   4.268 -0.1987 -2.3176  0.8437
 5680SOL    HW228503   2.580   3.333   4.414 -0.5219 -0.1749 -0.0048
 5681SOL     OW28504   0.334   0.878   6.149  0.6052  0.1705  0.0109
 5681SOL    HW128505   0.280   0.911   6.078 -0.9386  0.0597  1.1172
 5681SOL    HW228506   0.269   0.813   6.177  1.1820 -0.6799 -0.6218
 5682SOL     OW28507   3.325   2.122   0.167 -0.3271  0.5919  0.0669
 5682SOL    HW128508   3.297   2.140   0.078  0.0694  0.9849  0.0204
 5682SOL    HW228509   3.361   2.035   0.149  1.2142  1.0940  0.6433
 5683SOL     OW28510   1.069   0.122  12.893  0.2109 -0.3098 -0.2023
 5683SOL    HW128511   1.033   0.075  12.818 -1.4716  1.5792 -0.5800
 5683SOL    HW228512   1.031   0.083  12.971 -0.3365 -0.1736 -0.4025
 5684SOL     OW28513   2.479   2.912   9.373  0.0713 -0.1089 -0.1665
 5684SOL    HW128514   2.473   2.817   9.365 -1.7922 -0.0764  0.8221
 5684SOL    HW228515   2.535   2.923   9.450  0.4406 -2.4719 -0.1122
 5685SOL     OW28516   1.034   2.334   3.920 -0.2227  0.2375 -0.1466
 5685SOL    HW128517   1.027   2.415   3.971  1.1734 -0.3483  0.9785
 5685SOL    HW228518   1.123   2.346   3.885 -0.4042 -0.0934 -0.7088
 5686SOL     OW28519   0.864   1.180  14.034  0.0950 -0.3963 -0.2619
 5686SOL    HW128520   0.843   1.141  13.949 -0.0131 -0.5028 -0.1851
 5686SOL    HW228521   0.824   1.128  14.103 -0.2281  1.2342  0.7716
 5687SOL     OW28522   3.450   3.778  14.616  0.0998 -0.5563  0.4011
 5687SOL    HW128523   3.460   3.790  14.522 -1.6636  0.8815  0.4049
 5687SOL    HW228524   3.526   3.826  14.648 -1.5852  1.8546  0.7692
 5688SOL     OW28525   1.873   4.677   5.886 -0.2575  0.7219  0.6975
 5688SOL    HW128526   1.798   4.686   5.828 -2.0579 -1.5991  2.6687
 5688SOL    HW228527   1.944   4.715   5.833 -0.7782 -1.3111 -1.4317
 5689SOL     OW28528   2.174   2.512   5.672 -0.1848 -0.5222  0.6504
 5689SOL    HW128529   2.265   2.513   5.700 -0.7603 -0.0598  2.5012
 5689SOL    HW228530   2.130   2.518   5.756 -0.1357  1.7982  0.4988
 5690SOL     OW28531   0.752   4.506   8.833  0.2996  0.0164 -0.7620
 5690SOL    HW128532   0.679   4.567   8.842 -1.2436 -1.4382 -3.3383
 5690SOL    HW228533   0.802   4.528   8.912 -4.1278 -0.2360  2.1085
 5691SOL     OW28534   2.636   2.111   7.120  0.2326 -0.2725 -0.3658
 5691SOL    HW128535   2.614   2.205   7.119  0.1524 -0.2813  0.3403
 5691SOL    HW228536   2.685   2.105   7.202 -0.2887  1.7153  0.1021
 5692SOL     OW28537   4.505   3.388   2.451 -0.1468  0.0120 -0.2534
 5692SOL    HW128538   4.586   3.437   2.457 -0.8538  0.9990  1.1880
 5692SOL    HW228539   4.462   3.431   2.377 -4.0824 -0.5320  1.7028
 5693SOL     OW28540   4.093   0.632   4.257 -0.5864 -0.0590  0.1234
 5693SOL    HW128541   4.082   0.558   4.316 -0.5951  0.7577  1.1382
 5693SOL    HW228542   4.083   0.592   4.170 -2.6604 -1.2115  0.8881
 5694SOL     OW28543   0.868   2.854   9.471  0.2952  0.0051 -0.0482
 5694SOL    HW128544   0.936   2.895   9.525  1.8838 -0.3157 -1.8255
 5694SOL    HW228545   0.794   2.883   9.523  1.5098  0.1701  1.5915
 5695SOL     OW28546   2.104   1.463   2.531 -0.0839  0.0374 -0.5126
 5695SOL    HW128547   2.111   1.534   2.594  2.3937  0.2644 -1.0437
 5695SOL    HW228548   2.035   1.503   2.478  0.8827 -1.7110 -3.0846
 5696SOL     OW28549   2.907   1.643   4.616 -0.1951  0.7642  0.4881
 5696SOL    HW128550   2.999   1.667   4.606  0.6969 -2.9536  0.0673
 5696SOL    HW228551   2.911   1.587   4.693  0.7283  0.5151  0.2514
 5697SOL     OW28552   1.118   0.564  15.767 -0.4672  0.5580 -0.0059
 5697SOL    HW128553   1.057   0.626  15.727 -0.9206 -1.5160 -2.5650
 5697SOL    HW228554   1.175   0.623  15.815 -0.5158 -0.9237  1.8940
 5698SOL     OW28555   0.417   3.965   9.705  0.0610 -0.1331  0.3796
 5698SOL    HW128556   0.385   3.875   9.714 -0.2603  0.1198  1.7011
 5698SOL    HW228557   0.508   3.945   9.684  0.3061  1.6601 -0.2401
 5699SOL     OW28558   2.890   2.478  12.585 -0.5392 -0.4440 -0.2007
 5699SOL    HW128559   2.890   2.446  12.675 -0.4935 -2.0416 -0.7573
 5699SOL    HW228560   2.896   2.572  12.597 -0.0401 -0.7833  2.1191
 5700SOL     OW28561   4.041   3.337   5.731  0.0811  0.2095 -0.0388
 5700SOL    HW128562   4.040   3.250   5.771 -0.5704  0.1106 -0.2721
 5700SOL    HW228563   4.041   3.318   5.638  0.0855 -1.0375  0.2118
 5701SOL     OW28564   1.038   1.648  11.290 -0.1023 -0.0030  0.0629
 5701SOL    HW128565   1.130   1.667  11.307 -0.1201  0.3411 -0.2385
 5701SOL    HW228566   1.042   1.609  11.203  0.4702  1.6611 -0.6616
 5702SOL     OW28567   3.282   2.121   0.643  0.2077  0.6816  0.4886
 5702SOL    HW128568   3.336   2.138   0.720 -1.0710  2.8958  0.8686
 5702SOL    HW228569   3.354   2.124   0.580 -0.9865 -0.8628 -0.9316
 5703SOL     OW28570   0.598   2.300   2.430 -0.0316 -0.1189 -0.3068
 5703SOL    HW128571   0.571   2.266   2.515 -1.9850  0.0428 -0.8693
 5703SOL    HW228572   0.513   2.308   2.387 -0.0112  0.6030 -0.2143
 5704SOL     OW28573   0.334   1.762   3.674 -0.3274 -0.6502  0.5554
 5704SOL    HW128574   0.298   1.771   3.763  0.9486  0.0621  0.9959
 5704SOL    HW228575   0.270   1.808   3.620 -0.4347 -2.5871 -0.9385
 5705SOL     OW28576   2.466   0.314  16.619 -0.1965  0.6912  0.0116
 5705SOL    HW128577   2.387   0.302  16.566  0.5912 -1.3260 -0.7086
 5705SOL    HW228578   2.441   0.382  16.682  0.9193  0.8254  0.3159
 5706SOL     OW28579   4.499   2.080   1.030 -0.3071  0.2329  0.0200
 5706SOL    HW128580   4.454   2.079   0.946  2.4337  0.6225 -1.4274
 5706SOL    HW228581   4.452   2.147   1.081  0.2842 -1.9494  3.4258
 5707SOL     OW28582   0.775   1.522   8.381  0.2141 -0.4623  0.2261
 5707SOL    HW128583   0.757   1.612   8.407  2.9591  0.6252 -1.5965
 5707SOL    HW228584   0.691   1.499   8.343  0.4462 -0.3617 -0.3568
 5708SOL     OW28585   3.943   4.067  16.402 -0.0180  0.2952  0.4552
 5708SOL    HW128586   4.037   4.075  16.418 -0.0370 -0.9579  1.2125
 5708SOL    HW228587   3.935   4.140  16.341  1.1474  0.9478  1.0915
 5709SOL     OW28588   0.671   1.925  12.265 -0.1835 -0.8846 -0.0156
 5709SOL    HW128589   0.677   1.983  12.341 -2.9840  0.4298 -0.7874
 5709SOL    HW228590   0.657   1.994  12.200 -0.2923 -0.7145  0.1884
 5710SOL     OW28591   3.099   3.878   5.488  0.3233  0.0363 -0.1265
 5710SOL    HW128592   3.080   3.849   5.399  1.1057 -1.8383  0.3071
 5710SOL    HW228593   3.014   3.907   5.521 -0.5512 -0.6175 -1.8169
 5711SOL     OW28594   0.770   4.283   3.274  0.0471  0.8594  0.8539
 5711SOL    HW128595   0.855   4.312   3.308  1.0011  0.6153 -1.3616
 5711SOL    HW228596   0.789   4.262   3.183  3.2079  0.6253  1.5827
 5712SOL     OW28597   2.240   3.241   9.046 -0.2758  0.4769  0.0413
 5712SOL    HW128598   2.146   3.259   9.053 -0.2156  1.8087 -2.5495
 5712SOL    HW228599   2.251   3.179   9.118  0.9498 -0.0583 -0.6151
 5713SOL     OW28600   2.195   2.259   8.084  0.4886  0.0441  0.0915
 5713SOL    HW128601   2.183   2.166   8.100 -3.2022  0.4588 -0.1187
 5713SOL    HW228602   2.289   2.267   8.100  0.8181 -1.9817 -0.9049
 5714SOL     OW28603   2.410   0.518   3.611 -0.0464  0.2759 -0.5833
 5714SOL    HW128604   2.436   0.434   3.573 -0.3109 -0.6432  1.2428
 5714SOL    HW228605   2.326   0.530   3.566  0.9609  0.1943 -2.4622
 5715SOL     OW28606   4.250   3.810   8.435  0.5343  0.7656 -0.1812
 5715SOL    HW128607   4.316   3.855   8.382 -0.4078  0.2453 -1.7829
 5715SOL    HW228608   4.171   3.850   8.397 -0.1569 -1.3293 -0.9171
 5716SOL     OW28609   4.616   3.900   8.568  0.1477  0.6313  0.5372
 5716SOL    HW128610   4.667   3.826   8.537 -0.6897  0.6993 -0.9964
 5716SOL    HW228611   4.641   3.975   8.514  0.7061 -1.2973 -1.8473
 5717SOL     OW28612   1.302   4.467  12.838 -0.0929  0.1441 -0.8541
 5717SOL    HW128613   1.219   4.419  12.849 -0.1095  0.5797  1.0195
 5717SOL    HW228614   1.358   4.421  12.776  1.9575 -1.1392  1.9476
 5718SOL     OW28615   2.967   4.571   1.017 -0.5551 -0.3743 -0.1897
 5718SOL    HW128616   2.961   4.648   0.959  2.2201  0.2903  0.3816
 5718SOL    HW228617   2.893   4.579   1.077 -0.8645  1.0550 -0.7503
 5719SOL     OW28618   1.587   3.182   2.279  0.2100 -1.0716 -0.1991
 5719SOL    HW128619   1.615   3.142   2.197  2.2958 -0.2511  0.1045
 5719SOL    HW228620   1.663   3.160   2.334  0.7700  1.2194 -0.0346
 5720SOL     OW28621   3.895   1.848   0.936 -0.6374  0.1121 -0.0349
 5720SOL    HW128622   3.988   1.856   0.915 -0.8503  0.2952 -0.9263
 5720SOL    HW228623   3.878   1.916   1.001  1.0602  0.6890 -0.2096
 5721SOL     OW28624   1.690   3.384   9.698  0.1345  0.5107  0.3900
 5721SOL    HW128625   1.722   3.350   9.615  2.1405  2.4086  0.3888
 5721SOL    HW228626   1.733   3.314   9.747 -0.5347 -0.4114 -0.3468
 5722SOL     OW28627   4.092   2.730   0.192  0.7415 -0.4659  0.3065
 5722SOL    HW128628   4.061   2.650   0.235 -0.9111  0.8226  1.5052
 5722SOL    HW228629   4.171   2.700   0.146 -1.4404 -3.9042 -1.1882
 5723SOL     OW28630   4.489   3.490   1.159 -0.1352 -0.3904 -0.1422
 5723SOL    HW128631   4.455   3.455   1.241  0.1833  1.5986  0.8523
 5723SOL    HW228632   4.580   3.466   1.174  0.9655  2.5351 -2.1354
 5724SOL     OW28633   2.805   0.519   4.982  0.3153 -0.3046 -0.5086
 5724SOL    HW128634   2.753   0.591   4.948 -0.9756 -1.1095 -0.2040
 5724SOL    HW228635   2.759   0.440   4.953  0.0240 -0.2954 -0.0740
 5725SOL     OW28636   2.057   2.115   6.699  0.5866 -0.6920  0.2113
 5725SOL    HW128637   1.967   2.125   6.667  0.5291  0.6509  0.8185
 5725SOL    HW228638   2.051   2.038   6.756  1.9662 -0.1587  1.0713
 5726SOL     OW28639   0.066   2.029  13.139 -0.2808 -0.1657  0.3451
 5726SOL    HW128640   0.020   2.104  13.101  0.2298  0.0095  0.0674
 5726SOL    HW228641   0.027   1.952  13.098  1.1314 -0.4546 -0.4480
 5727SOL     OW28642   3.395   0.795   0.718  0.0367  0.1023  0.2455
 5727SOL    HW128643   3.357   0.883   0.725 -1.2589 -0.5096  0.7760
 5727SOL    HW228644   3.488   0.814   0.703  0.1327 -0.8646 -0.3586
 5728SOL     OW28645   1.151   4.479  11.648  0.2241 -0.3304  0.1684
 5728SOL    HW128646   1.195   4.395  11.643  0.2194 -0.3772  0.9089
 5728SOL    HW228647   1.184   4.503  11.561  1.3742 -1.0348  0.4086
 5729SOL     OW28648   3.560   4.687   8.625 -0.6654  0.0674  0.4928
 5729SOL    HW128649   3.532   4.608   8.672 -0.5658 -0.7414 -0.8189
 5729SOL    HW228650   3.651   4.691   8.654  0.4101 -0.6519 -2.7369
 5730SOL     OW28651   2.963   1.377   7.616  0.9224 -0.3637 -0.0922
 5730SOL    HW128652   2.907   1.386   7.540 -1.6835 -2.1474  1.6175
 5730SOL    HW228653   2.920   1.443   7.671  1.9699 -0.6501  1.0858
 5731SOL     OW28654   1.772   3.141   7.594 -0.0471  0.0525  0.0927
 5731SOL    HW128655   1.835   3.172   7.529  1.2467  1.0615  1.7983
 5731SOL    HW228656   1.718   3.085   7.539 -1.0036  1.5814 -0.5139
 5732SOL     OW28657   2.310   2.733   7.993 -0.1248 -0.7512 -0.3363
 5732SOL    HW128658   2.256   2.708   8.068  2.4910 -1.7549  1.2361
 5732SOL    HW228659   2.284   2.661   7.937 -0.9924  0.2100 -1.1642
 5733SOL     OW28660   0.112   3.377   3.226 -0.1839 -0.9166  0.2222
 5733SOL    HW128661   0.124   3.450   3.287 -1.3526 -0.7876  0.2905
 5733SOL    HW228662   0.203   3.360   3.201 -0.7377 -0.5432 -2.0713
 5734SOL     OW28663   3.436   1.789   1.279  0.4844  0.8120 -0.3614
 5734SOL    HW128664   3.526   1.774   1.306  0.1510 -0.6667 -0.0885
 5734SOL    HW228665   3.423   1.879   1.309  0.4393  1.1467 -1.3720
 5735SOL     OW28666   1.240   3.505  13.479  0.0283  0.0821  0.2265
 5735SOL    HW128667   1.284   3.444  13.538  1.6313 -1.0231 -2.0957
 5735SOL    HW228668   1.313   3.566  13.467  0.2400 -0.1286  0.4344
 5736SOL     OW28669   1.322   1.335   5.275  0.5475 -0.2078 -0.2489
 5736SOL    HW128670   1.268   1.335   5.196  0.1516  0.0867  0.0247
 5736SOL    HW228671   1.294   1.416   5.318 -0.0195 -1.4386  1.6764
 5737SOL     OW28672   0.722   3.438   0.004  1.0152  0.0728 -0.4988
 5737SOL    HW128673   0.654   3.382  17.651  0.8747 -0.2220  0.1786
 5737SOL    HW228674   0.698   3.423   0.095 -2.8107  3.0764 -1.0178
 5738SOL     OW28675   0.714   2.138   0.263  0.1992  0.4992 -0.2365
 5738SOL    HW128676   0.714   2.079   0.188  0.0629 -0.2238  0.3240
 5738SOL    HW228677   0.675   2.217   0.228  0.4087  1.7047  2.2105
 5739SOL     OW28678   1.412   1.688   6.472 -0.1633 -0.2223 -0.1436
 5739SOL    HW128679   1.372   1.770   6.500  1.0023  0.3973 -0.3098
 5739SOL    HW228680   1.345   1.642   6.421 -1.5564  0.4161  1.1043
 5740SOL     OW28681   4.364   4.143   1.696 -0.3808  0.4409 -0.8266
 5740SOL    HW128682   4.390   4.229   1.662  1.5617 -0.3782 -1.3627
 5740SOL    HW228683   4.286   4.161   1.749 -0.1121  0.0976 -0.3178
 5741SOL     OW28684   4.671   1.912   5.947 -0.6499  0.4545 -0.0072
 5741SOL    HW128685   4.603   1.971   5.982 -1.6395  0.3147 -1.6985
 5741SOL    HW228686   4.623   1.835   5.919 -2.8099  1.1862  1.6230
 5742SOL     OW28687   3.509   2.014   4.583  0.0237 -0.0105  0.0540
 5742SOL    HW128688   3.454   2.066   4.641 -0.5927 -0.0135 -0.5314
 5742SOL    HW228689   3.548   1.964   4.655 -1.9176 -0.1621  0.9900
 5743SOL     OW28690   2.827   0.181   6.337  0.1358 -0.4967  0.2813
 5743SOL    HW128691   2.871   0.253   6.382  1.2050 -1.2873  0.4962
 5743SOL    HW228692   2.903   0.135   6.303  3.3153  2.8368  2.8080
 5744SOL     OW28693   0.692   1.112   4.252 -0.0451 -0.1897  0.4961
 5744SOL    HW128694   0.711   1.086   4.342  1.1038 -0.8702  0.0725
 5744SOL    HW228695   0.778   1.107   4.210  1.4750 -0.2455  3.6667
 5745SOL     OW28696   0.525   0.745  11.178 -0.1224 -0.0493  0.6075
 5745SOL    HW128697   0.603   0.779  11.136 -0.3027 -0.1295  0.2117
 5745SOL    HW228698   0.498   0.818  11.234  1.1035  0.2342  0.8273
 5746SOL     OW28699   1.209   3.212  10.392 -0.3223 -0.3535 -0.2156
 5746SOL    HW128700   1.208   3.307  10.402 -0.4596 -0.1390 -2.2859
 5746SOL    HW228701   1.229   3.201  10.299  1.9847  0.5475  0.1590
 5747SOL     OW28702   1.292   0.369  12.760 -0.3756  0.2885  0.3218
 5747SOL    HW128703   1.337   0.293  12.795 -1.5170 -0.5820 -0.1144
 5747SOL    HW228704   1.253   0.406  12.840  1.8023 -1.3666  2.1345
 5748SOL     OW28705   4.426   1.141   1.533 -0.4215 -0.1159 -0.2008
 5748SOL    HW128706   4.505   1.112   1.580  0.1774  0.9647 -0.5414
 5748SOL    HW228707   4.362   1.142   1.605  2.1242  0.5351  2.0733
 5749SOL     OW28708   3.545   2.134   3.785 -0.2361  0.8048 -0.7024
 5749SOL    HW128709   3.636   2.121   3.810 -0.8015 -1.0105  0.4330
 5749SOL    HW228710   3.552   2.121   3.690  3.4836  1.1431 -0.4543
 5750SOL     OW28711   0.666   1.457   4.759 -0.3949 -0.2862 -0.4460
 5750SOL    HW128712   0.581   1.497   4.776 -0.6735 -0.7687 -0.7103
 5750SOL    HW228713   0.668   1.469   4.664  1.9520 -0.7779 -0.4586
 5751SOL     OW28714   3.883   3.191   2.309 -0.9086  0.2351  0.3921
 5751SOL    HW128715   3.826   3.116   2.321 -1.8489  1.2355  2.1290
 5751SOL    HW228716   3.878   3.203   2.214  1.0971 -0.5786  0.1783
 5752SOL     OW28717   2.906   2.546  15.241  0.5478 -0.6286  0.8342
 5752SOL    HW128718   2.873   2.574  15.156  1.0477 -1.7018  0.2912
 5752SOL    HW228719   2.847   2.475  15.266  0.2164  0.5978  3.5635
 5753SOL     OW28720   2.345   4.362   7.363 -0.0187  0.0271 -0.2992
 5753SOL    HW128721   2.401   4.323   7.430 -0.7859  1.7476  1.3520
 5753SOL    HW228722   2.364   4.456   7.361  1.6639 -0.3061  1.1019
 5754SOL     OW28723   0.239   2.935   2.962 -0.1871 -0.2552 -0.2860
 5754SOL    HW128724   0.320   2.885   2.951  0.8541  1.2436  0.6413
 5754SOL    HW228725   0.209   2.876   3.032 -0.6981 -0.1500 -0.4191
 5755SOL     OW28726   0.493   2.689   6.449  0.1528  0.2822  0.0365
 5755SOL    HW128727   0.412   2.656   6.412 -0.2285  0.6976  0.4929
 5755SOL    HW228728   0.471   2.679   6.541  1.0456  2.0366  0.4442
 5756SOL     OW28729   0.218   1.351   2.578  0.3087 -0.2415  0.1589
 5756SOL    HW128730   0.190   1.428   2.628  2.0132  0.0885  0.6267
 5756SOL    HW228731   0.307   1.346   2.614  1.0453  0.9981 -1.4953
 5757SOL     OW28732   2.342   4.568  16.812  0.0563  0.2217 -0.1140
 5757SOL    HW128733   2.267   4.579  16.754 -0.6213  1.5356  0.9894
 5757SOL    HW228734   2.417   4.606  16.766  1.0192 -0.6154  0.7459
 5758SOL     OW28735   2.749   0.407  15.192  0.6079  0.2148 -0.9144
 5758SOL    HW128736   2.747   0.433  15.284 -1.3606  0.7212 -1.0912
 5758SOL    HW228737   2.713   0.319  15.203  2.1888 -0.7749 -3.5333
 5759SOL     OW28738   3.970   0.204  16.464  0.1406 -0.0313  0.1487
 5759SOL    HW128739   3.965   0.288  16.510  1.3531 -0.9404  1.9486
 5759SOL    HW228740   3.882   0.172  16.485  0.2976 -1.1382 -0.8715
 5760SOL     OW28741   3.518   0.753  16.122 -0.1400 -0.7341  0.1876
 5760SOL    HW128742   3.444   0.754  16.062 -0.2982  1.0289  0.3927
 5760SOL    HW228743   3.478   0.814  16.185 -0.6388 -0.6615 -0.1938
 5761SOL     OW28744   3.741   3.016  11.704 -0.0620  0.0025  0.2816
 5761SOL    HW128745   3.775   3.105  11.705  2.3061 -0.8963 -0.3819
 5761SOL    HW228746   3.667   3.040  11.647  1.5650 -0.9818 -2.2595
 5762SOL     OW28747   1.846   0.375   6.870 -0.4899  0.4964 -0.5752
 5762SOL    HW128748   1.818   0.376   6.962  0.1247  2.6793 -0.3984
 5762SOL    HW228749   1.926   0.322   6.878  0.2341  1.5384 -0.8976
 5763SOL     OW28750   3.654   2.668   6.423  0.2475 -0.5793  0.5220
 5763SOL    HW128751   3.570   2.680   6.468 -1.1696  0.1214 -2.3169
 5763SOL    HW228752   3.714   2.679   6.496  0.2584  0.9964  0.2747
 5764SOL     OW28753   1.931   0.238   5.014 -0.0461 -0.0528 -0.4846
 5764SOL    HW128754   1.952   0.303   4.947  0.3265  0.4884  0.1622
 5764SOL    HW228755   1.914   0.160   4.962  2.5035 -0.6535 -0.4433
 5765SOL     OW28756   1.149   0.934   7.682 -0.0515  0.5039 -0.0387
 5765SOL    HW128757   1.197   1.017   7.683  1.5645 -0.3743 -2.9991
 5765SOL    HW228758   1.067   0.957   7.638 -1.1875  0.0065  1.8657
 5766SOL     OW28759   1.866   2.168   8.186 -0.2034 -0.1039 -0.2406
 5766SOL    HW128760   1.900   2.123   8.263 -0.4207 -1.0001 -0.6701
 5766SOL    HW228761   1.773   2.152   8.199  0.0667 -0.5092  1.2218
 5767SOL     OW28762   4.444   2.867   1.494  0.6164 -0.5668 -0.0504
 5767SOL    HW128763   4.427   2.946   1.545 -2.6072 -0.0172 -1.9690
 5767SOL    HW228764   4.364   2.819   1.516  0.5832 -1.2180 -1.5951
 5768SOL     OW28765   1.564   4.629  17.605  0.2606 -0.4850 -0.1621
 5768SOL    HW128766   1.542   4.695  17.671  0.5359  1.8447 -2.3930
 5768SOL    HW228767   1.499   4.654  17.540 -0.3885 -0.1285  0.6236
 5769SOL     OW28768   1.069   4.134   9.066  0.0703  0.3556 -0.1247
 5769SOL    HW128769   1.069   4.192   9.143  2.0429 -1.4064  1.2033
 5769SOL    HW228770   0.985   4.157   9.027 -0.5314 -1.9125 -0.1619
 5770SOL     OW28771   2.913   1.895   2.310 -0.9276 -0.2183  0.2906
 5770SOL    HW128772   2.860   1.870   2.386  0.4621  1.2580  1.7403
 5770SOL    HW228773   2.850   1.949   2.262 -0.1177  2.8644  2.6914
 5771SOL     OW28774   1.983   0.315  16.110  0.0475 -0.4852  0.1672
 5771SOL    HW128775   1.912   0.371  16.141  0.6562  0.9857 -1.0718
 5771SOL    HW228776   1.942   0.249  16.054 -0.2081 -0.8647  0.7972
 5772SOL     OW28777   1.852   0.241   7.121  0.2856  0.2175 -0.2625
 5772SOL    HW128778   1.794   0.304   7.164 -2.1331 -0.4397 -2.5282
 5772SOL    HW228779   1.940   0.278   7.129  0.6901 -0.9390  0.5118
 5773SOL     OW28780   1.016   4.669  10.852  0.0388  0.2231  0.3945
 5773SOL    HW128781   1.013   4.705  10.763  0.8867  0.8351  0.6113
 5773SOL    HW228782   1.050   0.021  10.904  0.0203  0.6996 -0.2578
 5774SOL     OW28783   1.780   1.333  14.961 -0.6533  0.1072 -0.1158
 5774SOL    HW128784   1.705   1.389  14.939  2.0610  2.7684 -2.4607
 5774SOL    HW228785   1.821   1.309  14.878 -0.4157  2.2952 -0.6381
 5775SOL     OW28786   0.222   0.947  14.888  0.1388  0.1711 -0.2535
 5775SOL    HW128787   0.309   0.985  14.879  0.5978 -1.2126 -1.5894
 5775SOL    HW228788   0.234   0.853  14.899  1.7102  0.3337 -0.6851
 5776SOL     OW28789   0.066   3.917   6.345  0.3380 -0.1459  0.5341
 5776SOL    HW128790   4.717   3.855   6.325  1.7111 -0.6435 -2.7814
 5776SOL    HW228791   0.013   3.997   6.340 -0.4944 -0.6330  1.5203
 5777SOL     OW28792   0.242   2.568   2.482 -0.5185 -0.2591 -0.0302
 5777SOL    HW128793   0.158   2.562   2.528 -0.0003  1.4378  1.1706
 5777SOL    HW228794   0.277   2.483   2.506 -0.5090 -0.0411  0.7542
 5778SOL     OW28795   2.937   1.319   5.060 -0.0705  0.4748  0.2478
 5778SOL    HW128796   3.032   1.306   5.055 -0.3574 -1.4772 -0.0080
 5778SOL    HW228797   2.904   1.256   4.997  3.0558  0.4511 -1.3756
 5779SOL     OW28798   2.130   0.125  15.933 -0.7862 -0.1031  0.5225
 5779SOL    HW128799   2.174   0.092  15.855 -1.7280  2.9783 -1.3245
 5779SOL    HW228800   2.095   0.041  15.961 -1.2290  0.2655  1.0809
 5780SOL     OW28801   4.386   2.674  15.731 -0.2741  0.1577 -0.8579
 5780SOL    HW128802   4.365   2.580  15.734 -0.9009  0.3955  2.7133
 5780SOL    HW228803   4.422   2.685  15.643  0.8741 -0.9849 -0.5265
 5781SOL     OW28804   4.026   1.950   0.472 -0.2976 -0.2104  0.1300
 5781SOL    HW128805   4.053   1.996   0.392 -2.0852 -0.0632 -0.3797
 5781SOL    HW228806   4.093   1.882   0.479  0.9305  1.0982  1.1820
 5782SOL     OW28807   3.758   2.732   2.642 -0.3757  0.3351  0.0037
 5782SOL    HW128808   3.706   2.653   2.631  0.2953 -0.3334  1.6288
 5782SOL    HW228809   3.821   2.721   2.570 -0.2965  1.9098 -0.1561
 5783SOL     OW28810   2.523   3.396   3.551  0.2181 -0.1409 -0.6961
 5783SOL    HW128811   2.574   3.343   3.611  0.7065 -0.2429 -1.2012
 5783SOL    HW228812   2.518   3.338   3.475 -0.8143 -1.1963  0.1806
 5784SOL     OW28813   2.838   2.158   1.302 -0.6784  0.1295 -0.0258
 5784SOL    HW128814   2.786   2.178   1.224 -1.9015 -0.4571  0.6334
 5784SOL    HW228815   2.913   2.212   1.278  0.5765 -0.7888  1.7806
 5785SOL     OW28816   3.046   2.940   3.998 -0.0104  0.2194  0.0130
 5785SOL    HW128817   3.031   2.889   3.919 -1.6754 -0.6660  0.8863
 5785SOL    HW228818   3.139   2.958   4.004 -0.2045  1.8922 -2.1652
 5786SOL     OW28819   3.717   2.419  12.840 -0.0275  0.5567  0.1947
 5786SOL    HW128820   3.773   2.485  12.799  1.3390 -0.1838  0.8584
 5786SOL    HW228821   3.731   2.336  12.794 -1.0866  0.0376  0.8142
 5787SOL     OW28822   1.836   3.055   3.738 -0.4123  0.0682 -0.2696
 5787SOL    HW128823   1.876   2.988   3.793  0.3990 -0.2683 -1.2769
 5787SOL    HW228824   1.901   3.058   3.668 -0.3178  0.9228 -0.1388
 5788SOL     OW28825   3.483   0.233   6.430 -0.1893  0.2978  0.0806
 5788SOL    HW128826   3.494   0.204   6.339  3.6168  0.0726  0.6578
 5788SOL    HW228827   3.414   0.177   6.467 -0.9677  2.8045  2.3686
 5789SOL     OW28828   4.707   4.052   3.001  0.2238 -0.2898  0.0895
 5789SOL    HW128829   4.625   4.031   2.955  0.0859 -2.4165  1.3256
 5789SOL    HW228830   4.675   4.125   3.055 -0.8132 -0.6590 -0.0317
 5790SOL     OW28831   0.280   3.638  16.870  0.1491  0.3659  0.0091
 5790SOL    HW128832   0.346   3.569  16.876  2.2354  2.3671 -0.1092
 5790SOL    HW228833   0.234   3.614  16.790 -0.5746  3.1090 -0.4197
 5791SOL     OW28834   1.527   4.032   7.053  0.2976  0.1599 -0.1488
 5791SOL    HW128835   1.572   4.055   7.134  2.1253 -1.3282 -0.7675
 5791SOL    HW228836   1.481   4.114   7.035 -0.0008  0.0019 -0.1104
 5792SOL     OW28837   1.914   0.900   5.210  0.3510  0.0102 -0.3173
 5792SOL    HW128838   1.875   0.822   5.249  0.2043 -0.9089 -2.3021
 5792SOL    HW228839   1.992   0.863   5.167  0.6801  1.3663 -0.8779
 5793SOL     OW28840   1.613   2.872   2.379 -0.1331 -0.2662  0.0460
 5793SOL    HW128841   1.683   2.936   2.385 -1.6836  1.5622 -1.1515
 5793SOL    HW228842   1.662   2.809   2.326 -2.9928 -0.8430 -1.9173
 5794SOL     OW28843   2.453   0.620   4.377 -0.6084 -0.1148 -0.1053
 5794SOL    HW128844   2.521   0.641   4.313  0.0128  0.3820  0.7188
 5794SOL    HW228845   2.399   0.568   4.318 -0.4804 -0.5375  0.1531
 5795SOL     OW28846   1.412   2.437   2.536 -0.1271 -0.0360 -0.1825
 5795SOL    HW128847   1.343   2.491   2.498 -0.5371  0.8402  1.7839
 5795SOL    HW228848   1.482   2.466   2.477 -1.0397 -0.0469 -1.2696
 5796SOL     OW28849   0.629   0.012   4.001 -0.2951 -0.8018  0.4131
 5796SOL    HW128850   0.628   4.657   4.059  0.6381 -0.3429  1.0108
 5796SOL    HW228851   0.584   0.078   4.053 -2.0454 -1.7946  0.1962
 5797SOL     OW28852   1.368   1.420   1.754  0.4331  0.0409  0.1417
 5797SOL    HW128853   1.282   1.409   1.713  1.1944  0.5407 -1.5535
 5797SOL    HW228854   1.348   1.405   1.847  1.1228 -1.0579  0.1043
 5798SOL     OW28855   4.424   1.528   7.199  0.6017 -0.1457  0.1651
 5798SOL    HW128856   4.519   1.517   7.193  0.6560  0.3223  0.1523
 5798SOL    HW228857   4.404   1.462   7.133  0.0795  0.0133  0.1700
 5799SOL     OW28858   0.777   4.482   6.683  0.6519 -0.3294  0.6297
 5799SOL    HW128859   0.707   4.542   6.658 -0.7335 -2.4034 -0.4224
 5799SOL    HW228860   0.829   4.526   6.751  2.5807 -0.7578 -0.5671
 5800SOL     OW28861   3.381   3.990   4.496 -0.0989 -0.0211  0.1153
 5800SOL    HW128862   3.450   4.012   4.434 -0.9572 -1.3226 -1.3102
 5800SOL    HW228863   3.426   3.936   4.560 -1.6860  0.5002  1.6735
 5801SOL     OW28864   0.321   4.246   4.878  0.3049 -0.6215  0.4538
 5801SOL    HW128865   0.305   4.249   4.972  1.7061 -1.8878  0.7537
 5801SOL    HW228866   0.246   4.190   4.858  0.1739 -0.9866  1.9732
 5802SOL     OW28867   3.555   1.747   4.155 -0.4446  0.2430 -0.1848
 5802SOL    HW128868   3.574   1.818   4.217 -0.6523 -0.5450  0.7720
 5802SOL    HW228869   3.466   1.774   4.134  0.2175  2.1124 -0.6555
 5803SOL     OW28870   2.649   0.011   3.372 -0.8540  0.4614 -0.0490
 5803SOL    HW128871   2.692   4.671   3.431 -2.0354 -0.7670 -0.4494
 5803SOL    HW228872   2.631   4.666   3.305  0.4440 -0.9498  0.9887
 5804SOL     OW28873   2.093   4.473  13.662 -0.4277  0.2133  0.7787
 5804SOL    HW128874   2.086   4.402  13.725 -2.3641 -0.2351  0.0500
 5804SOL    HW228875   2.057   4.428  13.586  0.9609 -0.0050  0.2540
 5805SOL     OW28876   2.669   4.042   3.371  0.1375 -0.1036  0.4261
 5805SOL    HW128877   2.586   4.045   3.419 -0.6825 -4.1922 -0.7440
 5805SOL    HW228878   2.691   4.133   3.390  2.9979 -0.7270  0.1598
 5806SOL     OW28879   0.031   2.111   1.718 -0.6591  0.0755 -0.4528
 5806SOL    HW128880   4.696   2.188   1.705 -1.5521 -0.2619  1.2808
 5806SOL    HW228881   0.090   2.146   1.784 -0.5929  0.3306 -0.6488
 5807SOL     OW28882   4.051   2.475  14.369 -0.7306  0.4492 -0.6317
 5807SOL    HW128883   4.016   2.391  14.340  3.4978  0.0197 -4.5420
 5807SOL    HW228884   4.000   2.490  14.449 -0.6535 -1.8302 -0.1504
 5808SOL     OW28885   3.283   3.797   7.347  0.2763 -0.3593 -0.2643
 5808SOL    HW128886   3.332   3.716   7.334  0.9868 -0.3745  2.5325
 5808SOL    HW228887   3.248   3.784   7.435 -0.7120 -1.7013 -0.8488
 5809SOL     OW28888   1.828   1.103   3.017 -0.4250  0.1570 -0.4579
 5809SOL    HW128889   1.805   1.155   2.939 -1.5484  1.7102  0.9195
 5809SOL    HW228890   1.876   1.029   2.981 -1.7852 -0.3061 -1.3203
 5810SOL     OW28891   4.036   2.218   0.080 -0.0906 -0.0091 -0.1730
 5810SOL    HW128892   4.090   2.200   0.156 -1.6468  0.1502  0.9712
 5810SOL    HW228893   4.107   2.251   0.024  0.7416 -2.6082 -0.6413
 5811SOL     OW28894   2.703   2.821   1.249 -0.1044 -0.1538 -0.3218
 5811SOL    HW128895   2.787   2.857   1.220  0.1770  0.0599  0.7382
 5811SOL    HW228896   2.660   2.901   1.279  0.3758 -0.0679  0.1474
 5812SOL     OW28897   2.614   0.074   0.970 -0.3115  0.0873 -0.3783
 5812SOL    HW128898   2.679   0.004   0.963  0.3253  0.8708 -2.3299
 5812SOL    HW228899   2.667   0.131   1.025 -1.2079  0.0209  0.5512
 5813SOL     OW28900   4.471   1.254   7.891  0.3520 -0.3574  0.1842
 5813SOL    HW128901   4.391   1.211   7.922 -0.7417  1.6932  0.1821
 5813SOL    HW228902   4.433   1.335   7.857 -1.9548 -1.2122  0.7497
 5814SOL     OW28903   0.748   1.879  10.040  0.4464  0.4285 -0.1554
 5814SOL    HW128904   0.799   1.843   9.968 -0.3316 -3.6355  1.3229
 5814SOL    HW228905   0.733   1.802  10.095 -0.5460  0.8208  0.1432
 5815SOL     OW28906   0.463   2.420  10.610  0.5342  0.2812  0.1476
 5815SOL    HW128907   0.425   2.381  10.531  1.4158 -0.7706  0.2446
 5815SOL    HW228908   0.395   2.487  10.618 -0.7733 -1.2306  1.5851
 5816SOL     OW28909   0.505   0.353   7.218  0.0733  0.4017  0.5461
 5816SOL    HW128910   0.577   0.294   7.198  0.1413  0.3864  0.8400
 5816SOL    HW228911   0.464   0.355   7.131  1.9578 -3.3359 -0.4313
 5817SOL     OW28912   1.312   3.188  11.143 -0.1136 -0.0809 -0.2284
 5817SOL    HW128913   1.220   3.212  11.125 -0.4386 -2.4021 -1.6411
 5817SOL    HW228914   1.308   3.134  11.221 -0.9833  0.1090 -0.1405
 5818SOL     OW28915   0.412   3.080   4.915 -0.7184  0.9781  0.2505
 5818SOL    HW128916   0.323   3.049   4.932 -0.7949  0.5842 -0.9245
 5818SOL    HW228917   0.457   3.007   4.959 -1.5859  2.0011  2.8594
 5819SOL     OW28918   0.005   3.325   9.506  0.3380 -0.2251  0.1665
 5819SOL    HW128919   0.095   3.321   9.475  0.3620  1.6069 -0.0245
 5819SOL    HW228920   0.011   3.357   9.596 -1.1338 -0.1275  0.2340
 5820SOL     OW28921   3.815   4.436  13.267 -0.3047 -0.2483 -0.0860
 5820SOL    HW128922   3.776   4.496  13.204 -0.2686 -1.0785 -0.8997
 5820SOL    HW228923   3.839   4.504  13.330  0.3372 -2.1976  1.7970
 5821SOL     OW28924   1.275   0.549   6.574  0.4628 -0.1011  0.6132
 5821SOL    HW128925   1.319   0.466   6.555  1.3123  0.1974  1.2830
 5821SOL    HW228926   1.317   0.594   6.501 -1.5116  1.8410  0.6970
 5822SOL     OW28927   4.426   2.936   1.885 -0.4943  0.5414 -0.0678
 5822SOL    HW128928   4.475   3.017   1.870  0.9055 -0.7306 -2.4117
 5822SOL    HW228929   4.466   2.914   1.969 -3.3869 -0.0482  1.1326
 5823SOL     OW28930   1.713   0.645   8.567  0.0296 -0.6850 -0.4362
 5823SOL    HW128931   1.669   0.572   8.522  1.4153 -0.6423 -1.8632
 5823SOL    HW228932   1.697   0.625   8.659 -0.1023 -1.1841 -0.5658
 5824SOL     OW28933   1.985   1.889   3.003 -0.5556 -0.4081 -0.4409
 5824SOL    HW128934   2.025   1.924   2.923  1.4597 -0.6415  0.4780
 5824SOL    HW228935   1.892   1.909   2.992 -0.1640  1.7473  0.2178
 5825SOL     OW28936   0.431   4.212   2.681 -0.1971  0.2248  0.7939
 5825SOL    HW128937   0.411   4.305   2.691  0.1945  0.3596  0.3176
 5825SOL    HW228938   0.467   4.212   2.592 -3.9888 -2.7240 -0.7452
 5826SOL     OW28939   4.683   0.314  15.621 -0.3735 -0.2126 -0.0602
 5826SOL    HW128940   4.657   0.267  15.700 -2.3065  0.8744 -0.0368
 5826SOL    HW228941   4.668   0.247  15.555 -1.0551 -0.3032  0.1859
 5827SOL     OW28942   2.577   1.118  14.609  0.3507 -0.0641  0.0124
 5827SOL    HW128943   2.494   1.118  14.561 -0.1414  3.0859  0.8308
 5827SOL    HW228944   2.558   1.184  14.676  0.0433 -0.9253  0.7843
 5828SOL     OW28945   4.164   2.478   4.299 -0.2187  0.2572 -0.1425
 5828SOL    HW128946   4.181   2.562   4.342  1.5451  0.5051 -1.3162
 5828SOL    HW228947   4.232   2.488   4.232  2.4163  0.5697  2.5619
 5829SOL     OW28948   1.263   3.747   4.261  0.0548  0.3559  0.2226
 5829SOL    HW128949   1.349   3.769   4.298 -0.5525  0.3118  1.6612
 5829SOL    HW228950   1.271   3.660   4.221  0.1691 -0.0824  1.1815
 5830SOL     OW28951   3.694   2.060   9.274  0.1187 -0.0704  0.1050
 5830SOL    HW128952   3.620   2.015   9.314  0.6890 -1.7260 -0.7084
 5830SOL    HW228953   3.722   2.018   9.192  0.2727  1.2122 -0.5106
 5831SOL     OW28954   0.648   3.087  10.737 -0.5183  0.3147 -0.5530
 5831SOL    HW128955   0.696   3.034  10.800 -0.2141 -1.0741 -1.9553
 5831SOL    HW228956   0.701   3.165  10.721  1.2562 -0.8943 -0.5203
 5832SOL     OW28957   1.653   0.277   3.120  0.1194 -0.1669  0.1263
 5832SOL    HW128958   1.658   0.205   3.057 -1.3218  0.2421 -0.4611
 5832SOL    HW228959   1.732   0.258   3.171 -0.9065  0.1518  1.8138
 5833SOL     OW28960   3.712   1.180   8.866  0.0344  0.1380  0.4685
 5833SOL    HW128961   3.699   1.108   8.805 -1.6411 -0.1797  1.1893
 5833SOL    HW228962   3.623   1.216   8.872 -0.1240 -0.0945 -0.5284
 5834SOL     OW28963   0.636   4.103   7.060 -0.3128  0.4050  0.0387
 5834SOL    HW128964   0.718   4.108   7.109 -1.4754 -1.0630  2.1454
 5834SOL    HW228965   0.666   4.118   6.971 -1.7761 -1.7764 -0.8245
 5835SOL     OW28966   3.824   1.032  15.729  0.7536  0.2542  0.3060
 5835SOL    HW128967   3.762   1.033  15.802 -0.1193  1.2779 -0.4340
 5835SOL    HW228968   3.799   0.948  15.691  1.3121  0.7281 -1.1421
 5836SOL     OW28969   4.680   2.970   8.782  0.0212 -0.0891  0.2716
 5836SOL    HW128970   4.596   2.987   8.824  1.1118  2.4120  1.4530
 5836SOL    HW228971   0.004   2.912   8.844 -0.2118 -1.0252 -0.4400
 5837SOL     OW28972   0.155   4.187   3.384 -0.4302 -0.2968 -0.2924
 5837SOL    HW128973   0.239   4.204   3.343 -1.6759 -0.1774 -2.7656
 5837SOL    HW228974   0.102   4.219   3.312 -2.0889 -4.0374 -0.7553
 5838SOL     OW28975   3.280   3.313   4.011 -0.9784  0.1091 -1.2730
 5838SOL    HW128976   3.270   3.302   4.105  0.6067 -1.7080 -1.3059
 5838SOL    HW228977   3.221   3.241   3.989 -0.4574  0.2534 -3.1514
 5839SOL     OW28978   2.998   4.544   3.043  0.6350 -0.1510 -0.5423
 5839SOL    HW128979   3.033   4.509   2.961 -2.1932 -0.5542 -1.5707
 5839SOL    HW228980   2.954   4.466   3.079  1.1687  0.0127  0.4622
 5840SOL     OW28981   0.804   1.393   2.022  0.3922 -0.3725  0.1628
 5840SOL    HW128982   0.749   1.423   1.949 -0.1030 -0.7459  0.3883
 5840SOL    HW228983   0.878   1.347   1.980  0.3980 -0.8707  0.7220
 5841SOL     OW28984   3.539   0.142   9.900 -0.3826  0.4022 -0.0544
 5841SOL    HW128985   3.598   0.173   9.969  0.6020 -1.4576 -0.0592
 5841SOL    HW228986   3.513   0.057   9.936  0.6311  0.4993  0.9093
 5842SOL     OW28987   0.587   0.337   4.337  0.5861  0.3499 -0.1444
 5842SOL    HW128988   0.508   0.374   4.377  0.5620  1.4700 -1.2486
 5842SOL    HW228989   0.562   0.245   4.328  1.4287  0.0648  0.3886
 5843SOL     OW28990   1.227   1.389   6.929  0.2779  0.3444  0.3779
 5843SOL    HW128991   1.312   1.411   6.967  1.6012 -0.5104 -2.0797
 5843SOL    HW228992   1.211   1.447   6.854  0.9598 -1.4600 -1.1562
 5844SOL     OW28993   3.150   4.710   6.800 -0.5164  0.3152 -0.3345
 5844SOL    HW128994   3.207   0.030   6.866  0.6835 -1.0423 -0.5415
 5844SOL    HW228995   3.216   4.673   6.742  0.4277 -0.0493  0.9614
 5845SOL     OW28996   3.628   3.699   8.899 -0.8161  0.3116 -0.0726
 5845SOL    HW128997   3.703   3.755   8.877 -0.7220 -0.7598 -2.4935
 5845SOL    HW228998   3.638   3.704   8.994 -0.5150 -1.5051  0.0019
 5846SOL     OW28999   4.043   0.958  10.427 -0.3316 -0.2411  0.1368
 5846SOL    HW129000   3.949   0.968  10.414 -0.4403 -0.6454  0.5791
 5846SOL    HW229001   4.058   0.887  10.365  2.4489  0.6486 -0.2297
 5847SOL     OW29002   2.889   0.665  11.151 -0.5865 -0.5402  0.1638
 5847SOL    HW129003   2.910   0.585  11.197 -0.3332  0.4224  1.7252
 5847SOL    HW229004   2.808   0.639  11.107 -0.1404 -1.9725  0.1922
 5848SOL     OW29005   2.926   4.305   9.508  0.2113 -0.4304  0.0049
 5848SOL    HW129006   2.940   4.215   9.480 -0.4079 -0.3010 -0.7124
 5848SOL    HW229007   2.999   4.313   9.570  0.9710  0.1324 -0.9647
 5849SOL     OW29008   3.630   3.614   0.114 -0.1077  0.3564 -0.6478
 5849SOL    HW129009   3.562   3.576   0.059 -1.3355  0.2976  0.8976
 5849SOL    HW229010   3.593   3.699   0.136  1.2325  1.5059 -2.8030
 5850SOL     OW29011   1.275   3.545   2.029  0.2235 -0.3349 -0.4342
 5850SOL    HW129012   1.280   3.452   2.052 -1.5307  0.1523  1.9202
 5850SOL    HW229013   1.323   3.590   2.099 -3.8146  1.8736  0.9019
 5851SOL     OW29014   0.504   4.279   0.049 -0.2545 -0.1795  0.5970
 5851SOL    HW129015   0.519   4.252   0.140 -0.8659  1.5890  1.2184
 5851SOL    HW229016   0.531   4.203  17.683 -0.0551 -0.2595  0.8168
 5852SOL     OW29017   4.310   1.162   9.069 -0.2269  0.1816  0.2663
 5852SOL    HW129018   4.385   1.204   9.109 -0.6482 -0.0535  1.2895
 5852SOL    HW229019   4.319   1.195   8.979  0.0638 -0.4800  0.0548
 5853SOL     OW29020   3.752   3.663  11.080 -0.4105  0.4138  0.2564
 5853SOL    HW129021   3.759   3.743  11.133 -1.6796  0.4455  0.3776
 5853SOL    HW229022   3.798   3.682  10.999  0.7908  0.9008  1.0532
 5854SOL     OW29023   2.828   1.535   4.014  0.1512  0.1099  0.3564
 5854SOL    HW129024   2.906   1.533   3.958 -0.5913 -0.8231 -0.6474
 5854SOL    HW229025   2.770   1.472   3.971 -0.5573  0.5734  0.6368
 5855SOL     OW29026   1.988   0.357   4.598  0.0345  0.0856  0.0028
 5855SOL    HW129027   1.967   0.273   4.557 -0.9387 -0.0423  0.7666
 5855SOL    HW229028   2.049   0.322   4.663 -1.6525 -2.5903  0.1256
 5856SOL     OW29029   0.538   0.051   8.162  0.1129  0.4449  0.7719
 5856SOL    HW129030   0.549   4.682   8.131 -0.5288  0.6768 -0.1142
 5856SOL    HW229031   0.521   0.048   8.256 -0.8098  0.8214  0.6167
 5857SOL     OW29032   2.246   3.873   7.893  0.1535 -0.0215 -0.5126
 5857SOL    HW129033   2.167   3.827   7.863 -0.2265  1.5747 -1.9673
 5857SOL    HW229034   2.283   3.809   7.953  1.4481  0.1574 -1.1265
 5858SOL     OW29035   3.462   4.168   7.885  0.1404  0.1756  0.5389
 5858SOL    HW129036   3.496   4.153   7.797 -3.4674  2.0123 -1.2049
 5858SOL    HW229037   3.522   4.109   7.930  0.0130 -1.9790 -2.0721
 5859SOL     OW29038   0.843   3.900   1.785 -0.4238 -0.2307 -0.2909
 5859SOL    HW129039   0.835   3.992   1.758  0.8373 -0.4345 -1.3498
 5859SOL    HW229040   0.819   3.853   1.705 -0.5547 -2.6423  1.1724
 5860SOL     OW29041   0.771   0.483  11.115 -0.0846 -0.1741 -0.4076
 5860SOL    HW129042   0.786   0.441  11.030 -0.3597  0.6264 -0.8412
 5860SOL    HW229043   0.807   0.570  11.100 -0.9103  0.3157  0.4646
 5861SOL     OW29044   4.129   3.557   1.788 -0.2770  0.0075  0.2785
 5861SOL    HW129045   4.046   3.556   1.836 -0.3188 -0.6830  0.1890
 5861SOL    HW229046   4.177   3.580   1.868  0.3238  1.9112 -0.6363
 5862SOL     OW29047   0.450   2.767  15.610 -0.1785 -0.6154  0.1410
 5862SOL    HW129048   0.484   2.737  15.694  0.4787 -1.3955 -0.4105
 5862SOL    HW229049   0.374   2.709  15.618 -0.2701 -0.5776 -0.5285
 5863SOL     OW29050   0.001   0.232   1.485  0.3274  0.1808  0.2368
 5863SOL    HW129051   0.071   0.197   1.540 -0.7230 -1.2992  0.6334
 5863SOL    HW229052   0.006   0.180   1.405 -0.9938 -0.4565  0.5733
 5864SOL     OW29053   2.122   0.721  17.680  0.3957 -0.0740 -0.4970
 5864SOL    HW129054   2.172   0.687  17.606 -0.5735 -0.3572 -1.0134
 5864SOL    HW229055   2.041   0.670  17.678  1.4400 -1.6962 -1.1858
 5865SOL     OW29056   0.540   1.317  10.034 -0.5506  0.1563  0.3447
 5865SOL    HW129057   0.480   1.270  10.092  0.3487  1.8380  2.6254
 5865SOL    HW229058   0.517   1.280   9.949  1.3320 -1.4120  0.5308
 5866SOL     OW29059   0.111   3.963   7.324 -0.1518 -0.3529 -0.2795
 5866SOL    HW129060   0.185   3.908   7.352  0.1176  0.2826  0.2584
 5866SOL    HW229061   0.100   3.920   7.239 -1.2827 -0.7808  0.0942
 5867SOL     OW29062   4.676   3.419   1.882  0.5454  0.2470  0.6187
 5867SOL    HW129063   0.015   3.373   1.823  0.4711  2.0551 -0.8564
 5867SOL    HW229064   4.707   3.509   1.872  1.8853 -0.2938  0.0073
 5868SOL     OW29065   0.968   4.087   8.380  0.2081 -0.0133 -0.0880
 5868SOL    HW129066   1.043   4.062   8.434 -1.0381 -2.9132  0.2661
 5868SOL    HW229067   0.902   4.044   8.434  1.2322 -0.2870  0.9357
 5869SOL     OW29068   0.937   4.424  11.427 -0.3402 -0.6475 -0.6960
 5869SOL    HW129069   1.022   4.387  11.404  0.0373 -0.3842  0.3043
 5869SOL    HW229070   0.931   4.492  11.360  1.2458  0.7739  0.6313
 5870SOL     OW29071   1.470   1.600   9.937  0.1180  0.2006 -0.1110
 5870SOL    HW129072   1.564   1.604   9.953  0.7004  1.2251 -3.7205
 5870SOL    HW229073   1.468   1.522   9.883 -0.5296 -0.0038  0.2042
 5871SOL     OW29074   1.498   1.967  17.233  0.0638  0.1306  0.3646
 5871SOL    HW129075   1.405   1.947  17.223  0.5926 -0.0228 -4.2698
 5871SOL    HW229076   1.489   2.029  17.305  0.9299  0.7173 -0.0303
 5872SOL     OW29077   2.505   2.923  12.505  0.3754  0.3898 -0.5105
 5872SOL    HW129078   2.600   2.928  12.511  0.2031  0.8768  1.5575
 5872SOL    HW229079   2.484   2.935  12.597 -0.8680 -1.6162 -0.5363
 5873SOL     OW29080   3.153   0.919   4.428 -0.1360  0.0217 -0.4185
 5873SOL    HW129081   3.246   0.900   4.436 -0.0752  0.7777  0.5912
 5873SOL    HW229082   3.157   1.007   4.392 -1.1564 -1.1149 -3.3484
 5874SOL     OW29083   4.422   3.356   3.110 -0.8001 -0.7104  0.0310
 5874SOL    HW129084   4.446   3.319   3.195 -0.0590  1.3001  0.7069
 5874SOL    HW229085   4.501   3.404   3.083 -1.0245  0.0894  0.8122
 5875SOL     OW29086   2.813   0.707  11.467  0.1831  0.1106  0.9566
 5875SOL    HW129087   2.868   0.695  11.544  1.6205 -0.2582 -0.1288
 5875SOL    HW229088   2.867   0.755  11.404 -0.1430 -1.6725 -0.7021
 5876SOL     OW29089   4.054   4.167   8.328  0.0671  0.2932  0.6629
 5876SOL    HW129090   3.963   4.170   8.356  0.5658  1.0661  2.1784
 5876SOL    HW229091   4.049   4.086   8.278 -1.8480  1.3947 -0.9337
 5877SOL     OW29092   4.165   0.163   5.023 -0.0904 -0.2493  0.5334
 5877SOL    HW129093   4.170   0.257   5.006 -3.0149  0.1200  1.6769
 5877SOL    HW229094   4.102   0.132   4.958  1.5661 -2.9014  0.2189
 5878SOL     OW29095   0.143   1.163   0.972 -0.4183  0.0975 -0.1463
 5878SOL    HW129096   0.232   1.186   0.997 -0.0294 -0.9819 -0.5393
 5878SOL    HW229097   0.158   1.098   0.904  2.0936  2.2544 -1.6359
 5879SOL     OW29098   1.648   4.540  17.069 -0.1040  0.2825 -0.7856
 5879SOL    HW129099   1.574   4.595  17.095  0.5658  0.5556  0.4912
 5879SOL    HW229100   1.689   4.525  17.154 -1.1703  0.0479 -0.3045
 5880SOL     OW29101   0.527   1.452  16.215 -0.7362  0.3699  0.6538
 5880SOL    HW129102   0.562   1.460  16.303 -0.1258  1.8013  0.2858
 5880SOL    HW229103   0.440   1.420  16.240  0.4125 -3.6427 -0.5694
 5881SOL     OW29104   2.041   3.966   5.633  0.3463  1.0599  0.2374
 5881SOL    HW129105   2.110   3.905   5.607  0.0060  1.3686 -1.3459
 5881SOL    HW229106   1.974   3.942   5.569  1.4421 -0.8643 -0.1955
 5882SOL     OW29107   1.540   1.588   4.066  0.2615  0.1057  0.2255
 5882SOL    HW129108   1.491   1.663   4.033 -1.5277 -0.1115  2.3924
 5882SOL    HW229109   1.615   1.632   4.108 -0.2733  1.1884  0.0263
 5883SOL     OW29110   2.701   4.611  13.716  0.2578 -0.1544  0.0153
 5883SOL    HW129111   2.756   4.678  13.676 -0.6311 -0.2038 -1.2903
 5883SOL    HW229112   2.766   4.571  13.774 -0.1615 -0.6292  0.1623
 5884SOL     OW29113   1.567   3.571   8.177 -0.4725 -0.6681 -0.3289
 5884SOL    HW129114   1.497   3.624   8.214  1.4829  1.4616  0.3483
 5884SOL    HW229115   1.580   3.620   8.096  2.2796 -2.0077 -0.7275
 5885SOL     OW29116   0.185   2.725   6.204 -0.4043 -0.2481 -0.4242
 5885SOL    HW129117   0.140   2.699   6.124  0.3549 -3.0991  0.0554
 5885SOL    HW229118   0.265   2.676   6.184 -0.5725 -0.3723 -0.7806
 5886SOL     OW29119   1.662   1.240  14.566 -0.2622  0.7836  0.6600
 5886SOL    HW129120   1.599   1.216  14.497 -0.5596 -0.6319  1.4260
 5886SOL    HW229121   1.689   1.157  14.605  1.9437  0.9945 -0.4530
 5887SOL     OW29122   1.460   2.938  14.737 -0.3257 -0.2564  0.6321
 5887SOL    HW129123   1.431   3.028  14.746  1.6240  0.1024  3.1965
 5887SOL    HW229124   1.493   2.939  14.647  0.2270 -1.0865  0.8243
 5888SOL     OW29125   4.015   0.105  15.927  0.0964  0.0194 -0.1015
 5888SOL    HW129126   3.946   0.115  15.993 -1.9550  0.2234 -2.3069
 5888SOL    HW229127   4.001   0.183  15.873 -0.7037  1.1414  1.7316
 5889SOL     OW29128   0.283   0.652   7.295 -0.0155 -0.2244 -0.0767
 5889SOL    HW129129   0.259   0.664   7.203  3.1623  0.2868 -0.8281
 5889SOL    HW229130   0.234   0.576   7.326  1.5463 -1.4343 -0.5601
 5890SOL     OW29131   2.786   4.706   5.435 -0.3401 -0.0178  0.1257
 5890SOL    HW129132   2.701   4.718   5.395  0.0026  0.8694 -0.3413
 5890SOL    HW229133   2.780   0.029   5.520 -1.3716  0.0774 -0.0002
 5891SOL     OW29134   0.797   2.295   8.260  0.0492  0.4541 -0.0941
 5891SOL    HW129135   0.847   2.335   8.188 -1.0887  2.1713  0.0810
 5891SOL    HW229136   0.768   2.211   8.225 -0.4250  0.1019  1.1314
 5892SOL     OW29137   4.440   4.342   6.261  0.1695  0.0882  0.7279
 5892SOL    HW129138   4.426   4.317   6.170  3.2008 -1.0785  0.5667
 5892SOL    HW229139   4.468   4.433   6.257  0.3212  0.0796  1.5318
 5893SOL     OW29140   1.713   1.495   2.762  0.0693  0.0433 -0.1505
 5893SOL    HW129141   1.629   1.537   2.740  0.7856  1.1992 -0.6438
 5893SOL    HW229142   1.754   1.504   2.676  1.0553  3.1403  0.6605
 5894SOL     OW29143   0.771   0.377   2.509 -0.2305  0.0414 -0.5819
 5894SOL    HW129144   0.724   0.410   2.432 -1.7217  2.5340  1.3874
 5894SOL    HW229145   0.735   0.437   2.574  3.1740 -0.0763  1.3932
 5895SOL     OW29146   1.983   4.014   9.638  0.1308 -0.6051 -0.9541
 5895SOL    HW129147   1.935   3.959   9.576 -1.3811  1.1115 -1.2832
 5895SOL    HW229148   1.916   4.072   9.673 -0.1117 -1.2765 -0.3068
 5896SOL     OW29149   2.966   3.638  10.891 -0.1228 -0.6201  0.5695
 5896SOL    HW129150   3.055   3.615  10.916 -0.4345 -1.0794  1.2550
 5896SOL    HW229151   2.953   3.584  10.813  2.9951 -0.9642  0.3054
 5897SOL     OW29152   2.618   2.082   3.874  0.4468  0.0697  0.6719
 5897SOL    HW129153   2.632   2.072   3.968 -0.0152  1.7556  0.9159
 5897SOL    HW229154   2.670   2.160   3.857 -0.5329  0.7482  0.7970
 5898SOL     OW29155   3.904   1.194   9.035 -1.0699 -0.1423 -0.1685
 5898SOL    HW129156   3.957   1.158   8.964  1.0654  2.0949  0.2695
 5898SOL    HW229157   3.823   1.206   8.987 -1.6702 -0.5875  0.7264
 5899SOL     OW29158   4.009   3.308   3.082 -0.2079 -0.1744 -0.4325
 5899SOL    HW129159   3.944   3.242   3.106 -0.5581  0.5033  0.4713
 5899SOL    HW229160   4.075   3.244   3.055  0.8432  1.0922 -0.8532
 5900SOL     OW29161   3.921   4.348   4.692 -0.1727 -0.6508 -0.2170
 5900SOL    HW129162   3.875   4.267   4.672 -2.6511  0.7296 -0.1871
 5900SOL    HW229163   4.008   4.316   4.712  1.8978  4.1353 -1.5312
 5901SOL     OW29164   3.817   0.282   0.336 -0.2312  0.4415  0.2676
 5901SOL    HW129165   3.822   0.203   0.391  0.5802  0.4985  0.2764
 5901SOL    HW229166   3.729   0.314   0.354 -0.3419  1.0777 -1.3993
 5902SOL     OW29167   2.637   2.398   2.412 -0.4034  0.0290  0.0279
 5902SOL    HW129168   2.595   2.329   2.463 -1.0547  0.1678 -0.3103
 5902SOL    HW229169   2.633   2.361   2.324  2.6852 -0.1583 -0.0154
 5903SOL     OW29170   4.062   3.147   4.176 -0.0705  0.5090 -0.0674
 5903SOL    HW129171   4.067   3.106   4.090  2.9296  2.2413 -0.7235
 5903SOL    HW229172   3.972   3.124   4.198  0.1641 -0.9834 -0.7204
 5904SOL     OW29173   3.517   3.001   8.656  0.1795  0.1236  0.0540
 5904SOL    HW129174   3.556   2.997   8.569 -1.0932  2.4253 -0.6267
 5904SOL    HW229175   3.592   3.033   8.707 -0.7955  0.8654  1.0375
 5905SOL     OW29176   3.587   1.544  13.474  0.0166  0.1994 -0.0225
 5905SOL    HW129177   3.661   1.594  13.440  1.9617 -2.4951  0.2741
 5905SOL    HW229178   3.521   1.611  13.488 -0.3030 -0.0685 -0.2420
 5906SOL     OW29179   2.584   1.975  12.862 -0.1081 -0.0275  1.0184
 5906SOL    HW129180   2.531   1.949  12.937 -0.4100 -2.0875  0.0708
 5906SOL    HW229181   2.605   2.064  12.892 -1.1153  0.1367  1.2397
 5907SOL     OW29182   2.926   3.099  14.988 -0.1858 -0.1371 -0.0673
 5907SOL    HW129183   2.975   3.017  14.989 -1.2157 -0.7352  1.1548
 5907SOL    HW229184   2.908   3.104  14.894 -0.8583  0.1819  0.0757
 5908SOL     OW29185   3.140   4.543   4.605 -0.1196 -0.1418 -0.3599
 5908SOL    HW129186   3.181   4.585   4.529  0.2630  0.1516  0.0094
 5908SOL    HW229187   3.077   4.487   4.560  0.1559 -0.5437 -0.2559
 5909SOL     OW29188   2.873   1.903  15.684 -0.4042 -0.6491 -0.0577
 5909SOL    HW129189   2.881   1.890  15.589  0.6302 -1.4422  0.1395
 5909SOL    HW229190   2.903   1.818  15.714 -0.9187 -1.4118 -1.6850
 5910SOL     OW29191   0.539   4.299   5.846 -0.0065 -0.0449 -0.8656
 5910SOL    HW129192   0.477   4.257   5.787 -1.5970 -1.2178  1.6266
 5910SOL    HW229193   0.575   4.220   5.887  1.4778  1.3697  0.5737
 5911SOL     OW29194   4.619   0.678   3.127  0.8973 -0.6498  0.3553
 5911SOL    HW129195   4.580   0.765   3.134  2.4290  0.2399 -2.2857
 5911SOL    HW229196   4.558   0.633   3.186  0.0609 -1.3177 -1.0133
 5912SOL     OW29197   0.871   2.799   6.945 -0.0505 -0.1372  0.3781
 5912SOL    HW129198   0.873   2.849   7.027 -1.1837  0.3051  0.1415
 5912SOL    HW229199   0.937   2.737   6.976  0.5864 -0.6477 -1.9827
 5913SOL     OW29200   1.949   3.817   3.800  0.3371 -0.0382  0.5698
 5913SOL    HW129201   1.861   3.834   3.767 -0.4256 -1.6149  1.8097
 5913SOL    HW229202   1.993   3.816   3.715  0.4405  1.0479  0.6098
 5914SOL     OW29203   4.236   1.194   7.710  0.2625  0.2090 -0.1315
 5914SOL    HW129204   4.222   1.170   7.802 -0.0764  0.5269 -0.1017
 5914SOL    HW229205   4.316   1.143   7.700 -0.9263 -2.1606  2.2555
 5915SOL     OW29206   1.734   1.967   3.660  0.4462 -0.3751 -0.3632
 5915SOL    HW129207   1.781   1.894   3.700 -0.3406  0.4904  2.0779
 5915SOL    HW229208   1.741   2.035   3.726 -0.1421  0.5303 -1.2343
 5916SOL     OW29209   0.694   1.167  10.999 -0.2886  0.3027  0.1059
 5916SOL    HW129210   0.662   1.189  11.087  1.1244 -0.7736  0.9032
 5916SOL    HW229211   0.774   1.220  11.003  1.0349 -1.6595 -0.3185
 5917SOL     OW29212   0.872   1.266  16.768 -0.2449  0.3276  0.1018
 5917SOL    HW129213   0.914   1.209  16.832 -1.9796 -0.5827  0.4452
 5917SOL    HW229214   0.903   1.349  16.805  0.6055 -0.7774  1.8777
 5918SOL     OW29215   1.664   3.985  15.595 -0.1647 -0.0776  0.4018
 5918SOL    HW129216   1.758   3.971  15.595 -0.5347 -2.4715 -1.2468
 5918SOL    HW229217   1.635   3.896  15.615  0.1205 -0.2196  0.1799
 5919SOL     OW29218   3.959   3.585   7.277  0.2015 -0.3196 -0.2331
 5919SOL    HW129219   3.989   3.520   7.213  1.6583  1.6757 -1.5458
 5919SOL    HW229220   4.008   3.559   7.355  3.8813  1.9505 -1.7774
 5920SOL     OW29221   0.038   1.173   8.210 -0.8470 -0.1147 -0.3547
 5920SOL    HW129222   4.682   1.224   8.184 -1.6719 -0.3271  1.6932
 5920SOL    HW229223   0.019   1.093   8.162 -2.3748  0.9144 -1.4672
 5921SOL     OW29224   3.153   3.908   2.415 -0.0325 -0.2262  0.4651
 5921SOL    HW129225   3.106   3.886   2.335  0.7506  2.9419 -0.8785
 5921SOL    HW229226   3.090   3.862   2.470 -0.3718 -1.4290 -0.9413
 5922SOL     OW29227   4.706   1.161  16.722 -0.1133  0.1926  0.5371
 5922SOL    HW129228   4.706   1.217  16.799 -1.1685  2.3251 -1.0193
 5922SOL    HW229229   0.002   1.227  16.655  2.1813 -0.0873  0.8529
 5923SOL     OW29230   1.469   1.264   8.967 -0.2530 -0.1280  0.1960
 5923SOL    HW129231   1.384   1.245   8.929 -0.7090  0.3797  0.9544
 5923SOL    HW229232   1.439   1.314   9.043 -0.1695  0.2028  0.0133
 5924SOL     OW29233   3.545   2.267   5.744  0.0445 -0.2749  0.1552
 5924SOL    HW129234   3.582   2.182   5.721 -0.0230  0.0112 -0.9988
 5924SOL    HW229235   3.491   2.254   5.822  0.1312 -1.1352  0.0686
 5925SOL     OW29236   0.778   3.368   0.970  0.4490  0.0712  0.2266
 5925SOL    HW129237   0.866   3.332   0.962  0.1049 -0.1383 -2.5618
 5925SOL    HW229238   0.726   3.288   0.976 -0.1064  0.4430  0.3664
 5926SOL     OW29239   2.912   2.396   8.604 -0.3669  0.5116 -0.4408
 5926SOL    HW129240   2.969   2.402   8.680 -2.1877 -3.6652  1.2540
 5926SOL    HW229241   2.825   2.400   8.643 -0.2614  1.2790 -0.2827
 5927SOL     OW29242   2.360   1.363  15.613 -0.0186 -0.1943 -0.1165
 5927SOL    HW129243   2.401   1.368  15.527 -0.4583 -0.8377 -0.3606
 5927SOL    HW229244   2.295   1.433  15.616 -0.5995 -0.7374  0.1356
 5928SOL     OW29245   1.783   0.619   0.326  0.1571  0.3801 -0.2469
 5928SOL    HW129246   1.781   0.614   0.422  0.5401  2.1622 -0.1627
 5928SOL    HW229247   1.858   0.676   0.312  0.8012 -0.6157 -0.8696
 5929SOL     OW29248   4.130   1.118  10.647 -0.2851 -0.3779 -0.0111
 5929SOL    HW129249   4.096   1.063  10.577  1.0825 -0.0266 -0.9679
 5929SOL    HW229250   4.155   1.060  10.718 -2.4313  0.5116  1.4729
 5930SOL     OW29251   2.155   1.498  12.029  0.1608 -0.0579 -0.0076
 5930SOL    HW129252   2.190   1.582  12.060  1.9312  0.2207 -2.7623
 5930SOL    HW229253   2.063   1.525  12.030  0.6609  1.6129  0.4664
 5931SOL     OW29254   2.477   4.109   7.844 -0.3795  0.4744 -0.0044
 5931SOL    HW129255   2.546   4.098   7.909 -0.4322  0.3244  0.0260
 5931SOL    HW229256   2.396   4.095   7.893 -0.6186 -0.2153 -0.6026
 5932SOL     OW29257   1.962   2.383   2.406 -0.3222 -0.3388  0.3530
 5932SOL    HW129258   1.960   2.441   2.329  1.6949 -0.6393  0.0821
 5932SOL    HW229259   1.926   2.451   2.463 -0.4124  1.6373 -2.0238
 5933SOL     OW29260   0.470   1.514   2.400  0.5599  0.4556  0.5226
 5933SOL    HW129261   0.504   1.583   2.342  1.5476  1.0913  1.8809
 5933SOL    HW229262   0.499   1.549   2.484  1.4819  2.9947 -0.8477
 5934SOL     OW29263   1.151   1.829  16.937  0.5218 -0.3515  0.0223
 5934SOL    HW129264   1.144   1.789  17.023 -0.3954 -0.5012 -0.1270
 5934SOL    HW229265   1.226   1.885  16.958  0.5318 -0.3631  0.0183
 5935SOL     OW29266   4.024   2.207   2.379  0.0613  0.0457 -0.0802
 5935SOL    HW129267   4.010   2.132   2.437 -1.7266  0.5389  0.1103
 5935SOL    HW229268   3.997   2.164   2.298  1.4737 -1.5830  0.2928
 5936SOL     OW29269   4.470   1.780  17.572  0.4465  0.4267  0.7167
 5936SOL    HW129270   4.480   1.731  17.490  0.1226 -2.0055  2.1392
 5936SOL    HW229271   4.519   1.861  17.556  0.9827 -0.0714 -0.1988
 5937SOL     OW29272   1.347   3.094  15.550  0.3003 -0.0365 -0.1143
 5937SOL    HW129273   1.287   3.020  15.558  0.2398 -0.0752 -0.8940
 5937SOL    HW229274   1.280   3.161  15.535 -0.3027 -0.3055  1.3752
 5938SOL     OW29275   2.012   2.161   3.997 -0.3125 -0.4129  0.5041
 5938SOL    HW129276   2.049   2.097   4.058  2.4633 -1.2514 -2.0671
 5938SOL    HW229277   2.090   2.184   3.946 -0.2079  0.1557  0.9314
 5939SOL     OW29278   2.161   2.542   5.389 -0.7926 -0.0223 -0.0770
 5939SOL    HW129279   2.187   2.633   5.373  2.6678 -1.2443 -1.4715
 5939SOL    HW229280   2.135   2.540   5.481  1.4280 -1.0849  0.5369
 5940SOL     OW29281   1.616   3.039   9.402 -0.2424  0.0612  0.4415
 5940SOL    HW129282   1.688   3.034   9.465 -0.0907 -0.4556  0.2238
 5940SOL    HW229283   1.657   3.014   9.319  0.2425 -0.5360  0.8632
 5941SOL     OW29284   0.559   3.965   9.975 -1.0524 -0.3947  0.5672
 5941SOL    HW129285   0.595   4.028   9.913 -0.4154 -0.6759  0.6548
 5941SOL    HW229286   0.529   3.890   9.924  2.2280 -0.9923 -0.4629
 5942SOL     OW29287   1.285   3.078  17.505 -0.2231 -0.7364  0.6365
 5942SOL    HW129288   1.286   3.073  17.409 -2.0403 -3.6600  0.7680
 5942SOL    HW229289   1.377   3.105  17.504 -0.4723  0.1097  0.7565
 5943SOL     OW29290   2.063   2.653   4.500 -0.3733  0.0248 -0.4778
 5943SOL    HW129291   2.147   2.696   4.484 -0.0046 -0.4943  0.0405
 5943SOL    HW229292   2.046   2.608   4.417 -0.1529  0.3416 -0.6939
 5944SOL     OW29293   0.077   2.896   9.348 -0.3089  0.3818  0.1806
 5944SOL    HW129294   0.158   2.853   9.318 -1.8763 -1.2644 -1.6993
 5944SOL    HW229295   0.050   2.833   9.414 -0.7016 -1.8808 -2.1466
 5945SOL     OW29296   3.282   1.766   5.645 -0.1882  0.0678 -0.3936
 5945SOL    HW129297   3.281   1.696   5.580  0.1874 -0.4805  0.1887
 5945SOL    HW229298   3.234   1.735   5.722  1.7029 -0.1815  0.6864
 5946SOL     OW29299   0.656   2.650  13.853  0.5339 -0.0699 -0.8031
 5946SOL    HW129300   0.674   2.560  13.825 -2.5731 -0.3396 -1.9210
 5946SOL    HW229301   0.575   2.658  13.803  0.5027 -2.6889 -1.1842
 5947SOL     OW29302   3.836   0.176   5.157 -0.6101  0.3721 -0.1012
 5947SOL    HW129303   3.795   0.091   5.142 -0.7702  0.4629 -0.1740
 5947SOL    HW229304   3.798   0.224   5.084 -0.1536 -1.8543 -1.7938
 5948SOL     OW29305   1.036   4.624   5.068 -0.0339  0.0438 -0.4993
 5948SOL    HW129306   1.089   4.544   5.070  1.0833  0.7451 -2.3475
 5948SOL    HW229307   0.966   4.603   5.007 -0.2337  0.9684 -0.5846
 5949SOL     OW29308   0.782   1.964  16.305 -0.0240  0.2193 -0.5026
 5949SOL    HW129309   0.801   1.987  16.214  0.4177  0.2958 -0.3892
 5949SOL    HW229310   0.804   1.871  16.293 -0.6183  0.1253 -0.8790
 5950SOL     OW29311   1.466   1.020   6.428 -0.4829  0.4615  0.1038
 5950SOL    HW129312   1.553   1.029   6.391 -0.6755  0.3079 -0.3861
 5950SOL    HW229313   1.422   1.100   6.397  0.5734  1.1349  0.3432
 5951SOL     OW29314   1.077   4.008   5.431 -0.0454 -0.7086  0.3421
 5951SOL    HW129315   1.132   4.001   5.509 -1.5489 -1.9383  1.3035
 5951SOL    HW229316   1.109   3.933   5.381  0.9726 -2.5271  3.7460
 5952SOL     OW29317   2.231   2.405   6.073  0.1310 -0.4129  0.1511
 5952SOL    HW129318   2.244   2.314   6.099 -0.3285 -0.4193  0.3684
 5952SOL    HW229319   2.230   2.454   6.156 -1.2685  1.5247 -1.0291
 5953SOL     OW29320   2.912   4.512   6.864 -0.3075 -0.0410 -0.6057
 5953SOL    HW129321   2.997   4.549   6.844  0.2929  0.0713  2.1501
 5953SOL    HW229322   2.927   4.446   6.931 -0.3937  1.5295  0.9655
 5954SOL     OW29323   1.417   0.637   5.012  0.0358  0.3352  0.3451
 5954SOL    HW129324   1.323   0.637   5.030 -0.0018 -0.3854  0.1282
 5954SOL    HW229325   1.409   0.586   4.932  0.9921  0.4555  0.1710
 5955SOL     OW29326   1.926   4.501   6.080  0.2063  0.0525  0.3833
 5955SOL    HW129327   1.918   4.576   6.021 -0.5400  0.0103  0.4337
 5955SOL    HW229328   1.838   4.466   6.065  0.0755  0.8955 -0.8460
 5956SOL     OW29329   3.572   2.851   6.663  0.0768  0.3401 -0.2874
 5956SOL    HW129330   3.660   2.889   6.663 -0.4852  1.6416 -0.4786
 5956SOL    HW229331   3.571   2.800   6.744  2.2407  0.3150 -0.2724
 5957SOL     OW29332   3.315   2.923  17.145 -0.1661 -0.1948 -0.3307
 5957SOL    HW129333   3.252   2.907  17.216  1.6628  0.3636  1.4285
 5957SOL    HW229334   3.397   2.894  17.184  0.4055  1.3261 -0.3914
 5958SOL     OW29335   2.416   1.248   8.118 -0.0611 -0.2713  0.1054
 5958SOL    HW129336   2.339   1.197   8.094  0.2489  0.0463 -1.5923
 5958SOL    HW229337   2.440   1.285   8.033 -1.8499  0.1539 -0.2227
 5959SOL     OW29338   4.353   1.877   1.545 -0.3236 -0.5894 -0.1549
 5959SOL    HW129339   4.322   1.832   1.466  0.6457 -0.0183 -0.8546
 5959SOL    HW229340   4.315   1.965   1.535 -0.8179 -0.6416  1.3560
 5960SOL     OW29341   0.483   1.327   3.495 -1.0400  0.3078  0.5010
 5960SOL    HW129342   0.572   1.357   3.515 -0.3347 -0.5483 -1.3166
 5960SOL    HW229343   0.498   1.233   3.490  1.4171  0.6091  1.8210
 5961SOL     OW29344   3.598   1.954   0.282 -0.3229  0.1223  0.3513
 5961SOL    HW129345   3.661   2.001   0.228  0.1082  1.8307  2.3198
 5961SOL    HW229346   3.611   1.868   0.242  2.3459  0.3840  0.6717
 5962SOL     OW29347   1.848   1.801   8.148 -0.3761  0.1945 -0.6742
 5962SOL    HW129348   1.755   1.784   8.134 -0.7187  0.5799  1.1366
 5962SOL    HW229349   1.852   1.870   8.214  0.5106  1.5436 -2.1442
 5963SOL     OW29350   1.637   1.788   7.568  0.3467 -0.2548 -0.4293
 5963SOL    HW129351   1.679   1.854   7.624  0.8921  1.3967 -2.7651
 5963SOL    HW229352   1.645   1.822   7.479 -0.4957 -1.0288 -0.7964
 5964SOL     OW29353   4.322   4.048   6.412  0.1056  0.0426  0.1068
 5964SOL    HW129354   4.275   3.970   6.382  1.5455 -1.1906  1.0273
 5964SOL    HW229355   4.327   4.090   6.326  2.2932 -1.8481 -0.6947
 5965SOL     OW29356   1.157   1.000  16.594 -0.4532  0.3015 -0.1006
 5965SOL    HW129357   1.095   0.928  16.606  0.6563 -1.0231 -2.2660
 5965SOL    HW229358   1.150   1.019  16.500  0.0552  0.1241 -0.1711
 5966SOL     OW29359   1.352   3.827  15.757  0.1406  0.0209  0.0786
 5966SOL    HW129360   1.257   3.838  15.752  0.0678 -0.2805  0.8316
 5966SOL    HW229361   1.364   3.733  15.738  0.6712  0.1152 -0.0572
 5967SOL     OW29362   3.015   4.272   8.448 -0.2457  0.0634  0.3121
 5967SOL    HW129363   3.005   4.183   8.481 -4.2744  0.6870  0.7381
 5967SOL    HW229364   2.929   4.312   8.456 -0.3356 -0.5320  2.2897
 5968SOL     OW29365   3.303   1.037   5.462 -0.6805  0.0577  0.3684
 5968SOL    HW129366   3.370   0.984   5.420  0.6259  2.1945 -0.2234
 5968SOL    HW229367   3.295   1.101   5.391  1.1455  0.6109  0.6701
 5969SOL     OW29368   3.352   1.265   4.165 -0.3001  0.3903  0.3521
 5969SOL    HW129369   3.280   1.320   4.197  0.9830  2.2004  0.1081
 5969SOL    HW229370   3.352   1.296   4.074  1.5831  2.0422  0.9255
 5970SOL     OW29371   0.204   1.868   5.437  0.2552 -0.1168  0.1860
 5970SOL    HW129372   0.208   1.777   5.410 -0.6850 -0.0872 -0.0396
 5970SOL    HW229373   0.109   1.876   5.447  0.3158  1.5284 -0.6170
 5971SOL     OW29374   0.513   0.209  13.991 -0.4174  0.4773  0.2897
 5971SOL    HW129375   0.581   0.143  13.976 -1.1408  0.7426 -4.2409
 5971SOL    HW229376   0.530   0.274  13.924 -0.1659 -0.1317 -0.2415
 5972SOL     OW29377   1.341   0.331   3.657 -0.4300  0.3178 -0.1090
 5972SOL    HW129378   1.334   0.242   3.623 -2.4575  0.4401  0.0020
 5972SOL    HW229379   1.422   0.372   3.628  1.3830 -3.1762 -0.0777
 5973SOL     OW29380   1.496   1.039   2.437  0.2567 -0.4434 -0.1109
 5973SOL    HW129381   1.551   0.981   2.385 -0.0394 -0.9585  0.1472
 5973SOL    HW229382   1.407   1.005   2.430  0.3946 -1.1326  1.5360
 5974SOL     OW29383   3.814   3.953   8.488 -0.4413  0.2285  0.2551
 5974SOL    HW129384   3.864   3.960   8.569 -0.1753 -0.3584  0.1419
 5974SOL    HW229385   3.817   4.044   8.460  1.4080 -0.7024 -2.6536
 5975SOL     OW29386   2.508   1.652   5.528  0.0891 -0.6959  0.3361
 5975SOL    HW129387   2.577   1.717   5.529 -1.1029  0.5680  0.6733
 5975SOL    HW229388   2.430   1.696   5.495  1.0537  0.6093 -0.1942
 5976SOL     OW29389   1.032   0.199  12.221 -0.0721  0.1130  0.2203
 5976SOL    HW129390   1.039   0.292  12.199 -2.1368  0.2984  0.3649
 5976SOL    HW229391   1.083   0.169  12.145  0.7518  1.8294  0.1042
 5977SOL     OW29392   0.221   0.192   1.641  0.2020  0.1725 -0.2275
 5977SOL    HW129393   0.222   0.117   1.700 -3.6557  0.7412  0.5069
 5977SOL    HW229394   0.296   0.239   1.679 -0.0032  0.6762 -0.4383
 5978SOL     OW29395   3.322   1.317   6.575 -0.3623 -0.3137  0.0437
 5978SOL    HW129396   3.246   1.270   6.610 -1.0334  0.2649 -0.6207
 5978SOL    HW229397   3.278   1.379   6.516 -2.9330 -0.9965  1.2195
 5979SOL     OW29398   0.116   3.294   4.476  0.0456  0.6010 -0.4379
 5979SOL    HW129399   0.034   3.249   4.498  0.3299  0.0625 -0.4811
 5979SOL    HW229400   0.165   3.288   4.559 -0.2464 -0.6810 -0.3529
 5980SOL     OW29401   3.900   4.321   5.894  0.8196 -0.0084 -0.5556
 5980SOL    HW129402   3.827   4.275   5.851  0.6959  1.1846 -1.6253
 5980SOL    HW229403   3.912   4.276   5.978  0.2075 -0.1658 -0.5498
 5981SOL     OW29404   4.273   3.889   4.326 -0.0662 -0.3351 -0.0539
 5981SOL    HW129405   4.184   3.915   4.302  0.9168  0.1726 -3.1698
 5981SOL    HW229406   4.245   3.811   4.373 -2.4009  0.5987  0.0843
 5982SOL     OW29407   3.980   2.357   6.281 -0.4691  0.0144  0.9701
 5982SOL    HW129408   4.036   2.356   6.358  0.5803  0.9857  0.2209
 5982SOL    HW229409   4.010   2.286   6.224 -1.3971  1.0127 -0.7625
 5983SOL     OW29410   4.298   0.084  13.424 -0.0486 -0.4020  0.1022
 5983SOL    HW129411   4.361   0.094  13.352 -0.0575  0.4259  0.2125
 5983SOL    HW229412   4.221   0.124  13.383  1.9341  0.8939 -2.3348
 5984SOL     OW29413   0.951   3.843   1.087 -0.3126  0.9980 -0.0703
 5984SOL    HW129414   0.948   3.748   1.079  0.1884  1.1130 -1.6587
 5984SOL    HW229415   1.008   3.847   1.164  1.1549  0.2004 -1.1147
 5985SOL     OW29416   1.519   0.209  10.151  0.1540 -0.4043  0.1674
 5985SOL    HW129417   1.533   0.304  10.155  1.0482 -0.5267 -0.1373
 5985SOL    HW229418   1.567   0.189  10.071 -1.2393  1.4153 -1.1100
 5986SOL     OW29419   2.235   3.177   7.084 -0.4426  0.0520  0.4796
 5986SOL    HW129420   2.290   3.251   7.109 -1.8291  0.4905  2.2471
 5986SOL    HW229421   2.150   3.210   7.054 -0.6165 -1.8618 -1.1693
 5987SOL     OW29422   2.630   0.908  14.910  0.3380  0.6365  0.1452
 5987SOL    HW129423   2.579   0.861  14.843  0.6412  0.9783 -0.3269
 5987SOL    HW229424   2.718   0.902  14.872  0.5222 -2.4412  1.0537
 5988SOL     OW29425   1.172   3.644   6.037  0.3781  0.3952  0.5451
 5988SOL    HW129426   1.140   3.557   6.013  0.7933  0.9599 -2.0170
 5988SOL    HW229427   1.102   3.677   6.094 -1.5991 -1.8117 -0.6078
 5989SOL     OW29428   1.057   0.851   9.111  0.2108  0.5850  0.4367
 5989SOL    HW129429   1.021   0.935   9.083  0.9559  1.3913  1.9297
 5989SOL    HW229430   1.106   0.870   9.191 -0.6077 -0.1046  1.1029
 5990SOL     OW29431   4.156   4.528   7.979  0.2340 -0.2859 -0.0530
 5990SOL    HW129432   4.120   4.440   7.992  1.0973 -0.9659 -2.0887
 5990SOL    HW229433   4.199   4.530   7.893 -0.7667 -1.1179 -0.5680
 5991SOL     OW29434   2.000   2.414   6.934  0.4623 -0.0682  0.3271
 5991SOL    HW129435   2.068   2.425   6.867  0.7644 -0.7830  0.5152
 5991SOL    HW229436   2.046   2.457   7.006 -1.4129  1.8193  0.4048
 5992SOL     OW29437   0.914   2.344   4.593  0.1970 -0.1106 -0.0451
 5992SOL    HW129438   0.992   2.393   4.618 -0.5916  0.8312  0.6089
 5992SOL    HW229439   0.861   2.419   4.565 -0.1202 -1.5824 -3.4523
 5993SOL     OW29440   2.202   1.402   4.719  0.3415 -0.4610  0.1403
 5993SOL    HW129441   2.250   1.401   4.636 -0.5406  0.7597 -0.3788
 5993SOL    HW229442   2.272   1.416   4.784 -0.6604  0.5830  0.9930
 5994SOL     OW29443   4.212   2.840   5.198 -0.0098  0.3345 -0.4159
 5994SOL    HW129444   4.180   2.834   5.108  0.0002 -1.8941 -0.2775
 5994SOL    HW229445   4.299   2.869   5.174  0.6930 -0.3338  1.3362
 5995SOL     OW29446   4.449   2.010   8.669  0.0451  0.4644  0.1971
 5995SOL    HW129447   4.482   1.956   8.741  1.9160  0.2302 -0.8458
 5995SOL    HW229448   4.421   2.089   8.717 -0.1363 -0.0126  0.8775
 5996SOL     OW29449   3.212   1.457   7.580  0.1667 -0.0329  0.2693
 5996SOL    HW129450   3.169   1.542   7.577 -1.1095 -0.7640 -2.4008
 5996SOL    HW229451   3.136   1.403   7.600  0.9985 -0.5164  2.0624
 5997SOL     OW29452   1.653   4.613  16.610 -0.1061 -0.0321 -0.2269
 5997SOL    HW129453   1.576   4.564  16.640 -0.6920  2.3580  2.1614
 5997SOL    HW229454   1.715   4.584  16.677 -0.3958 -1.1187 -0.4219
 5998SOL     OW29455   3.837   3.177   8.375 -0.1598  0.2374  0.0896
 5998SOL    HW129456   3.920   3.155   8.332 -1.2100 -2.5332 -0.5328
 5998SOL    HW229457   3.846   3.263   8.416 -1.5839 -0.4930  1.9196
 5999SOL     OW29458   2.427   2.093   3.673 -0.3640  0.4148  0.1281
 5999SOL    HW129459   2.498   2.076   3.735  0.3305  1.6983 -0.2953
 5999SOL    HW229460   2.470   2.155   3.614 -1.4203  0.7791 -0.2621
 6000SOL     OW29461   1.181   3.316  15.609 -0.2290 -0.6185 -1.1642
 6000SOL    HW129462   1.146   3.378  15.673  1.4182 -0.6307 -0.2481
 6000SOL    HW229463   1.191   3.376  15.535 -0.8995  1.0254  0.0798
 6001SOL     OW29464   4.391   0.846   0.078  0.1456  0.2652  0.6511
 6001SOL    HW129465   4.393   0.776   0.012 -1.0649  0.8551 -0.0020
 6001SOL    HW229466   4.402   0.923   0.022  0.6729  0.1018  0.5316
 6002SOL     OW29467   2.806   4.552   4.025  0.1265  0.3080 -0.2919
 6002SOL    HW129468   2.745   4.499   4.077  0.0219  1.0512  0.3506
 6002SOL    HW229469   2.778   4.641   4.047  0.4859 -0.4459  3.2947
 6003SOL     OW29470   3.460   1.072  15.551  0.2877 -0.6044  0.4658
 6003SOL    HW129471   3.474   1.129  15.627 -1.7482 -0.3095  0.6001
 6003SOL    HW229472   3.439   1.138  15.485 -0.3980 -1.2231  0.0690
 6004SOL     OW29473   1.034   3.095  16.274 -0.2932 -0.5003  0.4664
 6004SOL    HW129474   1.006   3.003  16.269 -1.1976 -0.0552 -2.4297
 6004SOL    HW229475   1.005   3.128  16.190 -0.7118 -0.8768  0.4617
 6005SOL     OW29476   2.849   4.008   4.468 -0.3732  0.0939  0.2805
 6005SOL    HW129477   2.832   4.050   4.553  3.3355  0.8202  0.6870
 6005SOL    HW229478   2.890   3.923   4.483  0.7654  0.2926 -1.7898
 6006SOL     OW29479   0.570   4.693   8.895  0.5265 -0.3501 -0.0648
 6006SOL    HW129480   0.548   0.055   8.852 -2.7073 -0.8916  0.5343
 6006SOL    HW229481   0.562   0.007   8.984 -3.2484 -0.2139 -0.4407
 6007SOL     OW29482   2.279   4.253   0.681 -0.4179  0.0291 -0.5833
 6007SOL    HW129483   2.359   4.264   0.733 -0.3086  0.0288 -0.7543
 6007SOL    HW229484   2.278   4.340   0.643 -2.1699  0.6744  0.9348
 6008SOL     OW29485   0.823   3.622   4.023 -0.6185  0.6368 -0.2206
 6008SOL    HW129486   0.747   3.568   4.000  0.1822 -0.2895 -0.7257
 6008SOL    HW229487   0.847   3.596   4.111  0.9783  2.2448 -0.1888
 6009SOL     OW29488   4.586   4.448   7.021 -0.4620 -0.0025 -0.4084
 6009SOL    HW129489   4.613   4.539   7.004 -2.7848  0.3199 -2.3043
 6009SOL    HW229490   4.625   4.402   6.947 -0.3091 -1.8333  0.8186
 6010SOL     OW29491   4.190   3.828   2.670  0.1658 -0.7415  0.2294
 6010SOL    HW129492   4.168   3.846   2.762 -0.1768 -0.8068  0.1616
 6010SOL    HW229493   4.119   3.871   2.622 -0.0046  1.5660  2.5180
 6011SOL     OW29494   2.405   1.537   7.653 -0.3688 -0.4282 -0.4018
 6011SOL    HW129495   2.383   1.472   7.586 -2.6541 -1.8789  1.7168
 6011SOL    HW229496   2.336   1.521   7.717 -0.8138  1.3282 -0.4421
 6012SOL     OW29497   4.431   1.665   3.812  0.1616 -0.4177  0.0102
 6012SOL    HW129498   4.359   1.726   3.793  1.1186 -0.0433 -2.3912
 6012SOL    HW229499   4.412   1.646   3.903  3.0740 -0.3871  0.6132
 6013SOL     OW29500   0.780   4.348   1.485  0.1926 -0.2304  0.7172
 6013SOL    HW129501   0.688   4.341   1.458  0.0765 -0.8861  1.2849
 6013SOL    HW229502   0.774   4.443   1.500  3.9418  0.1282  0.0526
 6014SOL     OW29503   4.137   3.366   4.067 -0.4048 -0.3697  0.3546
 6014SOL    HW129504   4.099   3.432   4.125  0.3317  0.9509 -0.6416
 6014SOL    HW229505   4.101   3.292   4.116 -0.2685  0.4867  1.7505
 6015SOL     OW29506   3.199   1.411  11.206  0.1494  0.3005 -0.1922
 6015SOL    HW129507   3.168   1.502  11.206 -0.2376  0.1689  0.3642
 6015SOL    HW229508   3.228   1.403  11.115  1.6421  1.4326  0.1833
 6016SOL     OW29509   0.759   0.006   1.122  0.4026 -0.0052  0.3098
 6016SOL    HW129510   0.847   4.691   1.116  1.0439  1.7018 -0.3876
 6016SOL    HW229511   0.762   0.083   1.178  1.5603 -1.4491  2.2449
 6017SOL     OW29512   1.306   0.747   3.982  0.2761  0.1552 -0.0681
 6017SOL    HW129513   1.291   0.665   4.029 -0.5932 -0.3628 -1.2280
 6017SOL    HW229514   1.375   0.711   3.927  1.1974  1.9145 -0.0453
 6018SOL     OW29515   3.172   3.131   5.553  0.5068 -0.1255 -0.6192
 6018SOL    HW129516   3.083   3.101   5.534  0.1827  1.4257 -1.5615
 6018SOL    HW229517   3.198   3.059   5.609 -1.4598 -0.0234  0.4047
 6019SOL     OW29518   1.059   1.628  13.494  0.6547  0.6450 -0.6514
 6019SOL    HW129519   1.072   1.543  13.452 -0.6998  0.1286 -0.0456
 6019SOL    HW229520   0.979   1.652  13.447  0.7086  1.0697 -0.5199
 6020SOL     OW29521   0.994   2.750   5.914  0.2947  0.3919 -0.3563
 6020SOL    HW129522   1.049   2.775   5.989 -0.5182  0.5440  0.1876
 6020SOL    HW229523   1.040   2.796   5.844 -1.0184  0.5076 -1.1436
 6021SOL     OW29524   1.973   4.161   8.061 -0.1849  0.1478 -0.2555
 6021SOL    HW129525   1.968   4.240   8.115 -2.3374  0.6640 -1.1741
 6021SOL    HW229526   1.887   4.121   8.079 -0.0126 -0.1758 -0.1561
 6022SOL     OW29527   4.496   1.377   5.956  0.8134  0.2453 -0.2919
 6022SOL    HW129528   4.440   1.362   5.879 -0.2048  0.1810  0.4689
 6022SOL    HW229529   4.462   1.314   6.020  1.2664 -1.7732 -2.0216
 6023SOL     OW29530   2.356   0.653   2.737  0.7924 -0.5980  0.1413
 6023SOL    HW129531   2.431   0.596   2.752 -0.9436 -2.7855  0.4669
 6023SOL    HW229532   2.283   0.610   2.781  0.8249 -1.0223 -0.2237
 6024SOL     OW29533   4.298   2.729   7.688 -0.0753  0.2539 -0.0407
 6024SOL    HW129534   4.264   2.646   7.722 -0.7467  0.8832  0.8384
 6024SOL    HW229535   4.326   2.786   7.761 -0.7410  2.6519 -1.6458
 6025SOL     OW29536   4.277   3.781   4.609  0.2799 -0.4478 -0.6921
 6025SOL    HW129537   4.334   3.758   4.682  0.8069 -1.5151 -1.4309
 6025SOL    HW229538   4.289   3.875   4.598  0.2459 -0.0527  2.7053
 6026SOL     OW29539   1.821   3.813   8.660  0.3596  0.6693  0.1340
 6026SOL    HW129540   1.836   3.720   8.677 -0.1919  0.5408 -0.0971
 6026SOL    HW229541   1.858   3.857   8.737  1.1919 -0.2204  0.2402
 6027SOL     OW29542   2.798   4.081   0.170  0.4075  0.2264 -0.5334
 6027SOL    HW129543   2.822   3.999   0.213  1.5772 -0.1966 -1.9833
 6027SOL    HW229544   2.817   4.056   0.079  0.7065 -0.9065 -0.1623
 6028SOL     OW29545   4.208   2.466   1.225 -0.2225  0.4084 -0.0529
 6028SOL    HW129546   4.152   2.544   1.230  1.1680  1.2220  2.5876
 6028SOL    HW229547   4.291   2.497   1.262 -0.5471  0.3900  0.6776
 6029SOL     OW29548   0.448   1.417   4.274  0.0114  0.0902  0.0677
 6029SOL    HW129549   0.427   1.474   4.200 -0.0723 -1.2166 -0.9161
 6029SOL    HW229550   0.450   1.334   4.227  1.1201  1.0872 -1.6513
 6030SOL     OW29551   0.442   1.267   2.802 -0.1303 -0.1557  0.1464
 6030SOL    HW129552   0.506   1.318   2.753  0.7997 -2.2156 -0.7759
 6030SOL    HW229553   0.429   1.331   2.872  2.0661  0.8575 -0.3975
 6031SOL     OW29554   2.142   0.302   6.474  0.5003  0.1567 -0.3009
 6031SOL    HW129555   2.148   0.208   6.457 -0.8242  0.2695 -1.4046
 6031SOL    HW229556   2.175   0.339   6.392  0.7168 -1.2748 -0.8722
 6032SOL     OW29557   1.688   2.703   5.197 -0.0265 -0.0112  0.2283
 6032SOL    HW129558   1.782   2.719   5.190  0.0560 -0.1016  1.0387
 6032SOL    HW229559   1.700   2.615   5.234 -0.3052 -0.1784 -0.0855
 6033SOL     OW29560   1.281   4.276  16.872 -0.8271 -0.5848  0.2463
 6033SOL    HW129561   1.308   4.199  16.923 -1.0735  0.9074  2.6469
 6033SOL    HW229562   1.324   4.267  16.787  1.6441  2.6423  1.1436
 6034SOL     OW29563   3.546   1.434   8.526 -0.0521 -0.6087 -0.0110
 6034SOL    HW129564   3.489   1.428   8.449  1.7594 -0.0929 -1.4039
 6034SOL    HW229565   3.565   1.342   8.542  2.4792  0.2748  1.9315
 6035SOL     OW29566   4.505   3.261  11.832  0.2786 -0.2002  0.4172
 6035SOL    HW129567   4.518   3.311  11.913 -0.4108  2.4166 -1.0513
 6035SOL    HW229568   4.559   3.183  11.841 -2.7384 -2.0303  2.3114
 6036SOL     OW29569   4.665   1.729   3.638  0.5222 -0.1216  0.3204
 6036SOL    HW129570   0.002   1.656   3.617 -0.7923 -0.8189 -0.9464
 6036SOL    HW229571   4.589   1.680   3.670  1.0069  0.7384  2.7392
 6037SOL     OW29572   1.717   0.814   6.398  0.0975 -0.2559  0.4927
 6037SOL    HW129573   1.736   0.729   6.359  1.3223  0.2062  0.0892
 6037SOL    HW229574   1.642   0.787   6.451  0.4161 -1.1366  0.4908
 6038SOL     OW29575   0.999   1.001   0.634 -0.1893 -0.3391 -0.0619
 6038SOL    HW129576   0.999   1.077   0.693 -0.0587 -0.7597  0.4720
 6038SOL    HW229577   1.063   0.953   0.686 -1.2677 -1.4073  0.2641
 6039SOL     OW29578   2.973   2.540   0.962 -0.9715  0.2971  0.3244
 6039SOL    HW129579   2.880   2.525   0.942 -1.2100  1.0306  0.8947
 6039SOL    HW229580   2.970   2.627   1.001  0.4432  0.4321  0.1395
 6040SOL     OW29581   3.513   2.333   5.459 -0.0756 -0.5088  0.4767
 6040SOL    HW129582   3.430   2.381   5.461  0.6215  0.6843  1.5396
 6040SOL    HW229583   3.528   2.307   5.550  2.1860  1.7828  0.7569
 6041SOL     OW29584   3.287   0.862  12.496 -0.2177 -0.3282  0.5594
 6041SOL    HW129585   3.365   0.854  12.441 -0.4929 -0.4577  0.1860
 6041SOL    HW229586   3.327   0.845  12.582  3.2697  0.2871 -0.9465
 6042SOL     OW29587   0.401   1.961   6.842 -0.2013 -0.0262 -0.1395
 6042SOL    HW129588   0.396   1.989   6.750  0.6281 -0.3508 -0.2861
 6042SOL    HW229589   0.409   2.050   6.876 -2.5865  0.1587 -0.1149
 6043SOL     OW29590   0.760   2.640  10.028  0.3521 -0.6604  0.2608
 6043SOL    HW129591   0.733   2.602   9.945 -3.3118 -0.3764  1.3528
 6043SOL    HW229592   0.853   2.650  10.006  0.4469  0.6390  1.2613
 6044SOL     OW29593   4.635   3.434   5.196  0.3903  0.1220  0.2950
 6044SOL    HW129594   4.550   3.468   5.167  0.4709 -1.0115 -1.2285
 6044SOL    HW229595   4.638   3.350   5.151 -2.0445 -1.2152  2.6079
 6045SOL     OW29596   0.335   3.884   6.368 -0.2940  0.5206 -0.0785
 6045SOL    HW129597   0.355   3.933   6.448  1.8806 -0.4751 -0.0137
 6045SOL    HW229598   0.246   3.914   6.350 -0.5239 -0.6324 -0.8498
 6046SOL     OW29599   1.164   1.578   9.833  0.0880 -0.0657 -0.1041
 6046SOL    HW129600   1.246   1.627   9.841 -2.0263  3.3821  0.3239
 6046SOL    HW229601   1.195   1.487   9.839  1.4246  0.2540 -2.1822
 6047SOL     OW29602   2.551   3.232  15.975  0.3225 -0.1683  0.1954
 6047SOL    HW129603   2.621   3.289  16.009 -1.0595  1.2533  0.6454
 6047SOL    HW229604   2.479   3.258  16.033  0.3602 -0.5050  0.3938
 6048SOL     OW29605   3.697   4.485  12.012 -0.0872  0.2107  0.3110
 6048SOL    HW129606   3.736   4.409  12.056 -1.2842 -0.8960 -0.5238
 6048SOL    HW229607   3.744   4.483  11.928 -1.0757 -0.3409 -0.2442
 6049SOL     OW29608   2.005   0.522   8.402  0.5845  0.2430 -0.2856
 6049SOL    HW129609   2.007   0.588   8.470  1.7470 -1.5085  1.3720
 6049SOL    HW229610   2.037   0.450   8.456 -0.5155  0.1890  0.2837
 6050SOL     OW29611   3.666   2.303   7.817  0.1297 -0.2572 -0.2873
 6050SOL    HW129612   3.677   2.348   7.734  0.3314  0.4208  0.1043
 6050SOL    HW229613   3.584   2.346   7.842  1.6007  1.8578  0.9002
 6051SOL     OW29614   1.233   0.649   5.829 -0.4727 -0.2531 -0.1036
 6051SOL    HW129615   1.204   0.663   5.739  1.1314 -2.1275 -0.9125
 6051SOL    HW229616   1.192   0.564   5.838  0.9350 -0.6877  2.1567
 6052SOL     OW29617   2.331   0.998   3.660 -0.0054 -0.6832  0.6687
 6052SOL    HW129618   2.377   1.062   3.714 -3.3656  0.9003  1.6910
 6052SOL    HW229619   2.407   0.952   3.625  0.5068  0.0523  0.8170
 6053SOL     OW29620   0.466   2.799   8.277  0.1375  0.1003  0.0277
 6053SOL    HW129621   0.495   2.776   8.366 -2.3745  0.3023  0.9010
 6053SOL    HW229622   0.512   2.883   8.272 -1.5810  1.1661  2.0443
 6054SOL     OW29623   1.686   3.933   7.790 -0.3825 -0.3392  0.7132
 6054SOL    HW129624   1.638   3.883   7.723 -2.9922  2.3958  0.5048
 6054SOL    HW229625   1.633   4.013   7.796 -0.3810 -0.0594 -2.7148
 6055SOL     OW29626   2.537   3.919  11.048  0.0444  0.3655 -0.2025
 6055SOL    HW129627   2.539   3.942  11.141 -0.1935  1.6968 -0.5244
 6055SOL    HW229628   2.622   3.947  11.015 -0.2841 -0.7832 -1.9982
 6056SOL     OW29629   2.233   1.841   5.750 -0.8218 -0.3796  0.2233
 6056SOL    HW129630   2.328   1.856   5.754 -0.8602  0.0008 -0.2662
 6056SOL    HW229631   2.201   1.920   5.794  0.8010 -0.5280  1.7276
 6057SOL     OW29632   2.030   3.111   2.280 -0.0316 -0.0849  0.0104
 6057SOL    HW129633   2.036   3.030   2.230 -0.2183 -0.5852  0.7934
 6057SOL    HW229634   2.118   3.122   2.316 -0.3277 -0.5410  0.8610
 6058SOL     OW29635   4.177   4.636   1.594 -0.2615  0.1983 -0.2708
 6058SOL    HW129636   4.157   4.555   1.548 -0.5123  0.7326 -1.0937
 6058SOL    HW229637   4.097   4.685   1.614 -0.1946  0.4968 -0.7299
 6059SOL     OW29638   0.183   0.176   6.328  0.4882 -0.6804  0.5334
 6059SOL    HW129639   0.104   0.154   6.377  0.7116  1.8509  2.0305
 6059SOL    HW229640   0.145   0.163   6.241  0.5390  1.1225  0.2368
 6060SOL     OW29641   1.295   4.431   8.082 -0.0215 -0.3060 -0.2572
 6060SOL    HW129642   1.256   4.419   8.169  0.7193 -0.7510  0.0099
 6060SOL    HW229643   1.223   4.396   8.029  1.2378 -3.3290  0.0597
 6061SOL     OW29644   3.330   1.287   7.413  0.4177  0.1008 -0.2758
 6061SOL    HW129645   3.290   1.359   7.461 -2.4995 -0.1052 -2.4068
 6061SOL    HW229646   3.392   1.334   7.356 -2.4441  0.9218 -2.7195
 6062SOL     OW29647   3.417   1.944   2.548  0.0203 -0.1490  0.3704
 6062SOL    HW129648   3.391   2.022   2.597 -0.6188 -0.2235  0.1482
 6062SOL    HW229649   3.421   1.989   2.463  2.0871 -0.1503  0.4450
 6063SOL     OW29650   1.306   4.521   4.298 -0.6807 -0.2992 -0.4610
 6063SOL    HW129651   1.246   4.446   4.292 -0.3729 -0.6736  1.1912
 6063SOL    HW229652   1.263   4.572   4.367  0.1201  1.0965 -1.0020
 6064SOL     OW29653   1.302   1.821   9.622 -0.2534  0.0213 -0.1571
 6064SOL    HW129654   1.246   1.823   9.544 -0.7398 -0.4525  0.1761
 6064SOL    HW229655   1.347   1.737   9.613 -0.8306 -0.1836 -1.0991
 6065SOL     OW29656   1.321   2.289   2.057 -0.2871  0.8158  0.2546
 6065SOL    HW129657   1.379   2.327   1.992 -1.2359  0.3348 -0.8701
 6065SOL    HW229658   1.252   2.355   2.059 -1.3238 -0.2647  0.7673
 6066SOL     OW29659   1.783   1.338   5.789  0.0523 -0.1834  0.0904
 6066SOL    HW129660   1.746   1.381   5.712 -0.6546  2.3429  1.8560
 6066SOL    HW229661   1.863   1.391   5.785 -0.4781  0.6412  0.4886
 6067SOL     OW29662   1.273   1.614  12.436 -0.4245 -0.2235 -0.0802
 6067SOL    HW129663   1.224   1.690  12.467 -0.2081 -0.3297  0.5192
 6067SOL    HW229664   1.214   1.540  12.453 -0.4648  0.7640  4.1257
 6068SOL     OW29665   3.292   0.374   5.566 -0.1473 -0.0780 -0.0936
 6068SOL    HW129666   3.297   0.402   5.474 -0.7289  0.6345  0.0921
 6068SOL    HW229667   3.230   0.300   5.564  1.5753 -1.5633  2.7189
 6069SOL     OW29668   3.344   1.643   2.732 -0.3683  0.8290 -0.0158
 6069SOL    HW129669   3.391   1.664   2.651 -3.4024 -1.1461 -2.2524
 6069SOL    HW229670   3.285   1.575   2.700  2.1351 -1.2857 -0.1287
 6070SOL     OW29671   1.256   2.241   4.766  0.6481  0.4873  0.5316
 6070SOL    HW129672   1.331   2.265   4.821  0.9468  0.6510  0.0460
 6070SOL    HW229673   1.302   2.184   4.704  2.2333  0.6342  1.5739
 6071SOL     OW29674   3.562   3.619   2.585 -0.2046 -0.1853 -0.4291
 6071SOL    HW129675   3.476   3.576   2.588 -0.6365  0.6168 -1.1637
 6071SOL    HW229676   3.613   3.550   2.544  0.6634  1.4136 -2.0391
 6072SOL     OW29677   3.374   3.220   4.678  0.3691 -0.8447  1.4185
 6072SOL    HW129678   3.400   3.281   4.747  1.0290 -1.9703  2.1864
 6072SOL    HW229679   3.282   3.203   4.698  0.4337  0.4188  2.7881
 6073SOL     OW29680   3.704   3.132  13.888 -0.0149  0.4189 -0.1709
 6073SOL    HW129681   3.612   3.107  13.894  0.7020 -2.3068 -0.3808
 6073SOL    HW229682   3.697   3.208  13.831  2.3193  0.9785  0.2995
 6074SOL     OW29683   0.278   3.135  11.541  0.3201 -0.8726 -0.6286
 6074SOL    HW129684   0.212   3.172  11.599  0.8768  2.5188 -2.2008
 6074SOL    HW229685   0.311   3.073  11.606  0.7156  0.4391  0.4155
 6075SOL     OW29686   0.355   1.155   8.816 -0.1909  0.3279  0.3466
 6075SOL    HW129687   0.306   1.236   8.801  1.1678  1.2099  0.6662
 6075SOL    HW229688   0.406   1.158   8.735 -0.1392 -0.3435  0.3503
 6076SOL     OW29689   2.018   3.480   4.282 -0.3018 -0.2892 -0.4394
 6076SOL    HW129690   2.051   3.567   4.257 -0.3338 -0.3369 -0.6485
 6076SOL    HW229691   2.086   3.447   4.342 -0.3308  0.7336  0.1586
 6077SOL     OW29692   2.708   0.717   5.199 -0.3572  0.1367  0.0712
 6077SOL    HW129693   2.674   0.717   5.109 -1.1760  3.6951  0.3866
 6077SOL    HW229694   2.633   0.738   5.254 -0.2495  0.9886 -0.1125
 6078SOL     OW29695   3.923   1.229   6.329  0.1395 -0.0298 -0.1065
 6078SOL    HW129696   4.002   1.185   6.298  0.7917 -0.4466  2.1020
 6078SOL    HW229697   3.958   1.254   6.415 -1.4062  0.2859  0.4134
 6079SOL     OW29698   4.608   2.624   8.060  0.1817 -0.0210 -0.7122
 6079SOL    HW129699   4.644   2.582   8.138  2.7897  2.7561 -0.4478
 6079SOL    HW229700   4.676   2.597   7.998 -0.1143  1.6169 -1.7506
 6080SOL     OW29701   0.167   2.489   2.016  0.3800  0.4276  0.3337
 6080SOL    HW129702   0.089   2.544   2.026 -1.1240 -1.7880  0.6492
 6080SOL    HW229703   0.218   2.532   2.085  0.2248  1.1525  0.0049
 6081SOL     OW29704   2.952   4.335  11.236 -0.2332  0.0408  0.1423
 6081SOL    HW129705   2.930   4.428  11.230  0.5720  0.3037  1.4063
 6081SOL    HW229706   3.030   4.352  11.289 -1.7117  1.8281  1.7197
 6082SOL     OW29707   1.040   1.343   2.433 -0.1571  0.3086 -0.1966
 6082SOL    HW129708   1.119   1.349   2.380 -1.0540  1.0494 -1.4705
 6082SOL    HW229709   1.038   1.247   2.429  0.3948  0.3266 -0.9256
 6083SOL     OW29710   2.241   1.455   9.891 -0.3307  0.0754  0.3018
 6083SOL    HW129711   2.270   1.452   9.800  2.3311  1.3736  1.1010
 6083SOL    HW229712   2.212   1.546   9.898 -0.9284 -0.1279  0.4588
 6084SOL     OW29713   0.260   3.721  10.129  0.2985 -0.0283 -0.4303
 6084SOL    HW129714   0.165   3.725  10.115  0.1553 -1.9088  0.0146
 6084SOL    HW229715   0.293   3.811  10.138  1.2825 -0.4592  0.2620
 6085SOL     OW29716   2.242   1.128   5.974 -0.2806 -0.0980  0.1053
 6085SOL    HW129717   2.151   1.157   5.968 -1.5731 -3.3536  3.7486
 6085SOL    HW229718   2.233   1.037   5.945  2.2021 -0.6369  0.9567
 6086SOL     OW29719   1.676   2.005   5.824 -0.2052  0.2405  0.9985
 6086SOL    HW129720   1.605   1.960   5.779  0.6004 -0.8291  0.7981
 6086SOL    HW229721   1.729   2.043   5.755 -2.0592 -1.0276 -1.1047
 6087SOL     OW29722   3.848   0.443  11.098  0.4559  0.1843  0.0485
 6087SOL    HW129723   3.756   0.468  11.107 -0.6812 -3.1183 -2.7612
 6087SOL    HW229724   3.842   0.348  11.090 -1.5414  0.5196 -2.4389
 6088SOL     OW29725   3.052   3.480   0.564 -0.0928  0.3751 -0.1890
 6088SOL    HW129726   3.110   3.556   0.564  0.4965 -0.0820  0.9200
 6088SOL    HW229727   2.973   3.530   0.583 -1.1515 -1.3029 -0.1746
 6089SOL     OW29728   4.338   0.681  11.393  0.6836  0.3267  0.4645
 6089SOL    HW129729   4.375   0.633  11.319 -0.6341 -0.6405  0.4376
 6089SOL    HW229730   4.298   0.619  11.454 -0.8207 -0.8866 -1.7493
 6090SOL     OW29731   2.956   3.102   4.907  0.2843  0.6399  0.0457
 6090SOL    HW129732   2.866   3.134   4.912 -0.8787 -2.3909 -1.4539
 6090SOL    HW229733   2.964   3.106   5.002 -0.8334  0.9568  0.1268
 6091SOL     OW29734   2.061   3.482   7.716 -0.0732  0.3538 -0.2622
 6091SOL    HW129735   2.067   3.461   7.623 -0.7087  1.3700 -0.5353
 6091SOL    HW229736   2.091   3.400   7.755 -2.0279 -0.8008 -1.1660
 6092SOL     OW29737   1.792   3.610   8.368  0.3603 -0.2242 -0.1076
 6092SOL    HW129738   1.786   3.599   8.463 -2.7977  5.3898  0.3501
 6092SOL    HW229739   1.760   3.526   8.337  0.5549 -0.1589 -0.4848
 6093SOL     OW29740   1.374   4.287   5.197 -0.0920  0.4311 -0.0209
 6093SOL    HW129741   1.358   4.247   5.283  0.6048  0.5762  0.1798
 6093SOL    HW229742   1.427   4.363   5.220  2.6300 -1.8618  1.2614
 6094SOL     OW29743   2.351   2.228   5.701  0.1783 -0.0331 -0.0706
 6094SOL    HW129744   2.280   2.212   5.764 -0.8783  1.9563 -0.7477
 6094SOL    HW229745   2.394   2.309   5.728 -1.4970  0.9710 -0.3943
 6095SOL     OW29746   2.122   1.661   6.412 -0.3949  0.1087 -0.2280
 6095SOL    HW129747   2.154   1.623   6.331  0.2544  0.0848  0.0399
 6095SOL    HW229748   2.114   1.582   6.466 -0.2366  0.5592  0.4491
 6096SOL     OW29749   4.353   0.335   4.299 -0.0603 -0.3978  0.0689
 6096SOL    HW129750   4.410   0.319   4.374  1.9499 -0.2489 -1.4297
 6096SOL    HW229751   4.415   0.367   4.234 -1.7913 -0.3208 -1.5572
 6097SOL     OW29752   4.435   1.743   4.819  1.3929  0.1987 -0.1548
 6097SOL    HW129753   4.351   1.782   4.795  1.1631  0.3736  0.9363
 6097SOL    HW229754   4.440   1.675   4.752  0.3198  0.5244 -0.5591
 6098SOL     OW29755   2.238   3.034   0.610  0.2421 -0.1231  0.9595
 6098SOL    HW129756   2.234   3.060   0.703  2.5968 -1.6638  1.4910
 6098SOL    HW229757   2.164   3.081   0.572  1.7025  2.5601  1.4183
 6099SOL     OW29758   1.671   2.297  13.984 -0.1908 -0.1550  0.0790
 6099SOL    HW129759   1.632   2.344  14.057  1.5825 -0.1347  1.0218
 6099SOL    HW229760   1.603   2.306  13.917  0.5169 -3.1415 -1.0167
 6100SOL     OW29761   0.700   4.040   0.694  0.0590  0.6284  0.4681
 6100SOL    HW129762   0.746   4.080   0.768  1.2168 -1.4426  0.8715
 6100SOL    HW229763   0.674   3.960   0.741  2.7125 -0.5094 -0.0146
 6101SOL     OW29764   1.463   4.374   6.182 -0.4112  0.0484  0.9777
 6101SOL    HW129765   1.407   4.442   6.219 -0.9508  0.3982 -0.4663
 6101SOL    HW229766   1.394   4.317   6.148  0.4155 -0.3004 -0.1240
 6102SOL     OW29767   4.140   3.448  13.680 -0.1985 -0.4011  0.3337
 6102SOL    HW129768   4.120   3.385  13.749  1.6472 -0.6638  0.6269
 6102SOL    HW229769   4.228   3.477  13.707 -1.1401  0.0413  2.9788
 6103SOL     OW29770   3.358   0.118   6.941  0.4329  0.5225  0.1849
 6103SOL    HW129771   3.418   0.060   6.987  0.1535  0.9171  1.0723
 6103SOL    HW229772   3.398   0.205   6.951 -1.0378  1.6015 -3.5804
 6104SOL     OW29773   1.799   3.072   2.427  0.3212 -0.1699 -0.2760
 6104SOL    HW129774   1.822   3.037   2.514  2.7520 -1.1159 -1.2845
 6104SOL    HW229775   1.889   3.070   2.394  0.8086  1.5203  0.9845
 6105SOL     OW29776   0.016   2.504   3.785  0.3084 -0.0173  0.1872
 6105SOL    HW129777   4.709   2.541   3.869 -2.0161  0.1029 -0.6363
 6105SOL    HW229778   0.049   2.582   3.741  0.4680 -1.0028 -1.4050
 6106SOL     OW29779   0.467   1.798   4.997 -0.5662  0.1480 -0.2074
 6106SOL    HW129780   0.454   1.816   5.090  0.0337  0.9146 -0.2717
 6106SOL    HW229781   0.408   1.868   4.966  0.0315  0.2156 -1.2053
 6107SOL     OW29782   1.385   4.604  17.141 -0.7224 -0.8054 -0.0565
 6107SOL    HW129783   1.341   4.522  17.163 -0.9673 -0.5487  0.4029
 6107SOL    HW229784   1.324   4.662  17.186 -0.6376 -0.9958  0.3068
 6108SOL     OW29785   1.773   4.496   3.578  0.2471  0.4667  0.6051
 6108SOL    HW129786   1.824   4.563   3.533  2.2449  0.5515  3.0534
 6108SOL    HW229787   1.692   4.547   3.587  2.0823  4.1422 -3.8341
 6109SOL     OW29788   1.437   1.639   3.494  0.1505  0.1738 -0.1281
 6109SOL    HW129789   1.377   1.591   3.437 -0.3257  0.3052  0.2629
 6109SOL    HW229790   1.437   1.721   3.446  1.6774  0.8915  1.0870
 6110SOL     OW29791   0.405   4.203   0.479 -0.2142  0.2945  0.4381
 6110SOL    HW129792   0.392   4.115   0.515 -1.9788  0.8934  1.2529
 6110SOL    HW229793   0.315   4.234   0.489 -1.1276 -2.0261 -0.5176
 6111SOL     OW29794   2.329   2.744   5.863 -0.2718 -0.6770  0.0478
 6111SOL    HW129795   2.277   2.669   5.892 -0.5596 -0.9771 -1.2369
 6111SOL    HW229796   2.294   2.818   5.912  3.4621 -0.7745  2.7881
 6112SOL     OW29797   1.288   3.829   2.938 -0.5811 -0.1990 -0.9125
 6112SOL    HW129798   1.372   3.869   2.918  0.0095 -1.5139 -1.0492
 6112SOL    HW229799   1.294   3.827   3.033 -0.3348  0.0364 -0.9250
 6113SOL     OW29800   3.543   0.798   9.260 -0.4736  0.3521 -0.0104
 6113SOL    HW129801   3.566   0.891   9.269  0.7784  0.1917 -1.5121
 6113SOL    HW229802   3.601   0.755   9.322  0.1635  0.8748 -0.2512
 6114SOL     OW29803   1.655   1.938   8.563 -0.4135  0.3833 -0.3775
 6114SOL    HW129804   1.566   1.934   8.529 -0.0227  2.4633 -1.6478
 6114SOL    HW229805   1.618   1.972   8.645  1.3937 -1.6488  1.2817
 6115SOL     OW29806   4.059   0.480   4.026  0.1941  0.0853  0.0578
 6115SOL    HW129807   4.069   0.540   3.952 -1.7927 -1.5654 -1.5416
 6115SOL    HW229808   4.066   0.396   3.980 -1.7501  0.8421 -1.6562
 6116SOL     OW29809   4.696   1.846   9.519  0.2829  0.1638 -0.3776
 6116SOL    HW129810   0.061   1.860   9.559 -0.1851  0.9720  0.3422
 6116SOL    HW229811   4.667   1.937   9.523  1.3395  0.4868 -0.0443
 6117SOL     OW29812   2.483   4.476  13.641  0.1232 -0.3223 -0.0089
 6117SOL    HW129813   2.563   4.510  13.680 -0.3965  2.0011 -1.0196
 6117SOL    HW229814   2.436   4.439  13.716 -0.7661  1.5200  0.3441
 6118SOL     OW29815   4.171   2.317   6.477  0.1819 -0.0647 -0.0776
 6118SOL    HW129816   4.235   2.384   6.452 -0.6041  0.5562 -0.3862
 6118SOL    HW229817   4.233   2.245   6.490 -0.8333 -0.8205  0.5829
 6119SOL     OW29818   1.749   0.217   0.487 -0.7291 -0.7360 -0.3219
 6119SOL    HW129819   1.678   0.160   0.519 -1.6274  1.3583  1.4056
 6119SOL    HW229820   1.811   0.156   0.448 -0.5016  0.2300 -1.4888
 6120SOL     OW29821   4.691   2.700   5.470 -0.1913  0.0116  0.3995
 6120SOL    HW129822   4.615   2.730   5.520 -1.1734 -2.0042  0.1331
 6120SOL    HW229823   4.675   2.771   5.407  0.3654 -1.5038 -1.4428
 6121SOL     OW29824   0.180   3.489   3.563  0.5160 -0.5424  0.1173
 6121SOL    HW129825   0.194   3.525   3.475 -0.2635  4.3325  1.9691
 6121SOL    HW229826   0.088   3.512   3.574  0.9651  0.6184  1.4298
 6122SOL     OW29827   1.740   0.596   6.742 -0.2090  0.4062 -0.5074
 6122SOL    HW129828   1.726   0.563   6.653  0.4853  1.7186 -1.1059
 6122SOL    HW229829   1.773   0.519   6.787 -3.8981 -1.5914 -1.1963
 6123SOL     OW29830   2.971   0.927   8.587 -0.2447 -0.3737 -0.0072
 6123SOL    HW129831   3.004   0.839   8.571  3.2746  0.8594  0.5014
 6123SOL    HW229832   2.946   0.910   8.677  1.3429 -0.3944  0.4273
 6124SOL     OW29833   0.249   3.828   2.929 -0.6912 -0.0439  0.0992
 6124SOL    HW129834   0.284   3.840   2.841 -2.7616  2.0783 -0.4313
 6124SOL    HW229835   0.262   3.733   2.927 -0.5903 -0.0309  0.1325
 6125SOL     OW29836   1.644   1.917   7.293  0.2623  0.3315  0.2457
 6125SOL    HW129837   1.601   1.847   7.243 -1.0444 -0.1961  2.0904
 6125SOL    HW229838   1.718   1.935   7.236  1.0310 -2.1827  0.4155
 6126SOL     OW29839   4.364   0.016   5.441 -0.1568  0.0314 -0.0559
 6126SOL    HW129840   4.361   0.061   5.357 -0.4561  0.6657  0.2958
 6126SOL    HW229841   4.316   4.655   5.427  2.1000 -1.0038 -1.7141
 6127SOL     OW29842   0.421   4.712   9.644 -0.5067 -0.0457  0.6141
 6127SOL    HW129843   0.433   0.073   9.693 -2.9413  2.2116 -2.5346
 6127SOL    HW229844   0.360   4.664   9.701 -1.3534  0.4117  0.1041
 6128SOL     OW29845   3.514   4.483   1.677 -0.1033  0.2725  0.0341
 6128SOL    HW129846   3.478   4.517   1.758  1.3645 -0.9765  1.2230
 6128SOL    HW229847   3.564   4.408   1.711 -0.6685  0.0952  0.4765
 6129SOL     OW29848   2.458   4.562   6.777  0.2301 -0.5186 -0.4516
 6129SOL    HW129849   2.517   4.635   6.755  0.5038 -1.0655 -1.5055
 6129SOL    HW229850   2.529   4.499   6.768  0.5899 -0.2598  0.5474
 6130SOL     OW29851   0.453   3.289   6.667  0.0504 -0.0869 -0.4466
 6130SOL    HW129852   0.485   3.278   6.578 -0.5455  0.0061 -0.6769
 6130SOL    HW229853   0.536   3.307   6.710  0.1786  1.3142 -1.2586
 6131SOL     OW29854   1.129   0.350  11.307  0.2474 -0.1572 -0.4177
 6131SOL    HW129855   1.139   0.394  11.223  1.0726  0.3073 -0.0746
 6131SOL    HW229856   1.037   0.367  11.325  0.7160  0.4177  1.3690
 6132SOL     OW29857   1.479   4.543   1.772  1.0015  0.2801 -0.4369
 6132SOL    HW129858   1.475   4.631   1.734 -1.5564  0.4055  0.1350
 6132SOL    HW229859   1.395   4.503   1.751  0.7774  1.1281 -1.1798
 6133SOL     OW29860   3.263   0.954  13.669  0.2704  0.2180  0.1636
 6133SOL    HW129861   3.274   0.937  13.762  0.1721  0.4813  0.2262
 6133SOL    HW229862   3.354   0.973  13.647  0.2835 -1.2830 -1.0846
 6134SOL     OW29863   4.383   1.711   6.849 -0.0782  0.0614  0.3824
 6134SOL    HW129864   4.365   1.803   6.827  0.3510  0.8394  3.3075
 6134SOL    HW229865   4.453   1.732   6.911  0.7851 -2.4494  0.2433
 6135SOL     OW29866   3.973   1.948   5.188 -0.3010  0.5894  0.0002
 6135SOL    HW129867   3.923   1.979   5.112 -1.8043 -0.4374  0.5745
 6135SOL    HW229868   3.900   1.916   5.241  0.3709 -1.2772 -0.1975
 6136SOL     OW29869   0.844   1.321   6.995  0.3780 -0.2207  0.0095
 6136SOL    HW129870   0.756   1.342   6.964 -0.5873 -2.8254  0.9806
 6136SOL    HW229871   0.879   1.267   6.925 -1.6107  0.9203 -1.8444
 6137SOL     OW29872   2.907   2.913   8.237  0.4492  0.2412  0.4181
 6137SOL    HW129873   2.838   2.970   8.204 -0.4913 -1.7099 -0.9831
 6137SOL    HW229874   2.985   2.964   8.215  0.5119 -0.2674 -0.5443
 6138SOL     OW29875   0.658   2.048   9.696  0.4018  0.3679 -0.1297
 6138SOL    HW129876   0.617   2.135   9.699  0.9919  0.6500 -0.3108
 6138SOL    HW229877   0.700   2.045   9.782 -1.9403 -0.6113  0.9876
 6139SOL     OW29878   0.944   2.059  15.699  0.0868 -0.2530  0.1238
 6139SOL    HW129879   0.951   2.140  15.648 -0.8206 -0.0530  0.3053
 6139SOL    HW229880   0.883   2.004  15.650  0.0575  1.4917 -1.8114
 6140SOL     OW29881   1.557   4.555  15.229 -0.3238  0.1678 -0.3438
 6140SOL    HW129882   1.467   4.538  15.202 -0.8843  0.0304  1.5989
 6140SOL    HW229883   1.595   4.467  15.233  1.9143  1.2208  1.6300
 6141SOL     OW29884   1.323   3.683   1.533  0.4589  0.0709 -0.0566
 6141SOL    HW129885   1.281   3.603   1.564 -0.4947  0.5194 -0.1957
 6141SOL    HW229886   1.361   3.719   1.613  0.4885 -0.5472  0.2094
 6142SOL     OW29887   3.269   3.503   2.866  0.4688  0.3501 -0.5213
 6142SOL    HW129888   3.204   3.478   2.932  0.8908 -0.7692 -0.5449
 6142SOL    HW229889   3.327   3.558   2.919 -1.3301 -0.4067  2.2172
 6143SOL     OW29890   3.847   4.147  16.670  0.2735  0.6265 -0.6603
 6143SOL    HW129891   3.927   4.170  16.623  0.6769  0.5689  0.0041
 6143SOL    HW229892   3.878   4.064  16.707  0.4216  0.2038 -1.7271
 6144SOL     OW29893   1.566   3.703   7.930  0.1512 -0.3194  0.6402
 6144SOL    HW129894   1.472   3.712   7.916  0.4277  2.0881  0.2755
 6144SOL    HW229895   1.607   3.779   7.889  3.2955 -2.2854  0.1567
 6145SOL     OW29896   3.658   1.290   6.161  0.1858  0.5151  0.0706
 6145SOL    HW129897   3.682   1.320   6.248 -0.8925  3.6123 -0.7102
 6145SOL    HW229898   3.575   1.241   6.165 -0.1158  0.9651 -0.7315
 6146SOL     OW29899   4.415   0.584   2.910 -0.1079  0.1233 -0.0461
 6146SOL    HW129900   4.382   0.656   2.964  0.2115 -1.4954  2.2856
 6146SOL    HW229901   4.487   0.623   2.860  1.4163 -1.1731  1.1497
 6147SOL     OW29902   3.990   3.964   2.538 -0.4513  0.2655 -0.2365
 6147SOL    HW129903   3.921   4.030   2.531 -0.8694 -0.1628 -0.1600
 6147SOL    HW229904   4.059   3.997   2.480 -0.8221  2.1920  0.4331
 6148SOL     OW29905   1.313   3.673   8.430 -0.1378 -0.1232 -0.0734
 6148SOL    HW129906   1.291   3.706   8.517  1.7258  0.4135  0.1988
 6148SOL    HW229907   1.402   3.708   8.424  0.2272 -0.9031  0.6669
 6149SOL     OW29908   3.034   2.610   9.327  0.1474 -0.1630  0.2852
 6149SOL    HW129909   3.053   2.703   9.342  1.6328 -0.7473  2.0754
 6149SOL    HW229910   2.939   2.616   9.324 -0.0206 -1.6302  3.4831
 6150SOL     OW29911   2.789   0.020   5.711  0.2212  0.3794 -0.0692
 6150SOL    HW129912   2.813   4.717   5.801  0.7819 -2.4236 -0.9561
 6150SOL    HW229913   2.695   0.005   5.719  0.4613  0.1136  2.1400
 6151SOL     OW29914   0.805   1.415   5.144 -0.1607 -0.3481  0.3881
 6151SOL    HW129915   0.739   1.347   5.132  0.2000 -0.8242  1.0822
 6151SOL    HW229916   0.879   1.357   5.125 -1.3266 -0.5860 -3.5219
 6152SOL     OW29917   4.625   2.887  17.433 -0.2507 -0.8776  0.0003
 6152SOL    HW129918   4.694   2.852  17.489 -1.8189 -0.3225  2.2874
 6152SOL    HW229919   4.657   2.969  17.396  0.0481 -0.9208  0.1631
 6153SOL     OW29920   3.287   1.423  13.691  0.4874  0.3070 -0.1396
 6153SOL    HW129921   3.231   1.416  13.768  0.9195 -4.7029 -0.3187
 6153SOL    HW229922   3.284   1.516  13.667 -1.9950  0.4585  0.7082
 6154SOL     OW29923   0.824   2.025  14.336  0.1347  0.1032 -0.0169
 6154SOL    HW129924   0.813   2.062  14.248 -1.8111  0.4937  0.3987
 6154SOL    HW229925   0.757   1.958  14.348  0.1584 -0.0022 -0.4500
 6155SOL     OW29926   0.172   4.237  12.522  0.0883 -0.2892 -0.6187
 6155SOL    HW129927   0.093   4.264  12.568 -0.3111 -0.7926 -1.0108
 6155SOL    HW229928   0.165   4.145  12.548  1.4958 -0.1681  0.1876
 6156SOL     OW29929   0.390   2.482  11.864 -0.2445  0.3552  0.4772
 6156SOL    HW129930   0.482   2.471  11.839 -0.0189 -1.9814  2.2523
 6156SOL    HW229931   0.349   2.509  11.782 -2.1158  0.2898  1.3873
 6157SOL     OW29932   1.725   4.625   7.514 -0.5492  0.5244 -0.0139
 6157SOL    HW129933   1.815   4.617   7.484 -0.9413  1.3859 -1.3847
 6157SOL    HW229934   1.698   4.670   7.435  1.3065 -0.2384 -1.0890
 6158SOL     OW29935   1.970   1.878   6.878  0.0908  0.2186 -0.2036
 6158SOL    HW129936   2.049   1.825   6.874 -0.7537 -1.1575  1.1560
 6158SOL    HW229937   1.895   1.821   6.859 -0.2437  0.0018  1.7087
 6159SOL     OW29938   0.985   3.562  11.826 -0.4307  0.2657 -0.0359
 6159SOL    HW129939   0.924   3.598  11.762 -0.2478  0.1152 -0.2897
 6159SOL    HW229940   0.935   3.569  11.908 -0.0247 -0.1321  0.2442
 6160SOL     OW29941   2.526   1.299   5.985 -0.6566  0.7309  0.8736
 6160SOL    HW129942   2.471   1.221   5.995  0.7361 -0.4449 -0.4545
 6160SOL    HW229943   2.577   1.270   5.909  0.5914  1.1500  1.5540
 6161SOL     OW29944   1.923   0.118  15.740  0.0299  0.1471 -0.5464
 6161SOL    HW129945   1.989   0.053  15.764  0.4927  0.9672  0.4044
 6161SOL    HW229946   1.960   0.204  15.760 -3.7269  1.5017  0.5258
 6162SOL     OW29947   3.552   2.723   3.757  0.2057 -0.2947  0.9807
 6162SOL    HW129948   3.560   2.762   3.844  0.0103 -0.6708  1.1648
 6162SOL    HW229949   3.541   2.630   3.778  3.6850 -0.4698  2.0361
 6163SOL     OW29950   1.170   0.977  15.609 -0.3599  0.4645 -0.3425
 6163SOL    HW129951   1.074   0.976  15.610 -0.3485 -1.4373 -0.7394
 6163SOL    HW229952   1.200   0.913  15.673  0.9066  0.1761 -1.2211
 6164SOL     OW29953   2.115   0.210   0.455  0.0497 -0.2393 -0.7608
 6164SOL    HW129954   2.123   0.156   0.534  0.7503 -1.6783 -1.8205
 6164SOL    HW229955   2.055   0.163   0.397 -1.0591 -1.4929  1.3775
 6165SOL     OW29956   2.383   1.543   5.929  0.2078  0.0071  0.6764
 6165SOL    HW129957   2.335   1.515   5.851 -1.5164  0.2916  1.6366
 6165SOL    HW229958   2.445   1.470   5.928 -1.7386 -1.6263 -0.3161
 6166SOL     OW29959   3.712   2.156   0.963 -0.0537  0.5203  0.1906
 6166SOL    HW129960   3.733   2.206   1.042  0.3329  1.1984 -0.3438
 6166SOL    HW229961   3.739   2.226   0.904  0.8481  0.4908  0.5556
 6167SOL     OW29962   1.306   0.352   1.063  0.2149 -0.2005  0.2243
 6167SOL    HW129963   1.304   0.376   0.970 -3.2295 -0.6966  0.1551
 6167SOL    HW229964   1.399   0.338   1.081  0.0561 -0.3776  0.8957
 6168SOL     OW29965   0.022   0.069   8.254 -0.3854  0.4600 -0.1163
 6168SOL    HW129966   4.678   0.126   8.212 -1.1626 -1.1768 -1.1376
 6168SOL    HW229967   0.049   0.115   8.334 -1.0288 -3.0638  2.1043
 6169SOL     OW29968   0.835   2.400  15.031 -0.4306  1.1605 -0.1429
 6169SOL    HW129969   0.744   2.372  15.044  0.1620 -0.1495  1.2515
 6169SOL    HW229970   0.858   2.455  15.106  0.6581  1.6799 -0.8483
 6170SOL     OW29971   2.832   0.878   4.305  0.4431 -0.4377  0.0598
 6170SOL    HW129972   2.841   0.790   4.269 -1.2567 -0.0409 -1.3573
 6170SOL    HW229973   2.917   0.912   4.279 -1.3102  1.9337 -2.6024
 6171SOL     OW29974   2.935   2.277  10.407  0.0706 -0.4065  0.3604
 6171SOL    HW129975   2.965   2.331  10.480  1.0230 -0.9515  0.3664
 6171SOL    HW229976   2.998   2.307  10.342  0.6896  0.0332  1.1684
 6172SOL     OW29977   4.021   2.427   5.955  0.5000 -0.2173 -0.7095
 6172SOL    HW129978   3.998   2.334   5.948 -0.7832  0.1664 -1.7153
 6172SOL    HW229979   4.085   2.411   6.024 -1.5134  0.2908  1.2634
 6173SOL     OW29980   1.696   4.028   6.387  0.0780  0.1551  0.0905
 6173SOL    HW129981   1.642   3.998   6.314 -1.0132  0.0697  0.9416
 6173SOL    HW229982   1.648   4.108   6.410 -0.1220 -0.8030  2.8862
 6174SOL     OW29983   3.447   2.217   0.847 -0.1109  0.0339 -0.2532
 6174SOL    HW129984   3.543   2.210   0.847 -0.2017 -1.2111  1.4742
 6174SOL    HW229985   3.451   2.312   0.857 -0.2653  0.0410 -0.2539
 6175SOL     OW29986   0.159   2.989   5.425 -0.8057  0.6498 -0.1506
 6175SOL    HW129987   0.224   2.933   5.469 -0.9071  1.9897  1.7147
 6175SOL    HW229988   0.113   3.019   5.504 -0.4873  0.3576  0.1484
 6176SOL     OW29989   2.554   3.122   2.771 -0.2855 -0.2889 -0.3696
 6176SOL    HW129990   2.640   3.163   2.775 -0.1068 -0.7035  0.1345
 6176SOL    HW229991   2.540   3.126   2.866 -1.2626 -2.8326 -0.3902
 6177SOL     OW29992   0.367   4.158   1.294 -0.1188  0.0989 -0.2052
 6177SOL    HW129993   0.349   4.082   1.238  0.8536 -0.1977 -0.1321
 6177SOL    HW229994   0.300   4.144   1.361  0.0754 -1.7727 -0.3994
 6178SOL     OW29995   0.047   0.259   5.414  0.0766  0.2255  0.1932
 6178SOL    HW129996   0.138   0.289   5.413  0.1658 -0.1887 -3.0725
 6178SOL    HW229997   0.010   0.335   5.371  1.3714  0.5704 -0.2961
 6179SOL     OW29998   0.053   1.353   1.164  0.3677  0.0005  0.0637
 6179SOL    HW129999   0.071   1.292   1.093 -1.2797  1.9980 -2.0811
 6179SOL    HW230000   4.682   1.378   1.148  0.3657 -0.6077 -0.8649
 6180SOL     OW30001   1.208   1.851   4.670  0.4634 -0.0806 -0.0838
 6180SOL    HW130002   1.118   1.881   4.656  0.3333 -0.1388  0.6776
 6180SOL    HW230003   1.216   1.854   4.765 -0.0457 -1.9456  0.0307
 6181SOL     OW30004   2.380   2.351   3.362 -0.7343  0.2416 -0.2605
 6181SOL    HW130005   2.472   2.328   3.377 -0.3086  1.0358 -1.6480
 6181SOL    HW230006   2.390   2.369   3.268 -1.2941 -1.7920 -0.7036
 6182SOL     OW30007   0.891   0.222   6.969  0.2325 -0.3776 -0.3814
 6182SOL    HW130008   0.982   0.249   6.981 -0.3925  1.7997 -0.6080
 6182SOL    HW230009   0.874   0.234   6.875  0.1856 -0.3522 -0.3699
 6183SOL     OW30010   2.464   1.918   3.236 -0.2679  0.1462  0.3022
 6183SOL    HW130011   2.533   1.854   3.219  0.3368  1.1483 -1.1066
 6183SOL    HW230012   2.499   1.993   3.187  0.8759  1.2639  2.8023
 6184SOL     OW30013   1.453   0.013   2.006  0.0367  0.1077  0.3251
 6184SOL    HW130014   1.441   4.639   2.003 -0.7629  0.2334 -0.6384
 6184SOL    HW230015   1.544   0.038   2.016  0.4399 -0.8952 -0.8555
 6185SOL     OW30016   3.349   1.404   8.006 -0.1208 -0.3026  0.1874
 6185SOL    HW130017   3.363   1.327   7.951 -0.2837 -1.0132  1.1393
 6185SOL    HW230018   3.256   1.426   8.002  0.0917  0.8639  1.6943
 6186SOL     OW30019   3.954   2.726   7.308 -0.0521 -0.4140 -0.2496
 6186SOL    HW130020   4.025   2.756   7.365 -0.3029 -0.1131 -0.1021
 6186SOL    HW230021   4.009   2.669   7.254  0.1590 -0.9606  0.5293
 6187SOL     OW30022   0.225   2.358   5.968 -0.1301  0.4341 -0.3878
 6187SOL    HW130023   0.174   2.282   5.938 -0.5961 -0.2873  2.3000
 6187SOL    HW230024   0.173   2.389   6.042 -2.0666 -1.8842 -0.7699
 6188SOL     OW30025   0.602   2.241  16.424  0.0484 -0.1884  0.1985
 6188SOL    HW130026   0.682   2.189  16.434 -0.3326 -0.7411  0.3883
 6188SOL    HW230027   0.628   2.323  16.467 -0.1396  1.5941 -3.1299
 6189SOL     OW30028   1.559   3.775   6.934  0.0977  0.0924 -0.2894
 6189SOL    HW130029   1.568   3.859   6.981  2.8734 -1.0136  1.1946
 6189SOL    HW230030   1.465   3.766   6.923 -0.0774  1.8160 -0.3103
 6190SOL     OW30031   3.426   3.260   2.925  0.1544  0.1869 -0.1887
 6190SOL    HW130032   3.387   3.260   3.012 -2.4337  0.1018 -1.3514
 6190SOL    HW230033   3.394   3.340   2.884  2.8014  1.2806 -0.1306
 6191SOL     OW30034   1.316   2.290   4.212  0.0527 -0.0389  0.5336
 6191SOL    HW130035   1.354   2.267   4.297 -0.9965  2.1874  1.6005
 6191SOL    HW230036   1.224   2.272   4.229  0.2472  0.5581  2.2701
 6192SOL     OW30037   2.666   1.360  11.018  0.0044 -0.1306  0.0732
 6192SOL    HW130038   2.741   1.412  11.048  0.2578  0.3832 -1.4522
 6192SOL    HW230039   2.599   1.427  11.027 -0.4275 -0.6003  0.3333
 6193SOL     OW30040   3.264   0.362   3.322 -0.1143 -0.5313 -0.1090
 6193SOL    HW130041   3.311   0.298   3.268  0.9556  1.1731 -1.2146
 6193SOL    HW230042   3.322   0.372   3.397 -0.3602  0.4482 -0.0456
 6194SOL     OW30043   1.639   3.418   5.503 -0.1749  0.4466  0.1815
 6194SOL    HW130044   1.646   3.369   5.585  1.3579  1.3629  0.5986
 6194SOL    HW230045   1.586   3.374   5.437  0.2415 -0.9942  0.8096
 6195SOL     OW30046   1.990   2.491   2.150 -0.3702  0.1366 -0.1488
 6195SOL    HW130047   1.914   2.487   2.092 -0.6769  0.6552  0.2152
 6195SOL    HW230048   2.064   2.505   2.091  1.5479 -2.8832  1.5820
 6196SOL     OW30049   0.225   4.196   7.402  0.3094 -0.4549 -0.6458
 6196SOL    HW130050   0.182   4.112   7.382  1.5713 -1.1476 -0.4543
 6196SOL    HW230051   0.165   4.256   7.358  0.1855 -0.8909 -1.0772
 6197SOL     OW30052   2.128   1.398   7.881 -0.5019 -0.1853 -0.5640
 6197SOL    HW130053   2.171   1.477   7.848  0.5987  0.0235  1.2961
 6197SOL    HW230054   2.086   1.445   7.954 -1.4188  0.8991 -1.7926
 6198SOL     OW30055   1.055   0.010  17.038 -0.0225 -0.3154  0.0936
 6198SOL    HW130056   1.064   4.636  17.045  0.3475 -0.2792  0.1171
 6198SOL    HW230057   0.981   0.011  16.978 -0.7547 -2.5872  0.9769
 6199SOL     OW30058   1.645   1.084   8.769 -0.7777 -0.3925 -0.2081
 6199SOL    HW130059   1.595   1.151   8.817  0.2180 -0.4959  0.9603
 6199SOL    HW230060   1.606   0.999   8.790 -2.8358  0.0654 -2.2178
 6200SOL     OW30061   0.262   1.572   9.642  0.2646  0.0123 -0.0693
 6200SOL    HW130062   0.278   1.626   9.720 -1.7774 -0.7876  0.8877
 6200SOL    HW230063   0.185   1.526   9.674  1.0704 -0.2971  1.4472
 6201SOL     OW30064   1.376   3.699  14.005 -0.3967  0.0009 -0.1664
 6201SOL    HW130065   1.414   3.767  13.950 -1.7734  1.7468  1.0447
 6201SOL    HW230066   1.330   3.643  13.943 -0.5900 -0.0331  0.0067
 6202SOL     OW30067   1.266   1.839   7.119 -0.1018 -0.4814  0.1794
 6202SOL    HW130068   1.247   1.758   7.167  1.3055  0.0586  1.6387
 6202SOL    HW230069   1.237   1.911   7.176  1.5810  0.5547 -0.2839
 6203SOL     OW30070   0.861   0.709   9.931 -0.0477  0.0656  0.1985
 6203SOL    HW130071   0.883   0.656  10.007  0.0666  1.2718  1.0169
 6203SOL    HW230072   0.831   0.791   9.971 -0.1467  0.7518 -1.2849
 6204SOL     OW30073   2.482   0.047   5.473 -0.2356  0.0696  0.4853
 6204SOL    HW130074   2.495   0.129   5.520 -0.3418  1.6306 -2.1704
 6204SOL    HW230075   2.387   0.038   5.467 -0.1579 -0.1171 -0.4284
 6205SOL     OW30076   1.868   3.108   8.136  0.0564  0.2994 -0.0587
 6205SOL    HW130077   1.920   3.028   8.128  1.1468  1.0156 -0.0753
 6205SOL    HW230078   1.789   3.085   8.087 -0.0029  1.5048 -0.5232
 6206SOL     OW30079   0.354   4.036   6.990  0.0013 -0.2060 -0.0413
 6206SOL    HW130080   0.441   4.066   6.966  0.1508 -0.7637 -0.1949
 6206SOL    HW230081   0.307   4.118   6.975 -0.0088 -0.3781 -0.9371
 6207SOL     OW30082   3.058   2.518  15.559 -0.2153 -0.5733 -0.5367
 6207SOL    HW130083   2.973   2.474  15.561 -1.5907  2.1619  1.7744
 6207SOL    HW230084   3.083   2.515  15.651  1.9021  0.0258 -1.0796
 6208SOL     OW30085   4.010   3.018   6.861  0.2677  0.3160  0.3376
 6208SOL    HW130086   4.096   2.978   6.874 -0.8578 -2.2187  0.0153
 6208SOL    HW230087   4.037   3.109   6.856  1.0520  0.0092 -0.8822
 6209SOL     OW30088   2.641   0.959  11.378  0.3847  0.1636  0.1694
 6209SOL    HW130089   2.686   0.881  11.346 -1.0314 -0.2732 -0.7588
 6209SOL    HW230090   2.690   0.980  11.457  1.7329  0.2028 -0.6855
 6210SOL     OW30091   3.587   0.508  11.107  0.7294  0.2114 -0.2227
 6210SOL    HW130092   3.519   0.441  11.106 -1.9662  2.8792  3.0520
 6210SOL    HW230093   3.567   0.556  11.187 -0.8564 -1.1691  0.2057
 6211SOL     OW30094   3.171   0.864   7.898 -0.0261  0.1793 -0.0615
 6211SOL    HW130095   3.148   0.933   7.835 -1.5807 -1.0905 -0.8690
 6211SOL    HW230096   3.143   0.788   7.848  0.1684 -0.7277  1.2186
 6212SOL     OW30097   0.498   3.988  14.312  0.0378 -0.4774 -0.2177
 6212SOL    HW130098   0.556   3.960  14.383  1.7470 -0.8197 -1.7577
 6212SOL    HW230099   0.566   4.018  14.253 -0.3361  2.0702  0.6568
 6213SOL     OW30100   4.107   1.165   5.819  0.0737  0.0809 -0.5515
 6213SOL    HW130101   4.048   1.209   5.758  1.5082  1.5336 -0.8951
 6213SOL    HW230102   4.042   1.131   5.881  0.7877 -0.0653  0.1169
 6214SOL     OW30103   0.597   1.637   5.693  0.1746  0.0088 -0.0639
 6214SOL    HW130104   0.586   1.550   5.654  1.2671  0.5098 -1.5153
 6214SOL    HW230105   0.503   1.654   5.701  0.2358  1.6030 -2.5634
 6215SOL     OW30106   3.013   2.438   4.660  0.5416  0.2824 -0.2831
 6215SOL    HW130107   3.108   2.430   4.650  0.4256  1.0306 -1.9268
 6215SOL    HW230108   2.984   2.485   4.582  1.0636  0.6376 -0.2656
 6216SOL     OW30109   3.477   1.373   9.998  0.6065 -0.3938 -0.0654
 6216SOL    HW130110   3.564   1.369   9.960  1.3161 -0.4453  1.5853
 6216SOL    HW230111   3.429   1.374   9.915  0.7180  2.5573 -0.1045
 6217SOL     OW30112   0.967   1.535   2.976 -0.0627  0.0300 -0.3462
 6217SOL    HW130113   1.032   1.475   2.939  0.5245  0.5643 -0.1728
 6217SOL    HW230114   0.925   1.554   2.892  0.6626 -0.3065 -0.7800
 6218SOL     OW30115   4.404   0.210   9.494 -0.0312 -0.0692  0.0702
 6218SOL    HW130116   4.419   0.247   9.407 -0.4323  0.3363  0.1658
 6218SOL    HW230117   4.403   0.115   9.484 -0.7194 -0.2362  1.7994
 6219SOL     OW30118   2.443   4.383   3.742  0.2223  0.3896 -0.5477
 6219SOL    HW130119   2.415   4.362   3.831  1.3448 -0.6190 -0.4227
 6219SOL    HW230120   2.517   4.437   3.770  0.0803  1.1369 -1.6044
 6220SOL     OW30121   0.554   0.588  15.095  0.2681  0.3944  0.1519
 6220SOL    HW130122   0.523   0.528  15.162  1.6036  0.9195  1.2374
 6220SOL    HW230123   0.486   0.575  15.029 -0.9371  0.9109  1.3047
 6221SOL     OW30124   1.816   3.790  10.967 -0.5373  0.7632  0.1478
 6221SOL    HW130125   1.864   3.784  10.884  0.3882  0.1733  0.7276
 6221SOL    HW230126   1.795   3.702  10.998 -1.2746  0.8476 -0.1265
 6222SOL     OW30127   0.722   0.279   0.370  0.3722 -0.0360 -0.1233
 6222SOL    HW130128   0.703   0.298   0.279  2.1354  0.3467 -0.4187
 6222SOL    HW230129   0.677   0.196   0.383 -0.5077  0.1323 -2.1584
 6223SOL     OW30130   4.237   4.666   6.073 -0.3670  0.2058  0.0100
 6223SOL    HW130131   4.207   4.661   5.982 -1.3026 -0.8901  0.3713
 6223SOL    HW230132   4.239   0.039   6.089  0.1586  0.1161  0.4796
 6224SOL     OW30133   3.837   1.034   3.520  0.3463 -0.4736 -0.5188
 6224SOL    HW130134   3.813   1.058   3.609  1.2250  1.0348 -0.6872
 6224SOL    HW230135   3.748   1.031   3.484 -0.2067  1.6756  0.6815
 6225SOL     OW30136   0.786   2.588   9.501  0.1377  0.0284 -0.3142
 6225SOL    HW130137   0.874   2.567   9.470 -0.4948 -2.6698 -0.2741
 6225SOL    HW230138   0.791   2.683   9.499  2.1741 -0.0679 -0.3781
 6226SOL     OW30139   2.775   4.588  12.911 -0.1958  0.1311 -0.0186
 6226SOL    HW130140   2.688   4.628  12.923 -0.3037  0.7603 -2.8379
 6226SOL    HW230141   2.826   4.626  12.983  0.3759 -2.4779  0.9718
 6227SOL     OW30142   3.603   1.955   4.321  0.5673 -0.9986  0.0825
 6227SOL    HW130143   3.552   1.960   4.402 -1.3594  0.5903 -1.2590
 6227SOL    HW230144   3.692   1.957   4.357  0.5228 -0.1809  0.1451
 6228SOL     OW30145   0.418   2.255  10.389 -0.4132 -0.3847 -0.6683
 6228SOL    HW130146   0.370   2.293  10.315 -0.6335 -0.0299 -0.3480
 6228SOL    HW230147   0.431   2.165  10.361 -1.5917 -0.7362 -0.0740
 6229SOL     OW30148   4.627   2.211   5.728  0.0246 -0.2064 -0.1877
 6229SOL    HW130149   4.654   2.170   5.810 -3.2304  1.7794  1.8826
 6229SOL    HW230150   4.701   2.267   5.706 -0.3615  0.2106 -0.4204
 6230SOL     OW30151   3.566   0.303   5.969  0.1239 -0.3284  0.2776
 6230SOL    HW130152   3.514   0.384   5.968 -1.2176 -1.1684  1.5170
 6230SOL    HW230153   3.652   0.334   5.941 -0.3924  1.1567  0.3528
 6231SOL     OW30154   1.877   1.019   8.076 -0.2576  0.2202 -0.1171
 6231SOL    HW130155   1.824   0.940   8.085 -1.4071  1.0760  0.5453
 6231SOL    HW230156   1.920   1.000   7.992  0.3830 -0.0367  0.2698
 6232SOL     OW30157   4.294   1.782  11.705 -0.6595  0.2756  0.3307
 6232SOL    HW130158   4.358   1.783  11.634  0.8328 -1.3875  1.6409
 6232SOL    HW230159   4.295   1.687  11.697  1.9908  0.2501  0.7386
 6233SOL     OW30160   2.880   3.618   3.804 -0.9403  0.5430  0.2734
 6233SOL    HW130161   2.811   3.676   3.770 -2.7120 -2.5695 -1.4122
 6233SOL    HW230162   2.841   3.531   3.796  1.0716 -0.5701  2.7363
 6234SOL     OW30163   2.546   0.842   2.427 -0.4064 -0.7922  0.1586
 6234SOL    HW130164   2.572   0.844   2.519  0.6111 -2.2241 -0.0982
 6234SOL    HW230165   2.627   0.799   2.397 -0.9166 -1.0812 -0.8049
 6235SOL     OW30166   2.125   3.648  11.095 -0.1717  1.3223  0.1376
 6235SOL    HW130167   2.104   3.591  11.021  0.1186 -0.7722  1.6791
 6235SOL    HW230168   2.046   3.640  11.148  0.3156  1.8811  0.9563
 6236SOL     OW30169   2.028   2.158   5.036 -0.1850  0.1746  0.4859
 6236SOL    HW130170   2.046   2.146   4.943 -1.1845  1.2732  0.1495
 6236SOL    HW230171   2.012   2.066   5.055  0.2903  0.2664  1.3485
 6237SOL     OW30172   4.244   4.243   0.728  0.0891  0.1108 -0.0390
 6237SOL    HW130173   4.268   4.170   0.671  4.1457 -0.7747  2.7561
 6237SOL    HW230174   4.260   4.310   0.663  0.0448 -1.3194 -1.5269
 6238SOL     OW30175   3.724   0.686  10.582  0.2156 -0.7611 -0.2550
 6238SOL    HW130176   3.804   0.731  10.608 -1.6742  1.7008  1.3643
 6238SOL    HW230177   3.690   0.652  10.665 -0.3683 -0.7535 -0.4863
 6239SOL     OW30178   2.755   2.559   9.147 -0.0585 -0.2699  0.5815
 6239SOL    HW130179   2.745   2.654   9.140 -1.2893 -0.2178  3.2481
 6239SOL    HW230180   2.738   2.551   9.241 -0.9434  0.8261  0.5183
 6240SOL     OW30181   1.473   0.191   7.360  0.3429 -0.3702  0.4276
 6240SOL    HW130182   1.384   0.191   7.324  0.5483  0.5917 -0.0795
 6240SOL    HW230183   1.517   0.270   7.329 -1.1793  0.1704 -0.3505
 6241SOL     OW30184   3.764   4.221  12.094  0.4173 -0.3538  0.9941
 6241SOL    HW130185   3.805   4.148  12.048  1.3931 -0.0843  1.4390
 6241SOL    HW230186   3.704   4.186  12.160 -1.9469  1.1247 -0.3244
 6242SOL     OW30187   4.163   1.597   7.197  0.1607  0.0928 -0.1878
 6242SOL    HW130188   4.252   1.562   7.185 -0.1966 -1.1050  0.7578
 6242SOL    HW230189   4.115   1.553   7.127 -1.2570  1.2902  0.0247
 6243SOL     OW30190   3.294   0.678   0.951  0.3050 -0.1048 -0.0688
 6243SOL    HW130191   3.306   0.736   0.875 -1.1571  0.0339 -0.1795
 6243SOL    HW230192   3.199   0.674   0.959  0.5012 -0.3591  2.1664
 6244SOL     OW30193   3.720   2.906  11.944  0.3218 -0.2077 -0.2067
 6244SOL    HW130194   3.808   2.871  11.932  0.2449 -0.5002  0.1078
 6244SOL    HW230195   3.712   2.957  11.863 -0.0235 -2.4036 -1.5551
 6245SOL     OW30196   4.277   3.259   4.344  0.1852 -0.2433  0.2523
 6245SOL    HW130197   4.322   3.336   4.309 -1.5648  0.9201  0.6138
 6245SOL    HW230198   4.199   3.242   4.291  1.2627 -4.2364 -0.0707
 6246SOL     OW30199   0.537   3.492   0.494 -0.3006 -0.0257 -0.3682
 6246SOL    HW130200   0.517   3.403   0.463 -1.3521  0.5551 -1.3791
 6246SOL    HW230201   0.500   3.492   0.582  1.1330 -1.0713  0.2255
 6247SOL     OW30202   1.440   1.583   9.534 -0.1794 -0.4770 -0.5632
 6247SOL    HW130203   1.475   1.517   9.475 -2.0830  0.8574 -3.1887
 6247SOL    HW230204   1.438   1.537   9.618  2.2256 -0.8193 -0.6931
 6248SOL     OW30205   0.918   3.711   8.708  0.0103  0.7229  0.1410
 6248SOL    HW130206   0.887   3.627   8.674  0.2293  0.1703  1.3176
 6248SOL    HW230207   0.896   3.689   8.798 -0.5237 -1.8853 -0.6330
 6249SOL     OW30208   0.946   4.654   6.820  0.5033 -0.2717 -0.3262
 6249SOL    HW130209   1.040   4.637   6.822  0.5875  0.1389 -0.6316
 6249SOL    HW230210   0.942   4.712   6.896  1.1743  0.5620 -0.9228
 6250SOL     OW30211   2.917   1.724   0.514  0.8192  0.1403 -0.2004
 6250SOL    HW130212   2.836   1.675   0.499 -1.7463  3.7879  1.6972
 6250SOL    HW230213   2.967   1.656   0.559  3.9586  1.0053 -2.3820
 6251SOL     OW30214   4.176   1.604  14.499  0.1316 -0.0463 -0.3171
 6251SOL    HW130215   4.095   1.575  14.458  0.3411  0.2668 -0.9668
 6251SOL    HW230216   4.156   1.624  14.590 -1.2783 -1.6291 -0.2799
 6252SOL     OW30217   4.035   1.370   5.207  0.1567 -0.0846 -0.0102
 6252SOL    HW130218   4.127   1.345   5.199  0.3008  0.8281 -1.3442
 6252SOL    HW230219   3.987   1.288   5.214  0.5816 -0.2306  1.1989
 6253SOL     OW30220   2.206   1.401   1.554  0.2109 -0.2409  0.4067
 6253SOL    HW130221   2.163   1.329   1.601  0.8011 -1.1285 -0.4163
 6253SOL    HW230222   2.139   1.469   1.544 -1.5278 -2.3059 -2.0282
 6254SOL     OW30223   4.374   2.528   2.583 -0.6162 -0.5687 -0.1991
 6254SOL    HW130224   4.279   2.520   2.593 -0.3978 -1.1958  1.3167
 6254SOL    HW230225   4.398   2.612   2.544  1.6196 -0.8934  0.4617
 6255SOL     OW30226   1.601   0.397   0.868  0.4788 -0.1925 -0.1450
 6255SOL    HW130227   1.566   0.480   0.902  1.3864 -0.1127  0.6274
 6255SOL    HW230228   1.654   0.368   0.943  2.0361  1.0345 -0.7563
 6256SOL     OW30229   2.657   1.330   3.965  0.0162 -0.6458  0.2566
 6256SOL    HW130230   2.570   1.360   3.992  0.5789 -1.5419  3.0040
 6256SOL    HW230231   2.661   1.346   3.870 -1.4499  0.0809  0.3175
 6257SOL     OW30232   4.395   0.344   2.036  0.8168  0.2354  0.0749
 6257SOL    HW130233   4.347   0.328   2.117  1.1306  0.0682  0.2242
 6257SOL    HW230234   4.341   0.417   2.004  0.9263  0.7047  0.9456
 6258SOL     OW30235   1.480   0.562   7.040  0.5269  0.2259 -0.7197
 6258SOL    HW130236   1.510   0.634   6.985  0.4493  0.8703  0.0792
 6258SOL    HW230237   1.410   0.614   7.080  1.3510  1.6844 -1.1782
 6259SOL     OW30238   0.870   4.181  12.669 -0.4027  0.2122  0.2877
 6259SOL    HW130239   0.873   4.196  12.575 -1.9405  0.8547  0.3463
 6259SOL    HW230240   0.898   4.089  12.670 -0.3655  0.2161 -0.1716
 6260SOL     OW30241   2.373   3.961   3.170 -0.4301 -0.2179  0.4267
 6260SOL    HW130242   2.463   3.948   3.140 -0.0922 -0.4344  1.5319
 6260SOL    HW230243   2.350   3.873   3.201 -1.3925  0.0838  0.5684
 6261SOL     OW30244   1.029   2.950   9.649 -0.9362  0.5188 -0.2574
 6261SOL    HW130245   1.102   3.007   9.625 -1.4267  2.2730  2.3396
 6261SOL    HW230246   1.036   2.935   9.744 -0.5755 -0.6556 -0.4608
 6262SOL     OW30247   3.449   4.546   9.816  0.3052 -0.0301  0.1737
 6262SOL    HW130248   3.408   4.585   9.894  2.4241  0.6968  0.9248
 6262SOL    HW230249   3.426   4.456   9.839  0.5921  0.3556  1.9980
 6263SOL     OW30250   1.504   4.588   7.809  0.1205  0.2842 -0.2493
 6263SOL    HW130251   1.526   4.533   7.885 -2.1145 -0.8798 -0.4713
 6263SOL    HW230252   1.417   4.552   7.795  0.4803 -1.1068  1.0018
 6264SOL     OW30253   2.723   3.302  15.302  0.3177 -0.0475  0.4469
 6264SOL    HW130254   2.757   3.285  15.390 -0.2979 -0.2292  0.6479
 6264SOL    HW230255   2.801   3.296  15.247 -2.1484 -1.1087 -2.9254
 6265SOL     OW30256   0.556   2.209  14.071 -0.5310 -0.5369 -0.6600
 6265SOL    HW130257   0.546   2.148  14.144  0.8037  1.9114  1.5796
 6265SOL    HW230258   0.476   2.260  14.076  0.3981  0.9506 -0.8766
 6266SOL     OW30259   4.366   3.538   8.002 -0.6081  0.0446  0.0955
 6266SOL    HW130260   4.302   3.558   8.071 -0.6370  0.9226 -0.1831
 6266SOL    HW230261   4.441   3.526   8.061 -0.2571 -1.0206 -0.5853
 6267SOL     OW30262   1.512   3.849   4.745  0.3020  0.0228 -0.1253
 6267SOL    HW130263   1.492   3.786   4.814 -0.2947 -1.6477 -1.8248
 6267SOL    HW230264   1.606   3.852   4.763  0.5438  1.1702 -1.5291
 6268SOL     OW30265   4.188   1.837   5.450  0.1236 -0.4188 -0.6453
 6268SOL    HW130266   4.109   1.830   5.505 -1.0045  1.8100 -1.9828
 6268SOL    HW230267   4.228   1.922   5.470  1.0568 -1.2982  1.2321
 6269SOL     OW30268   2.613   1.987   0.842 -0.3657 -0.9149 -0.4413
 6269SOL    HW130269   2.529   1.982   0.796 -1.4689 -0.1794  1.5102
 6269SOL    HW230270   2.626   1.893   0.853 -0.2899 -0.5845  2.2002
 6270SOL     OW30271   0.886   3.243  17.575 -1.1270  0.0581 -0.0389
 6270SOL    HW130272   0.900   3.169  17.634 -0.5428  0.3579  0.1986
 6270SOL    HW230273   0.842   3.304  17.633 -0.9650  0.5452 -0.4250
 6271SOL     OW30274   2.168   0.894   2.788 -0.2768  0.1195 -0.0124
 6271SOL    HW130275   2.186   0.970   2.844  0.4954  1.7975 -2.5166
 6271SOL    HW230276   2.253   0.851   2.783 -0.0326  0.5842  0.1625
 6272SOL     OW30277   4.557   4.153  11.002  0.2785  0.0796  0.1594
 6272SOL    HW130278   4.548   4.067  11.041  0.7896  1.3177  3.0215
 6272SOL    HW230279   4.488   4.195  11.053  2.4211 -0.0966  3.2150
 6273SOL     OW30280   3.460   2.745   8.730  0.3507  0.0137 -0.4299
 6273SOL    HW130281   3.554   2.736   8.713  0.2914  0.8198 -1.2033
 6273SOL    HW230282   3.446   2.839   8.724 -2.1028 -0.4436 -2.0703
 6274SOL     OW30283   3.515   1.158   4.500  0.2182 -0.0834 -0.4211
 6274SOL    HW130284   3.508   1.068   4.534 -1.5721  0.6339  1.1213
 6274SOL    HW230285   3.587   1.187   4.556  0.6955 -0.6892 -0.7180
 6275SOL     OW30286   2.556   1.525   7.307 -0.1326  0.3964  0.2323
 6275SOL    HW130287   2.542   1.529   7.213  1.5658  1.9582  0.0486
 6275SOL    HW230288   2.464   1.513   7.329 -0.4011  2.0904  0.0358
 6276SOL     OW30289   3.141   2.144   8.143 -0.0325  0.2441  0.5724
 6276SOL    HW130290   3.150   2.185   8.229  1.5861 -1.7272  1.3542
 6276SOL    HW230291   3.230   2.154   8.108 -0.3383 -0.4836 -0.4246
 6277SOL     OW30292   1.541   1.605  14.113 -0.2204 -0.2671 -1.2279
 6277SOL    HW130293   1.630   1.601  14.080 -0.7658 -0.2264 -2.7178
 6277SOL    HW230294   1.493   1.663  14.053  0.9639 -0.0557 -1.9570
 6278SOL     OW30295   2.593   1.809   4.159 -0.3367  0.7401  0.1917
 6278SOL    HW130296   2.677   1.765   4.172  1.2116  4.1185  1.7216
 6278SOL    HW230297   2.538   1.737   4.190  0.6729  0.7906  2.0969
 6279SOL     OW30298   3.298   0.463   8.536  0.0259  0.0550 -0.9556
 6279SOL    HW130299   3.309   0.396   8.603 -2.6978 -1.4944 -2.0686
 6279SOL    HW230300   3.255   0.539   8.575  1.9443  0.3193  0.6429
 6280SOL     OW30301   3.512   4.510   5.562 -0.0067 -0.8531  0.1927
 6280SOL    HW130302   3.584   4.459   5.524 -0.4625  0.5072 -2.5085
 6280SOL    HW230303   3.430   4.462   5.547 -1.9274  1.7063  2.6498
 6281SOL     OW30304   3.233   1.167   8.784  0.1201 -0.2473 -0.0855
 6281SOL    HW130305   3.317   1.211   8.798 -0.0914  0.1144  0.0543
 6281SOL    HW230306   3.174   1.241   8.800  0.5165  0.3400 -1.3529
 6282SOL     OW30307   2.319   3.776  10.912  0.4480  0.1720  0.1447
 6282SOL    HW130308   2.380   3.830  10.962 -0.2983  1.2238 -0.0727
 6282SOL    HW230309   2.289   3.726  10.988  2.6921 -2.2860 -0.6006
 6283SOL     OW30310   1.493   2.248   5.854  0.2426  0.3538 -0.3973
 6283SOL    HW130311   1.470   2.283   5.940  2.5660  0.6094  0.1187
 6283SOL    HW230312   1.474   2.156   5.872 -0.8007  0.1727 -2.5236
 6284SOL     OW30313   1.893   4.240   8.859 -0.4972 -0.5551 -0.0957
 6284SOL    HW130314   1.906   4.210   8.949 -1.9519  1.5329  0.8252
 6284SOL    HW230315   1.983   4.256   8.832 -1.0745  2.7612 -0.1485
 6285SOL     OW30316   3.910   3.385   3.350 -0.3285 -0.0492  0.2850
 6285SOL    HW130317   3.955   3.342   3.277  1.9704  0.5295  1.3618
 6285SOL    HW230318   3.924   3.476   3.325 -4.3808  0.6921  0.6933
 6286SOL     OW30319   0.119   0.938   4.302 -0.3222  0.0815  0.0150
 6286SOL    HW130320   0.204   0.905   4.274 -0.6601 -0.4001 -0.4533
 6286SOL    HW230321   0.146   1.026   4.328 -0.0802  0.1568 -0.4927
 6287SOL     OW30322   2.092   1.149   3.666  0.8429  0.6132  0.5147
 6287SOL    HW130323   2.123   1.229   3.708 -0.0536  0.5465  1.2852
 6287SOL    HW230324   2.170   1.093   3.666  1.1876  1.0892  1.0766
 6288SOL     OW30325   0.775   2.907   4.606 -0.1170 -0.2514  0.5534
 6288SOL    HW130326   0.713   2.932   4.537 -0.5511 -1.0758  0.6408
 6288SOL    HW230327   0.849   2.879   4.551  0.1308  2.0559 -0.3087
 6289SOL     OW30328   3.733   4.488   6.575  0.5914 -0.5881  0.7565
 6289SOL    HW130329   3.736   4.580   6.599  1.1803 -0.4571  0.1750
 6289SOL    HW230330   3.825   4.465   6.588  0.5367 -1.2995 -0.0777
 6290SOL     OW30331   0.518   4.095   8.822  0.1168  0.3278  0.4339
 6290SOL    HW130332   0.573   4.113   8.746 -0.6012 -1.9844 -0.6294
 6290SOL    HW230333   0.427   4.102   8.793 -0.0777  1.7555  1.3751
 6291SOL     OW30334   3.437   1.556   6.764  0.1425  1.0225 -0.0646
 6291SOL    HW130335   3.360   1.599   6.729  0.5533  1.1063 -0.8675
 6291SOL    HW230336   3.448   1.467   6.730 -1.2429  0.4158  1.0716
 6292SOL     OW30337   1.519   0.033   1.177  0.0985 -0.2398 -0.3328
 6292SOL    HW130338   1.427   0.017   1.154  0.1748 -1.5237  0.2639
 6292SOL    HW230339   1.556   4.670   1.150  1.5389  0.2547  0.1589
 6293SOL     OW30340   3.859   0.919  17.578  0.2982 -0.1621 -0.2084
 6293SOL    HW130341   3.914   0.966  17.641  0.4470  2.0439 -1.9987
 6293SOL    HW230342   3.803   0.860  17.629 -0.7976 -0.8544 -2.2340
 6294SOL     OW30343   0.194   1.542   8.093  0.0368  0.0698 -0.1916
 6294SOL    HW130344   0.115   1.494   8.070  1.5051 -1.1074 -2.7339
 6294SOL    HW230345   0.233   1.549   8.006  2.2696 -0.2223  0.8066
 6295SOL     OW30346   0.562   4.535  15.070  0.1718 -0.6255  0.4945
 6295SOL    HW130347   0.564   4.628  15.090 -0.2398  0.0483 -2.4751
 6295SOL    HW230348   0.567   4.492  15.155  1.4053  0.6085  1.0474
 6296SOL     OW30349   0.363   0.439   4.475  0.0446  0.1605 -0.0051
 6296SOL    HW130350   0.298   0.394   4.421 -0.9682 -1.1324  2.2794
 6296SOL    HW230351   0.333   0.530   4.467 -1.3542 -0.2088  1.0034
 6297SOL     OW30352   3.404   3.329   8.982  0.0371 -0.0370 -0.2158
 6297SOL    HW130353   3.463   3.377   9.040  1.9718 -1.0242 -1.3622
 6297SOL    HW230354   3.434   3.354   8.895 -0.9817 -1.8137 -1.0765
 6298SOL     OW30355   3.097   3.410   0.961  0.2669 -0.1709 -0.1862
 6298SOL    HW130356   3.056   3.325   0.974 -0.8547  0.1430 -1.6836
 6298SOL    HW230357   3.012   3.456   0.954  0.0050 -0.8217 -1.2691
 6299SOL     OW30358   0.104   1.614   9.038  0.2553 -0.2590  0.2446
 6299SOL    HW130359   0.075   1.646   9.124 -0.9146 -0.1343 -0.1991
 6299SOL    HW230360   0.027   1.568   9.004 -0.8376  1.6228  0.1765
 6300SOL     OW30361   4.290   3.246   0.677  0.5360  0.7488 -0.0044
 6300SOL    HW130362   4.251   3.325   0.713  1.1706  0.4815  1.3105
 6300SOL    HW230363   4.345   3.222   0.752  1.0819  0.2526 -0.5572
 6301SOL     OW30364   0.341   2.894  15.990  0.1077  0.6984 -0.0151
 6301SOL    HW130365   0.389   2.940  15.921  1.5496  0.2240  0.6778
 6301SOL    HW230366   0.319   2.808  15.952  0.8225  0.9400 -0.9832
 6302SOL     OW30367   2.192   4.257   8.762  0.4739 -0.1012 -0.8669
 6302SOL    HW130368   2.259   4.189   8.770  0.4786 -0.0044 -0.1113
 6302SOL    HW230369   2.186   4.278   8.669 -0.2467 -1.0383 -1.0319
 6303SOL     OW30370   3.652   0.208   7.722 -0.0173 -0.1332 -0.2776
 6303SOL    HW130371   3.724   0.265   7.748  1.1829 -2.0104  0.5291
 6303SOL    HW230372   3.682   0.130   7.675 -0.8499 -0.9145  0.4910
 6304SOL     OW30373   0.952   2.502  13.861 -0.0158 -0.2960 -0.6618
 6304SOL    HW130374   0.945   2.544  13.946 -2.4981 -2.3180  0.1573
 6304SOL    HW230375   1.045   2.480  13.865  0.0403 -0.5220 -3.4802
 6305SOL     OW30376   1.808   4.520  16.824  0.3297  0.1815  0.6661
 6305SOL    HW130377   1.746   4.550  16.889  1.9226  1.6984  1.4824
 6305SOL    HW230378   1.894   4.534  16.863  0.0899 -1.3972  1.7765
 6306SOL     OW30379   3.509   4.657   4.209  0.3050 -0.5314  0.5862
 6306SOL    HW130380   3.495   4.584   4.270 -1.3734  0.1757  1.0455
 6306SOL    HW230381   3.576   4.711   4.251 -0.5526 -0.5799  2.0316
 6307SOL     OW30382   2.144   1.474   5.045 -0.1165  0.0686  1.0489
 6307SOL    HW130383   2.080   1.481   4.974  1.5795  1.0077 -0.3793
 6307SOL    HW230384   2.220   1.456   4.990 -0.1292 -0.9331  1.3535
 6308SOL     OW30385   2.470   0.479   5.039 -0.1958  0.0371 -0.4099
 6308SOL    HW130386   2.531   0.438   4.978 -1.2839  1.5566 -2.5180
 6308SOL    HW230387   2.407   0.408   5.050  0.1502 -0.5228 -2.0525
 6309SOL     OW30388   4.411   3.135  13.766 -0.3672  0.3639 -0.2209
 6309SOL    HW130389   4.403   3.098  13.679 -0.5362  1.5239 -0.6941
 6309SOL    HW230390   4.331   3.102  13.807 -0.9410  2.1015  0.0332
 6310SOL     OW30391   2.422   4.670  17.324  0.3437  0.3850  0.1268
 6310SOL    HW130392   2.437   4.575  17.329 -2.6351  0.0080  1.9646
 6310SOL    HW230393   2.437   4.702  17.413 -1.6716  0.3113  0.4821
 6311SOL     OW30394   0.124   4.428   9.988 -0.0389  0.0517 -0.0616
 6311SOL    HW130395   0.064   4.355   9.974 -1.2123  1.1641 -0.8534
 6311SOL    HW230396   0.103   4.455  10.078  1.8847 -0.6286  0.5890
 6312SOL     OW30397   4.675   1.777  10.710 -0.3376 -0.4173  0.0590
 6312SOL    HW130398   4.639   1.705  10.659  0.7232 -1.6804  1.1055
 6312SOL    HW230399   4.702   1.720  10.782  1.0287  0.5896  0.3528
 6313SOL     OW30400   1.162   1.342   8.828 -0.0468 -0.6623  0.3844
 6313SOL    HW130401   1.091   1.297   8.874 -1.4769 -0.6974 -1.8464
 6313SOL    HW230402   1.171   1.414   8.890  1.8855 -1.2347  0.7698
 6314SOL     OW30403   2.710   1.019   6.869  0.1534 -0.5732  0.0098
 6314SOL    HW130404   2.704   1.049   6.778  2.4730  0.2858  0.1343
 6314SOL    HW230405   2.738   0.929   6.856 -2.4964 -1.5153  0.8047
 6315SOL     OW30406   4.084   0.910   7.340 -0.1286  0.0852 -0.3289
 6315SOL    HW130407   4.006   0.858   7.323  0.1999 -0.2363 -0.8433
 6315SOL    HW230408   4.118   0.867   7.418  0.4336 -2.4423 -1.9765
 6316SOL     OW30409   1.455   0.414   2.054 -0.2170  0.2292 -1.2959
 6316SOL    HW130410   1.389   0.366   2.103  2.1919  0.0076  1.7025
 6316SOL    HW230411   1.484   0.472   2.124 -0.8389 -0.8416 -0.1526
 6317SOL     OW30412   3.386   1.550   7.312  1.0274  0.7546  0.1822
 6317SOL    HW130413   3.351   1.527   7.226  1.2456 -0.5387  0.4321
 6317SOL    HW230414   3.302   1.568   7.354  0.0412 -1.3949 -0.8415
 6318SOL     OW30415   2.132   3.391   1.230 -0.5867  0.3811  0.8229
 6318SOL    HW130416   2.153   3.387   1.137 -1.1629 -1.5825  0.7737
 6318SOL    HW230417   2.043   3.426   1.224 -0.1975  1.0900 -0.6829
 6319SOL     OW30418   0.794   3.689  11.647  0.3502 -0.1086  0.4667
 6319SOL    HW130419   0.852   3.750  11.602 -0.9128  2.4265  2.2602
 6319SOL    HW230420   0.796   3.625  11.576 -2.2901 -2.3608  2.4238
 6320SOL     OW30421   0.699   2.432  12.087  0.5939  0.2059  0.3191
 6320SOL    HW130422   0.772   2.488  12.059  1.7462 -1.7666 -0.6207
 6320SOL    HW230423   0.669   2.394  12.005  2.3049  0.2593 -0.3418
 6321SOL     OW30424   2.559   4.374   1.073  0.3072  0.0092  0.3909
 6321SOL    HW130425   2.512   4.309   1.020  2.0058 -1.1446  0.3305
 6321SOL    HW230426   2.634   4.397   1.019  1.6926 -0.5396  2.0788
 6322SOL     OW30427   2.587   4.670  16.711  0.0612  0.1588  0.4716
 6322SOL    HW130428   2.663   4.612  16.721 -0.3986 -0.2246  1.7882
 6322SOL    HW230429   2.621   0.030  16.749  0.0417  1.4591 -2.2562
 6323SOL     OW30430   2.831   1.352   3.596  0.0760 -0.2173 -0.3180
 6323SOL    HW130431   2.897   1.297   3.553  0.4607 -1.1553  1.4576
 6323SOL    HW230432   2.866   1.440   3.586  2.9983 -0.8946  3.5242
 6324SOL     OW30433   3.853   3.248   7.105  0.1893 -0.3846 -0.1662
 6324SOL    HW130434   3.863   3.290   7.020  1.1563 -0.1218  0.0715
 6324SOL    HW230435   3.942   3.232   7.137 -0.8254  0.2616  3.0062
 6325SOL     OW30436   2.456   1.554  11.003  0.1111  0.0964  0.1684
 6325SOL    HW130437   2.414   1.540  11.087 -0.9458 -1.3856 -0.6111
 6325SOL    HW230438   2.413   1.487  10.950 -1.2062 -0.5729  2.0808
 6326SOL     OW30439   0.493   3.820  16.860 -0.0028  0.1293 -0.3877
 6326SOL    HW130440   0.415   3.764  16.857  0.4031 -0.6538  2.6548
 6326SOL    HW230441   0.462   3.884  16.925  1.0689 -0.4418  0.6994
 6327SOL     OW30442   2.001   1.846  10.024 -0.2469  0.0908 -0.8997
 6327SOL    HW130443   2.028   1.861  10.114 -1.3109  1.3171 -0.7754
 6327SOL    HW230444   1.918   1.893  10.032 -0.0874  0.1261  0.4422
 6328SOL     OW30445   4.114   3.657   8.106  0.4567 -0.0287  0.2512
 6328SOL    HW130446   4.067   3.624   8.029  0.3093  1.1809 -0.1661
 6328SOL    HW230447   4.117   3.577   8.159  0.8022  1.3728  2.3593
 6329SOL     OW30448   0.714   1.180  17.298  0.5804 -0.0589 -0.0409
 6329SOL    HW130449   0.636   1.143  17.258  1.5770 -0.3954 -1.6803
 6329SOL    HW230450   0.751   1.105  17.345  1.2758 -0.5493 -1.3876
 6330SOL     OW30451   2.844   0.139  13.716 -0.3742 -0.0548  0.0611
 6330SOL    HW130452   2.935   0.113  13.727  0.0853  0.7147 -1.9873
 6330SOL    HW230453   2.805   0.143  13.804 -0.8950 -0.9638 -0.1253
 6331SOL     OW30454   4.227   2.322  17.591 -0.2492 -0.2291  0.1676
 6331SOL    HW130455   4.284   2.245  17.593  2.5700  1.8245 -1.3960
 6331SOL    HW230456   4.215   2.331  17.496 -1.4278 -3.8083 -0.0225
 6332SOL     OW30457   0.089   3.586   0.980 -0.2334 -0.0530 -0.7288
 6332SOL    HW130458   0.170   3.592   1.031 -0.6172  1.9249 -0.3801
 6332SOL    HW230459   0.130   3.611   0.898 -1.2308 -2.2904 -1.9167
 6333SOL     OW30460   2.907   0.681   2.899 -0.2521 -0.0288 -0.2275
 6333SOL    HW130461   2.959   0.607   2.869  1.9663  2.1676 -1.8053
 6333SOL    HW230462   2.833   0.660   2.842  0.6713 -0.7134 -1.1551
 6334SOL     OW30463   2.319   1.248   0.019  0.3802 -0.0660  0.0268
 6334SOL    HW130464   2.393   1.295  17.667  0.7594  0.4574  1.4275
 6334SOL    HW230465   2.350   1.157   0.016 -0.8776 -0.4165 -2.3586
 6335SOL     OW30466   0.303   4.514   8.088  0.0089  0.5600 -0.2796
 6335SOL    HW130467   0.287   4.583   8.023  0.3497 -0.0800 -1.0453
 6335SOL    HW230468   0.252   4.547   8.162  1.8484  0.6538  0.9378
 6336SOL     OW30469   2.595   0.289  16.364 -0.4112 -0.6292  0.0969
 6336SOL    HW130470   2.532   0.256  16.299 -1.2221  0.0516  0.5462
 6336SOL    HW230471   2.559   0.259  16.447  1.3365 -2.1905  0.2986
 6337SOL     OW30472   0.227   2.850   2.200  0.0158 -0.0492 -0.5153
 6337SOL    HW130473   0.161   2.898   2.250  0.0298  1.8778 -2.3457
 6337SOL    HW230474   0.204   2.864   2.108  0.5448  2.1778 -0.3131
 6338SOL     OW30475   1.719   1.837  15.492  0.4248 -0.2457 -0.3624
 6338SOL    HW130476   1.800   1.873  15.529 -0.2281 -1.4067  2.2152
 6338SOL    HW230477   1.706   1.770  15.559 -0.4253  1.2398  0.9687
 6339SOL     OW30478   0.487   1.772   9.930  0.7930  0.5596  0.4300
 6339SOL    HW130479   0.549   1.829   9.885  0.7821 -1.2508 -1.8989
 6339SOL    HW230480   0.543   1.728   9.995 -0.8955 -2.3144 -0.0360
 6340SOL     OW30481   0.378   1.532   9.038 -0.3398  0.3590  0.4965
 6340SOL    HW130482   0.381   1.522   8.943  0.0607  0.7610  0.4653
 6340SOL    HW230483   0.284   1.546   9.043 -0.2647  1.0315  0.0403
 6341SOL     OW30484   2.437   1.883   1.923  0.3121 -0.2102 -0.4425
 6341SOL    HW130485   2.446   1.788   1.927 -0.9073 -0.2875  0.4725
 6341SOL    HW230486   2.503   1.899   1.856  2.0681 -1.0117  1.0935
 6342SOL     OW30487   2.898   0.017   5.958 -0.2240  0.0136 -0.2897
 6342SOL    HW130488   2.980   0.015   6.007 -0.7394 -1.9694  0.4866
 6342SOL    HW230489   2.842   0.078   6.005  0.2035  0.2239 -0.0610
 6343SOL     OW30490   3.826   3.084   5.427  0.1975 -0.0976 -0.4545
 6343SOL    HW130491   3.830   3.032   5.507 -1.2953 -0.7595 -0.8149
 6343SOL    HW230492   3.898   3.146   5.436  0.1200 -0.3668  1.8165
 6344SOL     OW30493   4.196   4.418   1.811  0.1535  0.4302  0.5570
 6344SOL    HW130494   4.260   4.409   1.741 -1.7632  1.6685 -1.3835
 6344SOL    HW230495   4.148   4.338   1.789 -0.4609  1.4431 -1.8513
 6345SOL     OW30496   0.313   4.262   5.142  0.0203 -0.3388 -1.0617
 6345SOL    HW130497   0.363   4.207   5.203  1.3364  1.4628 -0.5384
 6345SOL    HW230498   0.226   4.274   5.182  0.6434  1.9786 -0.4037
 6346SOL     OW30499   4.497   3.591  13.050 -0.1198  0.2382 -0.0033
 6346SOL    HW130500   4.459   3.678  13.062 -0.9532 -0.1156 -0.0708
 6346SOL    HW230501   4.420   3.544  13.018 -2.9584  3.7643  1.6284
 6347SOL     OW30502   3.972   2.156   3.597 -0.2887  0.1845 -0.2082
 6347SOL    HW130503   4.000   2.071   3.630  0.4186  0.3776 -0.3138
 6347SOL    HW230504   4.047   2.186   3.546  0.4987  0.0810  0.8861
 6348SOL     OW30505   2.281   4.403   5.845 -0.0391 -0.2948 -0.2531
 6348SOL    HW130506   2.363   4.355   5.830 -0.1976 -0.2326 -1.3295
 6348SOL    HW230507   2.256   4.357   5.925  0.4524  0.0371  0.0901
 6349SOL     OW30508   2.215   1.866  16.932  0.3625  0.2838  0.2214
 6349SOL    HW130509   2.232   1.808  16.858  0.2603 -0.5385  0.8423
 6349SOL    HW230510   2.150   1.813  16.978 -0.6863  2.3142  1.0794
 6350SOL     OW30511   0.645   1.363   7.366  0.3000 -0.0787  0.2139
 6350SOL    HW130512   0.693   1.295   7.319 -0.3287 -0.0241 -0.5031
 6350SOL    HW230513   0.554   1.334   7.371  0.7751 -1.5317  0.6207
 6351SOL     OW30514   2.321   0.478   0.674  0.6875  0.0027 -0.1884
 6351SOL    HW130515   2.268   0.533   0.616 -1.5369 -2.3839 -0.4232
 6351SOL    HW230516   2.253   0.435   0.726  1.5358  1.3457  2.0442
 6352SOL     OW30517   1.441   2.188   8.495  0.3971  0.5686  0.9002
 6352SOL    HW130518   1.362   2.220   8.450  1.8208  0.4178 -1.7070
 6352SOL    HW230519   1.428   2.095   8.477  0.1266  0.5488  1.1956
 6353SOL     OW30520   2.214   4.018   6.601  0.0838  0.2801  0.5743
 6353SOL    HW130521   2.253   3.978   6.679  0.7989  2.6124  1.4178
 6353SOL    HW230522   2.132   4.049   6.640  0.7570 -0.9337  2.9893
 6354SOL     OW30523   3.645   1.050  12.117  0.2423  0.4450 -0.4444
 6354SOL    HW130524   3.658   1.142  12.141  0.0161 -0.0009  1.3754
 6354SOL    HW230525   3.671   1.051  12.025 -1.0581  1.0009 -0.8066
 6355SOL     OW30526   3.688   2.793   5.886  0.1646 -0.9464  0.3371
 6355SOL    HW130527   3.782   2.789   5.903 -0.1081  1.3235  2.3672
 6355SOL    HW230528   3.670   2.716   5.940 -1.6962 -0.1288  0.8631
 6356SOL     OW30529   3.561   4.230  11.164  0.5850  0.0435 -0.2372
 6356SOL    HW130530   3.532   4.277  11.086  0.3330 -1.5462 -1.1084
 6356SOL    HW230531   3.651   4.253  11.139 -0.2050 -1.2351 -4.3253
 6357SOL     OW30532   1.904   2.377   3.400 -0.3787 -0.2152  0.3133
 6357SOL    HW130533   1.913   2.294   3.353  0.6409  0.0760 -0.0185
 6357SOL    HW230534   1.996   2.395   3.420 -0.2919 -1.6527  1.2185
 6358SOL     OW30535   2.757   2.719   4.903  0.2902  0.4654 -0.3485
 6358SOL    HW130536   2.716   2.672   4.831 -1.8183  1.6796  0.0395
 6358SOL    HW230537   2.692   2.790   4.903 -0.2815 -0.0673  1.3053
 6359SOL     OW30538   4.200   4.481  16.244 -0.4871 -0.4752 -0.6144
 6359SOL    HW130539   4.283   4.433  16.246 -0.8673 -1.1190 -0.0073
 6359SOL    HW230540   4.214   4.531  16.324  0.5324 -1.5497 -0.1105
 6360SOL     OW30541   1.798   3.758  15.283 -0.3618  0.4563  0.5937
 6360SOL    HW130542   1.816   3.709  15.363 -3.8472 -0.9058  0.5705
 6360SOL    HW230543   1.882   3.750  15.239  0.0928  1.0528  1.3572
 6361SOL     OW30544   1.551   4.225  16.717  0.4267  0.0585  0.0555
 6361SOL    HW130545   1.600   4.227  16.799  0.3556  0.3242  0.0926
 6361SOL    HW230546   1.496   4.150  16.740 -0.4498  0.4608 -0.7268
 6362SOL     OW30547   1.676   1.898  13.363 -0.4164  0.2483 -0.4992
 6362SOL    HW130548   1.604   1.875  13.422 -0.9752 -0.5831 -1.5076
 6362SOL    HW230549   1.661   1.991  13.346  1.7361  0.9359  1.4531
 6363SOL     OW30550   4.186   2.882   0.452  0.6945 -0.0984  0.0777
 6363SOL    HW130551   4.157   2.868   0.361 -1.2480 -2.1708  1.0091
 6363SOL    HW230552   4.260   2.940   0.434  0.3963  0.3737  0.3854
 6364SOL     OW30553   1.610   0.408   7.228 -0.6677 -0.1645 -0.2708
 6364SOL    HW130554   1.666   0.482   7.250 -0.4388 -0.5444  0.4275
 6364SOL    HW230555   1.561   0.444   7.153 -0.7611  1.9927  0.8363
 6365SOL     OW30556   1.697   3.685  13.396  0.0940  0.1348  0.0188
 6365SOL    HW130557   1.628   3.662  13.334  0.9761  0.2552 -1.0004
 6365SOL    HW230558   1.772   3.703  13.340 -1.9631 -0.1382 -2.8573
 6366SOL     OW30559   1.928   2.102   4.606 -0.2016 -0.0502 -0.5937
 6366SOL    HW130560   2.015   2.113   4.644 -0.4890  0.0914  0.0154
 6366SOL    HW230561   1.888   2.074   4.688  1.9867 -0.8914  0.2051
 6367SOL     OW30562   0.321   3.546   8.074 -0.2170 -0.4642  0.4876
 6367SOL    HW130563   0.357   3.625   8.114  0.1534 -1.2291  1.6904
 6367SOL    HW230564   0.280   3.568   7.991  1.2343  0.2121 -0.0431
 6368SOL     OW30565   2.244   2.588   0.762  0.0624  0.0857 -0.1071
 6368SOL    HW130566   2.289   2.661   0.718 -0.3944  0.1171 -0.5179
 6368SOL    HW230567   2.277   2.516   0.708 -1.1546 -0.0993 -0.6083
 6369SOL     OW30568   2.102   0.370   9.313 -0.3955 -0.7442 -0.7761
 6369SOL    HW130569   2.094   0.466   9.315  0.9742 -0.6488  0.3800
 6369SOL    HW230570   2.149   0.367   9.396 -1.6079  0.6835 -0.0321
 6370SOL     OW30571   1.849   2.659   2.983 -0.2642 -0.0510 -0.8764
 6370SOL    HW130572   1.847   2.748   2.947  0.4875 -0.3003 -1.5317
 6370SOL    HW230573   1.796   2.660   3.063 -1.1027 -1.5633 -1.3980
 6371SOL     OW30574   2.769   1.819  16.730  0.6630  0.1713 -0.0081
 6371SOL    HW130575   2.844   1.848  16.782  1.6313 -0.6663 -0.9516
 6371SOL    HW230576   2.697   1.851  16.785 -0.0743 -1.4260 -0.0238
 6372SOL     OW30577   0.255   2.450   5.314  0.4632  0.9917 -0.1440
 6372SOL    HW130578   0.318   2.393   5.359  0.0899  0.7154  0.0233
 6372SOL    HW230579   0.262   2.529   5.367 -0.3071 -0.4361  2.0650
 6373SOL     OW30580   2.731   0.438   5.486 -0.2138 -0.4486 -0.1254
 6373SOL    HW130581   2.778   0.485   5.417  0.6865 -0.3360  0.5593
 6373SOL    HW230582   2.662   0.395   5.437  1.2514  0.5026 -3.0298
 6374SOL     OW30583   4.188   0.070  16.663 -0.0029  0.6062  0.6856
 6374SOL    HW130584   4.224   0.140  16.716  4.0945 -1.4170  0.5742
 6374SOL    HW230585   4.109   0.117  16.636  0.5987  1.0699 -0.2532
 6375SOL     OW30586   2.558   0.670   1.539  0.1502  0.2980 -0.5746
 6375SOL    HW130587   2.549   0.579   1.510  0.0242 -0.3673  1.4817
 6375SOL    HW230588   2.653   0.678   1.537 -0.1408  3.5065 -1.0376
 6376SOL     OW30589   0.904   3.060   1.541 -0.2466  0.4862 -0.0635
 6376SOL    HW130590   0.878   3.081   1.631  0.6019 -1.5597  0.6562
 6376SOL    HW230591   0.979   3.005   1.563 -1.1582 -0.9902 -0.6445
 6377SOL     OW30592   2.046   4.283  14.148  0.2860 -0.1141  0.4862
 6377SOL    HW130593   2.057   4.329  14.232 -1.2035  1.3635 -0.1348
 6377SOL    HW230594   1.957   4.250  14.159  0.6607 -0.2109  3.3898
 6378SOL     OW30595   4.529   3.980   7.326  0.6329 -0.0544 -0.0683
 6378SOL    HW130596   4.531   4.074   7.307  0.3126  0.1123  0.7409
 6378SOL    HW230597   4.622   3.962   7.339 -0.0620 -2.5586  1.3570
 6379SOL     OW30598   1.300   1.444   1.998  0.3927 -0.2137  0.1191
 6379SOL    HW130599   1.379   1.462   2.050  0.1250 -0.2793  0.5516
 6379SOL    HW230600   1.230   1.483   2.051  0.2965 -2.9395  2.0375
 6380SOL     OW30601   1.465   3.594   5.627 -0.3736  0.1833  0.3914
 6380SOL    HW130602   1.536   3.549   5.583 -0.1821  1.9450 -1.0997
 6380SOL    HW230603   1.413   3.520   5.659 -1.5747 -0.1197 -2.2862
 6381SOL     OW30604   2.930   1.890  15.420 -0.2617  0.4138 -0.2300
 6381SOL    HW130605   2.887   1.907  15.336 -0.7706 -2.8191 -0.6337
 6381SOL    HW230606   2.957   1.980  15.439 -2.3689  0.8369  0.8348
 6382SOL     OW30607   2.877   0.124  15.041 -0.3753  0.0742 -0.7658
 6382SOL    HW130608   2.796   0.120  15.092 -0.9013 -2.3065 -1.7596
 6382SOL    HW230609   2.914   0.050  15.090 -1.0657  1.2099  1.4630
 6383SOL     OW30610   0.691   2.471  10.771 -0.4255 -0.3083 -0.1025
 6383SOL    HW130611   0.770   2.437  10.729 -1.3509 -0.8724 -1.3913
 6383SOL    HW230612   0.619   2.433  10.721 -0.8424 -0.0742  0.3171
 6384SOL     OW30613   1.572   0.460   3.628 -0.3048  0.1738 -0.1226
 6384SOL    HW130614   1.625   0.405   3.572  0.7143 -0.2694  1.2718
 6384SOL    HW230615   1.632   0.481   3.700  0.4649  1.4958 -1.1655
 6385SOL     OW30616   1.531   0.693   8.002 -0.5746  0.0723  0.0830
 6385SOL    HW130617   1.614   0.727   8.035 -1.4095  1.3976  0.7860
 6385SOL    HW230618   1.473   0.766   8.022 -0.7755  0.2267 -1.0665
 6386SOL     OW30619   2.977   2.756   1.500  0.2173 -0.6017  0.1352
 6386SOL    HW130620   2.885   2.768   1.524  0.9553  1.7068  1.8228
 6386SOL    HW230621   3.026   2.752   1.582 -0.4289 -1.1887  0.4851
 6387SOL     OW30622   3.828   1.310   1.048  0.0531 -0.3441  0.5304
 6387SOL    HW130623   3.825   1.405   1.042 -2.2961 -0.6048 -2.1814
 6387SOL    HW230624   3.807   1.300   1.140  0.4696 -4.5495  0.1582
 6388SOL     OW30625   4.440   4.649   0.908  0.3115  0.6220 -0.3991
 6388SOL    HW130626   4.412   4.558   0.905 -1.2805  1.0577  1.4063
 6388SOL    HW230627   4.521   4.632   0.956 -0.7185  2.0493  1.8393
 6389SOL     OW30628   1.820   3.407   2.481 -0.3455  0.1550 -0.1717
 6389SOL    HW130629   1.847   3.346   2.412 -0.8746  1.6088 -1.6667
 6389SOL    HW230630   1.768   3.343   2.530 -1.4481  1.3186  0.1885
 6390SOL     OW30631   0.632   4.334   8.326 -0.4854  0.5329 -0.7546
 6390SOL    HW130632   0.595   4.394   8.261 -2.2777 -0.5597 -0.7242
 6390SOL    HW230633   0.724   4.335   8.297 -1.0262  2.1290 -2.4540
 6391SOL     OW30634   4.186   0.360   9.247  0.1827 -0.4242 -0.7633
 6391SOL    HW130635   4.280   0.370   9.259  0.1844  1.1175 -1.9911
 6391SOL    HW230636   4.163   0.365   9.339  1.6731  0.4112 -0.4492
 6392SOL     OW30637   1.298   4.537   5.736 -0.0216  0.2100 -0.6140
 6392SOL    HW130638   1.220   4.564   5.783  0.4669  1.1205 -0.3168
 6392SOL    HW230639   1.263   4.505   5.653 -2.1489  3.7373 -1.0658
 6393SOL     OW30640   1.183   2.161   2.965  0.0188  0.1019  0.2111
 6393SOL    HW130641   1.109   2.217   2.989 -0.8302 -2.0470  2.6060
 6393SOL    HW230642   1.144   2.091   2.914 -1.0865  0.8635  0.0121
 6394SOL     OW30643   0.171   1.397  12.163  0.3793 -0.0764  0.3001
 6394SOL    HW130644   0.114   1.340  12.112 -1.9451  0.0488  2.7626
 6394SOL    HW230645   0.194   1.341  12.236  1.3104  0.7962  0.6797
 6395SOL     OW30646   0.030   0.919   7.267 -0.4129  0.5810  0.1047
 6395SOL    HW130647   4.687   0.896   7.200  0.0055  0.0209 -0.0951
 6395SOL    HW230648   0.099   0.951   7.209  0.5362 -1.8959 -0.1173
 6396SOL     OW30649   2.553   1.351  12.096  0.2742  0.0068 -0.1131
 6396SOL    HW130650   2.517   1.342  12.185  0.0521  0.9024 -0.1035
 6396SOL    HW230651   2.522   1.441  12.082 -0.4149  0.0539  1.5741
 6397SOL     OW30652   3.074   0.858   3.640  0.1315  0.1475 -0.7307
 6397SOL    HW130653   3.067   0.762   3.640  0.0387  0.1549 -0.6837
 6397SOL    HW230654   2.990   0.884   3.602 -1.0610 -2.4887  0.1008
 6398SOL     OW30655   0.423   2.752   6.960 -0.1679  0.7725  0.4420
 6398SOL    HW130656   0.497   2.775   7.015 -0.0025  0.8854  0.1709
 6398SOL    HW230657   0.379   2.836   6.945 -1.8441 -0.1322  0.1981
 6399SOL     OW30658   2.205   2.720  10.504  0.2705 -0.0862 -0.4452
 6399SOL    HW130659   2.290   2.692  10.540 -0.6787 -0.8652  1.1840
 6399SOL    HW230660   2.157   2.638  10.495 -0.8585  0.5226  0.1191
 6400SOL     OW30661   3.295   2.091   6.291 -0.5961  0.3832 -0.1596
 6400SOL    HW130662   3.309   2.012   6.343 -1.3967  0.5307  0.2713
 6400SOL    HW230663   3.225   2.139   6.335  0.5766  1.6735  0.2715
 6401SOL     OW30664   0.336   0.779   5.712 -1.0989 -0.7116 -0.4765
 6401SOL    HW130665   0.428   0.793   5.736 -1.4449 -1.0061  1.0042
 6401SOL    HW230666   0.297   0.798   5.797  4.0926  0.2786  1.6918
 6402SOL     OW30667   4.329   0.293   6.573  0.2162  0.0343  0.9132
 6402SOL    HW130668   4.276   0.326   6.646  1.7280 -0.8860  2.4113
 6402SOL    HW230669   4.260   0.236   6.538  0.0239  2.3012 -2.4849
 6403SOL     OW30670   1.043   0.447   1.437 -0.2660 -0.0544  0.2152
 6403SOL    HW130671   0.949   0.448   1.453  0.0485 -0.3685  2.0682
 6403SOL    HW230672   1.086   0.471   1.520  2.1162 -2.5694 -0.3032
 6404SOL     OW30673   2.992   1.531   6.753 -0.1179 -0.4090  0.3649
 6404SOL    HW130674   3.002   1.559   6.844  2.5258  1.5225 -0.5319
 6404SOL    HW230675   3.065   1.576   6.711 -0.4201  0.5347  0.8483
 6405SOL     OW30676   4.395   1.997  14.286 -0.4857  0.8899 -0.0043
 6405SOL    HW130677   4.423   1.937  14.217 -0.1123  1.3883 -0.2809
 6405SOL    HW230678   4.324   1.958  14.338  0.9880 -1.8059  0.0061
 6406SOL     OW30679   3.852   2.993  16.420  0.1922  0.3733 -0.3375
 6406SOL    HW130680   3.909   2.950  16.484  0.2187  0.1282 -0.5236
 6406SOL    HW230681   3.912   3.064  16.397  0.8523  0.6565  2.2621
 6407SOL     OW30682   0.329   4.159  14.627  0.1159 -0.0189  1.0284
 6407SOL    HW130683   0.341   4.186  14.536  5.0477  0.7424  1.9349
 6407SOL    HW230684   0.235   4.143  14.637 -0.0508  1.9551  2.7384
 6408SOL     OW30685   1.832   1.408   8.657  0.2611 -0.1346  0.1902
 6408SOL    HW130686   1.738   1.392   8.668  0.5790 -2.1335 -0.0646
 6408SOL    HW230687   1.840   1.503   8.665  0.6322 -0.0477 -1.3047
 6409SOL     OW30688   2.113   4.491   7.695  0.2525  0.0746 -0.1352
 6409SOL    HW130689   2.124   4.396   7.704  0.2699 -0.1987 -2.8107
 6409SOL    HW230690   2.198   4.522   7.725 -0.3257  0.6638  0.8846
 6410SOL     OW30691   1.335   1.254   8.642  0.2732 -0.3026 -0.6918
 6410SOL    HW130692   1.311   1.163   8.658 -2.0818  0.5084  0.4638
 6410SOL    HW230693   1.285   1.297   8.712  0.3127 -0.5074 -0.5389
 6411SOL     OW30694   3.832   0.559   4.528 -0.1906  0.2055 -0.3568
 6411SOL    HW130695   3.768   0.498   4.566 -0.2851  1.5916  1.7121
 6411SOL    HW230696   3.878   0.493   4.476 -1.1040 -0.4459 -0.3376
 6412SOL     OW30697   0.904   2.528   7.294  0.3472 -0.2818  0.1270
 6412SOL    HW130698   0.901   2.604   7.352 -0.4046 -0.7140  0.6598
 6412SOL    HW230699   0.821   2.484   7.314 -1.0377  1.6024 -1.4193
 6413SOL     OW30700   3.659   4.417   2.704 -0.5842 -0.0705  0.4458
 6413SOL    HW130701   3.594   4.354   2.734 -1.0251  0.3226  0.3058
 6413SOL    HW230702   3.663   4.481   2.775 -0.2746  2.0853 -1.5286
 6414SOL     OW30703   1.730   0.449  17.025 -0.1509 -0.2995  0.4303
 6414SOL    HW130704   1.668   0.445  16.952 -0.1699  0.6175  0.3950
 6414SOL    HW230705   1.679   0.507  17.081  0.4670 -0.5598  1.2555
 6415SOL     OW30706   3.979   1.507  13.190  0.3644  0.0823 -0.4363
 6415SOL    HW130707   3.998   1.480  13.100  0.6629 -0.4504 -0.2166
 6415SOL    HW230708   4.067   1.521  13.223 -0.1509  3.6374 -0.5969
 6416SOL     OW30709   2.296   0.328  16.105  0.4275 -0.3391 -0.3928
 6416SOL    HW130710   2.249   0.262  16.156  1.9783 -1.1783 -0.0389
 6416SOL    HW230711   2.374   0.276  16.083  0.2714 -0.9697  0.5438
 6417SOL     OW30712   1.099   2.741   2.662  0.2829  0.1496 -0.1761
 6417SOL    HW130713   1.017   2.701   2.693  0.4369  0.0710  0.1360
 6417SOL    HW230714   1.051   2.809   2.616 -0.2357  1.0027  1.6078
 6418SOL     OW30715   3.818   3.471   2.198 -0.0924  0.1784  0.1784
 6418SOL    HW130716   3.813   3.550   2.144  2.9049 -0.1915 -0.6526
 6418SOL    HW230717   3.758   3.417   2.147 -0.0182 -0.7485  1.0689
 6419SOL     OW30718   1.953   2.769   1.334  0.1586  0.4844 -0.3275
 6419SOL    HW130719   1.910   2.709   1.274  0.1374 -0.6491  0.8251
 6419SOL    HW230720   2.040   2.767   1.294 -0.0615 -0.7025 -0.7269
 6420SOL     OW30721   0.333   4.258  10.255 -0.3166 -0.3422  0.0129
 6420SOL    HW130722   0.359   4.343  10.290  0.3134 -0.4300 -0.2453
 6420SOL    HW230723   0.316   4.202  10.331  2.5471  2.1187  2.4971
 6421SOL     OW30724   0.255   2.750  10.052 -0.0983  0.6660 -0.0927
 6421SOL    HW130725   0.211   2.700  10.121 -0.4933 -0.6762 -1.3195
 6421SOL    HW230726   0.308   2.808  10.107 -0.1460 -1.8349  2.6085
 6422SOL     OW30727   0.769   4.472   8.570 -0.3816  0.0178  0.2827
 6422SOL    HW130728   0.845   4.526   8.547 -0.5420  0.3976  0.6360
 6422SOL    HW230729   0.774   4.487   8.664  0.9107  0.6494  0.1123
 6423SOL     OW30730   1.584   2.088   8.209  0.2027  0.2743  0.6358
 6423SOL    HW130731   1.560   2.043   8.290  1.2575 -2.0938 -0.3669
 6423SOL    HW230732   1.504   2.135   8.187  1.9679  2.4781 -1.2306
 6424SOL     OW30733   0.275   0.924   3.737 -0.1815 -0.2553  0.3669
 6424SOL    HW130734   0.302   0.867   3.809  2.4069  1.7099  0.9287
 6424SOL    HW230735   0.227   0.866   3.678  1.7853  0.3828 -1.8538
 6425SOL     OW30736   2.333   3.544   5.555  0.2009  0.5540 -0.0609
 6425SOL    HW130737   2.264   3.479   5.540  0.2947  0.6679 -1.0094
 6425SOL    HW230738   2.390   3.503   5.619 -1.1201  1.0873  1.4426
 6426SOL     OW30739   1.951   3.247   8.340 -0.4363  0.1421  0.3214
 6426SOL    HW130740   1.867   3.287   8.319 -0.2608  0.1979 -0.2858
 6426SOL    HW230741   1.937   3.170   8.285 -0.2605  1.5143 -1.6744
 6427SOL     OW30742   2.632   2.083   2.536 -0.5134 -0.4910 -0.2234
 6427SOL    HW130743   2.717   2.125   2.549 -0.0488 -1.5442  0.1078
 6427SOL    HW230744   2.634   2.034   2.454  1.9288 -0.3805 -0.2435
 6428SOL     OW30745   3.583   2.503   2.491  0.6427  0.6523 -0.5515
 6428SOL    HW130746   3.597   2.413   2.520  0.6400  0.5689 -0.8159
 6428SOL    HW230747   3.543   2.491   2.406 -1.8026  0.4198  0.6363
 6429SOL     OW30748   0.312   3.506  12.267 -0.0350 -0.4365  0.0896
 6429SOL    HW130749   0.340   3.490  12.177 -2.4551 -1.3551 -0.5108
 6429SOL    HW230750   0.379   3.566  12.298  0.3068  0.3098 -2.0919
 6430SOL     OW30751   2.719   1.272   1.816 -0.0191 -0.8307  0.3584
 6430SOL    HW130752   2.660   1.242   1.885  0.0407 -2.0996 -0.1447
 6430SOL    HW230753   2.794   1.301   1.869  0.1510  0.6837 -0.7275
 6431SOL     OW30754   0.524   3.192   5.152  0.3982 -0.2278  0.0032
 6431SOL    HW130755   0.465   3.148   5.092  0.1863 -2.8776  2.1723
 6431SOL    HW230756   0.604   3.199   5.100  0.9143  1.1505  0.9639
 6432SOL     OW30757   4.244   1.872   3.782  0.3029  0.0115  0.2821
 6432SOL    HW130758   4.271   1.962   3.762  2.3819 -0.5420  0.5397
 6432SOL    HW230759   4.173   1.873   3.718 -1.3791 -2.7810  2.1195
 6433SOL     OW30760   0.145   4.670   4.341  0.6874 -0.4466 -0.1639
 6433SOL    HW130761   0.068   4.614   4.345 -1.3827  2.4513  0.6972
 6433SOL    HW230762   0.161   4.669   4.247 -2.3677 -1.2820 -0.6582
 6434SOL     OW30763   0.601   4.033   5.927 -0.3385 -0.0187  0.8103
 6434SOL    HW130764   0.659   3.991   5.989  0.5795  2.0898  1.3903
 6434SOL    HW230765   0.634   4.001   5.843 -0.7266  0.3655  0.5061
 6435SOL     OW30766   3.671   1.227   7.602  0.0414 -0.3895 -0.2547
 6435SOL    HW130767   3.641   1.302   7.653  1.2311 -0.0369 -0.0682
 6435SOL    HW230768   3.764   1.249   7.612  0.0606 -0.6349  0.1025
 6436SOL     OW30769   0.641   2.587   9.769 -0.4232  0.1546 -0.0299
 6436SOL    HW130770   0.564   2.632   9.735 -0.5129  0.0088 -0.0209
 6436SOL    HW230771   0.705   2.618   9.705 -0.5097  2.3745  0.9749
 6437SOL     OW30772   4.043   4.269   8.024 -0.9206  0.1182  0.0674
 6437SOL    HW130773   3.957   4.246   7.988 -0.1192 -1.0994 -1.0739
 6437SOL    HW230774   4.025   4.263   8.118  1.9945 -0.2076  0.5920
 6438SOL     OW30775   2.758   3.218   2.160  0.2339  0.5396  0.3530
 6438SOL    HW130776   2.753   3.132   2.119 -0.5246  1.0760 -0.6941
 6438SOL    HW230777   2.689   3.263   2.110 -0.6349  0.3724  1.4087
 6439SOL     OW30778   2.354   4.047   9.354 -0.0898 -0.4669 -0.2887
 6439SOL    HW130779   2.438   4.056   9.309 -0.0845  1.1103  0.0303
 6439SOL    HW230780   2.324   3.968   9.309  0.8686 -0.2619 -1.2987
 6440SOL     OW30781   3.258   4.160   6.247  0.2192 -0.3785  0.2943
 6440SOL    HW130782   3.177   4.193   6.285 -1.0728 -1.7406 -1.3018
 6440SOL    HW230783   3.250   4.186   6.155 -0.6021 -0.5357  0.3229
 6441SOL     OW30784   2.198   3.354   3.208  0.0476  0.2967 -0.1842
 6441SOL    HW130785   2.280   3.353   3.257 -0.4563 -0.9633  0.6271
 6441SOL    HW230786   2.136   3.402   3.261  0.0004  1.8393 -1.6531
 6442SOL     OW30787   0.819   4.212  11.310  0.0577  0.6846  0.0894
 6442SOL    HW130788   0.791   4.175  11.394  0.9031 -1.1669 -0.4700
 6442SOL    HW230789   0.860   4.293  11.341  1.6726 -0.0469 -0.1908
 6443SOL     OW30790   1.454   4.639   3.079 -0.5604  0.1646 -0.2495
 6443SOL    HW130791   1.367   4.628   3.116 -0.7336  0.7930 -0.4788
 6443SOL    HW230792   1.449   4.606   2.989  1.0227 -0.6887 -0.0354
 6444SOL     OW30793   4.039   1.945   8.109 -0.4582 -0.4812  0.1498
 6444SOL    HW130794   3.946   1.923   8.100 -0.8700  0.9799  0.8877
 6444SOL    HW230795   4.066   1.874   8.167 -1.4106 -0.7301  0.3023
 6445SOL     OW30796   3.322   3.220  12.630  0.0045  0.6254 -0.0025
 6445SOL    HW130797   3.351   3.131  12.650 -0.1346  1.0331  1.9628
 6445SOL    HW230798   3.326   3.213  12.534 -0.8281  0.4200 -0.0200
 6446SOL     OW30799   0.483   2.098   9.087  0.2524  0.6663 -0.0932
 6446SOL    HW130800   0.501   2.079   8.995  0.4273  1.2030 -0.1707
 6446SOL    HW230801   0.461   2.007   9.106 -1.3584  0.8116 -1.1536
 6447SOL     OW30802   3.576   4.348  17.237  0.0632  0.5284  0.6336
 6447SOL    HW130803   3.649   4.404  17.266  1.5846 -0.6292 -0.9661
 6447SOL    HW230804   3.518   4.415  17.202  0.9199  0.8765 -0.1306
 6448SOL     OW30805   2.015   2.885  10.399  0.2684 -0.2477  0.4849
 6448SOL    HW130806   2.077   2.833  10.450 -0.2869  0.7838  2.1888
 6448SOL    HW230807   1.936   2.877  10.453 -1.0445  2.0489 -1.0947
 6449SOL     OW30808   1.271   2.244   6.726 -0.2733  0.0268  0.1757
 6449SOL    HW130809   1.262   2.162   6.775 -1.0314  1.1833  1.9971
 6449SOL    HW230810   1.184   2.283   6.740 -0.2408 -0.2249  1.1243
 6450SOL     OW30811   1.247   0.969  10.463 -0.3977  0.4085  0.8433
 6450SOL    HW130812   1.203   1.054  10.465  0.4358  0.8341  1.0562
 6450SOL    HW230813   1.240   0.946  10.370 -1.0513  1.2302  0.6900
 6451SOL     OW30814   4.256   3.956   9.328 -0.1204  0.3990  0.6602
 6451SOL    HW130815   4.259   3.871   9.285  0.8726  0.6656  0.2139
 6451SOL    HW230816   4.181   3.948   9.388 -1.2046 -1.9714 -0.9867
 6452SOL     OW30817   0.302   1.021   3.153 -0.9746  0.0909 -0.3605
 6452SOL    HW130818   0.233   1.087   3.163 -0.5442  0.8590 -2.2475
 6452SOL    HW230819   0.250   0.953   3.110 -0.9200 -0.3033  0.2142
 6453SOL     OW30820   2.280   0.963   9.895  0.7331 -0.0025  0.6702
 6453SOL    HW130821   2.275   0.959   9.799  0.7443 -0.0762  0.6720
 6453SOL    HW230822   2.373   0.956   9.915  1.0315  0.2403 -0.6429
 6454SOL     OW30823   2.537   3.038  14.819  0.2575 -0.2119  0.3881
 6454SOL    HW130824   2.615   3.086  14.793  1.6888 -3.0991 -0.7542
 6454SOL    HW230825   2.554   3.036  14.913 -3.6368 -0.8413  1.0774
 6455SOL     OW30826   1.117   2.924   1.668  0.3665 -0.3829  0.0182
 6455SOL    HW130827   1.143   2.882   1.750 -0.4646  0.1095  0.5327
 6455SOL    HW230828   1.200   2.965   1.643  0.0569  0.7687  0.8525
 6456SOL     OW30829   0.356   0.124   2.081  0.5737 -0.2227 -0.5500
 6456SOL    HW130830   0.374   0.125   1.987  0.5410  0.6727 -0.5488
 6456SOL    HW230831   0.260   0.126   2.081  0.5703 -0.9653  1.9052
 6457SOL     OW30832   0.522   4.521   5.308 -0.2785  0.0230  0.0879
 6457SOL    HW130833   0.589   4.457   5.330  0.6215  0.3045 -1.8671
 6457SOL    HW230834   0.549   4.604   5.346 -1.9586  0.1798  0.9557
 6458SOL     OW30835   1.262   0.056  12.471 -0.1607 -0.1387  0.4827
 6458SOL    HW130836   1.285   0.037  12.562 -0.4239  1.6375  0.9118
 6458SOL    HW230837   1.342   0.029  12.427  0.3202  2.7912 -0.4018
 6459SOL     OW30838   0.243   4.672   8.826 -0.2110 -0.6330 -0.0819
 6459SOL    HW130839   0.230   0.027   8.882 -1.2146 -1.5720  0.9388
 6459SOL    HW230840   0.288   4.614   8.887  3.6622  1.2146 -1.1584
 6460SOL     OW30841   1.767   4.191   9.723  0.0939 -0.2933  0.0561
 6460SOL    HW130842   1.722   4.220   9.644 -0.9254 -1.5898  0.1648
 6460SOL    HW230843   1.777   4.275   9.767  1.4219 -0.2796 -0.2767
 6461SOL     OW30844   1.432   1.667  13.758 -0.5760  0.0366 -0.2558
 6461SOL    HW130845   1.372   1.727  13.802  0.4610  0.4927  0.5362
 6461SOL    HW230846   1.517   1.697  13.788 -0.4298  0.5513 -1.2071
 6462SOL     OW30847   2.281   1.246   8.601 -0.2751  0.3312  0.4907
 6462SOL    HW130848   2.311   1.332   8.573  2.3941 -0.7971 -0.1640
 6462SOL    HW230849   2.189   1.247   8.577 -0.8100 -0.8881  2.4606
 6463SOL     OW30850   2.944   1.394   7.231  0.4853  0.4185 -0.1889
 6463SOL    HW130851   2.943   1.365   7.140 -0.6781 -2.1830  0.6472
 6463SOL    HW230852   2.987   1.480   7.227 -0.5357  0.9053 -0.5136
 6464SOL     OW30853   0.246   2.035  13.359  0.2127  0.1821 -0.0009
 6464SOL    HW130854   0.187   2.036  13.435  1.9061  1.1181  1.2886
 6464SOL    HW230855   0.178   2.030  13.291 -1.0643 -0.7052  1.3407
 6465SOL     OW30856   0.996   0.643   3.130  0.0533  0.4264  0.2308
 6465SOL    HW130857   0.901   0.658   3.135  0.1368  0.7111  0.9763
 6465SOL    HW230858   1.019   0.724   3.176  1.0622 -0.5427  1.4234
 6466SOL     OW30859   3.237   3.992   3.345  0.0488 -0.5158 -0.3076
 6466SOL    HW130860   3.161   4.006   3.402  1.4298  1.5170  1.0504
 6466SOL    HW230861   3.303   4.038   3.397  0.5193 -1.0455 -0.4413
 6467SOL     OW30862   4.341   4.470  13.285 -0.1672 -0.6744  0.3721
 6467SOL    HW130863   4.277   4.404  13.260  0.1899 -1.1110  0.6203
 6467SOL    HW230864   4.291   4.508  13.358 -0.1439 -2.7827  1.4731
 6468SOL     OW30865   0.688   0.981   3.327  0.0199 -0.0425 -0.3892
 6468SOL    HW130866   0.770   0.991   3.374 -0.8114  1.3700  0.7609
 6468SOL    HW230867   0.710   1.008   3.237  1.7620 -1.0687 -0.2621
 6469SOL     OW30868   0.494   3.140   5.441  0.5902  0.2653  0.1283
 6469SOL    HW130869   0.550   3.072   5.405  1.1979  1.9185 -1.9920
 6469SOL    HW230870   0.465   3.190   5.365  2.2355 -0.7650 -1.1535
 6470SOL     OW30871   0.519   4.590   4.495  0.4799  0.3621  0.0999
 6470SOL    HW130872   0.595   4.531   4.494 -1.3648 -2.0239 -1.2864
 6470SOL    HW230873   0.457   4.543   4.551  3.0183 -1.9925  0.9108
 6471SOL     OW30874   2.332   1.249  17.046  0.7448 -0.3986  0.1190
 6471SOL    HW130875   2.281   1.208  16.976  1.7372  0.9831 -1.4240
 6471SOL    HW230876   2.283   1.223  17.124  0.9043 -1.7727 -0.2392
 6472SOL     OW30877   3.817   4.572   7.029  0.1163 -0.2176 -0.6024
 6472SOL    HW130878   3.825   4.495   6.972 -1.5210 -0.8672  0.0377
 6472SOL    HW230879   3.867   4.544   7.105 -0.9809 -3.4603 -1.0653
 6473SOL     OW30880   0.792   1.443   1.312  0.4163  0.1457  0.0998
 6473SOL    HW130881   0.888   1.444   1.312  0.4349 -1.0755 -0.9153
 6473SOL    HW230882   0.784   1.507   1.382 -2.4544  0.1596 -0.2750
 6474SOL     OW30883   2.806   0.030   2.964 -0.0511 -0.2620  0.2494
 6474SOL    HW130884   2.814   4.670   2.913  0.9149 -0.5115  0.7691
 6474SOL    HW230885   2.858   0.005   3.041  0.4331 -1.7679 -0.5646
 6475SOL     OW30886   3.501   1.885   8.198  0.0964 -0.5174  0.2550
 6475SOL    HW130887   3.596   1.883   8.214 -0.0595  0.5124  1.2694
 6475SOL    HW230888   3.495   1.825   8.124  1.9801 -0.6647  0.2175
 6476SOL     OW30889   3.916   2.886   9.043 -0.7563  0.2040 -0.3802
 6476SOL    HW130890   3.936   2.827   9.116  0.1385 -0.4599 -1.1640
 6476SOL    HW230891   3.951   2.968   9.078 -0.4502  0.4398 -1.2450
 6477SOL     OW30892   3.560   1.064  12.896  0.0301 -0.5588 -0.1251
 6477SOL    HW130893   3.522   1.000  12.835  0.7236  0.7426 -1.9176
 6477SOL    HW230894   3.633   1.010  12.927 -0.2380  0.1080  1.6343
 6478SOL     OW30895   4.683   0.604   6.712 -0.2745  0.4403  0.2886
 6478SOL    HW130896   0.006   0.534   6.662  1.0615  1.0908  0.5399
 6478SOL    HW230897   4.604   0.606   6.659 -0.9904 -1.6871  1.2589
 6479SOL     OW30898   1.825   3.667   6.114  0.0141  0.3171  0.0658
 6479SOL    HW130899   1.888   3.618   6.061  0.1806  0.8535 -0.2325
 6479SOL    HW230900   1.855   3.753   6.085  0.5187  0.1340  0.0409
 6480SOL     OW30901   3.030   0.285  14.474  1.1942  0.0031  0.4480
 6480SOL    HW130902   3.024   0.347  14.546 -2.2938  1.1837 -0.8668
 6480SOL    HW230903   3.025   0.348  14.401  0.3007  0.3488  0.8073
 6481SOL     OW30904   2.504   4.433  12.133  0.2362 -0.4919  0.3803
 6481SOL    HW130905   2.595   4.447  12.158  0.1888 -2.1677  1.4635
 6481SOL    HW230906   2.503   4.472  12.046 -0.7204 -1.0387  0.1465
 6482SOL     OW30907   3.030   4.413   5.955 -0.1130  0.1555 -0.6326
 6482SOL    HW130908   3.070   4.452   6.033  0.3025  2.7517 -2.1700
 6482SOL    HW230909   2.977   4.351   6.005 -1.3108  1.2474 -0.5607
 6483SOL     OW30910   1.404   2.745  15.573  0.1772  0.0787 -0.0507
 6483SOL    HW130911   1.315   2.765  15.545  0.4700  1.9741  0.4140
 6483SOL    HW230912   1.443   2.726  15.488 -1.8821  0.2457 -1.0402
 6484SOL     OW30913   2.828   2.354  14.532 -0.3152 -0.3763  0.8274
 6484SOL    HW130914   2.845   2.262  14.509  0.7882 -0.0513  0.3750
 6484SOL    HW230915   2.736   2.349  14.560 -0.6005 -1.2837 -0.2499
 6485SOL     OW30916   2.777   0.802   9.161  0.4811 -0.0458 -0.5906
 6485SOL    HW130917   2.709   0.849   9.113 -0.4340 -1.5500 -0.7785
 6485SOL    HW230918   2.725   0.773   9.236  0.7884  0.8565 -0.0348
 6486SOL     OW30919   0.240   2.557   8.377 -0.0889  0.0322 -0.5049
 6486SOL    HW130920   0.271   2.597   8.459 -1.0367 -0.3218  0.0280
 6486SOL    HW230921   0.320   2.518   8.341 -0.0973 -0.7842  0.3588
 6487SOL     OW30922   0.622   1.699   2.209  0.5118 -0.6978  0.3181
 6487SOL    HW130923   0.692   1.638   2.233 -0.2029 -1.7554 -0.2673
 6487SOL    HW230924   0.675   1.772   2.178 -0.5818  0.5199  1.3319
 6488SOL     OW30925   4.417   2.723   8.496  0.0726  0.0610 -0.6424
 6488SOL    HW130926   4.337   2.698   8.541 -0.3364 -0.0562 -1.4259
 6488SOL    HW230927   4.400   2.813   8.469  0.1971 -0.8659 -3.8273
 6489SOL     OW30928   1.689   0.300  13.973  0.1046 -0.0188  0.2153
 6489SOL    HW130929   1.608   0.299  14.023 -0.7722  3.0980 -1.2022
 6489SOL    HW230930   1.666   0.375  13.919  1.7668  1.4605  1.5537
 6490SOL     OW30931   0.050   0.136   6.098  0.3131 -0.5609  0.0918
 6490SOL    HW130932   4.688   0.114   6.054 -0.4962 -0.3380  1.5045
 6490SOL    HW230933   0.102   0.061   6.069  0.7967 -0.0367 -0.3977
 6491SOL     OW30934   3.990   3.680  11.409  0.2985  0.2412 -0.2222
 6491SOL    HW130935   3.999   3.771  11.381  1.5840 -0.0624 -0.7780
 6491SOL    HW230936   3.972   3.703  11.500  0.1493 -0.6852 -0.0147
 6492SOL     OW30937   4.046   3.582  13.985 -0.0422 -0.2556  0.4310
 6492SOL    HW130938   4.032   3.489  14.000 -0.7009  0.0806  1.9021
 6492SOL    HW230939   4.140   3.579  13.970 -0.1148 -2.5693  0.4806
 6493SOL     OW30940   0.287   3.275   4.289  0.6114 -0.7156 -0.1136
 6493SOL    HW130941   0.343   3.352   4.280  3.1039 -2.7558 -2.0457
 6493SOL    HW230942   0.231   3.292   4.365  2.6767  0.9015  1.0448
 6494SOL     OW30943   2.259   0.151   8.764  0.2938 -0.3188  0.0831
 6494SOL    HW130944   2.309   0.139   8.845  0.0532  0.0720  0.2898
 6494SOL    HW230945   2.193   0.083   8.778  2.2115 -2.1867  0.1076
 6495SOL     OW30946   0.929   0.908  17.336  0.1773 -0.2645 -0.2828
 6495SOL    HW130947   0.985   0.950  17.401  0.1833 -1.7370  0.6606
 6495SOL    HW230948   0.872   0.861  17.398 -0.1629  0.0419 -0.3607
 6496SOL     OW30949   1.564   4.162   7.352 -0.0145  0.0571  0.1779
 6496SOL    HW130950   1.624   4.178   7.426  0.3554  0.1391 -0.1410
 6496SOL    HW230951   1.595   4.075   7.327 -0.2384 -0.2420  0.9531
 6497SOL     OW30952   0.053   4.582  13.084 -0.0749  0.3159  0.0035
 6497SOL    HW130953   0.006   4.649  13.135 -1.6442  0.5370 -1.7601
 6497SOL    HW230954   4.707   4.515  13.071  0.3013 -0.9230  4.1647
 6498SOL     OW30955   2.179   0.642  12.259 -0.2851  0.6173 -0.2497
 6498SOL    HW130956   2.236   0.610  12.189  1.1135  0.9268  0.7642
 6498SOL    HW230957   2.099   0.589  12.258 -1.4485  2.4374 -1.8900
 6499SOL     OW30958   1.939   3.356  15.525  0.2147 -0.2725  0.3673
 6499SOL    HW130959   2.016   3.347  15.581  0.0547 -1.9633  0.3162
 6499SOL    HW230960   1.882   3.288  15.562  0.3548  0.0810  1.2478
 6500SOL     OW30961   0.078   3.594   8.833  0.2243 -0.4212 -0.3376
 6500SOL    HW130962   4.719   3.573   8.784 -1.7755  0.0142  2.7177
 6500SOL    HW230963   0.128   3.618   8.755  1.9404 -0.2122  0.8280
 6501SOL     OW30964   1.812   4.704  17.427  0.2765  0.0421  0.8830
 6501SOL    HW130965   1.766   0.035  17.361 -1.8549  0.0466  2.3728
 6501SOL    HW230966   1.737   4.666  17.472  1.6593 -1.7402  1.6897
 6502SOL     OW30967   2.988   1.852   3.494  1.0129  0.1072  0.0156
 6502SOL    HW130968   2.961   1.787   3.429  1.1251 -1.3933  1.4797
 6502SOL    HW230969   2.913   1.842   3.552  2.8806 -2.3979  1.9884
 6503SOL     OW30970   3.652   1.184   1.996  0.7177 -0.2945 -0.0604
 6503SOL    HW130971   3.619   1.094   2.002 -0.0962  0.0333  0.2102
 6503SOL    HW230972   3.741   1.176   2.032  0.2854 -0.3819  0.9778
 6504SOL     OW30973   1.272   3.399   0.535  0.1020  0.0614  0.2042
 6504SOL    HW130974   1.346   3.377   0.591  0.6362  0.8038 -0.1946
 6504SOL    HW230975   1.305   3.488   0.522 -0.5915  0.4126  0.8351
 6505SOL     OW30976   0.425   3.030   4.186 -0.5108  0.0517 -0.6535
 6505SOL    HW130977   0.343   3.048   4.231  0.2179  1.4670  0.1476
 6505SOL    HW230978   0.466   3.116   4.199 -0.3793 -0.1366  0.1906
 6506SOL     OW30979   0.956   2.725  16.839 -0.5020  0.5436 -0.2710
 6506SOL    HW130980   0.876   2.708  16.889 -0.3560 -1.4484 -0.7437
 6506SOL    HW230981   1.023   2.686  16.895  1.3950 -0.5815 -3.3475
 6507SOL     OW30982   0.907   0.977   4.555  0.0092 -0.3307  0.3175
 6507SOL    HW130983   0.930   1.069   4.542 -1.4361 -0.0384 -0.1894
 6507SOL    HW230984   0.914   0.947   4.464  0.2742 -1.8726  0.8452
 6508SOL     OW30985   1.426   2.279   4.495 -0.1418  0.3503 -0.1269
 6508SOL    HW130986   1.512   2.239   4.481  0.6217  2.0048 -0.1301
 6508SOL    HW230987   1.367   2.204   4.504  1.5515 -0.8622  0.9205
 6509SOL     OW30988   3.491   0.577   4.707 -0.2061  0.1907 -0.0089
 6509SOL    HW130989   3.404   0.614   4.722 -0.3612  0.1029 -0.6821
 6509SOL    HW230990   3.483   0.502   4.764 -1.2987 -0.7540 -1.4095
 6510SOL     OW30991   2.044   0.774  13.543  0.5229 -0.0413 -0.0161
 6510SOL    HW130992   1.964   0.824  13.532  0.0276 -0.5354  1.3243
 6510SOL    HW230993   2.075   0.807  13.627 -1.4203 -1.9111  1.4504
 6511SOL     OW30994   2.930   3.048   3.476 -0.2428  0.0736 -0.3750
 6511SOL    HW130995   3.018   3.034   3.509 -0.8460 -0.2188  1.1338
 6511SOL    HW230996   2.911   3.140   3.497  0.5466 -0.0152  0.7112
 6512SOL     OW30997   3.107   1.460  11.617 -0.7760  0.4876  0.0478
 6512SOL    HW130998   3.151   1.395  11.562  0.1997  0.0728  1.3026
 6512SOL    HW230999   3.083   1.521  11.548 -0.2976  0.5471 -0.0615
 6513SOL     OW31000   3.669   3.961   9.660  0.0468 -0.5912 -0.0785
 6513SOL    HW131001   3.741   4.019   9.686  0.7487 -1.3039 -0.4364
 6513SOL    HW231002   3.667   3.904   9.736  0.3665 -0.9700 -0.3530
 6514SOL     OW31003   1.641   3.513   6.279  0.4640 -0.2076 -0.0024
 6514SOL    HW131004   1.564   3.542   6.230  0.4676 -2.3741 -1.2726
 6514SOL    HW231005   1.710   3.562   6.234 -0.1309  1.5609  1.0129
 6515SOL     OW31006   1.172   3.217   8.927  0.1678  0.6033  0.2638
 6515SOL    HW131007   1.218   3.243   9.007  3.8305 -1.0911 -1.2697
 6515SOL    HW231008   1.095   3.173   8.963  0.8662 -1.4907 -0.7683
 6516SOL     OW31009   2.401   1.413   5.275  1.3177 -0.0390  0.1550
 6516SOL    HW131010   2.440   1.339   5.229  3.1390  0.3263  1.1263
 6516SOL    HW231011   2.308   1.389   5.272  1.8626 -2.4164  2.2314
 6517SOL     OW31012   2.735   4.238   8.208 -0.4826  0.2785 -0.1620
 6517SOL    HW131013   2.676   4.192   8.149  0.6125  0.0385 -1.0770
 6517SOL    HW231014   2.714   4.190   8.288  2.8430  3.4163  2.6279
 6518SOL     OW31015   4.643   0.171   7.149  0.3949  0.3398 -0.1034
 6518SOL    HW131016   4.584   0.209   7.084 -0.6333 -0.3913  0.3846
 6518SOL    HW231017   4.694   0.115   7.091 -0.7330  0.4657 -1.2191
 6519SOL     OW31018   1.438   0.416   2.623 -0.0014  0.5979 -0.2683
 6519SOL    HW131019   1.353   0.422   2.667  0.5508  2.5032  0.5207
 6519SOL    HW231020   1.490   0.361   2.682 -0.9477  0.3122  0.2943
 6520SOL     OW31021   0.408   1.097  12.916  0.1080 -0.2857  0.2125
 6520SOL    HW131022   0.429   1.026  12.977  0.4051 -0.7266 -0.3956
 6520SOL    HW231023   0.487   1.095  12.862 -1.5659 -1.5933 -2.1922
 6521SOL     OW31024   0.396   3.516   7.595  0.5544 -0.1930  0.3218
 6521SOL    HW131025   0.451   3.591   7.571  1.4690 -0.7229  0.7406
 6521SOL    HW231026   0.364   3.559   7.675  4.4153 -0.2157  1.9040
 6522SOL     OW31027   1.559   4.606  11.157 -0.2994  0.3663  0.1968
 6522SOL    HW131028   1.506   4.620  11.235 -0.8908 -2.1487  0.2511
 6522SOL    HW231029   1.637   4.652  11.188 -0.2089 -0.0662  0.5990
 6523SOL     OW31030   3.807   2.456  10.219 -0.0870  1.0198 -0.3669
 6523SOL    HW131031   3.900   2.478  10.222 -0.0927  1.1584 -1.2190
 6523SOL    HW231032   3.812   2.375  10.269  1.4489 -0.4100 -2.8004
 6524SOL     OW31033   4.497   4.709   4.560  0.4691 -0.3847 -0.0548
 6524SOL    HW131034   4.438   0.028   4.624  1.9773  2.2559 -0.2804
 6524SOL    HW231035   4.579   0.039   4.565  0.1389  0.1278  0.1206
 6525SOL     OW31036   2.804   3.883   3.698 -0.5108  0.7553  0.3097
 6525SOL    HW131037   2.710   3.865   3.700 -0.2450 -0.6799 -1.1174
 6525SOL    HW231038   2.814   3.937   3.777  0.5289 -0.8311  1.2557
 6526SOL     OW31039   3.718   0.089   4.435 -0.0440 -0.1967 -0.0840
 6526SOL    HW131040   3.809   0.115   4.449 -0.5095  1.5317 -0.1454
 6526SOL    HW231041   3.706   0.036   4.514 -0.2631 -0.3919 -0.2507
 6527SOL     OW31042   1.438   3.914   2.035  0.1247  0.3461  0.5434
 6527SOL    HW131043   1.504   3.844   2.039  2.4397  2.5185  0.6778
 6527SOL    HW231044   1.468   3.979   1.970 -1.9593  0.4716 -0.2775
 6528SOL     OW31045   2.039   0.518   9.074  0.2359  0.1786 -0.7864
 6528SOL    HW131046   2.104   0.490   9.009 -0.0640  0.8648 -1.3874
 6528SOL    HW231047   2.041   0.442   9.133  0.2008  1.0683  0.3518
 6529SOL     OW31048   1.091   0.384   6.700 -0.0409  0.2383  0.2584
 6529SOL    HW131049   1.132   0.459   6.658  1.4878 -0.8729 -0.2222
 6529SOL    HW231050   1.087   0.319   6.630  0.4693 -0.6884  1.0972
 6530SOL     OW31051   3.017   0.636   9.515  0.4822  0.1463 -0.3298
 6530SOL    HW131052   3.045   0.701   9.451 -0.5396 -0.0586 -0.9780
 6530SOL    HW231053   3.060   0.675   9.591 -0.3644  1.8056 -0.7005
 6531SOL     OW31054   1.119   3.594   9.132 -0.2922 -0.0179 -0.2763
 6531SOL    HW131055   1.196   3.538   9.134  0.5252  1.0759 -0.9957
 6531SOL    HW231056   1.050   3.538   9.167 -2.0600  1.6381 -1.0854
 6532SOL     OW31057   0.249   3.220   2.705 -0.0731  0.1064 -0.8291
 6532SOL    HW131058   0.297   3.140   2.685  1.0562  0.4913  0.3390
 6532SOL    HW231059   0.268   3.267   2.623 -0.9628  1.3017 -0.3500
 6533SOL     OW31060   0.596   4.550   2.053 -0.4763  0.0447 -0.3879
 6533SOL    HW131061   0.672   4.525   2.000 -0.2452 -1.9197  0.8513
 6533SOL    HW231062   0.565   4.635   2.022  1.2810  0.3792 -1.2452
 6534SOL     OW31063   3.733   4.078   2.773 -0.4164 -0.1955 -0.5415
 6534SOL    HW131064   3.769   3.989   2.773  1.2061  0.4804  0.1539
 6534SOL    HW231065   3.766   4.101   2.686 -0.2956 -0.8238 -0.6648
 6535SOL     OW31066   0.487   2.665   4.695  0.0583 -0.6311 -0.1532
 6535SOL    HW131067   0.461   2.738   4.639  1.0576  0.4889  0.8350
 6535SOL    HW231068   0.434   2.682   4.772 -2.5655  0.9294 -2.3037
 6536SOL     OW31069   2.684   1.750   3.160 -1.0256 -0.0076  0.7207
 6536SOL    HW131070   2.768   1.705   3.173 -2.0547 -2.2897 -0.5118
 6536SOL    HW231071   2.723   1.821   3.109  0.0341 -1.0688  0.0643
 6537SOL     OW31072   2.006   1.892   7.700 -0.1913 -0.0439 -0.2326
 6537SOL    HW131073   1.978   1.931   7.782 -1.0265 -3.1266  0.9545
 6537SOL    HW231074   2.099   1.917   7.701  0.4200 -2.2398 -2.4493
 6538SOL     OW31075   3.246   1.198   0.532 -0.2489 -0.3957 -0.0132
 6538SOL    HW131076   3.314   1.142   0.570 -0.0651 -0.9864 -1.2112
 6538SOL    HW231077   3.174   1.140   0.556 -0.6792  0.5581  1.0369
 6539SOL     OW31078   1.869   4.472   7.268  0.2881 -0.2532 -0.0331
 6539SOL    HW131079   1.905   4.550   7.226 -0.0397  0.0171  0.1967
 6539SOL    HW231080   1.943   4.423   7.304  2.0830  0.8734 -2.1716
 6540SOL     OW31081   0.798   1.321   3.308  0.1397  0.2388 -0.1214
 6540SOL    HW131082   0.781   1.367   3.390 -1.7781 -0.7961  0.0596
 6540SOL    HW231083   0.837   1.241   3.343  1.8884  1.3637  0.4984
 6541SOL     OW31084   4.559   3.724   7.872 -0.2616  0.0069 -0.2762
 6541SOL    HW131085   4.585   3.772   7.951  3.1283 -2.6088  0.1841
 6541SOL    HW231086   4.469   3.706   7.899  0.8062 -2.3313  1.7710
 6542SOL     OW31087   2.817   0.886   3.524  0.4479  0.1197  0.0769
 6542SOL    HW131088   2.858   0.889   3.437 -0.0360  1.1576 -0.1183
 6542SOL    HW231089   2.736   0.841   3.504  0.4984 -0.1230  0.4188
 6543SOL     OW31090   0.612   2.756   6.753 -0.0862  0.1495  0.6372
 6543SOL    HW131091   0.536   2.754   6.811 -0.1607  0.1008  0.5378
 6543SOL    HW231092   0.669   2.690   6.792  0.9443  1.1345  0.8027
 6544SOL     OW31093   3.669   4.118  13.473 -0.2585 -0.0060  0.0805
 6544SOL    HW131094   3.757   4.108  13.509 -0.8610 -0.9180  1.2886
 6544SOL    HW231095   3.651   4.210  13.491 -1.9275  0.3109 -3.1269
 6545SOL     OW31096   1.838   0.382  17.367  0.2276  0.6567  0.2587
 6545SOL    HW131097   1.882   0.341  17.441  0.1745 -0.6879 -0.4566
 6545SOL    HW231098   1.909   0.442  17.344  2.2685 -1.4669  0.9735
 6546SOL     OW31099   0.001   3.239   7.193  0.2598 -0.2603  0.3891
 6546SOL    HW131100   0.014   3.243   7.288  0.8129  0.7169  0.2804
 6546SOL    HW231101   4.720   3.144   7.200 -2.7770 -0.3686 -2.0099
 6547SOL     OW31102   1.025   1.083  17.530 -0.2957  0.0316  0.0636
 6547SOL    HW131103   1.059   1.148  17.469  1.0402 -2.9554 -2.3654
 6547SOL    HW231104   1.079   1.079  17.608 -0.9867 -0.3552  0.5212
 6548SOL     OW31105   1.435   1.804  13.502  0.0432  0.6543  0.2432
 6548SOL    HW131106   1.345   1.835  13.512  0.4437  1.2624  1.9959
 6548SOL    HW231107   1.431   1.756  13.585  0.7611  2.5528  1.3860
 6549SOL     OW31108   1.142   3.391  17.094 -0.0523  0.1477  0.0113
 6549SOL    HW131109   1.093   3.336  17.033  0.4792 -0.5093  0.1757
 6549SOL    HW231110   1.107   3.360  17.177 -1.1046 -0.0285 -0.5072
 6550SOL     OW31111   3.315   3.215  10.923  0.7824  0.8360  0.4966
 6550SOL    HW131112   3.299   3.145  10.987 -0.9083  0.6943 -0.0758
 6550SOL    HW231113   3.380   3.175  10.866 -2.1390 -1.9611 -0.8796
 6551SOL     OW31114   0.675   2.518   8.067 -0.0772  0.1372  0.1018
 6551SOL    HW131115   0.724   2.522   7.985 -1.0844  0.0645 -0.4964
 6551SOL    HW231116   0.605   2.460   8.036 -0.6466  0.1355  1.3678
 6552SOL     OW31117   0.261   1.884   7.514  0.0023  0.9822  0.0504
 6552SOL    HW131118   0.301   1.913   7.432  2.1082  0.8963  1.0491
 6552SOL    HW231119   0.196   1.955   7.523  0.3084  1.3850 -0.9397
 6553SOL     OW31120   2.832   3.652  11.632 -0.7873 -0.1963  0.0777
 6553SOL    HW131121   2.845   3.634  11.539  0.1629  2.7399 -0.3529
 6553SOL    HW231122   2.923   3.675  11.649 -0.4448 -1.6261  0.2196
 6554SOL     OW31123   2.078   2.867  13.280 -0.1703 -0.1734  0.3173
 6554SOL    HW131124   1.992   2.898  13.255 -0.1265 -0.0081  0.3727
 6554SOL    HW231125   2.133   2.930  13.234 -1.2190 -0.8767 -1.9156
 6555SOL     OW31126   2.935   1.563   5.838  0.2040 -0.2498 -0.1590
 6555SOL    HW131127   2.939   1.612   5.920  0.3844  1.1495 -1.0066
 6555SOL    HW231128   3.024   1.527   5.837  0.2551 -0.1866  2.3539
 6556SOL     OW31129   4.308   4.050   3.947  0.8879 -0.0050 -0.2081
 6556SOL    HW131130   4.390   4.100   3.944  0.2683  1.0663  0.6687
 6556SOL    HW231131   4.345   3.963   3.965  2.1399  0.2675 -1.4667
 6557SOL     OW31132   2.341   1.450  13.110  0.2284 -0.3387  0.3055
 6557SOL    HW131133   2.402   1.441  13.183 -2.5853  3.3027  3.1567
 6557SOL    HW231134   2.276   1.388  13.142 -0.7288  1.4384  1.8204
 6558SOL     OW31135   4.159   0.873   5.423  0.1978 -0.1667 -0.1181
 6558SOL    HW131136   4.190   0.835   5.341  0.3591 -3.0610  1.2738
 6558SOL    HW231137   4.105   0.803   5.460  1.0765 -0.5696  0.3945
 6559SOL     OW31138   3.310   4.304   8.229  0.2621  0.2817 -0.5449
 6559SOL    HW131139   3.326   4.297   8.323 -1.8467  0.0810 -0.1911
 6559SOL    HW231140   3.395   4.341   8.203  0.5661  0.9388  1.3654
 6560SOL     OW31141   0.905   3.475   6.771 -0.0212  0.3299 -0.0649
 6560SOL    HW131142   0.963   3.542   6.806  1.3960 -0.4369 -0.9072
 6560SOL    HW231143   0.837   3.531   6.734  0.6823  2.4278  1.8027
 6561SOL     OW31144   4.520   0.645  10.691 -0.4634 -0.3536 -0.6534
 6561SOL    HW131145   4.535   0.727  10.737 -1.5894 -1.6139  1.9816
 6561SOL    HW231146   4.468   0.673  10.616  0.4119  1.0041 -0.7535
 6562SOL     OW31147   1.870   3.683   4.024 -0.2265  0.1773  0.2303
 6562SOL    HW131148   1.948   3.647   4.066 -1.0751 -1.4503  0.4068
 6562SOL    HW231149   1.910   3.708   3.940 -1.5089  0.4364 -0.3074
 6563SOL     OW31150   4.448   0.798   6.845  0.1054 -0.1304 -0.6061
 6563SOL    HW131151   4.362   0.777   6.810  0.6235 -1.3841 -1.1163
 6563SOL    HW231152   4.501   0.825   6.769 -1.3838  3.6218 -0.3079
 6564SOL     OW31153   1.309   1.086   3.855  0.4830 -0.0179  0.0745
 6564SOL    HW131154   1.214   1.087   3.842  0.2093 -2.0862  1.8355
 6564SOL    HW231155   1.316   1.022   3.926  1.3163 -0.3522 -0.3019
 6565SOL     OW31156   0.701   1.246   5.987  0.2524 -0.5371 -0.2229
 6565SOL    HW131157   0.624   1.297   5.960  1.2344  0.8666 -0.3949
 6565SOL    HW231158   0.711   1.183   5.915  0.1406 -0.9849  0.1587
 6566SOL     OW31159   2.347   0.156   2.684  0.0876  0.3177 -0.0003
 6566SOL    HW131160   2.272   0.196   2.727  1.3400 -0.2578  2.6661
 6566SOL    HW231161   2.357   0.215   2.609  3.5833  0.8459  0.8658
 6567SOL     OW31162   4.153   1.126   7.042 -0.6177  0.2993  0.4762
 6567SOL    HW131163   4.214   1.089   7.106 -0.8561 -0.1004  0.4712
 6567SOL    HW231164   4.113   1.048   7.003 -0.9471  1.4009 -1.3899
 6568SOL     OW31165   4.658   2.451  10.890  0.3458 -0.3750  0.0495
 6568SOL    HW131166   4.708   2.515  10.840 -1.4765  2.0676  1.3725
 6568SOL    HW231167   4.720   2.378  10.882  1.9101  0.9663 -0.1054
 6569SOL     OW31168   3.391   3.767   2.287  0.2416  0.4614  0.4260
 6569SOL    HW131169   3.417   3.676   2.298 -1.7071 -0.2388 -0.7228
 6569SOL    HW231170   3.315   3.768   2.346  0.2079 -0.5489  0.4008
 6570SOL     OW31171   2.029   2.637   6.718 -0.5796 -0.3539  0.1753
 6570SOL    HW131172   1.963   2.661   6.654 -1.5797  1.1102  1.7484
 6570SOL    HW231173   2.091   2.588   6.664  0.7619 -1.0792  2.3630
 6571SOL     OW31174   2.908   2.177   8.834 -0.3229 -0.2330  0.3808
 6571SOL    HW131175   2.831   2.151   8.783  1.5944 -3.1070 -1.1319
 6571SOL    HW231176   2.867   2.231   8.901 -0.5967  1.1974 -0.9527
 6572SOL     OW31177   0.169   2.680  15.678 -0.0062 -0.6182 -0.4846
 6572SOL    HW131178   0.124   2.763  15.661  0.3689 -0.7760 -2.2773
 6572SOL    HW231179   0.157   2.684  15.773  1.2693  1.4356 -0.4057
 6573SOL     OW31180   1.346   1.521   7.992 -0.0191 -0.1685  0.0123
 6573SOL    HW131181   1.422   1.564   7.953 -1.0363  3.3454  1.9390
 6573SOL    HW231182   1.349   1.429   7.965 -0.4952  0.4568 -2.1263
 6574SOL     OW31183   3.596   3.997  16.678  0.0805 -0.6955 -0.0093
 6574SOL    HW131184   3.682   3.962  16.700  1.1315  0.4591 -2.3099
 6574SOL    HW231185   3.534   3.936  16.719  0.4289 -1.1228 -0.1193
 6575SOL     OW31186   1.549   2.109  16.477 -0.0888 -0.1116  0.0823
 6575SOL    HW131187   1.626   2.163  16.496 -0.1690  0.1314 -0.2657
 6575SOL    HW231188   1.506   2.156  16.406  2.6214  2.3380  0.0653
 6576SOL     OW31189   0.903   2.160  16.686 -0.3279 -0.0124  0.1258
 6576SOL    HW131190   0.928   2.093  16.750 -0.2427 -0.0126  0.0913
 6576SOL    HW231191   0.877   2.231  16.746 -0.1460 -0.6729  0.9932
 6577SOL     OW31192   0.104   3.256   3.834 -0.2296  0.1032  0.8791
 6577SOL    HW131193   0.191   3.282   3.865  0.1634 -2.1346  1.6546
 6577SOL    HW231194   0.051   3.301   3.900 -0.9414  0.8342 -0.1852
 6578SOL     OW31195   2.325   1.343  10.864 -0.1519  0.2345  0.6703
 6578SOL    HW131196   2.358   1.296  10.787  2.6353  1.4496  1.1083
 6578SOL    HW231197   2.327   1.267  10.922 -1.0131  0.6216  1.2134
 6579SOL     OW31198   0.993   1.594   8.903  0.3473 -0.1457  0.1726
 6579SOL    HW131199   1.019   1.624   8.990  0.2825  0.9815 -0.1915
 6579SOL    HW231200   0.924   1.530   8.920  2.4743 -2.7314 -0.8678
 6580SOL     OW31201   2.985   3.907   7.555  0.2627  0.2070  0.1133
 6580SOL    HW131202   2.917   3.843   7.532 -0.4330  0.6187  1.0185
 6580SOL    HW231203   3.006   3.887   7.646  1.1064  3.7302  0.6954
 6581SOL     OW31204   2.097   0.642   5.362 -0.0654  0.7861  0.0782
 6581SOL    HW131205   2.097   0.716   5.302 -0.3231  0.0860 -0.7793
 6581SOL    HW231206   2.063   0.573   5.304  0.1351  0.3435  0.4856
 6582SOL     OW31207   1.903   0.103  12.454  0.0789  0.6412  0.1714
 6582SOL    HW131208   1.856   0.138  12.529 -0.2311  2.1359 -0.7257
 6582SOL    HW231209   1.970   0.170  12.446 -0.9867  1.6490 -0.3055
 6583SOL     OW31210   1.245   3.766   4.622  0.3872  0.0286 -0.6187
 6583SOL    HW131211   1.312   3.773   4.690  0.0816 -2.0033 -0.1040
 6583SOL    HW231212   1.270   3.839   4.566  1.7943 -0.5941 -0.8008
 6584SOL     OW31213   3.116   0.629  11.507 -0.1106  0.4758  0.3684
 6584SOL    HW131214   3.066   0.581  11.442  1.8924  1.3669 -1.8351
 6584SOL    HW231215   3.102   0.715  11.467 -1.5324  1.3759  2.8030
 6585SOL     OW31216   0.210   1.583   1.186 -0.3814  0.0177  0.2933
 6585SOL    HW131217   0.152   1.507   1.189 -0.6242  0.1543 -1.0544
 6585SOL    HW231218   0.237   1.577   1.095  3.8106 -2.4519  1.7270
 6586SOL     OW31219   1.849   2.316   7.517  0.0901 -0.9744 -0.2607
 6586SOL    HW131220   1.833   2.304   7.611 -0.2847 -0.0071 -0.1910
 6586SOL    HW231221   1.927   2.262   7.504  0.3274  0.6826 -5.4958
 6587SOL     OW31222   3.265   3.800   7.631 -0.2055  0.0740 -0.0189
 6587SOL    HW131223   3.174   3.777   7.651  0.0087  0.6021  1.6350
 6587SOL    HW231224   3.307   3.729   7.681 -0.5685 -1.1486 -1.4686
 6588SOL     OW31225   3.997   1.455   7.484 -0.6138 -0.5880  0.4277
 6588SOL    HW131226   3.910   1.456   7.524 -0.3780  1.8301  0.8391
 6588SOL    HW231227   4.043   1.440   7.567  0.7608  0.4983 -0.1465
 6589SOL     OW31228   3.048   2.040  10.798 -0.4077  0.4032  0.1840
 6589SOL    HW131229   3.013   2.040  10.709 -3.3559 -0.8273  1.3570
 6589SOL    HW231230   3.000   2.116  10.831 -2.1619  0.0952 -1.6543
 6590SOL     OW31231   0.822   2.049   9.126  0.1224  0.2011  0.3140
 6590SOL    HW131232   0.821   1.979   9.060 -0.0135  0.2156  0.3022
 6590SOL    HW231233   0.888   2.008   9.182  2.2654  0.2839 -2.1514
 6591SOL     OW31234   1.866   0.494   2.282  0.7962 -0.1402 -0.6500
 6591SOL    HW131235   1.915   0.562   2.235 -2.0562  2.8838  0.7619
 6591SOL    HW231236   1.884   0.508   2.375 -1.8490  0.6244 -0.2436
 6592SOL     OW31237   1.782   1.666   6.816 -0.5536 -0.1515 -0.1569
 6592SOL    HW131238   1.741   1.617   6.744  2.1749 -2.4246 -0.1870
 6592SOL    HW231239   1.720   1.738   6.823  0.4858  0.7158  0.0747
 6593SOL     OW31240   2.002   4.186  15.188  0.3002  0.4709 -0.9222
 6593SOL    HW131241   1.934   4.120  15.179  0.8368 -0.2020 -0.0505
 6593SOL    HW231242   2.076   4.161  15.132  0.8104  1.7720 -0.8519
 6594SOL     OW31243   2.676   4.292   5.968  0.0090 -0.2839 -0.3082
 6594SOL    HW131244   2.617   4.328   6.035  0.6080 -0.8839  0.5325
 6594SOL    HW231245   2.749   4.258   6.020  2.1673  2.2091 -1.7251
 6595SOL     OW31246   4.597   4.494   8.472  0.8006 -0.1740 -0.2202
 6595SOL    HW131247   4.620   4.538   8.554 -1.2900  3.8932 -1.8525
 6595SOL    HW231248   4.550   4.562   8.424 -0.3262 -1.8326 -1.4606
 6596SOL     OW31249   4.437   1.495  14.512 -0.3393  0.0857 -0.0324
 6596SOL    HW131250   4.458   1.534  14.427 -0.6967 -0.1062 -0.2102
 6596SOL    HW231251   4.346   1.526  14.513 -0.3619 -0.0072  0.3685
 6597SOL     OW31252   4.427   0.548   6.987 -0.5631  0.0028 -0.1340
 6597SOL    HW131253   4.500   0.585   7.037 -0.1136 -0.0958 -0.7085
 6597SOL    HW231254   4.429   0.594   6.903 -0.1875 -0.7645 -0.5583
 6598SOL     OW31255   2.641   3.860   0.567 -0.5268  0.4748  0.0848
 6598SOL    HW131256   2.551   3.839   0.589 -0.2599  0.4407  1.1179
 6598SOL    HW231257   2.646   3.815   0.483 -0.8760 -3.2342  2.0611
 6599SOL     OW31258   1.985   2.361  16.459 -0.3694 -0.4344 -0.0968
 6599SOL    HW131259   2.062   2.411  16.430 -0.4028 -1.2513 -1.5960
 6599SOL    HW231260   2.028   2.276  16.461 -1.1753 -0.8024  1.3471
 6600SOL     OW31261   0.505   3.272   1.274  0.3011 -0.2156 -0.6404
 6600SOL    HW131262   0.530   3.216   1.348  0.5427  1.3490  0.4478
 6600SOL    HW231263   0.570   3.273   1.204  0.5653  0.2513 -0.3820
 6601SOL     OW31264   1.666   2.153   4.478 -0.5312  0.3582 -0.4470
 6601SOL    HW131265   1.761   2.165   4.476 -0.5145  0.4103  0.7689
 6601SOL    HW231266   1.659   2.067   4.436  1.9159 -0.5572  1.0371
 6602SOL     OW31267   2.455   2.150   3.030 -0.4567  0.5279 -0.5914
 6602SOL    HW131268   2.420   2.072   2.987  0.6596 -0.5575  0.4446
 6602SOL    HW231269   2.372   2.197   3.040 -0.6160  0.5834 -2.2960
 6603SOL     OW31270   1.138   1.594   2.222 -0.1164 -0.2957  0.1817
 6603SOL    HW131271   1.152   1.687   2.211  1.1818 -0.6965 -1.4946
 6603SOL    HW231272   1.207   1.576   2.286  0.3229  1.0938  0.0962
 6604SOL     OW31273   4.022   4.660   8.199 -0.1217 -0.1911 -0.3381
 6604SOL    HW131274   4.068   4.648   8.283 -1.2617 -0.6642  0.2252
 6604SOL    HW231275   4.077   4.618   8.134  0.4696  1.0949 -0.6579
 6605SOL     OW31276   2.942   1.618   2.881  0.2338 -0.2520 -0.2384
 6605SOL    HW131277   2.978   1.542   2.837  1.6732 -0.7025  1.7234
 6605SOL    HW231278   2.931   1.682   2.810 -0.3871 -0.8817 -0.7096
 6606SOL     OW31279   3.856   2.052   6.465  0.2093 -0.0637  0.2243
 6606SOL    HW131280   3.780   2.013   6.508  0.3668 -2.1556 -1.3834
 6606SOL    HW231281   3.845   2.141   6.498  0.7825 -0.1767  0.7226
 6607SOL     OW31282   2.250   3.448   2.315  0.3067 -0.1002 -0.2977
 6607SOL    HW131283   2.309   3.508   2.270  0.2306  0.0055 -0.2571
 6607SOL    HW231284   2.313   3.389   2.355 -1.6079 -1.7551  0.2622
 6608SOL     OW31285   0.890   2.042  14.612 -0.0701 -0.0771 -0.2358
 6608SOL    HW131286   0.868   2.135  14.612  1.0685  0.1851  0.6557
 6608SOL    HW231287   0.863   2.012  14.525  0.2757 -1.8553  0.2685
 6609SOL     OW31288   0.656   1.998   9.371 -0.2981  0.3122  0.0469
 6609SOL    HW131289   0.703   1.979   9.452  1.4988  0.0703 -1.0540
 6609SOL    HW231290   0.680   1.923   9.317 -1.0930 -0.5045  0.8397
 6610SOL     OW31291   1.270   2.050   3.828  0.1720 -0.0242  0.5218
 6610SOL    HW131292   1.315   2.115   3.883  2.4895 -0.4035 -0.8926
 6610SOL    HW231293   1.321   2.055   3.747 -1.2777 -0.2564 -0.3933
 6611SOL     OW31294   3.993   0.521   6.561  0.4664  0.5011  0.2253
 6611SOL    HW131295   4.043   0.465   6.620 -2.0921 -0.1200  1.7772
 6611SOL    HW231296   3.971   0.463   6.489 -3.0938  0.8569  1.0288
 6612SOL     OW31297   3.510   1.667   2.970  0.1366  0.2968  0.6513
 6612SOL    HW131298   3.583   1.605   2.969 -0.1271  0.0249 -1.6006
 6612SOL    HW231299   3.486   1.648   2.879  0.2807  2.3013  0.2019
 6613SOL     OW31300   2.227   2.896   8.212 -0.5706  0.0150 -0.1940
 6613SOL    HW131301   2.161   2.902   8.281 -0.6341  0.6436 -0.3083
 6613SOL    HW231302   2.299   2.870   8.270 -1.4008 -1.5685  0.1432
 6614SOL     OW31303   3.708   4.049  11.400 -0.2231 -0.1957  0.5418
 6614SOL    HW131304   3.665   4.113  11.344  2.0057 -0.1582 -1.0911
 6614SOL    HW231305   3.716   3.974  11.341  0.8349 -0.4973  1.0635
 6615SOL     OW31306   2.257   0.434   0.345  0.1241  0.1159 -0.3822
 6615SOL    HW131307   2.249   0.342   0.369  1.9662  0.4040  1.3369
 6615SOL    HW231308   2.352   0.432   0.328  0.3135  1.2094  0.5767
 6616SOL     OW31309   3.813   4.397  16.066  0.0899  0.1362  0.4710
 6616SOL    HW131310   3.866   4.453  16.009  0.5199 -0.9307 -0.1788
 6616SOL    HW231311   3.741   4.459  16.079  1.6809  1.7793  1.5136
 6617SOL     OW31312   0.935   3.901   6.983  0.0543 -0.1334  0.1611
 6617SOL    HW131313   0.897   3.939   7.062  1.6344 -0.6862  1.1955
 6617SOL    HW231314   0.937   3.980   6.929 -1.6233 -0.3938 -0.2851
 6618SOL     OW31315   4.471   2.541  17.250  0.1863  0.2054 -0.3226
 6618SOL    HW131316   4.417   2.473  17.289  0.3345  0.3831  0.1927
 6618SOL    HW231317   4.417   2.619  17.264  1.0028  0.4025  1.6945
 6619SOL     OW31318   1.661   2.177   2.143 -0.8849  0.0900  0.2808
 6619SOL    HW131319   1.597   2.189   2.073 -0.2840  2.0211  0.0614
 6619SOL    HW231320   1.744   2.180   2.094  0.5069 -1.0086  2.5871
 6620SOL     OW31321   0.369   1.573   1.813  0.3189 -0.5132 -0.2625
 6620SOL    HW131322   0.399   1.591   1.724  0.3707 -0.3724 -0.2166
 6620SOL    HW231323   0.274   1.584   1.802  0.2830 -0.7682 -0.2137
 6621SOL     OW31324   3.544   2.463  14.951  0.0961  0.0761 -0.5169
 6621SOL    HW131325   3.578   2.534  15.006 -0.3544 -0.1994  0.1168
 6621SOL    HW231326   3.586   2.392  14.999  0.3135  0.5343 -0.0366
 6622SOL     OW31327   1.581   2.998   5.667  0.2051 -0.2486 -0.3141
 6622SOL    HW131328   1.562   3.035   5.581 -1.0678  0.7425  0.4088
 6622SOL    HW231329   1.492   2.980   5.698  0.0490 -0.9761 -1.1647
 6623SOL     OW31330   3.166   1.832   3.858 -0.2505 -0.4478 -0.0387
 6623SOL    HW131331   3.188   1.762   3.796 -1.8450 -0.6268 -0.4249
 6623SOL    HW231332   3.211   1.903   3.812 -0.7454  0.2323  0.5389
 6624SOL     OW31333   2.677   1.065   7.958  0.7919  0.3520  0.3821
 6624SOL    HW131334   2.611   1.002   7.987 -0.9955  2.0945  0.1421
 6624SOL    HW231335   2.730   1.073   8.037  0.0140  1.5041  0.8025
 6625SOL     OW31336   1.880   2.253   8.557  0.0402  0.1511 -0.0084
 6625SOL    HW131337   1.890   2.242   8.652  3.0988  0.1278 -0.3469
 6625SOL    HW231338   1.808   2.317   8.560 -1.4035 -1.4576  0.1011
 6626SOL     OW31339   3.257   3.216   4.274  0.3551  0.1513 -0.3996
 6626SOL    HW131340   3.268   3.123   4.290 -0.5309  0.1118 -0.0690
 6626SOL    HW231341   3.204   3.253   4.344 -2.2779 -1.8002 -1.3995
 6627SOL     OW31342   2.508   4.538   5.314 -0.2286  0.0160  0.5840
 6627SOL    HW131343   2.523   4.517   5.407  1.1102 -0.5315  0.2558
 6627SOL    HW231344   2.494   4.632   5.319  0.8234  0.1384  1.2375
 6628SOL     OW31345   0.394   2.543   8.673  0.2078  0.3849  0.4572
 6628SOL    HW131346   0.440   2.473   8.627 -0.9966  0.5957 -1.0532
 6628SOL    HW231347   0.302   2.519   8.664 -0.1839  1.9473  0.2390
 6629SOL     OW31348   4.115   2.223   3.356 -0.2619 -0.0121  0.2792
 6629SOL    HW131349   4.157   2.239   3.272  0.1364 -0.5683  0.3740
 6629SOL    HW231350   4.137   2.131   3.368 -2.1105 -0.5106 -0.1726
 6630SOL     OW31351   2.489   3.716   6.856  0.0307 -0.3282  0.7537
 6630SOL    HW131352   2.488   3.753   6.944 -1.4585  0.7597  0.2672
 6630SOL    HW231353   2.405   3.670   6.847 -0.4583  0.9528 -1.1758
 6631SOL     OW31354   0.454   0.320   1.272  0.2202 -0.1584  0.5466
 6631SOL    HW131355   0.430   0.278   1.190  0.6426 -0.7421  0.7225
 6631SOL    HW231356   0.470   0.240   1.322  3.3237  1.1799  1.7140
 6632SOL     OW31357   3.945   0.274   2.249 -0.5904  0.0591 -0.0415
 6632SOL    HW131358   3.852   0.249   2.243 -0.3458 -0.7407 -0.5036
 6632SOL    HW231359   3.936   0.367   2.228  2.1357  0.3806  0.2095
 6633SOL     OW31360   4.297   4.074  16.386  0.4048 -0.2883 -0.3958
 6633SOL    HW131361   4.359   4.080  16.458 -1.3935 -0.1360  1.1367
 6633SOL    HW231362   4.332   3.998  16.339  1.2672 -1.4297  2.0903
 6634SOL     OW31363   4.084   2.329  12.714 -0.2514 -0.7708 -0.5334
 6634SOL    HW131364   4.062   2.299  12.626 -2.3074 -3.4287  0.8776
 6634SOL    HW231365   4.083   2.422  12.692  0.1450 -0.7937 -0.6313
 6635SOL     OW31366   3.346   3.765   6.619  0.3743  0.0714 -0.4259
 6635SOL    HW131367   3.272   3.763   6.679 -0.8529 -1.2030 -1.9701
 6635SOL    HW231368   3.305   3.817   6.550  1.5293  1.8217  0.2159
 6636SOL     OW31369   2.023   0.703   6.550 -0.1137 -0.4674 -0.1915
 6636SOL    HW131370   1.951   0.709   6.487  0.0965 -1.6476 -0.5383
 6636SOL    HW231371   1.988   0.729   6.635  0.7477  0.1891 -0.0412
 6637SOL     OW31372   0.471   1.381   5.875 -0.0928 -0.5216 -0.1723
 6637SOL    HW131373   0.406   1.362   5.807  1.3725  1.3817 -2.1319
 6637SOL    HW231374   0.414   1.395   5.950  0.0592  0.6743 -0.2735
 6638SOL     OW31375   0.514   2.296   7.946  0.2688 -0.3339  0.0371
 6638SOL    HW131376   0.580   2.264   7.885  0.7742  0.8714 -0.0551
 6638SOL    HW231377   0.454   2.222   7.946  0.8531 -0.8101 -1.0660
 6639SOL     OW31378   2.325   2.170  10.488 -0.1589 -0.5307 -0.2368
 6639SOL    HW131379   2.288   2.174  10.400 -0.1725 -2.8386 -0.3408
 6639SOL    HW231380   2.415   2.196  10.470 -0.3030 -0.4967 -0.9063
 6640SOL     OW31381   3.044   1.586  15.487 -0.2785  0.2530  0.6644
 6640SOL    HW131382   3.014   1.521  15.551  0.0431 -0.1699  0.3771
 6640SOL    HW231383   2.999   1.658  15.531 -1.7570 -1.4482  1.9564
 6641SOL     OW31384   2.870   2.798   6.266  0.0795 -0.1959  0.0952
 6641SOL    HW131385   2.781   2.761   6.262 -0.7244  1.5506  1.9919
 6641SOL    HW231386   2.906   2.756   6.188 -0.4595  1.8711 -1.2508
 6642SOL     OW31387   0.940   0.968   2.635  0.1336 -0.1612  0.2040
 6642SOL    HW131388   0.920   0.940   2.725 -0.8710 -0.4868 -0.1225
 6642SOL    HW231389   0.943   0.882   2.594 -1.9634  0.5550 -1.4330
 6643SOL     OW31390   2.544   3.775   8.325 -0.0530  0.0933 -0.2073
 6643SOL    HW131391   2.559   3.752   8.417  1.1734 -1.3463 -0.7799
 6643SOL    HW231392   2.458   3.817   8.311  0.4813  1.0960 -0.5296
 6644SOL     OW31393   2.026   0.269  13.760  0.4411  0.0640  0.0717
 6644SOL    HW131394   1.961   0.335  13.736  0.7456  0.0788 -0.7233
 6644SOL    HW231395   1.968   0.203  13.798  1.8933 -0.8432  0.6983
 6645SOL     OW31396   2.611   2.706   8.559  0.1983  0.3711  0.1550
 6645SOL    HW131397   2.632   2.799   8.552  0.6074  0.2709  0.1058
 6645SOL    HW231398   2.548   2.711   8.631  0.3979 -0.7476  0.4153
 6646SOL     OW31399   0.693   0.105  13.690  0.0667  0.2185  0.1566
 6646SOL    HW131400   0.732   0.111  13.777  0.1420  0.6435  0.0942
 6646SOL    HW231401   0.676   0.011  13.682  1.3882 -0.0579  0.7475
 6647SOL     OW31402   0.581   2.028   7.208 -0.3345 -0.4757  0.1832
 6647SOL    HW131403   0.561   1.937   7.230 -0.2370 -0.4598  0.3338
 6647SOL    HW231404   0.495   2.066   7.227 -1.1683 -1.4267 -1.7202
 6648SOL     OW31405   4.066   3.185  12.377 -0.0802  0.7843  0.7345
 6648SOL    HW131406   3.980   3.218  12.405 -0.5855  0.0225  0.0463
 6648SOL    HW231407   4.108   3.271  12.366  1.1785  0.3994  2.4381
 6649SOL     OW31408   3.143   2.170   0.381 -0.1919 -0.0617  0.0499
 6649SOL    HW131409   3.136   2.076   0.395 -0.0287 -0.2056 -0.8905
 6649SOL    HW231410   3.211   2.163   0.314  1.4374 -2.3820  1.9482
 6650SOL     OW31411   1.062   1.669   2.570 -0.4327 -0.0696 -0.0960
 6650SOL    HW131412   1.033   1.754   2.537  0.7502  0.3405 -0.0875
 6650SOL    HW231413   0.979   1.632   2.598 -1.2576  2.7972  1.3325
 6651SOL     OW31414   2.630   3.833   7.399 -0.2903  0.2314 -0.5341
 6651SOL    HW131415   2.697   3.771   7.428  1.8091  2.7602  0.0365
 6651SOL    HW231416   2.567   3.813   7.468  0.3945 -2.4603 -0.6970
 6652SOL     OW31417   2.083   3.464   6.366  0.5772 -0.2371  0.1731
 6652SOL    HW131418   2.092   3.525   6.292 -0.1025 -0.6933 -0.2896
 6652SOL    HW231419   2.088   3.375   6.329 -0.2129  0.2950 -1.2257
 6653SOL     OW31420   3.441   1.843   3.631  0.1331  0.3377 -0.7746
 6653SOL    HW131421   3.400   1.757   3.644 -2.6931  1.4348 -2.3482
 6653SOL    HW231422   3.485   1.837   3.716 -1.7717  4.1064  0.4709
 6654SOL     OW31423   4.037   2.937   1.551 -0.1361 -0.5550  0.0218
 6654SOL    HW131424   4.102   2.980   1.495 -3.5591  1.2158 -2.5674
 6654SOL    HW231425   4.073   2.949   1.639 -0.3782  0.4381 -0.0134
 6655SOL     OW31426   3.474   2.757   4.886 -0.0166  0.1049  0.2225
 6655SOL    HW131427   3.409   2.798   4.943  1.2448  0.0078  1.7148
 6655SOL    HW231428   3.546   2.818   4.902  1.1115 -1.1421 -0.1319
 6656SOL     OW31429   4.603   2.088   6.824  0.2125  0.3391 -0.1885
 6656SOL    HW131430   4.575   2.097   6.915 -0.7673  2.0068 -0.6477
 6656SOL    HW231431   4.696   2.110   6.831  0.7320 -1.7747 -0.4550
 6657SOL     OW31432   0.664   0.444   5.664 -0.2503  0.1199 -0.5481
 6657SOL    HW131433   0.724   0.473   5.734 -1.1002 -2.0147  1.0588
 6657SOL    HW231434   0.676   0.517   5.603  2.9063 -0.4824 -0.6826
 6658SOL     OW31435   1.232   1.187   4.400  0.2564  0.0406 -0.2122
 6658SOL    HW131436   1.203   1.095   4.405 -3.5890  1.0772 -3.4905
 6658SOL    HW231437   1.277   1.192   4.316 -1.9896 -0.4557 -1.4415
 6659SOL     OW31438   3.336   4.055  10.158  0.2760  0.2204  0.0620
 6659SOL    HW131439   3.367   4.131  10.108 -0.3809  1.9770  2.3084
 6659SOL    HW231440   3.295   4.101  10.231 -0.1581 -1.9377  1.1782
 6660SOL     OW31441   1.253   0.132  17.204 -0.2602 -0.1121  0.7119
 6660SOL    HW131442   1.189   0.174  17.262 -0.8254  0.6905 -0.4875
 6660SOL    HW231443   1.192   0.096  17.139 -1.1948 -0.6739  1.8969
 6661SOL     OW31444   1.097   3.080   3.383 -0.1471  0.1304  0.1811
 6661SOL    HW131445   1.188   3.054   3.367 -0.5741 -1.2557 -0.0054
 6661SOL    HW231446   1.066   3.111   3.299 -2.1523 -1.7958  0.2201
 6662SOL     OW31447   4.360   2.675   6.982 -0.4927 -0.4107  0.0675
 6662SOL    HW131448   4.402   2.620   6.916 -0.7151  1.0833 -1.3326
 6662SOL    HW231449   4.360   2.628   7.065  0.0619 -2.0868 -0.8818
 6663SOL     OW31450   2.848   2.901  15.255 -0.5294 -0.2593 -0.4412
 6663SOL    HW131451   2.844   2.864  15.344 -2.0155  0.0430 -0.3776
 6663SOL    HW231452   2.906   2.975  15.272 -0.4266  0.2619 -3.0578
 6664SOL     OW31453   0.949   2.113   5.024  0.7319  0.2000  0.3686
 6664SOL    HW131454   1.015   2.111   4.956 -0.5522 -0.3359 -0.8618
 6664SOL    HW231455   0.963   2.205   5.050  0.0239  0.0546  1.2737
 6665SOL     OW31456   3.791   2.145   5.024 -0.7181 -0.0545 -0.0914
 6665SOL    HW131457   3.725   2.108   5.083  0.2179 -0.5885  0.6081
 6665SOL    HW231458   3.846   2.189   5.088  0.1689  0.3313 -1.1145
 6666SOL     OW31459   4.334   2.338   0.759 -0.1865 -0.0723  0.0844
 6666SOL    HW131460   4.251   2.377   0.787  0.3190  0.3502  0.9908
 6666SOL    HW231461   4.399   2.406   0.779 -0.1452 -0.0012 -0.2807
 6667SOL     OW31462   0.935   0.228  14.841 -0.0200 -0.0677  0.0840
 6667SOL    HW131463   0.910   0.157  14.781 -2.2239 -0.4449  1.4469
 6667SOL    HW231464   0.992   0.276  14.781  1.3409 -0.9157  0.7015
 6668SOL     OW31465   1.961   0.955   4.341 -0.0650 -0.0224 -0.2845
 6668SOL    HW131466   2.031   0.929   4.280  0.5002  0.4170  0.1772
 6668SOL    HW231467   2.002   1.040   4.356  0.7947 -0.1468 -1.8289
 6669SOL     OW31468   0.437   0.419   1.905 -0.3531 -0.4380  0.5409
 6669SOL    HW131469   0.462   0.350   1.967 -0.8821 -2.2314 -1.2360
 6669SOL    HW231470   0.343   0.429   1.913  0.0006  2.5074  1.2421
 6670SOL     OW31471   1.720   1.795   2.769 -0.3064 -0.6864  0.1825
 6670SOL    HW131472   1.724   1.728   2.838 -1.5590  0.0213  0.9505
 6670SOL    HW231473   1.798   1.771   2.719 -0.6378  3.0520 -2.0374
 6671SOL     OW31474   2.815   3.623   2.338 -0.1271  0.4863  0.1793
 6671SOL    HW131475   2.743   3.686   2.347 -0.1684  0.9212 -3.1193
 6671SOL    HW231476   2.887   3.684   2.327  0.9549 -0.5509  1.5279
 6672SOL     OW31477   0.732   0.874   7.872  0.2809 -0.1540  0.2427
 6672SOL    HW131478   0.694   0.961   7.861  3.5361  1.1388 -0.7123
 6672SOL    HW231479   0.666   0.826   7.822  1.1053 -0.4217 -0.5837
 6673SOL     OW31480   0.771   0.613  11.512 -0.2409 -0.3662  0.5852
 6673SOL    HW131481   0.731   0.606  11.598 -2.6410 -0.4519 -0.5257
 6673SOL    HW231482   0.781   0.707  11.523 -2.1944 -0.2117  0.9644
 6674SOL     OW31483   1.627   2.897  15.828 -0.2545  0.3714 -0.1090
 6674SOL    HW131484   1.645   2.831  15.761 -0.1057  1.6142 -1.3055
 6674SOL    HW231485   1.559   2.843  15.868 -1.5881  1.6330 -0.7072
 6675SOL     OW31486   3.223   3.368   7.494  0.1761 -0.2757 -0.0586
 6675SOL    HW131487   3.267   3.371   7.579  1.9152 -2.2821 -0.9048
 6675SOL    HW231488   3.230   3.279   7.460 -0.3567 -1.2209  2.2814
 6676SOL     OW31489   2.248   0.471  13.252 -0.1570 -0.2016  0.1663
 6676SOL    HW131490   2.335   0.508  13.266 -0.7867  1.1327  0.5603
 6676SOL    HW231491   2.219   0.477  13.343  0.6829  2.0208  0.2785
 6677SOL     OW31492   1.189   4.255   0.275  0.2250  0.3556  0.0430
 6677SOL    HW131493   1.210   4.172   0.232  0.3297  0.6134 -0.4011
 6677SOL    HW231494   1.122   4.224   0.337 -0.5474  1.2060 -0.3589
 6678SOL     OW31495   1.740   1.480   5.021  0.1332  0.5234  0.2270
 6678SOL    HW131496   1.764   1.392   5.049 -0.5140  0.3704  0.3157
 6678SOL    HW231497   1.799   1.497   4.947 -0.7581  0.5042 -0.4895
 6679SOL     OW31498   4.385   3.383   1.380 -0.3103  0.6521  0.2873
 6679SOL    HW131499   4.293   3.371   1.357 -0.1693  1.9572 -0.9400
 6679SOL    HW231500   4.378   3.431   1.463  0.8879 -0.6245  1.1349
 6680SOL     OW31501   1.296   3.875   5.031  0.2477  0.0629  0.1790
 6680SOL    HW131502   1.285   3.958   4.985  2.2822 -0.0638 -0.5105
 6680SOL    HW231503   1.380   3.892   5.074  1.8799  0.5150 -3.2107
 6681SOL     OW31504   2.317   1.412   7.406  0.3685  0.0880 -0.1461
 6681SOL    HW131505   2.224   1.419   7.381  1.2958  0.7533 -3.4082
 6681SOL    HW231506   2.344   1.354   7.336  1.1549 -0.7651  0.8733
 6682SOL     OW31507   1.460   4.333   3.872  0.1790  0.5153  0.0474
 6682SOL    HW131508   1.466   4.346   3.777  0.5865  0.9515  0.1317
 6682SOL    HW231509   1.548   4.361   3.900 -1.2132  2.0835  2.7945
 6683SOL     OW31510   3.616   2.438   3.760 -0.7271 -0.2275 -0.2029
 6683SOL    HW131511   3.709   2.445   3.781 -1.1390 -1.2978  1.9841
 6683SOL    HW231512   3.607   2.351   3.801 -4.0222  0.5719  0.7242
 6684SOL     OW31513   2.600   1.619   1.905 -0.3970 -0.8798 -0.3140
 6684SOL    HW131514   2.539   1.556   1.865 -0.1741 -0.2342 -1.6625
 6684SOL    HW231515   2.672   1.618   1.842 -0.3789  1.3395 -0.3346
 6685SOL     OW31516   2.613   3.066   6.781  0.9292 -0.1002 -0.3274
 6685SOL    HW131517   2.657   3.129   6.838  0.1838  0.9635 -0.9268
 6685SOL    HW231518   2.556   3.036   6.851 -0.6358  0.6818 -1.2558
 6686SOL     OW31519   0.888   0.640  16.386  0.1604 -0.5285 -0.5828
 6686SOL    HW131520   0.882   0.656  16.292  2.3964  0.4156 -0.5557
 6686SOL    HW231521   0.942   0.561  16.394  0.0133 -0.2998  2.8934
 6687SOL     OW31522   3.189   0.265   2.055 -0.3589  0.2751 -0.1479
 6687SOL    HW131523   3.181   0.183   2.005 -0.5005 -0.8858  1.7819
 6687SOL    HW231524   3.099   0.292   2.073  0.3000  2.3228  0.0224
 6688SOL     OW31525   3.592   3.928   6.780 -0.3025 -0.8847 -0.2318
 6688SOL    HW131526   3.598   3.834   6.763 -0.5984 -1.1702  1.2440
 6688SOL    HW231527   3.499   3.939   6.800 -0.5826 -0.4431 -1.7211
 6689SOL     OW31528   0.044   1.345   9.432 -0.1238  0.5762 -0.0228
 6689SOL    HW131529   0.089   1.263   9.450  0.6714  0.6274 -1.7917
 6689SOL    HW231530   0.115   1.402   9.401  1.7678 -0.8492  1.7093
 6690SOL     OW31531   0.634   1.089   2.524  0.8023 -0.5051 -0.0619
 6690SOL    HW131532   0.654   1.152   2.593 -0.2388 -1.2877  0.9507
 6690SOL    HW231533   0.602   1.139   2.449  0.4632  1.2284  1.2380
 6691SOL     OW31534   1.578   2.347   3.859 -0.0292 -0.1773 -0.4052
 6691SOL    HW131535   1.597   2.412   3.791  1.6383 -0.8687 -0.5907
 6691SOL    HW231536   1.631   2.269   3.843 -1.1217 -1.2430  1.1299
 6692SOL     OW31537   3.732   0.413  11.660  0.2214  0.3664 -0.1374
 6692SOL    HW131538   3.769   0.351  11.597 -0.0425  0.4540 -0.3731
 6692SOL    HW231539   3.652   0.368  11.686 -0.9489  0.6024 -3.3864
 6693SOL     OW31540   1.921   1.471   6.936  0.2457  0.4957  0.0973
 6693SOL    HW131541   1.864   1.540   6.902  0.7197  0.4910 -0.6977
 6693SOL    HW231542   1.911   1.405   6.868 -0.6371 -0.6158  1.2962
 6694SOL     OW31543   2.636   4.426   4.172 -0.1117  0.0794  0.7944
 6694SOL    HW131544   2.642   4.330   4.176  0.9553  0.0211 -1.8441
 6694SOL    HW231545   2.621   4.448   4.264 -1.6808 -0.2194  0.6104
 6695SOL     OW31546   4.324   1.365   6.329 -0.2956 -0.2913 -0.4124
 6695SOL    HW131547   4.376   1.353   6.409  0.5782 -1.8134 -1.2006
 6695SOL    HW231548   4.331   1.458   6.306  1.0278  0.3590  2.5889
 6696SOL     OW31549   4.577   0.592   2.128 -0.0603 -0.4627  0.5394
 6696SOL    HW131550   4.491   0.613   2.093  0.4164 -1.1925 -1.0714
 6696SOL    HW231551   4.555   0.571   2.219 -0.5672 -2.7989 -0.1169
 6697SOL     OW31552   2.175   3.342  12.738  0.4192  0.0522  0.4218
 6697SOL    HW131553   2.234   3.281  12.692  1.0123  0.5446  0.5365
 6697SOL    HW231554   2.115   3.356  12.665 -0.0901 -0.2931  0.7791
 6698SOL     OW31555   3.458   0.962  17.538  0.4249 -0.2495  0.3165
 6698SOL    HW131556   3.533   1.017  17.515  0.4572 -0.6481 -0.5377
 6698SOL    HW231557   3.464   0.975  17.632 -3.8242 -0.1695  0.6083
 6699SOL     OW31558   3.401   2.539   7.015 -0.0959  0.0988 -0.1259
 6699SOL    HW131559   3.418   2.608   6.950  0.7575  0.8635  0.9042
 6699SOL    HW231560   3.411   2.591   7.095 -1.3586  0.3441 -0.1181
 6700SOL     OW31561   0.301   0.391   5.721  0.3545 -0.0945 -0.5546
 6700SOL    HW131562   0.268   0.393   5.811  0.5176 -1.0201 -0.4677
 6700SOL    HW231563   0.232   0.439   5.676 -0.0262 -2.2145 -2.2527
 6701SOL     OW31564   2.340   1.442   6.721 -0.3473 -0.0494 -0.2282
 6701SOL    HW131565   2.300   1.463   6.806  0.9811 -3.7428  1.3190
 6701SOL    HW231566   2.298   1.358   6.704 -1.3686  0.4162  0.0016
 6702SOL     OW31567   1.243   2.991   2.670  0.2089 -0.4145  0.4062
 6702SOL    HW131568   1.199   2.927   2.725 -1.8228  2.1560  1.7536
 6702SOL    HW231569   1.300   2.926   2.628  1.3855  1.1639 -0.4046
 6703SOL     OW31570   2.929   0.880  14.550 -0.0760  0.1253  0.2551
 6703SOL    HW131571   2.884   0.873  14.635 -0.5838 -0.5252 -0.0611
 6703SOL    HW231572   2.922   0.971  14.524 -0.4765  0.1900  0.5810
 6704SOL     OW31573   1.563   1.210   5.315  0.3903 -0.5263 -0.2522
 6704SOL    HW131574   1.488   1.266   5.296  1.1358  0.6809  0.3621
 6704SOL    HW231575   1.557   1.158   5.235 -1.0496 -0.5512 -0.1219
 6705SOL     OW31576   2.132   1.327   4.039  0.4364  0.3150 -0.3548
 6705SOL    HW131577   2.106   1.301   4.127  2.2554  0.2078  0.1670
 6705SOL    HW231578   2.157   1.240   4.008 -0.6679  0.1897 -0.8859
 6706SOL     OW31579   3.697   2.818   8.858  0.0401  0.2108  0.3466
 6706SOL    HW131580   3.671   2.908   8.878 -0.7998  0.0889 -0.1996
 6706SOL    HW231581   3.788   2.808   8.888  1.1541 -2.5204 -3.7865
 6707SOL     OW31582   3.552   3.416   5.578  0.0081 -0.3203  0.2472
 6707SOL    HW131583   3.534   3.374   5.494 -0.7409 -0.8151  0.6484
 6707SOL    HW231584   3.554   3.342   5.638 -0.1599 -1.9295 -1.7277
 6708SOL     OW31585   0.543   0.881   1.155 -1.0144 -0.2655 -0.1177
 6708SOL    HW131586   0.501   0.904   1.072  1.5761  0.2972 -1.2642
 6708SOL    HW231587   0.632   0.875   1.120 -0.7676 -1.0226  0.6169
 6709SOL     OW31588   0.805   0.430   1.543 -0.0060 -0.1007  0.1741
 6709SOL    HW131589   0.747   0.356   1.564  0.4420 -0.8704 -1.2847
 6709SOL    HW231590   0.731   0.489   1.528  1.3467  0.8588 -2.6444
 6710SOL     OW31591   1.327   2.975   5.737  0.0718 -0.3423  0.3878
 6710SOL    HW131592   1.238   2.957   5.709  0.8045 -0.7128 -1.6998
 6710SOL    HW231593   1.352   2.894   5.780  1.5351 -0.4882 -0.7287
 6711SOL     OW31594   1.258   1.249   8.386 -0.3698  0.0130  0.0159
 6711SOL    HW131595   1.292   1.160   8.387 -0.2967  0.0569  2.1315
 6711SOL    HW231596   1.275   1.285   8.473  0.5734 -1.8049  0.5771
 6712SOL     OW31597   1.111   4.438   9.552  0.1541 -0.6284 -0.0222
 6712SOL    HW131598   1.030   4.458   9.599  1.2209  1.6603  0.8061
 6712SOL    HW231599   1.173   4.430   9.625  1.5603  2.6579 -0.8804
 6713SOL     OW31600   1.830   2.330   4.791 -0.2500  0.1497  0.4459
 6713SOL    HW131601   1.848   2.257   4.731  0.7360  0.5097  0.2994
 6713SOL    HW231602   1.913   2.378   4.793 -0.9750  1.4556 -0.7772
 6714SOL     OW31603   0.895   4.121   5.676  0.0596 -0.4976 -0.1397
 6714SOL    HW131604   0.949   4.134   5.599  1.9718  0.5331  1.3671
 6714SOL    HW231605   0.876   4.029   5.662  1.5351 -0.6951 -0.8087
 6715SOL     OW31606   1.527   0.197   5.782 -0.8106 -0.9080  0.4057
 6715SOL    HW131607   1.473   0.165   5.854 -0.9701  0.6692  0.9762
 6715SOL    HW231608   1.458   0.220   5.720  0.5282 -1.8184 -1.4139
 6716SOL     OW31609   3.628   0.376   4.582  0.2843 -0.7714  0.0988
 6716SOL    HW131610   3.559   0.442   4.590  0.7297  0.0356 -2.8054
 6716SOL    HW231611   3.581   0.295   4.600 -0.4857  0.1439  2.1482
 6717SOL     OW31612   3.560   0.640   0.999 -0.1815 -0.2457 -0.1130
 6717SOL    HW131613   3.559   0.545   0.984 -1.3906 -0.1757 -0.4594
 6717SOL    HW231614   3.475   0.656   0.957  0.8351  2.1316 -1.2586
 6718SOL     OW31615   3.259   2.922   8.065  0.3296  0.0105  0.5307
 6718SOL    HW131616   3.298   2.900   8.149 -1.4018  1.5830  1.7401
 6718SOL    HW231617   3.195   2.984   8.098  0.6988 -0.3840  1.9715
 6719SOL     OW31618   0.258   1.151   4.351  0.1029 -0.1375  0.1060
 6719SOL    HW131619   0.309   1.189   4.422 -0.3922  1.6305 -0.4758
 6719SOL    HW231620   0.319   1.151   4.277  0.3815  3.4774  0.3163
 6720SOL     OW31621   0.068   1.836   8.876 -0.7381  0.2372  0.2618
 6720SOL    HW131622   0.104   1.766   8.932 -4.6419 -1.0543  1.1799
 6720SOL    HW231623   0.139   1.899   8.891  1.0981 -2.2779  2.1861
 6721SOL     OW31624   0.275   4.352   0.158 -0.3491 -0.0933  0.7351
 6721SOL    HW131625   0.364   4.329   0.131  0.1829  1.0835  1.4882
 6721SOL    HW231626   0.224   4.300   0.095 -2.3146  0.9231  1.4751
 6722SOL     OW31627   0.652   4.517   0.099  0.4449 -0.5245 -0.3474
 6722SOL    HW131628   0.631   4.423   0.106 -0.3609 -0.5008 -2.6429
 6722SOL    HW231629   0.660   4.522   0.004  0.8388  0.9407 -0.2276
 6723SOL     OW31630   2.773   4.435  12.198 -0.1315 -0.1250 -0.1940
 6723SOL    HW131631   2.826   4.511  12.222 -0.2743 -0.5245  1.4240
 6723SOL    HW231632   2.761   4.381  12.277 -1.3334  0.2977 -0.0891
 6724SOL     OW31633   3.656   2.819  13.214  0.2843  0.0982  0.6379
 6724SOL    HW131634   3.571   2.790  13.180  0.0346  0.6391  0.7950
 6724SOL    HW231635   3.629   2.906  13.245  1.2235  0.8656 -0.6846
 6725SOL     OW31636   4.635   1.074  12.555  0.3978 -0.0803 -0.0751
 6725SOL    HW131637   4.692   1.084  12.478  0.6709 -0.9560  0.0152
 6725SOL    HW231638   4.661   0.989  12.590  0.6188 -0.1600 -0.4350
 6726SOL     OW31639   1.612   0.120   5.201 -0.8352  0.8340 -0.6873
 6726SOL    HW131640   1.679   0.188   5.204  0.2948 -0.4256  2.3320
 6726SOL    HW231641   1.560   0.153   5.128 -2.6619 -1.9346 -0.6517
 6727SOL     OW31642   2.483   4.704   4.637  0.0627 -0.2399  0.9479
 6727SOL    HW131643   2.409   4.643   4.638 -0.5028  0.4742  2.5826
 6727SOL    HW231644   2.446   0.068   4.615  0.6307 -0.7502 -1.9203
 6728SOL     OW31645   0.625   3.273   4.042 -0.5867  0.3820  0.2877
 6728SOL    HW131646   0.636   3.365   4.065  0.6611  0.1409  0.6795
 6728SOL    HW231647   0.638   3.240   4.131 -1.1853  3.6439  1.5826
 6729SOL     OW31648   3.556   0.652  12.827  0.1621  0.0685 -0.1518
 6729SOL    HW131649   3.562   0.604  12.910 -0.9246 -2.1509 -1.3503
 6729SOL    HW231650   3.646   0.650  12.796  1.3380  1.7710  3.1776
 6730SOL     OW31651   0.141   2.209   7.808 -0.0832  0.1407 -0.5625
 6730SOL    HW131652   0.200   2.138   7.832 -1.4140 -0.5619  0.6488
 6730SOL    HW231653   0.056   2.166   7.799  0.0715  0.1304 -1.9235
 6731SOL     OW31654   0.251   2.735   7.234 -0.0337  0.2357  0.5959
 6731SOL    HW131655   0.260   2.762   7.143  1.6674 -3.3796 -0.3119
 6731SOL    HW231656   0.252   2.823   7.271  0.9668  0.0530  1.0070
 6732SOL     OW31657   2.114   3.362   5.532  0.2301 -0.0327 -0.1599
 6732SOL    HW131658   2.051   3.434   5.539 -0.7101 -0.9119  0.4785
 6732SOL    HW231659   2.059   3.293   5.570  0.1349 -0.5766 -1.2809
 6733SOL     OW31660   4.318   0.163   7.945  0.6768  0.1654 -0.2732
 6733SOL    HW131661   4.230   0.160   7.981 -0.1289  1.3355 -2.1827
 6733SOL    HW231662   4.372   0.127   8.016 -1.7888  1.1497  2.0856
 6734SOL     OW31663   4.718   4.427   7.537 -0.4613 -0.2402  0.1125
 6734SOL    HW131664   0.040   4.511   7.549 -0.9288  0.6012 -4.0560
 6734SOL    HW231665   4.710   4.424   7.442  1.2679 -1.7276  0.0186
 6735SOL     OW31666   1.271   2.882   6.736  0.1121  0.2583  0.2614
 6735SOL    HW131667   1.335   2.898   6.666  1.2341 -0.8541  1.0550
 6735SOL    HW231668   1.194   2.925   6.697  2.0398  3.0517 -0.5297
 6736SOL     OW31669   3.661   4.107  10.778 -0.1825 -0.0544 -0.1763
 6736SOL    HW131670   3.649   4.084  10.686 -1.5770 -3.1447  0.7921
 6736SOL    HW231671   3.581   4.151  10.806 -1.2725 -1.7346 -0.6769
 6737SOL     OW31672   3.341   1.297   2.885  0.5594 -0.1448  0.4366
 6737SOL    HW131673   3.374   1.387   2.883 -0.5250  0.2247 -0.7905
 6737SOL    HW231674   3.321   1.285   2.978 -3.1104 -0.8509 -0.4582
 6738SOL     OW31675   1.782   4.434   2.876 -0.2903 -0.0633  0.0270
 6738SOL    HW131676   1.728   4.439   2.797  2.5670 -1.2621 -1.9663
 6738SOL    HW231677   1.861   4.397   2.838  0.5941  0.8416  0.9921
 6739SOL     OW31678   4.047   0.288  14.514 -0.4220  0.3986  0.4377
 6739SOL    HW131679   4.059   0.329  14.599 -0.3799 -1.7298  1.4615
 6739SOL    HW231680   4.063   0.198  14.543  0.8610  0.7641  0.8546
 6740SOL     OW31681   3.011   3.530   3.568 -0.5204  0.3446 -0.2976
 6740SOL    HW131682   2.999   3.603   3.628  2.0285  2.4321 -2.3348
 6740SOL    HW231683   3.003   3.573   3.482  0.2941 -0.3606 -0.7273
 6741SOL     OW31684   0.929   0.468  12.414  0.2470 -0.5326 -0.4467
 6741SOL    HW131685   1.000   0.496  12.356  0.1153  1.2908  0.2912
 6741SOL    HW231686   0.955   0.503  12.499 -2.1891 -0.6044  0.3381
 6742SOL     OW31687   1.502   3.368   6.549 -0.2589  0.1993  0.1023
 6742SOL    HW131688   1.494   3.284   6.593 -0.8497 -0.2365 -0.8405
 6742SOL    HW231689   1.523   3.337   6.461  1.9227  0.9665  0.3460
 6743SOL     OW31690   2.004   4.585   2.222 -0.6236  0.1300 -0.1093
 6743SOL    HW131691   2.084   4.535   2.239  1.6658  3.3313 -1.6300
 6743SOL    HW231692   2.028   4.667   2.264 -1.0247  0.3126 -0.2353
 6744SOL     OW31693   0.453   1.733   2.008  0.0513  0.0838 -0.3087
 6744SOL    HW131694   0.419   1.654   1.965  1.1918  0.2472 -1.5278
 6744SOL    HW231695   0.518   1.696   2.068 -0.9687  0.3834  0.9672
 6745SOL     OW31696   1.242   3.243   7.724 -0.3269  0.0434 -0.3800
 6745SOL    HW131697   1.254   3.327   7.680  0.6722  0.1073  0.0219
 6745SOL    HW231698   1.165   3.202   7.684  0.8463 -0.2142 -2.3598
 6746SOL     OW31699   1.889   0.339   8.052  0.2445 -0.0378 -0.1018
 6746SOL    HW131700   1.938   0.412   8.090  1.2234 -0.6774 -0.1425
 6746SOL    HW231701   1.802   0.379   8.054 -0.2238 -1.1516  1.2260
 6747SOL     OW31702   2.251   4.044  11.065  0.6824 -0.1369  0.1377
 6747SOL    HW131703   2.228   4.056  11.157 -1.8135 -0.3521 -0.4593
 6747SOL    HW231704   2.293   3.958  11.075  0.9278  0.0507  0.6760
 6748SOL     OW31705   2.257   2.282   5.032  0.3826  0.2084  0.0914
 6748SOL    HW131706   2.312   2.240   4.966 -1.5376 -2.6342  0.3127
 6748SOL    HW231707   2.173   2.239   5.018 -0.2647  1.0428  1.4180
 6749SOL     OW31708   2.961   0.907   3.293  0.0737 -0.2687  0.2017
 6749SOL    HW131709   2.978   0.825   3.246 -2.0405 -1.3287  1.2687
 6749SOL    HW231710   2.996   0.970   3.230  1.1175  1.3109  2.3595
 6750SOL     OW31711   0.195   0.285   5.013  0.3510 -0.6654 -0.0126
 6750SOL    HW131712   0.217   0.352   5.078 -1.6710 -0.4197  0.4172
 6750SOL    HW231713   0.200   0.204   5.063  0.4118  0.4953  1.8536
 6751SOL     OW31714   3.109   3.831  16.630  0.6699 -0.5005 -0.0387
 6751SOL    HW131715   3.081   3.741  16.643  2.5625 -0.7658  2.2384
 6751SOL    HW231716   3.062   3.867  16.555 -1.4180  0.1810  1.6114
 6752SOL     OW31717   3.564   4.115   5.988  0.2784  0.1160 -0.2200
 6752SOL    HW131718   3.574   4.080   5.900  1.2925  1.6632 -0.7195
 6752SOL    HW231719   3.597   4.205   5.994 -0.4271  0.4141 -0.8440
 6753SOL     OW31720   3.102   3.861  15.744  0.0717 -0.4168  0.0799
 6753SOL    HW131721   3.175   3.830  15.798  0.6638 -0.4573 -0.7490
 6753SOL    HW231722   3.106   3.806  15.666 -0.4097 -1.6194  0.9067
 6754SOL     OW31723   3.932   0.736   3.953 -0.4238 -0.3713  0.4930
 6754SOL    HW131724   4.000   0.802   3.940 -2.1876  1.5526  1.1215
 6754SOL    HW231725   3.881   0.770   4.026  2.3898  1.9685  1.3658
 6755SOL     OW31726   4.521   2.776   3.828  1.0414  0.1480 -0.4295
 6755SOL    HW131727   4.556   2.717   3.762  3.3403  2.6905 -1.4821
 6755SOL    HW231728   4.582   2.848   3.818  1.1080  0.2445  0.6376
 6756SOL     OW31729   1.932   4.605   6.613 -0.1931  0.2348 -0.6477
 6756SOL    HW131730   2.009   4.598   6.671 -1.4665 -1.3082  0.8646
 6756SOL    HW231731   1.967   4.573   6.530 -0.1028 -1.2584 -0.0415
 6757SOL     OW31732   3.995   0.102  15.574  0.2247 -0.6394  0.1444
 6757SOL    HW131733   3.928   0.037  15.591 -0.6586 -0.0633 -1.1553
 6757SOL    HW231734   3.966   0.168  15.637  1.0489 -1.5989  1.5341
 6758SOL     OW31735   2.001   2.983   4.111  0.7975 -0.2440  0.6124
 6758SOL    HW131736   2.042   2.955   4.029 -1.0414  0.5129 -0.5617
 6758SOL    HW231737   2.068   2.945   4.169 -0.7260 -0.2116  2.4031
 6759SOL     OW31738   0.481   1.653   2.643 -0.2609 -0.1738  0.2485
 6759SOL    HW131739   0.387   1.670   2.636 -0.8465 -2.8806  1.3556
 6759SOL    HW231740   0.485   1.661   2.738 -1.5869  0.0228  0.2860
 6760SOL     OW31741   0.684   0.413   3.045  0.5806  0.2645  0.1334
 6760SOL    HW131742   0.613   0.361   3.080  1.1396  0.1806  1.1419
 6760SOL    HW231743   0.673   0.497   3.090 -0.0873  0.7739 -0.9813
 6761SOL     OW31744   0.114   3.939   3.449 -0.0098  0.3791 -0.1822
 6761SOL    HW131745   0.130   3.910   3.359  0.0353  0.0204 -0.0578
 6761SOL    HW231746   0.146   4.029   3.443 -0.1455  0.3631 -1.2920
 6762SOL     OW31747   1.726   2.034  11.818 -0.1615  0.2735 -0.0067
 6762SOL    HW131748   1.643   2.043  11.865 -1.5633 -0.5691 -2.3106
 6762SOL    HW231749   1.696   2.061  11.731 -2.0274  1.1820  0.9101
 6763SOL     OW31750   0.015   4.303   2.799  0.5500 -0.2140  0.0243
 6763SOL    HW131751   0.080   4.298   2.869  1.3088 -0.4341 -0.6910
 6763SOL    HW231752   0.054   4.263   2.721  0.5499  3.7994 -2.0846
 6764SOL     OW31753   1.077   1.050  15.090 -0.3621  0.3850  0.0772
 6764SOL    HW131754   1.079   1.021  14.999  0.4114 -1.2506  0.6266
 6764SOL    HW231755   1.101   1.142  15.078 -2.8829  1.1536  0.9412
 6765SOL     OW31756   2.677   1.479  10.576 -0.6357  0.0276  0.1869
 6765SOL    HW131757   2.614   1.546  10.550  0.4039  0.7412 -0.4450
 6765SOL    HW231758   2.751   1.533  10.602 -1.9989  1.4214  1.1715
 6766SOL     OW31759   1.287   3.809  14.716  0.3215 -0.6532  0.2920
 6766SOL    HW131760   1.246   3.810  14.630 -0.4429 -2.0322  0.6461
 6766SOL    HW231761   1.344   3.884  14.697  0.5863 -0.4224  1.9538
 6767SOL     OW31762   1.277   3.730   6.887 -0.1121 -0.1607  0.4589
 6767SOL    HW131763   1.259   3.794   6.819  2.5928  0.2337  0.0884
 6767SOL    HW231764   1.289   3.648   6.840 -1.0107  1.1336 -2.0258
 6768SOL     OW31765   4.583   3.091  14.120 -0.1929 -0.4047 -0.6238
 6768SOL    HW131766   4.644   3.104  14.047  0.5569 -1.3999 -0.1680
 6768SOL    HW231767   4.634   3.085  14.200 -0.5997 -1.7024 -0.4569
 6769SOL     OW31768   4.368   1.946   4.467  0.2220 -0.5804  0.1787
 6769SOL    HW131769   4.453   1.903   4.472 -0.1602 -1.1308  2.2579
 6769SOL    HW231770   4.300   1.885   4.441 -0.3287  0.1965 -0.2120
 6770SOL     OW31771   1.827   1.233   6.211  0.2599 -0.0002 -0.2228
 6770SOL    HW131772   1.911   1.190   6.227 -1.2810 -2.5291  1.0245
 6770SOL    HW231773   1.861   1.316   6.177 -4.9953  1.5284 -1.7339
 6771SOL     OW31774   1.876   2.611  16.447  0.6067  0.5204  0.7092
 6771SOL    HW131775   1.886   2.518  16.431  1.4360  0.6468  0.4930
 6771SOL    HW231776   1.823   2.644  16.375  1.4348 -0.4469 -0.3373
 6772SOL     OW31777   1.136   1.745   8.680  0.2850  0.0460 -0.4329
 6772SOL    HW131778   1.082   1.705   8.748  2.6254  1.3775  2.2003
 6772SOL    HW231779   1.094   1.831   8.669 -1.1158 -0.5736  0.1428
 6773SOL     OW31780   0.817   3.049  17.059 -0.3879  0.0653  0.1771
 6773SOL    HW131781   0.848   2.968  17.099 -1.4049 -0.9074 -1.0026
 6773SOL    HW231782   0.788   3.090  17.140  1.3934  1.9807 -0.1633
 6774SOL     OW31783   1.913   0.514   4.389  0.2126  0.1278 -0.2688
 6774SOL    HW131784   1.914   0.445   4.455  2.1171 -1.3952 -1.8775
 6774SOL    HW231785   1.972   0.575   4.434  0.8363 -2.2096  2.0719
 6775SOL     OW31786   2.880   1.752   6.051  0.1981  0.5240  0.6279
 6775SOL    HW131787   2.957   1.778   6.102  1.1301  0.6747 -0.8477
 6775SOL    HW231788   2.809   1.753   6.116 -1.2583  0.3932 -0.9533
 6776SOL     OW31789   3.662   0.764   4.297  0.8023  0.1815 -0.2296
 6776SOL    HW131790   3.744   0.773   4.346  1.1591  1.0951 -1.0010
 6776SOL    HW231791   3.686   0.703   4.227 -0.8967 -0.1263 -0.5403
 6777SOL     OW31792   0.116   1.820   1.801  0.5759  0.0810  0.1978
 6777SOL    HW131793   0.112   1.867   1.718 -0.4786  1.7435  1.1785
 6777SOL    HW231794   0.154   1.881   1.864  0.4740  1.4664 -1.0841
 6778SOL     OW31795   3.485   0.849   7.098 -0.4333 -0.1242 -1.0779
 6778SOL    HW131796   3.525   0.880   7.017 -0.9471 -1.8571 -2.0109
 6778SOL    HW231797   3.527   0.911   7.158  0.8459 -0.2847 -1.8089
 6779SOL     OW31798   0.443   1.168   9.779  0.9208  0.2034 -0.4941
 6779SOL    HW131799   0.455   1.103   9.709 -0.6742 -0.1591 -0.4389
 6779SOL    HW231800   0.473   1.251   9.742  1.1578 -0.3105 -1.4700
 6780SOL     OW31801   1.631   3.437   2.182  0.0608  0.2570  0.7161
 6780SOL    HW131802   1.589   3.371   2.237 -0.6335  1.1628  1.2775
 6780SOL    HW231803   1.722   3.411   2.195 -0.3248 -0.9005  1.1020
 6781SOL     OW31804   1.217   2.989   4.757  0.2539 -0.5464 -0.2529
 6781SOL    HW131805   1.186   2.938   4.683 -1.5441  1.1004 -0.6521
 6781SOL    HW231806   1.128   3.002   4.790  0.2489  2.3855 -1.3584
 6782SOL     OW31807   4.501   0.603   7.805  0.0878  0.1294  0.1760
 6782SOL    HW131808   4.490   0.550   7.726  0.9230 -0.2879  0.3364
 6782SOL    HW231809   4.596   0.611   7.799  0.2235 -2.2708 -0.9469
 6783SOL     OW31810   0.351   3.943   1.089 -0.3847 -0.4786 -0.3769
 6783SOL    HW131811   0.442   3.938   1.058  0.4811  3.5523  1.4605
 6783SOL    HW231812   0.333   3.849   1.096 -0.9112 -0.2355  1.5866
 6784SOL     OW31813   1.358   0.555   0.820  0.1574 -0.1693 -0.2603
 6784SOL    HW131814   1.377   0.649   0.819  0.0788 -0.1174  2.7324
 6784SOL    HW231815   1.268   0.555   0.852  0.9250 -0.6820  1.9060
 6785SOL     OW31816   3.768   4.036  12.360  0.0176  0.3285 -0.5819
 6785SOL    HW131817   3.761   3.959  12.417 -0.4008  0.5117 -0.3846
 6785SOL    HW231818   3.734   4.108  12.413  1.1076 -0.4438  1.1617
 6786SOL     OW31819   2.173   3.117   5.957  0.0786 -0.2815  0.6624
 6786SOL    HW131820   2.119   3.058   6.010 -3.1201  0.4667 -1.7770
 6786SOL    HW231821   2.256   3.071   5.944  0.1900 -0.0508  0.5533
 6787SOL     OW31822   4.286   0.966   5.755 -0.7058  0.1310  0.4986
 6787SOL    HW131823   4.226   1.035   5.782  0.1375  0.8765  0.4660
 6787SOL    HW231824   4.231   0.889   5.768 -2.4201  0.9127 -2.1599
 6788SOL     OW31825   0.886   4.685   3.902  0.7160  0.5787 -0.0858
 6788SOL    HW131826   0.851   4.623   3.838  0.5058  0.7133 -0.1000
 6788SOL    HW231827   0.803   0.011   3.912 -0.7151 -2.3687  1.8730
 6789SOL     OW31828   2.021   4.620   9.099  0.1090  0.4103 -0.4751
 6789SOL    HW131829   2.081   4.549   9.078 -0.2108  0.5108 -1.7064
 6789SOL    HW231830   2.064   4.703   9.080  1.0564 -0.8465 -3.7787
 6790SOL     OW31831   1.298   2.425  14.112  0.1688  0.0400  0.5753
 6790SOL    HW131832   1.211   2.397  14.143  1.3993 -1.4119  2.6777
 6790SOL    HW231833   1.299   2.371  14.032 -0.0631 -1.4303  1.5739
 6791SOL     OW31834   2.119   3.840   7.551 -0.3480 -0.3894  0.2349
 6791SOL    HW131835   2.070   3.837   7.633 -0.7982  0.2026 -0.0141
 6791SOL    HW231836   2.202   3.800   7.576 -1.6619 -2.9144  0.5472
 6792SOL     OW31837   0.049   4.185   2.191  0.1500  0.8160 -0.4519
 6792SOL    HW131838   0.108   4.245   2.236 -2.1763  1.5940  1.5335
 6792SOL    HW231839   0.102   4.185   2.111 -0.2588  2.9590 -0.7032
 6793SOL     OW31840   2.308   4.305   4.992 -0.1224  0.1346  0.4328
 6793SOL    HW131841   2.231   4.353   5.021 -0.0089  0.3073  0.4432
 6793SOL    HW231842   2.332   4.290   5.083 -0.5365 -0.3548  0.4652
 6794SOL     OW31843   0.419   3.516  15.345 -0.1586 -0.2137  0.2760
 6794SOL    HW131844   0.347   3.573  15.369 -0.3681 -0.9624  1.4411
 6794SOL    HW231845   0.426   3.457  15.421 -2.3776 -2.5224 -1.3270
 6795SOL     OW31846   2.373   2.883  12.259  0.2984 -0.7386  0.4009
 6795SOL    HW131847   2.452   2.875  12.312 -0.9306 -2.1305  2.0096
 6795SOL    HW231848   2.349   2.791  12.271 -0.8486 -0.2764  1.6477
 6796SOL     OW31849   2.660   0.333   8.933 -0.3126 -0.1195 -0.0866
 6796SOL    HW131850   2.643   0.385   8.854 -0.4097  0.5344  0.3611
 6796SOL    HW231851   2.749   0.303   8.914  0.1656  1.0091  0.3270
 6797SOL     OW31852   2.526   0.721  12.324 -0.1824  0.0353  0.2459
 6797SOL    HW131853   2.607   0.680  12.294 -2.1963 -2.3925 -1.9113
 6797SOL    HW231854   2.510   0.684  12.411  0.7185 -1.9067 -0.4031
 6798SOL     OW31855   0.976   4.046  16.186  0.6463 -0.2462 -0.4616
 6798SOL    HW131856   1.058   3.997  16.185  0.4285 -0.6129 -0.0298
 6798SOL    HW231857   0.915   3.972  16.188  0.1783  0.2310  2.3539
 6799SOL     OW31858   0.134   1.821   6.845  0.0133 -0.0332  0.1551
 6799SOL    HW131859   0.215   1.868   6.863  0.0694 -0.1945  0.3217
 6799SOL    HW231860   0.118   1.829   6.751  2.0899 -0.0336 -0.2126
 6800SOL     OW31861   0.336   3.186   1.556 -0.4655 -0.4945  0.5147
 6800SOL    HW131862   0.406   3.133   1.518  0.6045  0.1100  1.6307
 6800SOL    HW231863   0.290   3.118   1.605  1.8486 -1.1253  1.8410
 6801SOL     OW31864   2.738   1.642   8.667  0.0304  0.1608  0.1592
 6801SOL    HW131865   2.782   1.727   8.661 -0.6935  0.5722  0.7500
 6801SOL    HW231866   2.778   1.591   8.596  0.3457 -1.6022  1.5968
 6802SOL     OW31867   3.481   0.918   5.304  0.4681 -0.6781 -0.3535
 6802SOL    HW131868   3.535   0.865   5.363 -1.2554 -0.7083  1.2305
 6802SOL    HW231869   3.543   0.947   5.238  0.7826  0.5892  0.5106
 6803SOL     OW31870   3.694   0.435   6.826 -0.0391  0.1159 -0.5825
 6803SOL    HW131871   3.742   0.510   6.792 -2.2940  1.4741 -0.7717
 6803SOL    HW231872   3.650   0.402   6.747  0.9127 -1.3017 -0.5178
 6804SOL     OW31873   4.574   0.039  15.561 -0.0280 -0.7087  0.0786
 6804SOL    HW131874   4.527   0.011  15.640 -1.7185 -1.7393 -1.2998
 6804SOL    HW231875   4.502   0.030  15.498 -1.7110  0.1975  1.8505
 6805SOL     OW31876   1.401   1.474   6.637 -0.1790 -0.1555  0.2648
 6805SOL    HW131877   1.310   1.498   6.655 -0.3417 -1.9594  1.8105
 6805SOL    HW231878   1.435   1.555   6.599 -1.4051 -0.2111 -0.9382
 6806SOL     OW31879   1.697   4.100   3.270  0.4245  0.2060 -0.4265
 6806SOL    HW131880   1.742   4.176   3.307 -1.0183  0.0513  1.6393
 6806SOL    HW231881   1.669   4.121   3.181  1.8903 -1.8271 -1.3518
 6807SOL     OW31882   3.628   3.145   3.617  0.2611 -0.1353  0.3802
 6807SOL    HW131883   3.571   3.213   3.653 -0.1057  0.1988 -0.8242
 6807SOL    HW231884   3.704   3.197   3.591  0.9023 -0.5138  1.5241
 6808SOL     OW31885   0.768   1.066   3.081  0.1204  0.0603 -0.4073
 6808SOL    HW131886   0.809   1.122   3.015  2.9911  0.1144  1.4384
 6808SOL    HW231887   0.677   1.084   3.057  0.3526  0.8808 -0.6808
 6809SOL     OW31888   3.019   2.959   4.269  0.0471  0.1583  0.4377
 6809SOL    HW131889   3.094   2.915   4.310 -0.7338 -0.5010  1.1502
 6809SOL    HW231890   3.033   2.941   4.176  0.2158 -0.6392  0.6193
 6810SOL     OW31891   2.002   4.558  17.634  0.3618 -0.3851 -0.4839
 6810SOL    HW131892   1.990   4.463  17.630 -1.9676 -0.0535 -1.2972
 6810SOL    HW231893   1.931   4.584   0.007 -0.5153 -0.8059 -1.3507
 6811SOL     OW31894   1.614   0.606  17.212  0.0661  0.2277  0.1451
 6811SOL    HW131895   1.653   0.646  17.290  0.3242 -0.8182  0.5464
 6811SOL    HW231896   1.585   0.524  17.250  2.2500 -0.6018  0.0169
 6812SOL     OW31897   0.373   3.498   8.431 -0.2140  0.3502 -0.2879
 6812SOL    HW131898   0.420   3.528   8.509  0.2260 -2.3572  0.4977
 6812SOL    HW231899   0.301   3.560   8.422 -2.1381 -2.2382 -3.0452
 6813SOL     OW31900   2.316   4.624  16.238 -0.3077 -0.2391 -0.2062
 6813SOL    HW131901   2.344   4.627  16.330 -1.4031 -1.7732  0.1789
 6813SOL    HW231902   2.361   4.549  16.200 -2.1954 -1.3160 -0.3169
 6814SOL     OW31903   3.044   1.823   6.598  0.1165 -0.4407  0.0694
 6814SOL    HW131904   3.067   1.915   6.595  1.9823 -0.8497  1.9130
 6814SOL    HW231905   2.948   1.825   6.598  0.1667  1.3581  1.3601
 6815SOL     OW31906   3.528   0.889  12.364 -0.3146 -0.6748  0.3586
 6815SOL    HW131907   3.539   0.830  12.289 -0.3290 -1.6179  1.0997
 6815SOL    HW231908   3.614   0.930  12.355 -0.4624 -0.2061  1.1186
 6816SOL     OW31909   4.352   3.361   6.776  0.0996 -0.4205  0.2603
 6816SOL    HW131910   4.421   3.357   6.710  0.5989  3.1396  0.5511
 6816SOL    HW231911   4.403   3.348   6.856 -0.1763 -0.4245  0.4359
 6817SOL     OW31912   2.284   2.502   6.339 -0.3064  0.2846  0.0229
 6817SOL    HW131913   2.236   2.458   6.409  3.6804 -0.4916  2.2643
 6817SOL    HW231914   2.369   2.523   6.378  0.3509 -1.0482 -0.6673
 6818SOL     OW31915   0.897   1.729   9.517 -0.1139 -0.0226 -0.1696
 6818SOL    HW131916   0.868   1.733   9.426 -0.2692  1.0370 -0.0679
 6818SOL    HW231917   0.985   1.763   9.504  0.8822 -2.0599  1.1256
 6819SOL     OW31918   2.758   3.548   4.487 -0.2811 -0.5729 -0.1670
 6819SOL    HW131919   2.738   3.460   4.454  0.1890  0.4062 -3.0141
 6819SOL    HW231920   2.677   3.566   4.535 -1.4439 -0.4914 -2.1501
 6820SOL     OW31921   2.477   1.511   7.056 -0.2221 -0.5733 -0.0623
 6820SOL    HW131922   2.541   1.565   7.009  0.7792 -0.6660  1.2084
 6820SOL    HW231923   2.412   1.582   7.063  2.6118  1.9244  1.0576
 6821SOL     OW31924   4.311   2.838  13.740 -0.0729  0.6921 -0.4211
 6821SOL    HW131925   4.237   2.836  13.680 -0.4103 -1.6007  0.0704
 6821SOL    HW231926   4.261   2.871  13.815  0.6230  1.3821 -0.2565
 6822SOL     OW31927   1.108   0.315  17.354  0.2605 -0.3686  0.1473
 6822SOL    HW131928   1.072   0.399  17.324  0.0063  0.1989  2.0184
 6822SOL    HW231929   1.167   0.347  17.422 -0.1115 -0.9143  0.7230
 6823SOL     OW31930   3.625   1.913   5.899 -0.2221 -0.0462 -0.1460
 6823SOL    HW131931   3.694   1.953   5.951 -0.0552 -0.4003 -0.0978
 6823SOL    HW231932   3.547   1.951   5.940  2.4593  3.3133  1.7919
 6824SOL     OW31933   0.118   1.279   4.131  0.4230  0.0547 -0.4741
 6824SOL    HW131934   0.161   1.210   4.182  0.6328 -0.2552 -1.0604
 6824SOL    HW231935   0.140   1.249   4.043 -0.0917 -0.8843 -0.2885
 6825SOL     OW31936   3.374   0.918   4.900  0.0452  0.0407  0.1694
 6825SOL    HW131937   3.357   0.824   4.889  0.5113 -0.1361  0.9893
 6825SOL    HW231938   3.307   0.948   4.961  0.5971  0.3996  0.5933
 6826SOL     OW31939   4.638   2.568   3.147 -0.2313  0.0239  0.0558
 6826SOL    HW131940   4.639   2.486   3.195 -0.2969  1.2844  2.2058
 6826SOL    HW231941   4.561   2.614   3.181  1.4426  3.8948 -1.3380
 6827SOL     OW31942   2.309   2.408   7.557  0.0593 -0.3273 -0.2594
 6827SOL    HW131943   2.371   2.478   7.576 -0.7734 -0.4561  2.9719
 6827SOL    HW231944   2.331   2.345   7.625  1.0024 -0.6031 -0.8298
 6828SOL     OW31945   1.240   1.604   3.268 -0.1008  0.1931 -0.0993
 6828SOL    HW131946   1.291   1.668   3.219 -0.4796  0.3195 -0.3369
 6828SOL    HW231947   1.242   1.530   3.207  1.5360  0.4118 -0.2911
 6829SOL     OW31948   0.058   2.356  10.375 -0.0260 -0.6101  0.1287
 6829SOL    HW131949   0.066   2.450  10.389 -0.7965 -0.7610  1.5607
 6829SOL    HW231950   0.095   2.329  10.459 -0.3339  0.8908  0.7514
 6830SOL     OW31951   1.205   0.090   6.841  0.1740 -0.0258  0.2175
 6830SOL    HW131952   1.241   0.079   6.929  1.6113 -0.2432 -0.4005
 6830SOL    HW231953   1.286   0.127   6.805  0.5723 -1.9495 -0.8965
 6831SOL     OW31954   4.028   4.519   8.813 -0.7324  0.1011 -0.0238
 6831SOL    HW131955   4.055   4.605   8.846  1.1340 -0.9174  1.1442
 6831SOL    HW231956   3.967   4.494   8.883 -0.1339 -2.8829 -0.5527
 6832SOL     OW31957   1.760   0.950  17.209 -0.4596 -0.3790 -0.2560
 6832SOL    HW131958   1.750   0.896  17.288 -1.9647  3.4860  2.1466
 6832SOL    HW231959   1.761   0.873  17.152  2.2990  0.5160 -1.4329
 6833SOL     OW31960   3.312   2.363  15.551 -0.2069  0.4702  0.4015
 6833SOL    HW131961   3.253   2.403  15.487  0.6710  2.3549  0.7551
 6833SOL    HW231962   3.374   2.314  15.497 -0.0175  0.8395  0.2841
 6834SOL     OW31963   0.976   2.275   8.057 -0.3724  0.4425  0.3500
 6834SOL    HW131964   1.032   2.350   8.078 -0.0380  0.4736 -0.6839
 6834SOL    HW231965   0.955   2.291   7.966 -2.4027  1.2707  0.9696
 6835SOL     OW31966   1.309   4.266  12.619  0.3825 -0.2999  0.7593
 6835SOL    HW131967   1.284   4.174  12.607  1.7899 -0.4695 -1.0074
 6835SOL    HW231968   1.286   4.312  12.538 -1.9883 -3.3312 -0.2964
 6836SOL     OW31969   4.614   4.522   5.616  0.3935  0.1625  0.7698
 6836SOL    HW131970   4.569   4.531   5.532 -0.6470  1.7149  1.5024
 6836SOL    HW231971   4.646   4.432   5.621 -1.2597 -0.4335  0.3790
 6837SOL     OW31972   0.177   2.188   1.921 -0.1263 -0.3268 -0.0699
 6837SOL    HW131973   0.205   2.106   1.963  0.4357  0.5007  1.1737
 6837SOL    HW231974   0.176   2.242   2.000  1.4370 -0.2340 -0.1077
 6838SOL     OW31975   1.166   0.890   4.366 -0.2952 -0.8496 -0.2510
 6838SOL    HW131976   1.104   0.822   4.341  0.4680 -2.1164  1.2841
 6838SOL    HW231977   1.188   0.921   4.278  0.8498 -0.5274  0.1476
 6839SOL     OW31978   1.620   2.003  17.590  0.1044 -0.7012  0.4130
 6839SOL    HW131979   1.543   2.031  17.541  0.0790 -0.9042  0.3347
 6839SOL    HW231980   1.684   2.074  17.588 -1.1434  0.3713 -2.1111
 6840SOL     OW31981   1.972   3.083  16.615  0.4743  0.5252  0.0838
 6840SOL    HW131982   1.894   3.129  16.646 -1.0848 -2.3730  0.4314
 6840SOL    HW231983   2.032   3.157  16.622  1.5998 -0.3786 -0.0153
 6841SOL     OW31984   0.845   1.423  17.361  0.2824  0.5452 -0.2656
 6841SOL    HW131985   0.799   1.345  17.333 -2.0663  1.3683  1.2930
 6841SOL    HW231986   0.881   1.441  17.274 -1.9288 -0.2481 -1.3448
 6842SOL     OW31987   3.921   1.416   0.502  0.4115 -0.4790 -0.3673
 6842SOL    HW131988   3.887   1.389   0.588 -0.4855  1.0275 -0.2455
 6842SOL    HW231989   3.969   1.498   0.514 -0.0195 -0.4695  1.3610
 6843SOL     OW31990   0.825   4.653  16.872 -0.4610  0.2188 -0.4313
 6843SOL    HW131991   0.770   4.578  16.895 -0.3277  0.5878  1.1421
 6843SOL    HW231992   0.871   4.601  16.806 -0.6094 -2.1564  1.3265
 6844SOL     OW31993   3.295   0.169   7.987  0.5259  0.1432  0.7960
 6844SOL    HW131994   3.212   0.146   7.945  1.1249  3.6625 -2.3073
 6844SOL    HW231995   3.357   0.138   7.921  0.8068 -0.7409  1.4815
 6845SOL     OW31996   1.974   0.094   9.938  0.6768  0.3530 -0.1279
 6845SOL    HW131997   2.045   0.148   9.903  0.1692  0.0555 -1.6258
 6845SOL    HW231998   2.013   0.007   9.929 -1.2557 -0.5926  0.5845
 6846SOL     OW31999   3.764   3.760   7.358 -0.5204  0.1779 -0.0967
 6846SOL    HW132000   3.825   3.832   7.342 -2.3995  1.5566 -1.0719
 6846SOL    HW232001   3.808   3.687   7.315 -1.0513  0.9786 -2.0126
 6847SOL     OW32002   2.127   2.806   9.589 -0.7275  0.0187 -0.4393
 6847SOL    HW132003   2.137   2.759   9.506  0.9687  0.7604 -0.6473
 6847SOL    HW232004   2.133   2.738   9.655 -1.8588  0.9668  0.6320
 6848SOL     OW32005   2.092   0.318  12.419 -0.7384  0.8508  0.1790
 6848SOL    HW132006   2.160   0.253  12.401  0.4161  1.3984  2.5489
 6848SOL    HW232007   2.146   0.394  12.442 -1.4373  0.7443  2.1543
 6849SOL     OW32008   0.786   3.911   8.860 -0.0384  0.2920  0.3411
 6849SOL    HW132009   0.812   3.985   8.914 -0.1814 -0.1793  1.0640
 6849SOL    HW232010   0.871   3.868   8.847  0.6338  1.7821 -0.0809
 6850SOL     OW32011   4.510   4.123   2.062  0.1340 -0.4866  0.2664
 6850SOL    HW132012   4.492   4.210   2.025 -2.4977  0.1240  2.9892
 6850SOL    HW232013   4.602   4.132   2.088 -0.0809  0.1180  0.8182
 6851SOL     OW32014   2.883   3.080   2.436 -1.2155 -0.2299  0.2276
 6851SOL    HW132015   2.819   3.138   2.396 -1.6913 -1.5797 -0.9618
 6851SOL    HW232016   2.839   2.995   2.432  0.5756 -1.1938  0.9628
 6852SOL     OW32017   4.084   0.705   2.620  0.2180 -0.5480  0.0262
 6852SOL    HW132018   4.011   0.655   2.583 -0.4665 -0.2502  0.9640
 6852SOL    HW232019   4.037   0.781   2.656  1.1426 -0.8073  1.7549
 6853SOL     OW32020   1.539   2.696  11.611  0.5241  0.0340 -0.2670
 6853SOL    HW132021   1.452   2.719  11.577 -0.2493 -1.4773  0.6737
 6853SOL    HW232022   1.558   2.607  11.581  1.8385 -0.7510  2.9484
 6854SOL     OW32023   3.695   1.188   3.311  0.0013  0.0017  0.2925
 6854SOL    HW132024   3.697   1.109   3.256 -0.9663 -0.1340  0.4571
 6854SOL    HW232025   3.676   1.249   3.239 -1.3353  1.9967  2.3300
 6855SOL     OW32026   2.167   0.193  16.816  0.6264 -0.3305 -0.4228
 6855SOL    HW132027   2.189   0.284  16.800  2.1015 -0.9710 -2.0441
 6855SOL    HW232028   2.118   0.200  16.898  0.5475 -0.8404 -0.4224
 6856SOL     OW32029   2.269   4.173   7.147  0.1163  0.0466  0.5809
 6856SOL    HW132030   2.174   4.185   7.148  0.7515  5.3197  1.1797
 6856SOL    HW232031   2.308   4.243   7.201 -0.8145  0.5731  0.5702
 6857SOL     OW32032   2.369   2.104   4.231  0.1746 -0.5044  0.2275
 6857SOL    HW132033   2.389   2.121   4.323  1.1056 -0.6651  0.0611
 6857SOL    HW232034   2.452   2.066   4.202 -0.7699  0.0125 -3.1877
 6858SOL     OW32035   2.425   0.742   7.686  0.4091 -0.4158  0.2059
 6858SOL    HW132036   2.358   0.679   7.659  0.7744  0.6566 -3.1238
 6858SOL    HW232037   2.473   0.738   7.604  1.5128 -1.2741  0.8923
 6859SOL     OW32038   4.483   0.196   7.375 -0.0986 -0.4473  0.0362
 6859SOL    HW132039   4.473   0.115   7.425 -0.1125  0.7733  1.9776
 6859SOL    HW232040   4.529   0.173   7.294  0.1779 -2.7638  0.8600
 6860SOL     OW32041   2.590   1.267   8.848 -0.3054 -0.1016 -0.2666
 6860SOL    HW132042   2.684   1.257   8.863 -0.3424  1.5459  1.1183
 6860SOL    HW232043   2.550   1.203   8.907 -2.6677  1.5861 -0.0106
 6861SOL     OW32044   1.454   3.323  15.686  0.2426 -0.3547 -0.4301
 6861SOL    HW132045   1.406   3.241  15.674 -0.9705  0.1288  1.0252
 6861SOL    HW232046   1.448   3.327  15.782  1.8603  0.1796 -0.3543
 6862SOL     OW32047   1.472   0.051   1.626 -0.6030 -0.3375  0.3862
 6862SOL    HW132048   1.418   0.095   1.560 -3.9392 -1.8303  2.1159
 6862SOL    HW232049   1.482   0.128   1.683 -2.5400  0.6870 -0.6196
 6863SOL     OW32050   4.522   0.639   4.368 -0.6514 -0.3050 -0.5245
 6863SOL    HW132051   4.469   0.652   4.447 -1.4598 -2.5703 -0.6737
 6863SOL    HW232052   4.460   0.667   4.301 -1.9954 -0.9966  0.4303
 6864SOL     OW32053   2.315   1.801   6.551  0.4894  0.3337 -0.0531
 6864SOL    HW132054   2.240   1.759   6.510 -0.9174 -0.4085  3.2777
 6864SOL    HW232055   2.385   1.776   6.490  1.0346 -0.3783  0.8659
 6865SOL     OW32056   1.146   3.986   8.562  0.2128  0.2839 -0.0984
 6865SOL    HW132057   1.140   4.005   8.655  0.6469  2.5598 -0.5457
 6865SOL    HW232058   1.239   3.996   8.542  0.2603  1.0817  0.5609
 6866SOL     OW32059   3.735   1.218  14.302  0.0429 -0.3832 -0.1273
 6866SOL    HW132060   3.730   1.194  14.394  1.4011 -0.7593 -0.1514
 6866SOL    HW232061   3.748   1.139  14.250 -0.0717 -0.3850 -0.1534
 6867SOL     OW32062   2.855   1.327   0.852 -0.1517 -0.0009  0.7044
 6867SOL    HW132063   2.832   1.352   0.763  2.3994 -0.4708 -0.0916
 6867SOL    HW232064   2.805   1.246   0.865  0.6078 -0.7094 -0.8305
 6868SOL     OW32065   3.107   3.135   4.676  0.0616 -0.2826 -0.2433
 6868SOL    HW132066   3.047   3.090   4.736 -1.4986 -1.2022 -2.5063
 6868SOL    HW232067   3.158   3.057   4.653  1.6747  0.2579  1.5262
 6869SOL     OW32068   1.871   3.563  11.172  0.3136 -0.1923  0.1156
 6869SOL    HW132069   1.825   3.589  11.252  1.1168  0.6684  0.2989
 6869SOL    HW232070   1.837   3.476  11.151 -1.7937  0.3347  1.3228
 6870SOL     OW32071   1.797   0.617   7.289  0.1842 -0.2156 -0.4140
 6870SOL    HW132072   1.801   0.693   7.231 -0.8642 -0.3614 -0.6793
 6870SOL    HW232073   1.884   0.619   7.327  0.1481  3.8264 -0.5478
 6871SOL     OW32074   0.393   0.250  17.538 -0.1265 -0.2639 -0.2643
 6871SOL    HW132075   0.431   0.335  17.561  3.6066 -2.1718  0.6818
 6871SOL    HW232076   0.460   0.218  17.477  0.8620 -0.3578  0.8707
 6872SOL     OW32077   2.127   0.324   8.543  0.2307  0.0424  0.1908
 6872SOL    HW132078   2.195   0.268   8.583 -1.6313 -0.1579  3.1137
 6872SOL    HW232079   2.051   0.292   8.592 -0.4195 -0.3229 -1.0780
 6873SOL     OW32080   4.415   3.734   6.587  0.1777  0.0996  0.1062
 6873SOL    HW132081   4.327   3.712   6.619 -0.0920  3.9809  2.0641
 6873SOL    HW232082   4.469   3.710   6.662  1.0099 -0.1261 -0.5594
 6874SOL     OW32083   4.543   0.317   8.674 -0.4907  0.0549  0.0086
 6874SOL    HW132084   4.534   0.224   8.692  0.3084 -0.1673 -0.7831
 6874SOL    HW232085   4.523   0.348   8.762  2.4772 -0.3254  0.8152
 6875SOL     OW32086   2.392   2.053   7.250 -0.2118  0.0852 -0.2504
 6875SOL    HW132087   2.482   2.061   7.217 -1.2674  0.2413 -3.0708
 6875SOL    HW232088   2.333   2.089   7.183  0.0227  0.8810 -0.0257
 6876SOL     OW32089   0.191   0.322   4.273 -0.1162 -0.1212 -0.3534
 6876SOL    HW132090   0.110   0.364   4.245 -0.6272  0.3317  1.7766
 6876SOL    HW232091   0.191   0.248   4.212  0.7665 -0.1490 -0.3231
 6877SOL     OW32092   2.750   1.323   2.569 -0.3055 -0.2252  0.2058
 6877SOL    HW132093   2.795   1.260   2.626 -0.2191  0.1042  0.4986
 6877SOL    HW232094   2.699   1.263   2.514 -0.4392  1.1566 -1.1722
 6878SOL     OW32095   3.376   2.018   1.025 -0.1966 -0.6707 -0.9793
 6878SOL    HW132096   3.435   2.023   1.100 -1.3161  1.2504 -0.2358
 6878SOL    HW232097   3.399   2.088   0.964  2.1125 -0.2379  0.3812
 6879SOL     OW32098   0.117   4.645   7.941 -0.1792 -0.2991  0.7023
 6879SOL    HW132099   0.107   4.712   7.873  0.3613 -1.5715 -0.6483
 6879SOL    HW232100   0.075   4.688   8.015 -0.4630 -0.3622  0.5816
 6880SOL     OW32101   3.919   0.274   6.825 -0.0459 -0.3746 -0.0212
 6880SOL    HW132102   3.850   0.340   6.826 -0.3714 -0.6944 -1.1592
 6880SOL    HW232103   3.893   0.215   6.896 -0.5381 -1.5802 -1.1918
 6881SOL     OW32104   2.359   0.631  15.102 -0.2116 -0.4148 -0.4027
 6881SOL    HW132105   2.314   0.569  15.045 -0.6608 -0.2473 -0.2289
 6881SOL    HW232106   2.366   0.582  15.184  0.4749  0.2316 -0.0716
 6882SOL     OW32107   0.860   4.251   1.115 -0.5516  0.0371 -0.3889
 6882SOL    HW132108   0.775   4.223   1.151 -0.6244  1.5899  0.6709
 6882SOL    HW232109   0.873   4.334   1.162  0.3541  0.3471 -1.1862
 6883SOL     OW32110   2.643   2.120  13.961  0.1204  0.6480 -0.4237
 6883SOL    HW132111   2.565   2.080  13.921  0.5546 -1.2763  0.6138
 6883SOL    HW232112   2.618   2.126  14.054  0.4317  1.4679 -0.3991
 6884SOL     OW32113   3.757   2.753   8.282  0.3802 -0.4125  0.0592
 6884SOL    HW132114   3.804   2.751   8.199 -0.0443 -1.3865 -0.1504
 6884SOL    HW232115   3.680   2.702   8.258  1.3331 -1.9194  0.1932
 6885SOL     OW32116   0.492   1.216  14.043 -0.1469 -0.7926  0.4207
 6885SOL    HW132117   0.496   1.150  13.974  0.8769 -2.2826  1.9177
 6885SOL    HW232118   0.529   1.171  14.119 -1.4340 -0.9195  0.9694
 6886SOL     OW32119   4.611   3.631   4.852 -0.4150  0.1419 -0.0262
 6886SOL    HW132120   4.594   3.705   4.909 -2.5476 -0.3894  0.0256
 6886SOL    HW232121   4.705   3.625   4.837 -0.3680 -4.2215  2.0956
 6887SOL     OW32122   0.262   3.329   4.776  0.3809  0.3205 -0.4253
 6887SOL    HW132123   0.207   3.255   4.802 -0.5092  0.4660 -1.9006
 6887SOL    HW232124   0.349   3.292   4.760 -0.2879 -1.3126 -0.1982
 6888SOL     OW32125   4.231   0.151   7.291 -0.4111 -0.3615 -0.6988
 6888SOL    HW132126   4.242   0.163   7.196  2.2796  0.8515 -0.2231
 6888SOL    HW232127   4.308   0.198   7.322 -0.5260 -0.7366  0.1589
 6889SOL     OW32128   0.420   0.875   1.496  0.3415 -0.0467 -0.1689
 6889SOL    HW132129   0.374   0.791   1.504 -0.4251  0.0547 -3.3261
 6889SOL    HW232130   0.348   0.935   1.518  0.9555  0.5541  0.1778
 6890SOL     OW32131   2.088   4.704  17.418 -0.1526 -0.1516 -0.2564
 6890SOL    HW132132   1.995   4.718  17.436 -0.0273  0.0518  0.2352
 6890SOL    HW232133   2.102   4.637  17.485  0.5012 -0.7041 -0.9522
 6891SOL     OW32134   0.893   2.929   3.712 -0.1065 -0.5471 -0.2247
 6891SOL    HW132135   0.849   2.977   3.642  0.5003 -0.3733 -0.4791
 6891SOL    HW232136   0.855   2.963   3.793  0.0847 -0.6352 -0.0994
 6892SOL     OW32137   4.546   2.219  14.321 -0.4647  0.6191  0.0394
 6892SOL    HW132138   4.488   2.145  14.304  1.0918 -0.7491  0.6735
 6892SOL    HW232139   4.478   2.283  14.342 -1.5676 -0.3803 -0.4644
 6893SOL     OW32140   2.514   3.603   8.527 -0.6056 -0.6195  0.0125
 6893SOL    HW132141   2.484   3.512   8.518 -0.0031 -0.8184  0.0247
 6893SOL    HW232142   2.464   3.628   8.605  1.5306 -0.4658  1.3531
 6894SOL     OW32143   0.871   0.484   0.700  0.0448 -0.0253 -0.1914
 6894SOL    HW132144   0.791   0.537   0.694 -0.4839 -0.7607  0.2687
 6894SOL    HW232145   0.899   0.469   0.610 -1.0249  0.7141 -0.6421
 6895SOL     OW32146   3.411   0.859  13.903 -0.5121  0.5770  0.0981
 6895SOL    HW132147   3.506   0.854  13.919 -0.3815  0.6066 -0.6669
 6895SOL    HW232148   3.384   0.768  13.919 -0.2115  0.1485 -1.7976
 6896SOL     OW32149   0.031   0.580   5.983  0.4498 -0.0397  0.7545
 6896SOL    HW132150   4.668   0.568   6.028 -0.4365  0.6311 -0.7096
 6896SOL    HW232151   0.014   0.647   5.916 -1.0001  0.3340  1.4871
 6897SOL     OW32152   0.711   1.403   3.056  0.4132 -0.1700 -0.1014
 6897SOL    HW132153   0.788   1.387   3.001  2.0586 -1.9521  2.6789
 6897SOL    HW232154   0.745   1.384   3.144 -1.1472  0.0174  0.5287
 6898SOL     OW32155   1.380   3.498  12.815 -0.1935  0.1807  0.3484
 6898SOL    HW132156   1.311   3.504  12.748  0.5998  0.3432 -0.4576
 6898SOL    HW232157   1.446   3.551  12.772 -1.2963  1.6900  0.5129
 6899SOL     OW32158   4.077   4.071   5.812 -0.0622 -0.3831  0.3212
 6899SOL    HW132159   3.995   4.053   5.859 -0.6339  0.0817 -0.5033
 6899SOL    HW232160   4.113   4.135   5.873  0.8025 -1.5372  1.0169
 6900SOL     OW32161   1.047   4.349   0.854 -0.5323 -0.1564  0.2361
 6900SOL    HW132162   1.002   4.432   0.840 -0.8379 -0.6180 -1.4787
 6900SOL    HW232163   0.982   4.297   0.806  2.2279 -0.8445 -2.6936
 6901SOL     OW32164   0.968   3.814  10.312 -0.3381 -0.1245 -0.3207
 6901SOL    HW132165   0.929   3.901  10.314 -1.0736 -0.4660  0.3405
 6901SOL    HW232166   1.044   3.832  10.257  1.0006 -1.7078  1.0172
 6902SOL     OW32167   0.560   1.887   3.612  0.0072  0.0971  0.5138
 6902SOL    HW132168   0.477   1.840   3.623 -0.5569  1.0960  0.6001
 6902SOL    HW232169   0.537   1.960   3.670  1.0362  0.8367 -0.0058
 6903SOL     OW32170   1.826   4.292   8.467 -0.5960  0.3449  0.6911
 6903SOL    HW132171   1.775   4.350   8.410 -1.3647 -2.2841 -1.3052
 6903SOL    HW232172   1.804   4.203   8.438 -0.5585  0.9707 -1.2180
 6904SOL     OW32173   1.950   1.164  17.271  0.0206 -0.3150 -0.0494
 6904SOL    HW132174   2.038   1.130  17.290  0.6055  0.3780 -1.6056
 6904SOL    HW232175   1.894   1.088  17.251 -0.6336 -0.8228  3.6454
 6905SOL     OW32176   0.202   1.555   4.140 -0.1232 -0.0386  0.3712
 6905SOL    HW132177   0.180   1.463   4.130 -1.3983  0.5021 -1.8879
 6905SOL    HW232178   0.118   1.601   4.128  0.4773  0.7902 -0.6559
 6906SOL     OW32179   4.484   2.630   2.927 -0.6567 -0.6747 -0.2396
 6906SOL    HW132180   4.529   2.688   2.866 -0.2877  0.2735  0.9417
 6906SOL    HW232181   4.561   2.595   2.971 -2.9686 -1.6356  3.0325
 6907SOL     OW32182   1.162   1.862  12.477  0.6314 -0.1999 -0.3825
 6907SOL    HW132183   1.211   1.919  12.418  0.8286 -0.2721 -0.2907
 6907SOL    HW232184   1.089   1.830  12.424  0.2187 -0.8246  0.5561
 6908SOL     OW32185   0.924   2.579   5.382 -0.5527 -0.3642 -0.1507
 6908SOL    HW132186   0.860   2.508   5.387 -2.1596  1.0698 -0.1264
 6908SOL    HW232187   1.002   2.550   5.429 -0.7279 -1.0080 -0.2609
 6909SOL     OW32188   2.924   3.112   7.076 -0.8667 -0.2737  0.1581
 6909SOL    HW132189   2.844   3.163   7.086  0.0644  0.6394  2.9124
 6909SOL    HW232190   2.937   3.087   7.167 -0.8009 -0.6845  0.0343
 6910SOL     OW32191   0.829   4.217   4.173 -0.1592  0.0335 -0.3988
 6910SOL    HW132192   0.813   4.145   4.112  2.4806  0.2510 -1.3256
 6910SOL    HW232193   0.802   4.173   4.254  1.1017 -1.7238 -0.9371
 6911SOL     OW32194   1.151   0.831   0.768  0.1630  0.4245 -0.2663
 6911SOL    HW132195   1.150   0.746   0.723 -0.1542 -0.3498  1.1766
 6911SOL    HW232196   1.169   0.809   0.860 -1.0400  2.1756  0.3875
 6912SOL     OW32197   0.136   3.227  11.753  0.5008  0.1341 -0.2099
 6912SOL    HW132198   0.211   3.237  11.811  2.4618  1.2465 -2.9694
 6912SOL    HW232199   0.079   3.168  11.803  1.7465 -0.4244  0.5422
 6913SOL     OW32200   2.537   4.537  14.383 -0.2327  0.4888 -0.9953
 6913SOL    HW132201   2.446   4.514  14.363  0.1408 -0.1060 -2.0245
 6913SOL    HW232202   2.533   4.519  14.477 -0.9390 -0.4163 -1.2009
 6914SOL     OW32203   4.002   2.703   1.916 -0.3782 -0.5547 -0.1277
 6914SOL    HW132204   4.043   2.789   1.909  0.2872 -0.8834 -0.3419
 6914SOL    HW232205   3.911   2.720   1.938 -0.3761 -0.1823 -0.4303
 6915SOL     OW32206   3.257   1.675   4.396  0.0579  0.1336 -0.1148
 6915SOL    HW132207   3.216   1.673   4.482  2.9758 -1.8899  1.2610
 6915SOL    HW232208   3.342   1.642   4.428  0.2590  1.4645  0.7493
 6916SOL     OW32209   4.373   4.646   2.253 -0.0682 -0.4742  0.5126
 6916SOL    HW132210   4.315   4.680   2.322 -1.3675  0.7848 -1.1949
 6916SOL    HW232211   4.307   4.631   2.185  1.7652 -0.2678 -1.2889
 6917SOL     OW32212   0.773   3.171   6.639 -0.7345 -0.1608  0.5522
 6917SOL    HW132213   0.764   3.078   6.657 -0.0195 -0.3206  0.0830
 6917SOL    HW232214   0.796   3.190   6.730  1.8943  1.5358 -0.4576
 6918SOL     OW32215   0.721   1.958   6.155  0.1065 -0.1192  0.0248
 6918SOL    HW132216   0.811   1.925   6.162  0.3916  0.9215  1.3302
 6918SOL    HW232217   0.740   2.049   6.131 -2.1331  0.4762  0.4924
 6919SOL     OW32218   2.169   3.777   4.444  0.1913 -0.3392 -0.3880
 6919SOL    HW132219   2.231   3.712   4.411  0.9330 -0.0583  0.4662
 6919SOL    HW232220   2.192   3.784   4.537  0.3596  2.5710 -0.6241
 6920SOL     OW32221   3.938   1.501   0.232 -0.1826  0.1118  0.0497
 6920SOL    HW132222   3.930   1.452   0.314  2.9093  1.0121  0.8867
 6920SOL    HW232223   3.915   1.588   0.266 -2.2027 -0.1915 -0.5431
 6921SOL     OW32224   0.132   3.640   2.007  0.2508  0.5295 -0.0570
 6921SOL    HW132225   0.179   3.587   2.072  0.7677  0.0084 -0.8615
 6921SOL    HW232226   0.124   3.725   2.049 -1.3027  0.5404 -0.3556
 6922SOL     OW32227   1.258   3.070   7.969  0.3412 -0.7851 -0.3734
 6922SOL    HW132228   1.260   3.041   7.878  1.1983 -0.8464 -0.3333
 6922SOL    HW232229   1.193   3.141   7.973  0.6880 -0.4162 -1.3628
 6923SOL     OW32230   0.277   0.287  14.588 -0.2054  0.0992  0.2044
 6923SOL    HW132231   0.370   0.294  14.608 -0.0990 -1.1409  0.1780
 6923SOL    HW232232   0.254   0.380  14.590  0.2879  0.2151  0.4701
 6924SOL     OW32233   1.228   1.076   5.943  0.4476  0.1678 -0.7231
 6924SOL    HW132234   1.284   1.014   5.895 -0.6165  0.2847 -2.1200
 6924SOL    HW232235   1.292   1.119   5.999  2.3719 -1.0558 -1.9596
 6925SOL     OW32236   3.806   3.394  13.761  0.3425 -0.2874  0.3946
 6925SOL    HW132237   3.836   3.364  13.676  0.9147  0.1694  0.4326
 6925SOL    HW232238   3.842   3.483  13.761  0.8168 -0.4701  1.4874
 6926SOL     OW32239   4.095   0.240  12.039  0.1087  0.8111 -0.3135
 6926SOL    HW132240   4.180   0.210  12.006 -0.2376 -0.8235  0.2921
 6926SOL    HW232241   4.037   0.183  11.989 -0.2668  1.1941 -0.3120
 6927SOL     OW32242   2.447   1.960   7.527 -0.3266 -0.4385  0.3129
 6927SOL    HW132243   2.406   1.986   7.445  0.0939  1.9289  0.8590
 6927SOL    HW232244   2.494   1.879   7.505 -0.4266 -0.2838 -0.4608
 6928SOL     OW32245   3.675   0.899   5.538  0.4146  0.0145  0.3475
 6928SOL    HW132246   3.738   0.971   5.531  1.0591 -0.5644  0.1129
 6928SOL    HW232247   3.611   0.934   5.600 -0.8736 -0.7751 -0.5486
 6929SOL     OW32248   0.328   3.417   5.750 -0.3656  0.1410  0.2802
 6929SOL    HW132249   0.340   3.511   5.737 -2.4987  0.4325  0.4264
 6929SOL    HW232250   0.258   3.390   5.691  1.7959 -2.2422 -1.1933
 6930SOL     OW32251   4.399   3.493  11.187 -0.1117  0.2228  0.3232
 6930SOL    HW132252   4.472   3.470  11.129 -0.0169  2.6275 -0.5331
 6930SOL    HW232253   4.393   3.587  11.168 -0.0464  0.3040  0.7124
 6931SOL     OW32254   0.182   2.161   8.969  0.0578  0.1487  0.2042
 6931SOL    HW132255   0.210   2.161   9.060 -1.1938  2.5646  0.5866
 6931SOL    HW232256   0.096   2.201   8.980 -0.8428 -1.6444 -0.3787
 6932SOL     OW32257   4.522   4.171  10.722 -0.0061 -0.0968  0.0372
 6932SOL    HW132258   4.543   4.193  10.813  0.9086 -0.2918 -0.1197
 6932SOL    HW232259   4.536   4.077  10.731 -1.0171 -0.3002 -0.6696
 6933SOL     OW32260   2.754   0.606  13.453 -0.2828  0.3871  0.1346
 6933SOL    HW132261   2.843   0.640  13.458 -1.0736  2.3155  0.9263
 6933SOL    HW232262   2.759   0.526  13.505  2.0798  0.6130  0.2391
 6934SOL     OW32263   1.306   3.406   9.173  0.2878 -0.4038 -0.1149
 6934SOL    HW132264   1.392   3.391   9.213 -0.0991  1.2549  1.3446
 6934SOL    HW232265   1.262   3.332   9.214  1.7870 -0.6431  1.0877
 6935SOL     OW32266   0.790   4.257   2.192 -0.4706 -0.0562  0.2000
 6935SOL    HW132267   0.818   4.237   2.103 -1.6239 -0.4843 -0.0708
 6935SOL    HW232268   0.839   4.180   2.222  1.3787  0.8792 -0.4256
 6936SOL     OW32269   4.164   2.784   2.897 -0.7080 -0.1374 -0.3671
 6936SOL    HW132270   4.224   2.806   2.826 -0.3721  0.3123  0.0601
 6936SOL    HW232271   4.136   2.698   2.865  2.1742 -0.3468 -2.2608
 6937SOL     OW32272   3.577   2.504   3.148 -0.0337 -0.3997  0.1592
 6937SOL    HW132273   3.631   2.430   3.176 -1.4369 -0.2846  3.2903
 6937SOL    HW232274   3.499   2.452   3.130  0.6352 -1.2722 -0.2079
 6938SOL     OW32275   2.464   1.706  12.379  0.3620  0.4773  0.6088
 6938SOL    HW132276   2.408   1.694  12.455 -1.2026  0.3540 -0.5649
 6938SOL    HW232277   2.554   1.706  12.413 -0.2899  0.0197  2.3365
 6939SOL     OW32278   3.147   2.091   2.354  0.3683 -0.3037  0.8393
 6939SOL    HW132279   3.096   2.045   2.287  2.0567  0.4375 -0.9296
 6939SOL    HW232280   3.127   2.042   2.434 -0.6604 -1.3726 -0.0635
 6940SOL     OW32281   0.984   2.337   6.783  0.0732  0.1110 -0.6315
 6940SOL    HW132282   0.981   2.287   6.702 -0.2836 -3.7103  1.7322
 6940SOL    HW232283   0.890   2.341   6.802  0.4391  2.0948  0.7478
 6941SOL     OW32284   2.179   2.241   8.535  0.4318 -0.4530 -0.2496
 6941SOL    HW132285   2.220   2.284   8.611  0.8342 -1.8135  0.2958
 6941SOL    HW232286   2.088   2.265   8.553  0.0823 -0.9429 -1.4093
 6942SOL     OW32287   4.434   4.680   5.734  0.1995 -0.0866  1.2700
 6942SOL    HW132288   4.497   4.613   5.708 -0.8635  0.1561 -1.9333
 6942SOL    HW232289   4.454   0.023   5.666 -0.1886 -0.9986  0.2963
 6943SOL     OW32290   4.074   0.365   4.353  0.0964  0.8507  0.6920
 6943SOL    HW132291   4.097   0.301   4.420  0.6045 -1.6047 -1.8409
 6943SOL    HW232292   4.157   0.372   4.305 -0.7689  1.7083 -0.6685
 6944SOL     OW32293   0.379   3.392  15.582 -0.5732  0.2056  0.6650
 6944SOL    HW132294   0.353   3.302  15.601 -1.0577  0.3604  0.7470
 6944SOL    HW232295   0.315   3.436  15.639  1.0756  2.5267  0.7281
 6945SOL     OW32296   1.644   2.499   4.236  0.5092 -0.3021  0.7297
 6945SOL    HW132297   1.692   2.552   4.299  0.8544 -1.2445  1.2649
 6945SOL    HW232298   1.711   2.442   4.198 -0.3455 -1.9288  1.6662
 6946SOL     OW32299   3.770   2.931   7.416  0.2259 -0.0902  0.2500
 6946SOL    HW132300   3.824   2.882   7.354  0.1823  1.0949 -0.7135
 6946SOL    HW232301   3.833   2.949   7.486  0.5132 -1.7729  0.4342
 6947SOL     OW32302   2.573   3.223  15.706  0.3089 -0.2511 -0.0894
 6947SOL    HW132303   2.485   3.196  15.680  0.1346 -1.1648  1.4563
 6947SOL    HW232304   2.569   3.220  15.801 -1.0702 -0.1220 -0.1463
 6948SOL     OW32305   2.883   1.269   4.519 -0.1387 -0.0766 -0.2432
 6948SOL    HW132306   2.819   1.198   4.518 -0.5484  0.2712  1.7047
 6948SOL    HW232307   2.883   1.303   4.430 -0.3834 -0.6591 -0.4639
 6949SOL     OW32308   4.702   2.153   8.236  0.2714  0.0405  0.0636
 6949SOL    HW132309   4.612   2.131   8.212 -0.2545  0.4542  1.6694
 6949SOL    HW232310   4.697   2.177   8.328  2.9689 -1.2341  0.5522
 6950SOL     OW32311   2.443   4.620   7.672  0.2752  0.2766  0.1243
 6950SOL    HW132312   2.526   4.602   7.627  2.4082 -0.0957  4.2513
 6950SOL    HW232313   2.470   4.688   7.733  0.5421 -0.3853  0.7497
 6951SOL     OW32314   1.378   4.613  13.060  0.1697  0.0480  0.1926
 6951SOL    HW132315   1.357   4.552  12.989 -0.9191  1.0000 -0.2947
 6951SOL    HW232316   1.298   4.599  13.111  0.0773 -1.6043 -0.3864
 6952SOL     OW32317   2.848   4.062   5.030 -0.1219  0.6610  0.4891
 6952SOL    HW132318   2.794   3.984   5.021 -0.2540  0.6077  1.7551
 6952SOL    HW232319   2.918   4.007   5.066 -0.2557  0.2750  0.1611
 6953SOL     OW32320   3.852   1.889  17.354 -0.3316  0.4708  0.2633
 6953SOL    HW132321   3.856   1.842  17.271  1.7361 -1.7873  1.6744
 6953SOL    HW232322   3.811   1.823  17.410 -0.2177 -0.0696 -0.3012
 6954SOL     OW32323   3.360   4.342  15.814 -0.1257 -0.3298  0.2845
 6954SOL    HW132324   3.350   4.383  15.900  1.4656 -0.0761  0.3412
 6954SOL    HW232325   3.292   4.275  15.824  1.8311 -2.1342  1.5208
 6955SOL     OW32326   2.853   2.236   8.071  0.7454 -0.8430 -0.1791
 6955SOL    HW132327   2.896   2.283   7.999 -2.2947  2.1952  0.0199
 6955SOL    HW232328   2.927   2.182   8.098  2.2602  1.6275  0.5565
 6956SOL     OW32329   3.257   2.219   9.403  0.3347  0.2516 -0.0711
 6956SOL    HW132330   3.168   2.185   9.413  0.4868  0.9728  3.7718
 6956SOL    HW232331   3.269   2.238   9.310 -2.8061  0.5879 -0.4159
 6957SOL     OW32332   0.194   2.641  12.686 -0.5290  0.7340 -0.0081
 6957SOL    HW132333   0.257   2.644  12.614 -0.6383 -1.8355 -0.2009
 6957SOL    HW232334   0.151   2.724  12.667  0.5123  1.1581 -0.5268
 6958SOL     OW32335   4.195   3.523   3.190  0.2204 -0.1499  0.9081
 6958SOL    HW132336   4.280   3.521   3.146  1.6020 -1.9199  3.6147
 6958SOL    HW232337   4.144   3.525   3.110  2.3199  2.8659 -0.3194
 6959SOL     OW32338   4.487   0.152   9.011  0.5217 -0.2667 -0.0808
 6959SOL    HW132339   4.486   0.099   8.931  1.3214  1.0494 -0.9826
 6959SOL    HW232340   4.444   0.233   8.983 -0.3805 -0.1179  1.7690
 6960SOL     OW32341   4.132   1.666   0.858  0.0128  0.3420  0.4040
 6960SOL    HW132342   4.095   1.605   0.922  0.1888  0.9106  1.0420
 6960SOL    HW232343   4.222   1.633   0.861  0.9670  2.6222 -3.1594
 6961SOL     OW32344   3.291   3.025  11.146  0.0392 -0.1022  0.1270
 6961SOL    HW132345   3.197   3.008  11.143 -0.0165 -0.2789  2.2843
 6961SOL    HW232346   3.309   3.043  11.239 -3.1258  2.5793  0.2099
 6962SOL     OW32347   3.188   4.598  11.624 -0.1568 -0.3257 -0.1135
 6962SOL    HW132348   3.255   4.584  11.690 -0.1369 -2.3469 -0.5579
 6962SOL    HW232349   3.115   4.561  11.674 -0.1620 -1.1683 -0.7408
 6963SOL     OW32350   0.775   4.718   0.788  0.4565 -0.3230 -0.2035
 6963SOL    HW132351   0.728   4.698   0.869  0.6974  0.6995  0.1925
 6963SOL    HW232352   0.793   0.089   0.807 -0.6362  0.0983 -1.2180
 6964SOL     OW32353   3.034   3.106  15.352 -0.0953  0.2037 -0.3141
 6964SOL    HW132354   3.003   3.165  15.283  0.5997 -0.4357 -1.1761
 6964SOL    HW232355   3.036   3.165  15.427 -1.6572  0.5279 -0.5325
 6965SOL     OW32356   1.475   0.504   5.624 -0.5597 -0.4946 -0.0669
 6965SOL    HW132357   1.432   0.532   5.543  1.7123  1.2938 -0.6464
 6965SOL    HW232358   1.528   0.432   5.590 -1.3831 -0.3290 -1.7191
 6966SOL     OW32359   4.669   2.542  15.405 -0.2085  0.2365 -0.2694
 6966SOL    HW132360   4.700   2.517  15.492 -0.1101 -0.5378 -0.5287
 6966SOL    HW232361   4.602   2.606  15.431 -0.2675  0.7985 -1.8369
 6967SOL     OW32362   0.278   2.820   2.641  0.0738 -0.3927  0.0346
 6967SOL    HW132363   0.301   2.731   2.616  1.3460 -0.0079 -0.1879
 6967SOL    HW232364   0.352   2.874   2.612 -1.7219  1.0717 -1.8005
 6968SOL     OW32365   2.079   4.142   9.414  0.1031  0.0505  0.2690
 6968SOL    HW132366   2.051   4.109   9.499  1.7460 -1.4204  0.2543
 6968SOL    HW232367   2.172   4.121   9.425  0.0824 -0.7301 -1.0355
 6969SOL     OW32368   2.147   4.139   5.360 -0.4387 -0.2043 -0.2936
 6969SOL    HW132369   2.074   4.175   5.411 -0.9651  0.0028 -1.1778
 6969SOL    HW232370   2.201   4.212   5.328  0.9949 -0.6898  1.0634
 6970SOL     OW32371   1.651   2.032   7.760  0.6159  0.2321 -0.0157
 6970SOL    HW132372   1.629   2.107   7.704 -0.9825  0.4997  0.9830
 6970SOL    HW232373   1.722   2.077   7.804  1.3520 -3.0537  2.1438
 6971SOL     OW32374   2.576   0.974   3.197 -0.2088  0.4300 -0.1292
 6971SOL    HW132375   2.591   1.054   3.248 -0.6910 -0.3331  1.2044
 6971SOL    HW232376   2.501   0.997   3.141  0.1435  0.0630 -0.7560
 6972SOL     OW32377   3.559   4.120   7.638 -0.0868 -0.8366  0.1039
 6972SOL    HW132378   3.595   4.039   7.601  2.1173 -0.2003  0.8524
 6972SOL    HW232379   3.544   4.178   7.563  4.0432  0.9672  0.6326
 6973SOL     OW32380   3.192   1.696  15.297  0.6482 -0.0823 -0.1111
 6973SOL    HW132381   3.111   1.745  15.288  1.3032  0.7100 -1.5384
 6973SOL    HW232382   3.184   1.640  15.375  2.2592  1.4205  1.1385
 6974SOL     OW32383   2.635   4.186   1.565 -0.2241  0.4248  0.0845
 6974SOL    HW132384   2.597   4.273   1.575  0.2105  0.6365 -0.1022
 6974SOL    HW232385   2.556   4.133   1.559  0.2149 -0.3296  0.8698
 6975SOL     OW32386   2.736   1.351  12.613 -0.4819  0.1802 -0.2325
 6975SOL    HW132387   2.821   1.316  12.639 -0.8569 -0.2122  0.4707
 6975SOL    HW232388   2.754   1.393  12.529  0.6407 -3.1230 -1.6449
 6976SOL     OW32389   3.610   3.201   5.314 -0.2196  0.0860 -0.1441
 6976SOL    HW132390   3.544   3.133   5.304 -0.6171  0.4086  0.2783
 6976SOL    HW232391   3.681   3.142   5.341 -0.4093  0.3132  0.8309
 6977SOL     OW32392   1.732   0.193   8.539  0.0392  1.0197  0.1178
 6977SOL    HW132393   1.679   0.202   8.619 -0.9670  2.2269 -0.6764
 6977SOL    HW232394   1.823   0.195   8.568  0.2913 -1.1534 -0.5487
 6978SOL     OW32395   0.343   2.095   3.335  0.3546 -0.5550 -0.4255
 6978SOL    HW132396   0.361   2.189   3.339 -0.5502 -0.3905 -0.2421
 6978SOL    HW232397   0.257   2.083   3.376  0.9468 -1.7433  0.4648
 6979SOL     OW32398   2.279   3.630  10.205  0.3685 -0.2881 -0.2217
 6979SOL    HW132399   2.270   3.650  10.298  0.6325 -1.6668  0.0989
 6979SOL    HW232400   2.332   3.550  10.208 -0.5184 -0.9673 -2.5099
 6980SOL     OW32401   0.218   0.069   7.263 -0.3372 -0.3512 -0.5377
 6980SOL    HW132402   0.195   0.160   7.279 -0.4586  0.1603 -3.5613
 6980SOL    HW232403   0.272   0.045   7.339  0.5047  0.8869 -0.7417
 6981SOL     OW32404   4.083   3.321   7.896  0.3313 -0.0640 -0.2149
 6981SOL    HW132405   4.096   3.382   7.823  2.1161 -1.0533 -0.7115
 6981SOL    HW232406   4.173   3.288   7.904  1.2517  2.1323 -1.5376
 6982SOL     OW32407   0.593   0.622   4.891  0.2502 -0.1818 -0.2511
 6982SOL    HW132408   0.577   0.592   4.980  1.2368 -0.7580 -0.2665
 6982SOL    HW232409   0.562   0.551   4.835 -1.8685 -0.3905  1.1786
 6983SOL     OW32410   0.194   1.653   1.459  0.6938 -0.0411  0.6824
 6983SOL    HW132411   0.210   1.649   1.365 -0.2175 -0.2344  0.5298
 6983SOL    HW232412   0.180   1.747   1.473 -1.1702 -0.6350  2.7330
 6984SOL     OW32413   0.903   3.581  14.180 -0.4195 -0.4000 -0.2205
 6984SOL    HW132414   0.923   3.524  14.254 -0.2557  0.9039  0.7518
 6984SOL    HW232415   0.809   3.593  14.188 -0.3176  0.2877 -0.0537
 6985SOL     OW32416   0.205   1.086  12.674 -0.1495  0.0179 -0.0141
 6985SOL    HW132417   0.275   1.027  12.645 -1.6275 -2.2689  1.1013
 6985SOL    HW232418   0.139   1.028  12.712 -0.9129  0.3452 -0.8564
 6986SOL     OW32419   1.591   0.968   3.484 -0.2366 -0.4043 -0.1392
 6986SOL    HW132420   1.655   1.027   3.444  2.1418 -3.1451 -0.3362
 6986SOL    HW232421   1.605   0.993   3.576 -0.6077  0.6531 -0.3678
 6987SOL     OW32422   0.840   0.268   4.242 -0.4251  0.1635 -0.1987
 6987SOL    HW132423   0.750   0.293   4.263 -1.2270  0.2659 -3.8232
 6987SOL    HW232424   0.837   0.180   4.280  0.7628 -0.8064 -2.3511
 6988SOL     OW32425   4.451   3.159   2.619 -0.0370 -0.2398 -0.5032
 6988SOL    HW132426   4.535   3.149   2.664  1.2749  0.8291 -2.6687
 6988SOL    HW232427   4.442   3.255   2.618 -3.2297 -0.5515 -3.5258
 6989SOL     OW32428   3.437   0.594   7.591 -0.3462 -0.6003  0.2140
 6989SOL    HW132429   3.397   0.659   7.533 -0.9418 -0.7219  0.4916
 6989SOL    HW232430   3.401   0.509   7.565 -3.6741  0.5418  1.0169
 6990SOL     OW32431   1.312   3.809   3.221  0.0339 -0.0205 -0.2561
 6990SOL    HW132432   1.304   3.896   3.260 -1.0085 -0.0817 -0.3082
 6990SOL    HW232433   1.404   3.786   3.221  0.5814  2.2178 -0.6681
 6991SOL     OW32434   0.976   1.515  16.907  0.0079 -0.0911  0.6398
 6991SOL    HW132435   0.954   1.570  16.831 -1.4909 -1.3685  0.1413
 6991SOL    HW232436   1.071   1.505  16.894 -0.5535 -2.6432 -1.5848
 6992SOL     OW32437   4.594   1.361   4.228 -0.2603 -0.4725  0.0000
 6992SOL    HW132438   4.684   1.348   4.197 -0.8448  0.7028 -2.1976
 6992SOL    HW232439   4.545   1.312   4.162 -0.5997 -1.6071  1.1012
 6993SOL     OW32440   0.091   1.347   5.260  0.1340  0.4303  0.0969
 6993SOL    HW132441   0.028   1.315   5.196 -0.9818 -0.5972  1.6958
 6993SOL    HW232442   0.084   1.274   5.321 -1.9655 -0.2428 -0.9888
 6994SOL     OW32443   2.909   4.253   6.160  0.3497 -0.0561 -0.2505
 6994SOL    HW132444   2.928   4.266   6.253 -3.5401 -0.9784  0.6678
 6994SOL    HW232445   2.929   4.161   6.146  0.5057 -0.0183 -0.2762
 6995SOL     OW32446   1.195   1.429   5.701  0.2898 -0.0909 -0.2907
 6995SOL    HW132447   1.232   1.481   5.772  1.9184  0.4434 -1.5234
 6995SOL    HW232448   1.115   1.399   5.743 -0.1582 -0.2750 -1.2715
 6996SOL     OW32449   0.001   1.677   4.015 -0.0223  0.4922  0.9789
 6996SOL    HW132450   4.643   1.708   4.060  0.6275  2.4206  0.8148
 6996SOL    HW232451   4.719   1.723   3.931  1.3684 -0.0140  0.6566
 6997SOL     OW32452   2.638   2.706   6.188 -0.1194  0.2566 -0.3644
 6997SOL    HW132453   2.632   2.610   6.183 -1.9463  0.4042 -1.1021
 6997SOL    HW232454   2.551   2.730   6.219 -0.1040 -0.0325 -0.0889
 6998SOL     OW32455   4.651   0.601   2.499 -0.6600  0.3912 -1.3229
 6998SOL    HW132456   4.560   0.617   2.526  0.5693  0.3453  2.8019
 6998SOL    HW232457   4.681   0.686   2.467  0.4586 -0.2076 -1.8333
 6999SOL     OW32458   1.920   3.294   7.230  0.1096  0.1874  0.0138
 6999SOL    HW132459   1.961   3.310   7.145  0.3430 -0.9461 -0.0916
 6999SOL    HW232460   1.858   3.367   7.228 -0.3526 -0.1739  1.0729
 7000SOL     OW32461   2.583   2.211   7.985  0.0233 -0.4305  0.4671
 7000SOL    HW132462   2.527   2.246   8.054  0.6905  0.0603  0.7597
 7000SOL    HW232463   2.671   2.227   8.020 -0.1786  1.3110  0.1720
 7001SOL     OW32464   0.924   0.204   6.496 -0.0882  0.0187  0.0524
 7001SOL    HW132465   0.911   0.114   6.468  1.7568 -0.1539 -0.2914
 7001SOL    HW232466   0.903   0.188   6.588 -0.6978 -0.7969 -0.2267
 7002SOL     OW32467   2.899   3.869   2.542 -0.1276  0.1187  0.1265
 7002SOL    HW132468   2.819   3.858   2.489  0.1221  1.9562 -0.6222
 7002SOL    HW232469   2.885   3.850   2.635 -2.3455  0.2285 -0.1778
 7003SOL     OW32470   0.585   3.066   2.143 -0.2592 -0.4551 -0.6145
 7003SOL    HW132471   0.589   3.151   2.100 -0.9170  0.2257  0.6610
 7003SOL    HW232472   0.658   3.022   2.099  0.5592 -2.2417  2.5372
 7004SOL     OW32473   4.620   4.405  14.504 -0.9258 -0.0462 -0.0257
 7004SOL    HW132474   4.530   4.384  14.530 -1.0820  1.7031  0.8484
 7004SOL    HW232475   4.615   4.490  14.461 -1.4078 -0.1230 -0.1231
 7005SOL     OW32476   3.724   1.894   2.564  0.0469 -0.2858 -0.2491
 7005SOL    HW132477   3.647   1.838   2.576  1.1977 -1.1617  2.9787
 7005SOL    HW232478   3.717   1.934   2.477  0.2713 -0.2597 -0.2553
 7006SOL     OW32479   4.159   3.993   7.908 -0.1968  0.0771  0.4188
 7006SOL    HW132480   4.107   3.971   7.985  0.0077  0.6699  0.7223
 7006SOL    HW232481   4.094   4.025   7.846  0.8996 -1.0309 -1.3342
 7007SOL     OW32482   4.097   0.868   4.592  0.2352 -0.2824  0.1874
 7007SOL    HW132483   4.114   0.841   4.502  1.6968 -0.1223  0.4203
 7007SOL    HW232484   4.011   0.828   4.604 -0.0670  0.3636  0.1829
 7008SOL     OW32485   0.147   0.335  17.624 -0.3234  0.1912 -0.5738
 7008SOL    HW132486   0.191   0.253  17.604  0.6017  0.5089  0.1553
 7008SOL    HW232487   0.176   0.388  17.550 -1.0737 -0.5078 -1.3793
 7009SOL     OW32488   0.540   3.292  11.597 -0.0751 -0.3502  0.0005
 7009SOL    HW132489   0.466   3.244  11.558 -0.0136 -0.9331  0.5928
 7009SOL    HW232490   0.617   3.280  11.543 -0.9269  2.0446 -1.7117
 7010SOL     OW32491   1.535   4.132   2.513 -0.3736  0.0469  0.2380
 7010SOL    HW132492   1.500   4.053   2.472  2.1064 -0.7092 -0.4582
 7010SOL    HW232493   1.500   4.200   2.455  0.7575  0.0778 -0.4044
 7011SOL     OW32494   0.538   0.126   5.007  0.0408 -0.3501 -0.0627
 7011SOL    HW132495   0.582   0.051   4.968  1.0186  0.2963 -0.1908
 7011SOL    HW232496   0.447   0.116   4.979  1.3669 -0.6709 -4.3221
 7012SOL     OW32497   3.318   1.071   1.788 -0.2652 -0.5925  0.1174
 7012SOL    HW132498   3.344   1.006   1.724  0.1231  1.5554 -1.8869
 7012SOL    HW232499   3.252   1.017   1.833 -2.2506  1.1545 -0.6691
 7013SOL     OW32500   1.723   2.114   6.843 -0.0326  0.0433  0.4272
 7013SOL    HW132501   1.815   2.091   6.858 -0.4692 -0.1640  2.7547
 7013SOL    HW232502   1.716   2.174   6.917 -1.0858  3.2460 -2.2787
 7014SOL     OW32503   0.041   1.378   4.616  0.1222 -0.3938  0.1709
 7014SOL    HW132504   0.060   1.446   4.551  1.0841 -1.3312 -0.5310
 7014SOL    HW232505   4.682   1.416   4.654  0.4965  0.2311  0.3192
 7015SOL     OW32506   3.856   1.600  13.395 -0.1799 -0.0222  0.5308
 7015SOL    HW132507   3.913   1.571  13.324  1.4265  0.8619  1.4619
 7015SOL    HW232508   3.879   1.693  13.399  0.7770 -0.2358  0.0680
 7016SOL     OW32509   0.086   3.622   7.239  0.1657  0.2708 -0.4574
 7016SOL    HW132510   0.118   3.679   7.169 -1.5190  2.8480  0.8676
 7016SOL    HW232511   4.716   3.627   7.212 -0.2359  1.3375  1.1038
 7017SOL     OW32512   2.988   1.803  10.937 -0.4157  0.0638 -0.4494
 7017SOL    HW132513   3.043   1.870  10.896 -0.7294  1.2626  1.1254
 7017SOL    HW232514   2.907   1.852  10.951 -0.7671  0.1688 -2.7422
 7018SOL     OW32515   0.503   2.992   4.480 -0.6859  0.2914 -0.6080
 7018SOL    HW132516   0.551   2.912   4.461 -1.1065 -0.6434  2.2798
 7018SOL    HW232517   0.418   2.954   4.500 -0.8280  0.2258 -1.3280
 7019SOL     OW32518   3.040   2.231  12.941  0.1853  0.4297  0.5033
 7019SOL    HW132519   2.972   2.249  12.875  0.8046 -0.9009 -0.5093
 7019SOL    HW232520   3.105   2.300  12.931 -0.2482  0.7809  0.1087
 7020SOL     OW32521   3.502   3.609   8.202  0.0880  0.1752  0.3215
 7020SOL    HW132522   3.560   3.675   8.239 -0.4189  0.5544  0.4457
 7020SOL    HW232523   3.423   3.617   8.255  0.7387 -3.0229  1.7730
 7021SOL     OW32524   1.720   4.267   4.382 -0.5066  0.0892 -0.2015
 7021SOL    HW132525   1.723   4.333   4.451 -1.0898  0.0269 -0.1161
 7021SOL    HW232526   1.708   4.184   4.428  2.0159 -0.8846 -1.2829
 7022SOL     OW32527   2.788   1.470   2.276  0.3225  0.1780  0.0932
 7022SOL    HW132528   2.842   1.396   2.251  0.7698  0.5046  0.1017
 7022SOL    HW232529   2.710   1.434   2.320 -0.0403 -0.8075 -1.3636
 7023SOL     OW32530   3.705   1.746   3.346  0.1480  0.1558 -0.0224
 7023SOL    HW132531   3.749   1.829   3.330  1.6465 -0.6678 -0.2063
 7023SOL    HW232532   3.776   1.689   3.375 -1.5819 -0.9281  2.0100
 7024SOL     OW32533   2.241   2.326   3.038 -0.3065 -0.3293  0.2331
 7024SOL    HW132534   2.159   2.358   3.076 -0.2041  0.6687 -0.3751
 7024SOL    HW232535   2.295   2.402   3.060 -1.1188 -0.2863  2.0746
 7025SOL     OW32536   3.148   1.887   0.429  0.3204 -0.0264 -0.0741
 7025SOL    HW132537   3.183   1.846   0.508  2.1826 -0.0065 -0.8845
 7025SOL    HW232538   3.065   1.839   0.426  0.4494 -0.2494 -0.0781
 7026SOL     OW32539   1.719   2.155   2.996  0.4204  0.1121 -0.3353
 7026SOL    HW132540   1.696   2.062   3.007  2.4280 -0.7329 -3.2538
 7026SOL    HW232541   1.692   2.189   3.081 -1.3794 -2.4037  0.1135
 7027SOL     OW32542   4.455   2.134   8.100  0.0540  0.8239 -0.1655
 7027SOL    HW132543   4.401   2.146   8.178  1.7206  0.6462  1.0164
 7027SOL    HW232544   4.388   2.151   8.035 -1.1855  2.0608  1.4391
 7028SOL     OW32545   2.903   1.913   8.661  0.2161  0.1326 -0.4318
 7028SOL    HW132546   2.967   1.918   8.590  1.6086 -0.7869  0.7614
 7028SOL    HW232547   2.848   1.990   8.642  2.0115  1.5131 -0.0449
 7029SOL     OW32548   0.576   3.904   5.682 -0.1684 -0.3385  0.1307
 7029SOL    HW132549   0.516   3.975   5.663  0.1659  0.0758  0.6054
 7029SOL    HW232550   0.589   3.860   5.599  0.5718  1.6937 -0.8336
 7030SOL     OW32551   1.057   3.130  15.285  0.4661 -0.7579 -0.5333
 7030SOL    HW132552   1.144   3.108  15.319  0.3601 -0.5085 -0.1017
 7030SOL    HW232553   0.999   3.098  15.354 -2.5529  2.0866 -1.7742
 7031SOL     OW32554   3.161   0.926   9.073 -0.1138 -0.0616  0.9690
 7031SOL    HW132555   3.184   1.006   9.121  1.9956  0.9792 -1.7357
 7031SOL    HW232556   3.080   0.958   9.034  0.1810 -0.9511 -0.3540
 7032SOL     OW32557   2.350   3.734  15.927 -0.8090 -0.5530  0.0582
 7032SOL    HW132558   2.335   3.672  15.998 -1.3679 -0.3966  0.0751
 7032SOL    HW232559   2.291   3.694  15.864  1.5893 -4.7500  0.5302
 7033SOL     OW32560   0.141   2.754   4.754  0.0941 -0.1184  0.0608
 7033SOL    HW132561   0.075   2.823   4.752 -0.0813 -0.2842  0.1238
 7033SOL    HW232562   0.089   2.678   4.780  0.2124 -0.9650 -2.1694
 7034SOL     OW32563   0.254   2.560  10.251  0.2662 -0.6503 -0.0959
 7034SOL    HW132564   0.344   2.562  10.219 -0.8472  2.1620 -3.0734
 7034SOL    HW232565   0.255   2.628  10.318 -3.0689 -0.0388 -0.6380
 7035SOL     OW32566   4.494   1.337  10.577  0.7169 -0.5303 -0.1664
 7035SOL    HW132567   4.478   1.253  10.534  0.7245  0.0379 -1.2987
 7035SOL    HW232568   4.505   1.319  10.670  1.2288  2.5404  0.3781
 7036SOL     OW32569   2.355   0.473   8.425 -0.0554 -0.1366  0.3920
 7036SOL    HW132570   2.269   0.434   8.442 -0.8737  1.1398 -0.8037
 7036SOL    HW232571   2.358   0.544   8.488 -0.8191  1.1746 -1.0543
 7037SOL     OW32572   0.849   2.617   2.751  0.2767  0.1262  0.0826
 7037SOL    HW132573   0.883   2.568   2.826  2.1838 -0.9409 -1.4830
 7037SOL    HW232574   0.793   2.555   2.705 -0.3017  1.8824 -1.5537
 7038SOL     OW32575   3.493   2.899   7.432  0.5053 -0.2868 -0.0800
 7038SOL    HW132576   3.581   2.913   7.398  0.0111  2.9396 -0.0566
 7038SOL    HW232577   3.502   2.838   7.505  0.2743 -0.3991 -0.1444
 7039SOL     OW32578   4.001   2.382  13.205 -0.8151 -0.0323  0.5130
 7039SOL    HW132579   3.963   2.451  13.259  0.6155  0.7068  0.5778
 7039SOL    HW232580   4.022   2.426  13.122 -0.7403 -1.1595 -0.0715
 7040SOL     OW32581   3.925   0.241   7.847  0.1486  0.3093  0.5920
 7040SOL    HW132582   3.924   0.146   7.857  1.5332  0.5151  2.6137
 7040SOL    HW232583   3.846   0.271   7.891 -0.2413 -3.3762  2.3936
 7041SOL     OW32584   0.102   1.521   8.463  0.0457  0.3070  0.1768
 7041SOL    HW132585   0.060   1.600   8.495 -1.5790 -0.5296  0.1282
 7041SOL    HW232586   0.023   1.481   8.429  0.2617  0.2388 -0.2471
 7042SOL     OW32587   2.216   3.847   2.653 -0.0084  1.3706  0.0901
 7042SOL    HW132588   2.202   3.933   2.614 -0.9183  1.8742  1.5076
 7042SOL    HW232589   2.163   3.785   2.603 -0.0521 -1.4822  3.6895
 7043SOL     OW32590   0.058   4.357   7.991  0.1880 -0.2580  0.6985
 7043SOL    HW132591   0.117   4.431   7.979  0.5522 -0.5658  0.5909
 7043SOL    HW232592   4.716   4.404   8.045  1.4949  1.0920  1.0650
 7044SOL     OW32593   0.938   4.459   4.114 -0.3087 -0.5358  0.1612
 7044SOL    HW132594   0.878   4.387   4.132 -1.0843 -0.3595 -1.7056
 7044SOL    HW232595   0.876   4.521   4.076 -0.4292 -1.2491 -0.8081
 7045SOL     OW32596   3.048   2.970   1.343  0.1944  0.0030 -0.6122
 7045SOL    HW132597   3.037   2.903   1.411  2.3496 -0.1515 -0.4082
 7045SOL    HW232598   3.101   2.918   1.282  0.7359  0.2793 -0.3735
 7046SOL     OW32599   4.276   1.430   4.882 -0.4487 -0.1929 -0.0689
 7046SOL    HW132600   4.231   1.347   4.896 -0.1557 -0.8071 -2.6327
 7046SOL    HW232601   4.234   1.481   4.950 -1.0632 -0.6636 -0.1013
 7047SOL     OW32602   1.645   2.782   2.807 -0.0054  0.4207 -0.1763
 7047SOL    HW132603   1.585   2.793   2.734 -0.7477 -3.2062 -0.1210
 7047SOL    HW232604   1.669   2.689   2.811 -1.5050  0.0108 -0.8838
 7048SOL     OW32605   0.445   0.709   0.746 -0.5633  0.0229 -0.1886
 7048SOL    HW132606   0.437   0.752   0.661  3.4594 -1.5803 -1.4059
 7048SOL    HW232607   0.534   0.673   0.741 -0.3144  0.1811  2.9274
 7049SOL     OW32608   1.988   0.453   0.490 -0.0477  0.8507 -0.3889
 7049SOL    HW132609   2.029   0.368   0.477  1.1995  1.3325  0.3375
 7049SOL    HW232610   1.940   0.428   0.569 -0.4485 -1.8082 -1.4910
 7050SOL     OW32611   2.464   0.842  17.160 -0.9687 -0.3688 -0.1436
 7050SOL    HW132612   2.370   0.851  17.179 -0.8398  2.4376 -0.8439
 7050SOL    HW232613   2.489   0.766  17.213 -2.5819  0.3689  1.6877
 7051SOL     OW32614   1.610   1.878  12.155 -0.3179 -0.2924 -0.5320
 7051SOL    HW132615   1.582   1.944  12.091 -1.4188 -2.0112 -1.8088
 7051SOL    HW232616   1.530   1.829  12.170 -0.4821 -0.3415 -1.5428
 7052SOL     OW32617   1.228   4.007  10.885  0.6838 -0.1124 -0.0433
 7052SOL    HW132618   1.265   3.940  10.827 -1.0369 -0.4286 -0.7565
 7052SOL    HW232619   1.301   4.068  10.900  1.5410 -1.1574  0.0794
 7053SOL     OW32620   3.056   2.924  11.032 -0.1825  0.3094 -0.6388
 7053SOL    HW132621   3.094   2.904  10.946 -0.3858 -2.1580 -0.1502
 7053SOL    HW232622   2.966   2.895  11.014  0.1199  0.4069 -2.3657
 7054SOL     OW32623   3.717   1.500  12.032 -0.4331  0.4315 -0.1458
 7054SOL    HW132624   3.651   1.444  12.071  0.1318  0.1200  0.3538
 7054SOL    HW232625   3.739   1.561  12.103 -0.0920 -0.7672  0.7737
 7055SOL     OW32626   3.689   1.306   0.152  0.1147 -0.8425 -0.5352
 7055SOL    HW132627   3.738   1.261   0.221 -1.0211  2.3290  2.4044
 7055SOL    HW232628   3.760   1.332   0.093  0.0937  0.1676 -0.1240
 7056SOL     OW32629   4.344   0.128   4.799  0.0167  0.1229  0.1115
 7056SOL    HW132630   4.279   0.134   4.869 -0.1207  0.1557 -0.0174
 7056SOL    HW232631   4.413   0.088   4.852 -1.2573 -1.4425  0.5814
 7057SOL     OW32632   4.615   2.943  13.267  0.1297 -0.5479  0.5500
 7057SOL    HW132633   4.537   2.901  13.304 -0.4301  0.3906  0.4196
 7057SOL    HW232634   4.650   2.896  13.191 -2.1249 -0.0266 -0.8040
 7058SOL     OW32635   1.245   3.299   2.133  0.6769  0.3636 -0.7144
 7058SOL    HW132636   1.188   3.342   2.197 -1.6526 -0.9051 -1.9444
 7058SOL    HW232637   1.281   3.224   2.181 -4.3373 -1.7015 -0.2027
 7059SOL     OW32638   0.200   4.705   1.434 -1.0545  0.0036 -0.0338
 7059SOL    HW132639   0.106   4.709   1.417 -1.5275  3.6982  3.5350
 7059SOL    HW232640   0.218   4.677   1.524 -0.2244 -0.0000 -0.1921
 7060SOL     OW32641   0.610   4.209  12.753  0.5093 -0.3050 -0.3682
 7060SOL    HW132642   0.589   4.119  12.776 -0.2160  0.4181  1.8777
 7060SOL    HW232643   0.704   4.205  12.734  0.0672  1.2667 -2.8551
 7061SOL     OW32644   0.482   0.585   2.431 -0.2947  0.5606  0.2765
 7061SOL    HW132645   0.413   0.586   2.497 -0.0947 -0.5047  0.5070
 7061SOL    HW232646   0.497   0.678   2.417  0.5468  0.6819  1.9522
 7062SOL     OW32647   3.620   0.559   3.651  0.1568 -0.1458  0.7649
 7062SOL    HW132648   3.705   0.559   3.693  0.6391 -2.1252 -0.2175
 7062SOL    HW232649   3.638   0.505   3.574  2.8252  1.2030  0.4373
 7063SOL     OW32650   4.623   3.290   2.163 -0.0734  0.1707  0.5834
 7063SOL    HW132651   4.650   3.320   2.077  1.6409 -2.2252  0.2998
 7063SOL    HW232652   4.535   3.326   2.171 -0.1241 -0.0997  1.2924
 7064SOL     OW32653   3.005   3.340  12.085 -0.2021  0.1583 -0.2332
 7064SOL    HW132654   3.065   3.344  12.160  0.5143  1.7951 -0.8903
 7064SOL    HW232655   3.007   3.245  12.077 -0.9986  0.3188 -2.2188
 7065SOL     OW32656   0.145   4.227  12.831  0.1257  0.4224 -0.4278
 7065SOL    HW132657   0.228   4.263  12.800 -0.3731  1.2405 -0.8147
 7065SOL    HW232658   0.075   4.253  12.771 -1.3651 -1.4163  0.5110
 7066SOL     OW32659   0.797   3.136   7.355 -0.2748 -0.1010 -0.5169
 7066SOL    HW132660   0.712   3.106   7.386 -0.1419  1.0243  0.9286
 7066SOL    HW232661   0.824   3.194   7.426  0.1900 -0.0152 -0.7654
 7067SOL     OW32662   1.300   2.187  12.135  0.2888 -0.3132 -0.6440
 7067SOL    HW132663   1.358   2.262  12.126 -0.0382  0.1451  0.9871
 7067SOL    HW232664   1.218   2.235  12.147  0.7238 -0.0146  1.2302
 7068SOL     OW32665   1.990   2.862   8.005  0.0069 -0.0487 -0.0695
 7068SOL    HW132666   2.071   2.904   8.030  0.1005 -1.0947  1.3972
 7068SOL    HW232667   2.002   2.771   8.033 -2.2470 -0.4794 -0.4639
 7069SOL     OW32668   2.184   0.849   8.060  0.5469 -0.3959  0.5305
 7069SOL    HW132669   2.117   0.812   8.003  1.3287  0.5554 -1.0074
 7069SOL    HW232670   2.259   0.848   8.001  0.0758 -0.3042 -0.0680
 7070SOL     OW32671   2.009   3.288  14.579  0.0788  0.0047  0.6096
 7070SOL    HW132672   1.933   3.299  14.522  0.5032 -0.1592  0.0220
 7070SOL    HW232673   1.970   3.239  14.652 -0.0369 -0.3949  0.2845
 7071SOL     OW32674   0.234   3.580   7.825 -0.8622 -0.6439 -0.3403
 7071SOL    HW132675   0.165   3.527   7.785 -2.2192 -0.1307  1.3112
 7071SOL    HW232676   0.228   3.661   7.775  2.8646  0.2730  0.6618
 7072SOL     OW32677   0.556   3.547   4.070  0.1413 -0.1513  0.0456
 7072SOL    HW132678   0.472   3.565   4.029  0.7808  1.1875 -0.6789
 7072SOL    HW232679   0.535   3.525   4.161 -0.6046  2.6300  0.5604
 7073SOL     OW32680   1.441   1.213  11.868  0.0376  0.1119  0.5162
 7073SOL    HW132681   1.442   1.289  11.926 -1.2318 -0.1140  0.8395
 7073SOL    HW232682   1.348   1.188  11.867  0.5828 -2.0202  2.1719
 7074SOL     OW32683   0.033   3.235   6.029 -0.1301  0.0231  0.5484
 7074SOL    HW132684   4.686   3.193   6.082 -2.1921 -0.1992 -2.2534
 7074SOL    HW232685   4.705   3.294   5.971 -1.8549 -1.8495  0.0970
 7075SOL     OW32686   1.373   1.184  17.167 -0.1751  0.1977 -0.0554
 7075SOL    HW132687   1.441   1.233  17.214  0.3458  0.4045 -1.0403
 7075SOL    HW232688   1.316   1.165  17.242  0.2147  3.2335  1.0396
 7076SOL     OW32689   1.457   3.489   7.002  0.4273  0.0814  0.0037
 7076SOL    HW132690   1.410   3.571   6.984  0.1747  0.1560  1.0197
 7076SOL    HW232691   1.534   3.492   6.944  1.2968 -4.0846  0.9391
 7077SOL     OW32692   4.171   0.694  13.647 -0.3335 -0.2510  0.5437
 7077SOL    HW132693   4.181   0.672  13.739 -2.1612 -0.0811  0.7879
 7077SOL    HW232694   4.142   0.785  13.654 -0.6708 -0.4233  1.3246
 7078SOL     OW32695   1.996   3.473   2.771 -0.1224  0.3382 -0.2272
 7078SOL    HW132696   2.019   3.496   2.681 -4.0410  0.4477 -1.2009
 7078SOL    HW232697   2.046   3.391   2.773  0.2584  0.5420 -1.0073
 7079SOL     OW32698   1.237   0.837   0.352 -0.0751 -0.2088 -0.1447
 7079SOL    HW132699   1.259   0.862   0.442  1.8024 -0.4733 -0.5278
 7079SOL    HW232700   1.320   0.791   0.341  0.6905  1.3866 -1.1089
 7080SOL     OW32701   1.205   0.291   2.180 -0.0626 -0.8426  0.1388
 7080SOL    HW132702   1.241   0.297   2.268 -1.4788 -0.0512  0.6683
 7080SOL    HW232703   1.119   0.332   2.190  0.9273  1.6092 -1.2771
 7081SOL     OW32704   4.613   2.724   1.367 -0.6600 -0.9129  0.0506
 7081SOL    HW132705   4.573   2.637   1.371  0.8566 -1.6114 -0.1962
 7081SOL    HW232706   4.540   2.775   1.402  0.9606  0.6653  1.1339
 7082SOL     OW32707   3.077   0.411   4.717 -0.0824 -0.0267  0.0326
 7082SOL    HW132708   3.082   0.445   4.628 -2.0828  1.4477  0.4931
 7082SOL    HW232709   3.076   0.316   4.704  0.4218 -0.2512  1.6528
 7083SOL     OW32710   1.132   3.820   6.364  0.1888 -0.2257  0.6030
 7083SOL    HW132711   1.090   3.743   6.327  1.5025 -0.6405 -0.0338
 7083SOL    HW232712   1.222   3.789   6.372  0.9156  1.4794 -1.1025
 7084SOL     OW32713   1.766   1.384   3.559 -0.2633  0.3568  0.0719
 7084SOL    HW132714   1.793   1.295   3.535 -1.4823  0.2205 -0.8280
 7084SOL    HW232715   1.758   1.381   3.654 -1.1356  1.7335  0.0410
 7085SOL     OW32716   1.331   1.873  17.479  0.1785 -0.5356 -0.4283
 7085SOL    HW132717   1.371   1.959  17.474 -1.6064  0.4106  1.6229
 7085SOL    HW232718   1.391   1.808  17.443 -0.4519 -2.5047  2.0237
 7086SOL     OW32719   4.332   0.785   3.882 -0.2721 -0.1894  0.2635
 7086SOL    HW132720   4.319   0.862   3.827 -0.0592  0.8375  1.6567
 7086SOL    HW232721   4.418   0.760   3.848 -0.2989  2.2691 -1.6508
 7087SOL     OW32722   2.623   3.440   5.242  0.0380 -0.3570 -0.0837
 7087SOL    HW132723   2.651   3.510   5.184  1.3221 -1.8404 -1.2571
 7087SOL    HW232724   2.540   3.409   5.205 -1.3987  1.7799  1.4121
 7088SOL     OW32725   0.969   4.196   5.083 -0.7417 -0.2719  0.1605
 7088SOL    HW132726   0.914   4.239   5.018 -0.9000  1.2344  1.2922
 7088SOL    HW232727   1.047   4.245   5.057 -0.7716  1.0770  2.6372
 7089SOL     OW32728   2.739   0.696   6.678  0.1097 -0.5686  0.5796
 7089SOL    HW132729   2.766   0.750   6.603  0.0501  0.7128  1.4967
 7089SOL    HW232730   2.657   0.657   6.649 -0.6395  1.0792  0.5220
 7090SOL     OW32731   1.414   0.748   9.155 -0.8172  0.1028 -0.7774
 7090SOL    HW132732   1.423   0.653   9.154  2.1706  0.3829  0.5168
 7090SOL    HW232733   1.334   0.752   9.209 -0.3897  0.3948 -0.1640
 7091SOL     OW32734   0.510   0.680   8.646  0.2124 -0.2997  0.1368
 7091SOL    HW132735   0.507   0.729   8.564  1.2499 -1.2620 -0.4714
 7091SOL    HW232736   0.417   0.688   8.671  0.5780  3.1420  0.3185
 7092SOL     OW32737   3.558   4.122  14.721  0.2412  0.4841 -0.0329
 7092SOL    HW132738   3.606   4.040  14.718 -1.0472 -0.2241 -1.3549
 7092SOL    HW232739   3.539   4.130  14.628  1.3734 -0.5699 -0.3553
 7093SOL     OW32740   4.506   3.622  16.563 -0.5165  0.0817 -0.2007
 7093SOL    HW132741   4.527   3.587  16.476  2.4726 -1.0095  0.9809
 7093SOL    HW232742   4.504   3.536  16.607  2.3116 -0.4087 -1.0780
 7094SOL     OW32743   4.112   2.909  13.180 -0.0003 -0.0344 -0.4767
 7094SOL    HW132744   4.045   2.977  13.171 -0.2926 -0.5698 -2.4933
 7094SOL    HW232745   4.074   2.830  13.141  0.2790 -0.4646  0.1338
 7095SOL     OW32746   0.444   0.023   6.322  0.1328 -0.1830  0.2610
 7095SOL    HW132747   0.477   0.022   6.232  0.4050 -0.0169  0.3612
 7095SOL    HW232748   0.351   0.040   6.308 -0.1291 -2.1882 -0.4268
 7096SOL     OW32749   1.456   4.165   5.589 -0.3944  0.5772  0.3053
 7096SOL    HW132750   1.476   4.245   5.638  2.0170  0.3985 -0.3700
 7096SOL    HW232751   1.393   4.131   5.652 -0.3252  1.2994  0.7612
 7097SOL     OW32752   3.028   4.325   5.687 -1.0666 -0.1244  0.3670
 7097SOL    HW132753   2.949   4.364   5.648 -0.2259  1.2148 -0.0307
 7097SOL    HW232754   2.994   4.327   5.776 -0.7768 -0.7000  0.4888
 7098SOL     OW32755   1.152   4.490   1.922  0.2439 -0.0667 -0.4633
 7098SOL    HW132756   1.065   4.512   1.887  1.1205  1.7914 -1.4457
 7098SOL    HW232757   1.202   4.481   1.841  0.0242  0.7662 -0.6955
 7099SOL     OW32758   2.158   0.788   5.128  0.8212  0.2469 -0.9775
 7099SOL    HW132759   2.136   0.762   5.038  1.3416 -1.5899 -0.5811
 7099SOL    HW232760   2.192   0.877   5.115  2.5338 -0.1330  0.9213
 7100SOL     OW32761   1.686   2.457   2.809  0.2717  0.1582 -0.7413
 7100SOL    HW132762   1.610   2.425   2.857  2.4267 -1.0181  1.8636
 7100SOL    HW232763   1.756   2.394   2.823 -0.7541 -0.2657  2.2946
 7101SOL     OW32764   1.747   3.143   3.154  0.1614  0.4852  0.4629
 7101SOL    HW132765   1.813   3.176   3.215 -0.0822  0.7557  0.5748
 7101SOL    HW232766   1.752   3.048   3.165 -0.9053  0.1786 -1.6137
 7102SOL     OW32767   1.813   1.641   4.180 -0.0387  0.0155  0.1753
 7102SOL    HW132768   1.902   1.672   4.162 -0.0036 -0.1517  0.0658
 7102SOL    HW232769   1.801   1.678   4.268  1.5574 -2.4252  1.4062
 7103SOL     OW32770   1.983   0.844   2.621 -0.1527  0.0843  0.6714
 7103SOL    HW132771   1.960   0.933   2.592 -1.4896 -0.0851  1.2308
 7103SOL    HW232772   2.049   0.865   2.688  0.3945  1.3926 -0.2695
 7104SOL     OW32773   4.197   3.349  14.131  0.0821  0.0290 -0.2019
 7104SOL    HW132774   4.243   3.278  14.175 -1.4195 -0.7262  0.1616
 7104SOL    HW232775   4.163   3.407  14.199 -0.2276 -1.8811  1.2474
 7105SOL     OW32776   4.155   4.257   1.124 -0.3260  0.3280 -0.0717
 7105SOL    HW132777   4.077   4.229   1.172 -0.8328  0.8414 -0.5915
 7105SOL    HW232778   4.210   4.179   1.119  0.3325  0.7132  1.3280
 7106SOL     OW32779   0.568   0.415   0.635 -0.1046 -0.0394  0.0662
 7106SOL    HW132780   0.607   0.494   0.596  1.8119  0.1836  2.3859
 7106SOL    HW232781   0.596   0.352   0.569 -0.3272  1.3587 -1.3694
 7107SOL     OW32782   0.283   4.189   9.670 -0.1129 -0.0363 -0.5887
 7107SOL    HW132783   0.338   4.112   9.688  0.5945  0.8959  1.2750
 7107SOL    HW232784   0.268   4.222   9.759 -0.6563  1.3514 -1.2111
 7108SOL     OW32785   2.836   4.541  16.399  0.1153  0.5751 -0.7773
 7108SOL    HW132786   2.898   4.469  16.392 -1.4897 -0.9031  0.2151
 7108SOL    HW232787   2.786   4.505  16.472  0.4952  1.9447  0.1405
 7109SOL     OW32788   1.838   0.027   6.952 -0.1222 -0.1342  0.0973
 7109SOL    HW132789   1.900   4.693   7.001  1.0935  1.1347 -0.0212
 7109SOL    HW232790   1.849   0.110   6.999 -0.4997 -0.9154  1.5705
 7110SOL     OW32791   3.312   0.814   5.915  0.7331 -0.1002 -0.5179
 7110SOL    HW132792   3.220   0.823   5.940  0.8049  0.1370 -0.3341
 7110SOL    HW232793   3.308   0.857   5.830 -0.8547  0.9262  0.0613
 7111SOL     OW32794   2.453   0.013   3.810  0.2093  0.1187  0.2299
 7111SOL    HW132795   2.464   0.003   3.904  0.2766 -2.9105 -0.0837
 7111SOL    HW232796   2.531   4.684   3.785 -1.7163 -2.2471 -1.1431
 7112SOL     OW32797   1.556   0.403   4.475 -0.0721  0.1967 -0.1210
 7112SOL    HW132798   1.536   0.490   4.441 -0.4714  0.8414  1.7285
 7112SOL    HW232799   1.565   0.351   4.395  1.9522  0.8598 -0.3064
 7113SOL     OW32800   3.565   1.959   2.966 -0.4894  0.3785 -0.3636
 7113SOL    HW132801   3.474   1.969   2.937 -1.4387  0.3040  2.5052
 7113SOL    HW232802   3.571   1.865   2.952  2.0463  0.6131 -0.7644
 7114SOL     OW32803   1.532   0.553  17.476 -0.6123 -0.7370  0.0759
 7114SOL    HW132804   1.607   0.531  17.532  0.6346  0.8505 -0.9504
 7114SOL    HW232805   1.469   0.484  17.495 -0.7532 -0.4498  0.6742
 7115SOL     OW32806   1.451   2.470   7.408  0.1474 -0.0008 -0.0310
 7115SOL    HW132807   1.480   2.416   7.335  1.1722 -0.2393  0.5457
 7115SOL    HW232808   1.440   2.556   7.368 -0.3857  0.0521  0.2213
 7116SOL     OW32809   3.788   4.201   3.030 -0.2177 -0.2748  0.2280
 7116SOL    HW132810   3.740   4.168   2.954  1.1992 -1.1233 -0.2962
 7116SOL    HW232811   3.747   4.144   3.095 -0.3391 -0.6156 -0.1439
 7117SOL     OW32812   3.469   0.902   3.847  0.2146 -0.2943 -0.0167
 7117SOL    HW132813   3.486   0.837   3.915  0.6842  0.3472  0.4841
 7117SOL    HW232814   3.553   0.934   3.814  0.0550 -1.2838 -1.3593
 7118SOL     OW32815   1.272   0.009   4.967  1.1171 -0.0645  0.3621
 7118SOL    HW132816   1.266   0.086   4.911  1.2519  0.1274  0.6082
 7118SOL    HW232817   1.189   0.016   5.014  0.7885 -3.2065  0.2319
 7119SOL     OW32818   4.186   2.405  16.709 -0.2514 -0.0029  0.5934
 7119SOL    HW132819   4.091   2.410  16.712 -0.2123  0.2166  1.4188
 7119SOL    HW232820   4.208   2.496  16.686  1.8111 -0.1621  1.9568
 7120SOL     OW32821   2.006   3.108   0.772 -0.5486 -0.6155  0.4959
 7120SOL    HW132822   2.003   3.029   0.826  0.4566 -0.6596  0.4844
 7120SOL    HW232823   2.088   3.147   0.800  0.0099 -1.6353  0.2877
 7121SOL     OW32824   3.671   2.987  13.558  0.2204 -0.9585 -0.4895
 7121SOL    HW132825   3.634   2.948  13.478 -0.8130 -0.4472 -0.2544
 7121SOL    HW232826   3.598   3.039  13.592  0.6464 -0.6191 -0.1087
 7122SOL     OW32827   0.997   1.107   3.811 -0.1326  0.1181 -0.0552
 7122SOL    HW132828   0.944   1.095   3.890 -0.2350  1.8093  0.1305
 7122SOL    HW232829   0.983   1.018   3.779 -0.1342  0.7317 -1.7327
 7123SOL     OW32830   4.252   1.087   4.639 -0.5482  0.3807 -0.0729
 7123SOL    HW132831   4.187   1.026   4.604  0.7645 -0.8859 -0.3120
 7123SOL    HW232832   4.333   1.037   4.648 -2.0260 -1.6324  1.8749
 7124SOL     OW32833   3.424   1.882   6.417 -0.2358 -0.3991 -0.4085
 7124SOL    HW132834   3.491   1.865   6.482 -0.2552 -1.8512 -0.7764
 7124SOL    HW232835   3.421   1.792   6.384 -1.8905 -0.2214 -0.7327
 7125SOL     OW32836   0.164   2.019   3.770 -0.3612 -0.1114 -0.3105
 7125SOL    HW132837   0.159   2.095   3.712 -1.3308  1.1231  1.3775
 7125SOL    HW232838   0.182   2.063   3.853  2.5655  0.7541 -1.4187
 7126SOL     OW32839   3.279   2.877   4.655  0.1067  0.1212  0.1849
 7126SOL    HW132840   3.350   2.814   4.672  1.0931  0.9499 -0.8730
 7126SOL    HW232841   3.259   2.901   4.745 -0.2971 -0.3849  0.2276
 7127SOL     OW32842   1.793   4.230   3.753 -0.3046 -0.0396  0.7362
 7127SOL    HW132843   1.727   4.181   3.704 -0.1646  1.1826 -0.6599
 7127SOL    HW232844   1.799   4.316   3.712  0.6258 -0.5631 -0.2232
 7128SOL     OW32845   2.942   2.813   1.080  0.1754 -0.7020  0.1293
 7128SOL    HW132846   2.892   2.878   1.030  1.8680  0.2376 -0.3459
 7128SOL    HW232847   3.032   2.845   1.084 -0.0897 -0.0321  0.8988
 7129SOL     OW32848   0.480   0.993   6.931 -0.7309  0.4889  0.0154
 7129SOL    HW132849   0.564   1.031   6.906  0.5413 -3.0508 -0.9727
 7129SOL    HW232850   0.488   0.900   6.911  0.2099  0.1514  1.9445
 7130SOL     OW32851   3.755   3.633   5.074 -0.1276 -0.4547  0.9725
 7130SOL    HW132852   3.666   3.668   5.074 -0.8596 -2.2836 -0.6963
 7130SOL    HW232853   3.731   3.550   5.115  0.0218 -1.5012 -1.0507
 7131SOL     OW32854   0.258   3.574   2.828 -0.3686  0.1771  0.3291
 7131SOL    HW132855   0.341   3.554   2.785 -0.3597  0.5458  0.1759
 7131SOL    HW232856   0.198   3.551   2.756  0.9523 -0.2803 -0.6232
 7132SOL     OW32857   3.253   1.591   1.219  0.0834 -0.1647 -0.3729
 7132SOL    HW132858   3.230   1.587   1.126  2.1979  0.9170 -0.9621
 7132SOL    HW232859   3.316   1.663   1.213  0.2737 -0.4240 -1.5642
 7133SOL     OW32860   1.541   1.241   1.610 -0.3792  0.3662  0.2738
 7133SOL    HW132861   1.466   1.290   1.646 -1.2524  1.0405 -2.4709
 7133SOL    HW232862   1.498   1.197   1.537 -0.5645  0.8770  0.0763
 7134SOL     OW32863   2.765   3.550   8.446 -0.3510  0.9326  0.0842
 7134SOL    HW132864   2.678   3.565   8.483 -0.3620  0.7571  0.1301
 7134SOL    HW232865   2.779   3.476   8.507 -2.6825 -0.7621 -1.4641
 7135SOL     OW32866   4.697   3.197   2.731 -0.3577  0.1548  0.1768
 7135SOL    HW132867   0.072   3.196   2.727 -0.3423  2.0744 -0.3167
 7135SOL    HW232868   4.682   3.278   2.780 -1.8684 -1.7338  2.8577
 7136SOL     OW32869   2.655   1.347   6.254 -0.3932 -0.6384  0.3193
 7136SOL    HW132870   2.605   1.281   6.206  0.4135 -0.3887 -0.8714
 7136SOL    HW232871   2.742   1.330   6.218 -0.5252 -1.1652  0.2551
 7137SOL     OW32872   3.084   1.832   4.806 -0.2298  0.2444  0.1341
 7137SOL    HW132873   3.068   1.906   4.747  2.1636  0.5272 -0.1702
 7137SOL    HW232874   3.002   1.835   4.855 -0.5825  3.2054 -0.6329
 7138SOL     OW32875   2.954   1.504  15.238  0.4084  0.0380  0.4516
 7138SOL    HW132876   2.900   1.583  15.233 -0.7423 -0.9238 -2.7435
 7138SOL    HW232877   2.982   1.500  15.329 -0.1133 -1.3081  0.5544
 7139SOL     OW32878   3.447   2.339  15.798  0.3455  0.4742  0.0452
 7139SOL    HW132879   3.384   2.340  15.726  1.4752  1.9894 -0.9323
 7139SOL    HW232880   3.528   2.327  15.748  0.9273  0.1100  1.0764
 7140SOL     OW32881   2.019   3.788   8.379 -0.1597 -0.4396  0.1385
 7140SOL    HW132882   1.965   3.713   8.354  0.0588 -0.8472  0.8909
 7140SOL    HW232883   1.970   3.829   8.450  0.3042 -2.8847  1.8982
 7141SOL     OW32884   0.596   4.034   1.960  0.4399 -0.4731  0.4059
 7141SOL    HW132885   0.683   3.993   1.959 -0.5041 -2.4466 -2.0590
 7141SOL    HW232886   0.540   3.985   2.020  0.9353  0.6765  1.7953
 7142SOL     OW32887   4.044   0.612  11.199  0.0323  0.0170 -0.1412
 7142SOL    HW132888   3.959   0.574  11.177  0.7190 -0.0849 -2.5423
 7142SOL    HW232889   4.084   0.527  11.184  0.7978  0.2660  0.5272
 7143SOL     OW32890   1.943   4.290  17.593  0.1397  0.1468 -0.4646
 7143SOL    HW132891   1.856   4.320  17.567  0.3624 -0.1142 -1.5274
 7143SOL    HW232892   1.919   4.243  17.672 -1.6628 -0.5787 -1.4610
 7144SOL     OW32893   0.993   3.651   2.940  0.1732  0.6227  0.2679
 7144SOL    HW132894   1.064   3.659   3.003  0.0537  1.0511  0.3495
 7144SOL    HW232895   0.927   3.697   2.992  1.0448  1.2123  0.8524
 7145SOL     OW32896   3.604   0.101   6.154 -0.3354 -0.4067  0.0035
 7145SOL    HW132897   3.583   0.172   6.094  0.0011 -1.2237 -1.0849
 7145SOL    HW232898   3.689   0.074   6.119 -0.4519 -2.8936  1.6582
 7146SOL     OW32899   0.034   0.583  11.268 -0.4466 -0.3185  0.3569
 7146SOL    HW132900   0.121   0.620  11.253 -1.0866  0.1914 -2.0100
 7146SOL    HW232901   4.708   0.662  11.239 -0.6774 -0.6181 -0.0878
 7147SOL     OW32902   1.774   2.335   3.643 -0.1336 -0.1492 -0.6913
 7147SOL    HW132903   1.707   2.274   3.613  0.6923 -1.5018  0.1613
 7147SOL    HW232904   1.816   2.354   3.559 -0.3349 -3.4901 -1.5645
 7148SOL     OW32905   3.868   2.776   0.611  0.4150  0.2171  0.1649
 7148SOL    HW132906   3.830   2.720   0.678  1.1833  0.1288  0.5304
 7148SOL    HW232907   3.823   2.749   0.531 -1.0471  1.7937  0.4388
 7149SOL     OW32908   4.074   1.650   0.545  0.3466 -0.3707 -0.0688
 7149SOL    HW132909   4.073   1.703   0.624 -0.7478  2.4552 -1.9926
 7149SOL    HW232910   4.168   1.630   0.545  0.4246  0.0092 -0.0538
 7150SOL     OW32911   3.084   0.402   7.967  0.8712 -0.2546 -0.5191
 7150SOL    HW132912   3.133   0.433   8.044  0.8837  0.4231 -0.7997
 7150SOL    HW232913   2.996   0.409   8.003  1.1365  0.5273 -0.0054
 7151SOL     OW32914   3.915   4.252  10.774  0.2877 -0.0748  0.4889
 7151SOL    HW132915   3.834   4.203  10.760  0.0974  1.7390 -4.8590
 7151SOL    HW232916   3.980   4.187  10.748 -1.2305 -1.0342 -0.8967
 7152SOL     OW32917   1.143   0.267   1.702  0.2229  0.7784  0.3915
 7152SOL    HW132918   1.192   0.350   1.698 -2.2359  2.2167  0.2341
 7152SOL    HW232919   1.162   0.222   1.784 -0.1235 -0.5307 -0.2465
 7153SOL     OW32920   0.505   0.090   5.827  0.1180 -0.2733 -0.0200
 7153SOL    HW132921   0.476   0.152   5.761 -0.0120  1.0520  1.2846
 7153SOL    HW232922   0.472   0.011   5.784  1.5344 -1.7595  1.5871
 7154SOL     OW32923   2.164   3.563  10.828  0.3207 -0.5463 -0.9547
 7154SOL    HW132924   2.236   3.506  10.800 -0.4751 -2.3854  0.7608
 7154SOL    HW232925   2.218   3.642  10.836 -1.0681  0.3020 -0.0792
 7155SOL     OW32926   1.997   1.202   4.998  0.8555  0.2357 -0.1126
 7155SOL    HW132927   1.970   1.181   4.909  1.2781  2.5064 -0.7768
 7155SOL    HW232928   2.073   1.145   5.014 -0.1629 -1.2917 -0.7486
 7156SOL     OW32929   2.087   1.335   3.434 -0.2178 -0.0075 -0.1023
 7156SOL    HW132930   2.041   1.281   3.369 -0.8886  1.1941 -0.6154
 7156SOL    HW232931   2.071   1.288   3.516  0.8678 -0.5983 -0.2290
 7157SOL     OW32932   1.468   0.706   5.297 -0.2284 -0.1292  0.4248
 7157SOL    HW132933   1.478   0.671   5.209 -0.3378 -0.2202  0.4479
 7157SOL    HW232934   1.439   0.795   5.275 -2.2216 -0.6952  0.7744
 7158SOL     OW32935   2.986   4.003   3.472  0.4209 -0.2259  0.0608
 7158SOL    HW132936   2.956   4.028   3.559  1.6762  3.2368 -0.4770
 7158SOL    HW232937   2.906   3.975   3.428  2.1101 -1.2589 -2.3858
 7159SOL     OW32938   1.150   0.074  11.263  0.3002  0.4664  0.5983
 7159SOL    HW132939   1.234   0.047  11.301  0.7386 -0.5846 -1.1125
 7159SOL    HW232940   1.140   0.163  11.296 -0.5494  0.5639  0.0694
 7160SOL     OW32941   3.935   2.533   3.173 -0.4146 -0.3600  0.4735
 7160SOL    HW132942   3.898   2.445   3.180  0.5170 -0.9358 -1.8172
 7160SOL    HW232943   3.894   2.568   3.094 -0.5295 -0.0594  0.6673
 7161SOL     OW32944   0.554   1.399   8.268 -0.1298 -0.6692  0.3246
 7161SOL    HW132945   0.533   1.307   8.251 -0.7386 -0.3321 -0.7943
 7161SOL    HW232946   0.465   1.425   8.291  0.5275 -0.0050  2.0836
 7162SOL     OW32947   4.460   1.790   5.082 -0.4464  0.3618 -0.5531
 7162SOL    HW132948   4.439   1.769   4.991 -0.6270  1.3486 -0.7433
 7162SOL    HW232949   4.382   1.828   5.123 -0.1428 -1.0678  1.3284
 7163SOL     OW32950   2.944   3.307  15.157 -0.0380 -0.1791  0.3595
 7163SOL    HW132951   2.908   3.238  15.101 -0.7392 -0.0616  0.6688
 7163SOL    HW232952   2.990   3.362  15.094 -0.3578  0.2600  0.5089
 7164SOL     OW32953   1.425   3.632   2.609  0.3534  0.4864  0.0721
 7164SOL    HW132954   1.501   3.635   2.668  1.2208  2.2388 -1.1157
 7164SOL    HW232955   1.448   3.706   2.552 -0.1248  0.6242  0.0591
 7165SOL     OW32956   2.878   4.329   3.153 -0.2181  0.7091  0.2642
 7165SOL    HW132957   2.804   4.296   3.102  1.3835 -1.7284 -0.4743
 7165SOL    HW232958   2.934   4.252   3.159 -1.1803 -0.1669 -2.2038
 7166SOL     OW32959   3.265   2.452   5.445 -0.3971 -0.2945 -0.2031
 7166SOL    HW132960   3.258   2.493   5.531 -3.9224 -2.4644  0.5393
 7166SOL    HW232961   3.173   2.438   5.424 -0.7593  0.8678  0.6374
 7167SOL     OW32962   3.623   3.155  16.362  0.3609 -0.4440 -0.3880
 7167SOL    HW132963   3.665   3.209  16.295  1.2377 -1.6298 -0.7866
 7167SOL    HW232964   3.676   3.075  16.366 -1.0837 -1.4335 -1.1115
 7168SOL     OW32965   4.227   0.588   9.817  0.0440 -0.1031 -0.2805
 7168SOL    HW132966   4.197   0.537   9.741  1.9613  0.7394 -1.5851
 7168SOL    HW232967   4.282   0.650   9.770  0.5614 -1.3063 -1.2518
 7169SOL     OW32968   1.064   4.323  11.888  0.0898 -0.3635 -0.4885
 7169SOL    HW132969   1.121   4.286  11.820  1.8378  0.5140  0.5259
 7169SOL    HW232970   1.085   4.285  11.974  0.5182  2.2845  0.5520
 7170SOL     OW32971   1.969   0.453  14.011  1.0097 -0.6853  0.1685
 7170SOL    HW132972   2.027   0.430  13.938  0.0931  0.7526 -1.0169
 7170SOL    HW232973   1.893   0.396  14.002 -1.1461  2.0441  1.0509
 7171SOL     OW32974   0.719   2.310  10.232  0.0559 -0.0602  0.1815
 7171SOL    HW132975   0.645   2.251  10.216  0.4597 -1.2401  2.7256
 7171SOL    HW232976   0.768   2.316  10.150 -0.9337  1.2182 -0.3344
 7172SOL     OW32977   4.111   0.194   8.675 -0.9647 -0.4946 -0.5912
 7172SOL    HW132978   4.199   0.188   8.713 -2.2196  3.0265  2.9127
 7172SOL    HW232979   4.127   0.269   8.618  1.0929  0.4016  1.1368
 7173SOL     OW32980   4.714   2.456   9.838  0.3253  0.9533 -0.1184
 7173SOL    HW132981   4.637   2.506   9.866  0.5432  1.8323 -1.1225
 7173SOL    HW232982   4.716   2.415   9.925  0.3603  2.9137  0.7978
 7174SOL     OW32983   4.566   2.585   4.282  0.8249 -0.4168  0.0448
 7174SOL    HW132984   4.558   2.548   4.370  0.3490 -1.0385 -0.2629
 7174SOL    HW232985   4.493   2.544   4.236 -1.7713  1.5342  2.4238
 7175SOL     OW32986   2.065   4.375  12.226  0.0769  0.1365 -0.6695
 7175SOL    HW132987   2.148   4.415  12.250 -0.8307  1.8951 -0.4623
 7175SOL    HW232988   2.068   4.300  12.285 -0.1199  0.8586  0.2506
 7176SOL     OW32989   0.170   3.605   4.788 -0.3263  0.0290  0.3104
 7176SOL    HW132990   0.198   3.514   4.776 -0.1408  0.0862  0.3133
 7176SOL    HW232991   0.204   3.628   4.875  1.1593 -0.1033 -0.2430
 7177SOL     OW32992   4.167   4.071  13.390  0.2203 -0.0031 -0.1691
 7177SOL    HW132993   4.245   4.045  13.439  0.8628  1.0505 -0.6436
 7177SOL    HW232994   4.091   4.059  13.447  2.0905  0.5851  2.4362
 7178SOL     OW32995   0.414   4.007  17.059 -0.2075  0.1161 -0.2947
 7178SOL    HW132996   0.482   4.063  17.096 -0.4857  0.7185 -0.6975
 7178SOL    HW232997   0.377   4.061  16.990  0.7636 -0.0401 -0.9236
 7179SOL     OW32998   4.517   0.791  13.625  0.1903 -0.6387  0.2246
 7179SOL    HW132999   4.427   0.791  13.590  1.4563 -3.3625 -3.0024
 7179SOL    HW233000   4.529   0.700  13.653  0.7502 -0.5242  0.3539
 7180SOL     OW33001   2.845   2.410  12.855  0.1550 -0.0184 -0.4135
 7180SOL    HW133002   2.759   2.451  12.863 -1.0753 -2.3603 -1.5798
 7180SOL    HW233003   2.887   2.448  12.932  1.0726  1.4063 -1.6094
 7181SOL     OW33004   0.252   0.098  15.119 -0.1910  0.5665 -0.5347
 7181SOL    HW133005   0.273   0.191  15.123  0.4855  0.2962  2.4801
 7181SOL    HW233006   0.310   0.072  15.047  0.2421  1.1828 -0.4077
 7182SOL     OW33007   3.526   2.238   3.416 -0.5670 -0.4296 -0.5423
 7182SOL    HW133008   3.620   2.256   3.419 -0.7617  0.8794 -2.3155
 7182SOL    HW233009   3.528   2.145   3.395 -0.4863 -0.4579 -0.4093
 7183SOL     OW33010   4.269   2.225  12.894 -0.0441  0.0734  0.3040
 7183SOL    HW133011   4.190   2.243  12.842  1.1097  0.2932 -1.3909
 7183SOL    HW233012   4.299   2.316  12.905 -0.4700  0.1915  0.4804
 7184SOL     OW33013   2.514   1.005   8.620  0.0850 -0.3754 -0.1391
 7184SOL    HW133014   2.443   0.976   8.563 -1.6515  2.4776  0.6190
 7184SOL    HW233015   2.485   1.089   8.655  2.7700  1.0428 -1.2938
 7185SOL     OW33016   1.955   2.129   3.227  0.5456  0.1520 -0.5625
 7185SOL    HW133017   1.921   2.141   3.138  0.2459 -0.8140 -0.5723
 7185SOL    HW233018   2.036   2.081   3.207 -0.9258 -1.5771 -2.2908
 7186SOL     OW33019   4.006   2.352  11.308 -0.4069 -0.0920 -0.5336
 7186SOL    HW133020   3.949   2.339  11.384 -1.4047  0.6299 -1.1607
 7186SOL    HW233021   4.088   2.347  11.358  0.7736  2.7681 -2.1961
 7187SOL     OW33022   2.944   1.755   5.608 -0.5004  0.0571 -0.1018
 7187SOL    HW133023   2.949   1.817   5.681  1.1284  0.5838 -0.6528
 7187SOL    HW233024   2.951   1.673   5.657  0.8171  0.8653  1.0913
 7188SOL     OW33025   3.070   0.064   4.747 -0.2723 -0.4732  0.0813
 7188SOL    HW133026   3.083   4.700   4.703 -0.8016 -0.2508 -0.4994
 7188SOL    HW233027   3.156   0.082   4.786 -2.0076  2.5495  2.4839
 7189SOL     OW33028   4.625   0.312   8.153 -0.2094 -0.2001 -0.2083
 7189SOL    HW133029   4.675   0.379   8.200  0.4995 -1.7562  1.2308
 7189SOL    HW233030   4.681   0.303   8.075 -0.0310 -0.6516 -0.0268
 7190SOL     OW33031   3.037   1.995   2.586  0.0239 -0.0923  0.1742
 7190SOL    HW133032   2.990   2.078   2.579 -1.1934 -0.6760  1.2235
 7190SOL    HW233033   2.972   1.932   2.618  1.2396 -1.3043  0.2642
 7191SOL     OW33034   3.294   3.297  14.480 -0.2073 -0.2277  0.3787
 7191SOL    HW133035   3.208   3.339  14.481  0.2556  0.7356 -1.1461
 7191SOL    HW233036   3.283   3.215  14.431 -1.1813 -0.0659  0.3296
 7192SOL     OW33037   3.977   4.643  12.718  0.2369  0.0776  0.1572
 7192SOL    HW133038   3.980   4.587  12.641 -0.4440  1.6783 -1.0449
 7192SOL    HW233039   3.966   0.013  12.689  2.4705 -0.6514 -2.9105
 7193SOL     OW33040   3.348   3.569   5.083 -0.0610  0.0775  0.2059
 7193SOL    HW133041   3.403   3.520   5.144 -0.1896 -0.5287 -0.1621
 7193SOL    HW233042   3.409   3.634   5.047  0.9658 -0.5309  0.8509
 7194SOL     OW33043   4.245   2.714   1.581  0.7986  0.3712 -0.1526
 7194SOL    HW133044   4.220   2.631   1.622  1.6397  0.0371 -0.3048
 7194SOL    HW233045   4.168   2.766   1.605  1.0782  0.2635  0.9650
 7195SOL     OW33046   3.050   0.066   1.307 -0.0541  0.0543  0.4417
 7195SOL    HW133047   3.052   0.074   1.403 -1.6810  0.7165  0.4276
 7195SOL    HW233048   3.016   4.697   1.298 -1.6999  0.5635  1.3742
 7196SOL     OW33049   0.814   4.593  14.886  0.2101 -0.3173  0.3751
 7196SOL    HW133050   0.828   4.645  14.807  2.4326 -1.2954  0.1221
 7196SOL    HW233051   0.820   4.654  14.959 -0.2012  0.8109 -0.5404
 7197SOL     OW33052   1.832   0.098  13.839 -0.2078  0.5059 -0.3403
 7197SOL    HW133053   1.781   0.159  13.893 -0.4307  0.8176 -0.9049
 7197SOL    HW233054   1.762   0.042  13.806  1.2407 -1.3991 -0.1845
 7198SOL     OW33055   0.244   0.836  13.160  0.2997 -0.5144  0.2329
 7198SOL    HW133056   0.284   0.759  13.200  3.6373  0.0466 -2.0374
 7198SOL    HW233057   0.273   0.897  13.228  2.8731  0.7782 -2.0172
 7199SOL     OW33058   2.002   3.466   0.887 -0.0159 -0.6059 -0.2316
 7199SOL    HW133059   2.082   3.435   0.931 -1.0427  0.3691  2.3322
 7199SOL    HW233060   2.041   3.523   0.821 -0.5126  0.5449  0.4641
 7200SOL     OW33061   1.305   4.443   4.802  0.2325  0.8741 -0.6289
 7200SOL    HW133062   1.228   4.460   4.748  0.4079  0.6203 -0.9584
 7200SOL    HW233063   1.366   4.406   4.738  0.2720  0.9889 -0.6590
 7201SOL     OW33064   4.404   0.876   7.879  0.6010 -0.1742  0.0068
 7201SOL    HW133065   4.454   0.796   7.865  0.1453 -0.3990 -0.3360
 7201SOL    HW233066   4.334   0.859   7.816  1.3880 -2.1668 -0.3381
 7202SOL     OW33067   4.691   2.930   6.466 -0.1847 -0.4742  0.0899
 7202SOL    HW133068   0.048   2.948   6.519  0.3151 -0.3414 -0.6810
 7202SOL    HW233069   0.003   2.949   6.377 -0.5005  1.3471  0.3526
 7203SOL     OW33070   0.230   1.073   5.437  0.3234 -0.3129  0.1458
 7203SOL    HW133071   0.167   1.129   5.482  1.4163  1.3564 -0.4198
 7203SOL    HW233072   0.179   1.045   5.361  2.1459 -0.7821 -0.9031
 7204SOL     OW33073   1.611   0.424  12.917  0.0821 -0.3453 -0.5273
 7204SOL    HW133074   1.577   0.425  12.827  0.1073  0.2258 -0.5303
 7204SOL    HW233075   1.536   0.439  12.975 -0.3602 -0.3335 -1.1049
 7205SOL     OW33076   1.198   1.936   7.944  0.2997 -0.1023 -0.2678
 7205SOL    HW133077   1.135   1.915   7.875 -1.8639 -0.4624  1.8170
 7205SOL    HW233078   1.275   1.898   7.901  0.2657 -0.7229  0.2180
 7206SOL     OW33079   2.924   0.995   4.898 -0.5260  0.1672 -0.3466
 7206SOL    HW133080   2.994   0.998   4.964 -1.2834 -0.8457  0.4953
 7206SOL    HW233081   2.976   0.987   4.818  1.1156  2.4926  0.4560
 7207SOL     OW33082   0.532   3.438   4.578  0.5584  0.2602 -0.6070
 7207SOL    HW133083   0.553   3.351   4.612  2.5707 -0.0346 -2.5252
 7207SOL    HW233084   0.621   3.472   4.568  1.6321 -1.6839  2.2687
 7208SOL     OW33085   0.409   1.024   6.517 -0.2584  0.2139  0.0691
 7208SOL    HW133086   0.485   0.993   6.567 -0.9038  1.7064  1.9890
 7208SOL    HW233087   0.359   0.942   6.510  2.2693 -1.2328 -1.2508
 7209SOL     OW33088   1.183   2.634   6.641  0.3327 -0.0263  0.3901
 7209SOL    HW133089   1.213   2.543   6.636  0.5902  0.0710  0.1650
 7209SOL    HW233090   1.258   2.679   6.681  0.4313 -1.0436  1.3464
 7210SOL     OW33091   3.416   0.342   7.715  0.6215  0.7220  0.2804
 7210SOL    HW133092   3.496   0.291   7.715  1.0735  1.4303  0.5486
 7210SOL    HW233093   3.350   0.274   7.701  2.5574 -0.4331 -3.1526
 7211SOL     OW33094   1.040   3.531  16.592  0.4466 -0.3873 -0.1433
 7211SOL    HW133095   1.073   3.456  16.543  1.8800 -0.2753  0.6757
 7211SOL    HW233096   1.008   3.481  16.667 -0.7278 -1.4270 -1.3140
 7212SOL     OW33097   0.704   1.299   2.696 -0.0619  0.0158  0.4634
 7212SOL    HW133098   0.758   1.339   2.628  0.1846  0.3803  0.8741
 7212SOL    HW233099   0.760   1.275   2.770 -0.5069 -0.4883  0.6335
 7213SOL     OW33100   1.482   2.564   6.894 -0.0638  0.7025  0.1238
 7213SOL    HW133101   1.570   2.543   6.864 -0.2598 -1.1254  0.8327
 7213SOL    HW233102   1.445   2.573   6.806 -1.1948 -4.1477  0.0788
 7214SOL     OW33103   3.103   1.760   0.867  0.3399  0.2314  0.1227
 7214SOL    HW133104   3.090   1.851   0.840  0.3195  0.3485  0.5229
 7214SOL    HW233105   3.031   1.721   0.819  0.2050 -0.7912  1.1467
 7215SOL     OW33106   1.034   3.632   6.967 -0.0551  0.1477  0.0568
 7215SOL    HW133107   1.124   3.665   6.959 -0.5175  1.2711 -0.4651
 7215SOL    HW233108   0.981   3.712   6.968 -1.2817 -0.6851  1.0558
 7216SOL     OW33109   1.483   1.403  16.588 -0.2223  0.3843  0.3372
 7216SOL    HW133110   1.455   1.490  16.615 -1.5880  0.4589 -1.3440
 7216SOL    HW233111   1.447   1.340  16.651 -1.1223  0.5028 -0.0544
 7217SOL     OW33112   2.660   0.291   4.646 -0.2077 -0.0015 -0.1275
 7217SOL    HW133113   2.670   0.379   4.610  0.5733 -0.8742 -2.1008
 7217SOL    HW233114   2.726   0.242   4.595  2.1463  1.5598  1.4085
 7218SOL     OW33115   2.824   2.136   8.524 -0.2936  0.4225 -0.0342
 7218SOL    HW133116   2.782   2.166   8.444  0.7606  0.1615 -0.6813
 7218SOL    HW233117   2.910   2.178   8.520  0.8390 -1.6118  2.5404
 7219SOL     OW33118   4.341   2.991   8.791 -0.6733 -0.1265  0.1873
 7219SOL    HW133119   4.262   2.939   8.780 -0.9443  0.4243 -0.4296
 7219SOL    HW233120   4.304   3.055   8.853  1.0580  0.2177  0.8731
 7220SOL     OW33121   2.199   1.199  10.044  0.3773 -0.2578 -0.1183
 7220SOL    HW133122   2.239   1.132   9.989 -1.3020  0.8597 -2.7168
 7220SOL    HW233123   2.209   1.277   9.988  0.6576 -0.0375  0.2402
 7221SOL     OW33124   4.111   1.414   8.560  0.0706  0.8856  0.0732
 7221SOL    HW133125   4.018   1.410   8.583  0.2051  1.0400  0.6368
 7221SOL    HW233126   4.123   1.345   8.625 -1.8916 -1.8393 -2.4147
 7222SOL     OW33127   0.655   3.447   6.896  0.1007 -0.2745  1.1287
 7222SOL    HW133128   0.659   3.369   6.950  1.5538 -0.1424  1.2185
 7222SOL    HW233129   0.743   3.439   6.858 -0.6012 -0.2624 -0.5347
 7223SOL     OW33130   3.600   2.313   2.827 -0.4277  0.4036  0.1506
 7223SOL    HW133131   3.665   2.288   2.892 -0.6930 -3.4904 -1.0771
 7223SOL    HW233132   3.646   2.296   2.744  4.2835 -0.3050  2.9256
 7224SOL     OW33133   2.313   4.485  12.325 -0.9312  0.2518  0.5591
 7224SOL    HW133134   2.380   4.462  12.261 -2.6794 -0.4016 -1.0476
 7224SOL    HW233135   2.340   4.572  12.355  1.0171  0.1628 -0.9436
 7225SOL     OW33136   4.420   0.214   8.266 -0.1770 -0.3996  0.1358
 7225SOL    HW133137   4.355   0.283   8.278  1.2930  1.1631 -0.9926
 7225SOL    HW233138   4.497   0.245   8.218  0.7109 -1.2166  1.0433
 7226SOL     OW33139   0.662   2.036   8.143  0.9079  0.1890 -0.5336
 7226SOL    HW133140   0.656   1.992   8.058 -0.3890  2.6556 -1.7313
 7226SOL    HW233141   0.575   2.075   8.154  1.6776  2.1479 -1.2104
 7227SOL     OW33142   2.770   3.397   0.782 -0.1090 -0.8631 -0.0680
 7227SOL    HW133143   2.691   3.382   0.731  0.5457  2.3154 -2.0835
 7227SOL    HW233144   2.794   3.487   0.757  1.4371 -0.9920  0.9544
 7228SOL     OW33145   4.254   1.157   5.174  0.3291  0.7730 -0.1680
 7228SOL    HW133146   4.331   1.101   5.187 -0.3738  0.6196  3.2358
 7228SOL    HW233147   4.247   1.158   5.078 -1.4585 -2.4579 -0.0526
 7229SOL     OW33148   2.489   4.490   2.838  0.0562 -0.2755 -0.7109
 7229SOL    HW133149   2.466   4.579   2.864 -0.3749  0.1354 -2.4982
 7229SOL    HW233150   2.512   4.510   2.747 -0.9461 -0.4827 -1.0108
 7230SOL     OW33151   0.268   2.233   8.419 -0.7384 -0.1672 -0.1971
 7230SOL    HW133152   0.221   2.150   8.428  0.3836 -0.5962  1.6983
 7230SOL    HW233153   0.214   2.289   8.474  0.0635 -1.4671  1.9182
 7231SOL     OW33154   4.369   2.868  12.191 -0.4768 -0.2234  0.3338
 7231SOL    HW133155   4.332   2.953  12.170  1.1888  0.5989  0.7446
 7231SOL    HW233156   4.410   2.837  12.110  1.7407  0.1233  1.3153
 7232SOL     OW33157   2.170   1.814   2.530 -0.1625  0.2976 -0.2098
 7232SOL    HW133158   2.111   1.884   2.502 -0.1753  0.0750 -0.7405
 7232SOL    HW233159   2.219   1.797   2.449  0.4593  1.3360 -0.0410
 7233SOL     OW33160   0.949   2.297  10.041 -0.0416 -0.7226  0.1163
 7233SOL    HW133161   1.021   2.287   9.979  0.2811  0.0281  0.3720
 7233SOL    HW233162   0.995   2.321  10.121 -2.3496  0.5979  1.0238
 7234SOL     OW33163   2.214   1.068   9.655  0.0760  0.7820  0.2198
 7234SOL    HW133164   2.245   1.053   9.565 -2.4769  0.3363 -0.5954
 7234SOL    HW233165   2.156   1.142   9.633 -0.2248  0.1565 -1.0949
 7235SOL     OW33166   1.160   1.151   9.994  0.5176 -0.0051 -0.0573
 7235SOL    HW133167   1.178   1.212   9.922 -0.4969  1.7280  1.1408
 7235SOL    HW233168   1.122   1.072   9.957  1.8192 -1.5220  1.8405
 7236SOL     OW33169   3.555   1.380  13.681 -0.1160 -0.4747 -0.2473
 7236SOL    HW133170   3.576   1.444  13.613 -2.1208  1.3040  0.7830
 7236SOL    HW233171   3.459   1.385  13.675 -0.1654 -1.1011  0.1297
 7237SOL     OW33172   3.482   2.423   2.243 -0.2440  0.2666  0.4016
 7237SOL    HW133173   3.528   2.465   2.170 -1.4795  2.7998  1.0588
 7237SOL    HW233174   3.483   2.332   2.215 -1.9138  0.3759  0.0232
 7238SOL     OW33175   0.288   1.654   6.621 -0.8826  0.1624 -0.0007
 7238SOL    HW133176   0.264   1.563   6.602 -0.4490  0.2335 -0.9313
 7238SOL    HW233177   0.210   1.691   6.580  1.1199  0.4026 -3.5873
 7239SOL     OW33178   2.339   4.331   5.283 -0.0206  0.1997 -0.5375
 7239SOL    HW133179   2.385   4.293   5.357  1.7417  1.6424 -0.8783
 7239SOL    HW233180   2.370   4.421   5.290 -1.1572  0.7118 -1.8948
 7240SOL     OW33181   3.045   0.777   8.254  0.6092 -0.2746  0.1334
 7240SOL    HW133182   2.965   0.774   8.306  0.5038 -1.0446 -0.0680
 7240SOL    HW233183   3.070   0.867   8.234 -1.5202  0.1859 -0.4691
 7241SOL     OW33184   2.269   0.917   7.139  0.1992  0.3908 -0.5714
 7241SOL    HW133185   2.346   0.968   7.163 -0.7518  0.5871  2.0992
 7241SOL    HW233186   2.229   0.975   7.075  2.6317  0.9055 -1.6225
 7242SOL     OW33187   2.653   3.194   7.022  0.7601  0.0861  0.7802
 7242SOL    HW133188   2.594   3.235   7.086 -0.7225 -1.2872  0.2918
 7242SOL    HW233189   2.720   3.262   7.016  1.0296 -0.3418 -1.1482
 7243SOL     OW33190   3.109   3.177   2.342 -0.8265  0.0688  0.4649
 7243SOL    HW133191   3.028   3.138   2.376 -1.2472  0.3665 -0.1985
 7243SOL    HW233192   3.073   3.227   2.269  1.3379 -2.2231 -2.1666
 7244SOL     OW33193   0.377   1.299   1.037  0.0485  0.5162  0.1392
 7244SOL    HW133194   0.456   1.319   0.988  0.4514  0.1362  0.6273
 7244SOL    HW233195   0.325   1.370   0.999 -1.9415 -1.8416 -1.6093
 7245SOL     OW33196   4.290   3.809   7.729 -0.5961  0.0700  0.5938
 7245SOL    HW133197   4.329   3.876   7.673 -0.2766 -0.6515 -0.0494
 7245SOL    HW233198   4.228   3.861   7.779  0.5446  2.9837 -0.9997
 7246SOL     OW33199   0.676   0.015   0.291 -0.0543  0.5190  0.4484
 7246SOL    HW133200   0.711   4.687   0.365 -1.9160 -0.5041  0.6477
 7246SOL    HW233201   0.702   4.668   0.228 -1.2959 -1.9568  2.6043
 7247SOL     OW33202   3.684   3.116   8.830  0.2872 -0.4761 -0.2958
 7247SOL    HW133203   3.714   3.207   8.839 -1.3233 -0.1223  1.5263
 7247SOL    HW233204   3.649   3.110   8.919 -2.2517 -1.5787 -1.3756
 7248SOL     OW33205   1.022   3.897   5.049  0.3059 -0.2810  0.1853
 7248SOL    HW133206   1.115   3.878   5.032  0.5482  0.0778  1.1081
 7248SOL    HW233207   1.015   3.981   5.095  0.4241  0.1830 -0.6452
 7249SOL     OW33208   3.227   2.498   2.345  0.3417 -0.0425  0.2195
 7249SOL    HW133209   3.321   2.500   2.324 -0.1048  0.3070 -1.7514
 7249SOL    HW233210   3.202   2.507   2.253  2.3206  1.2581 -0.1954
 7250SOL     OW33211   4.513   2.040  13.743 -0.5017 -0.6162  0.0465
 7250SOL    HW133212   4.494   2.027  13.650  0.6769 -0.9444 -0.1539
 7250SOL    HW233213   4.572   1.968  13.766  2.7229  1.8230 -0.4468
 7251SOL     OW33214   1.231   0.317   6.174 -0.5073 -0.0159 -0.1261
 7251SOL    HW133215   1.286   0.320   6.252 -0.8336  2.4038  0.0344
 7251SOL    HW233216   1.164   0.375   6.210 -0.1897 -1.2072  2.3521
 7252SOL     OW33217   1.691   4.260  14.520  0.1657 -0.2693  0.0005
 7252SOL    HW133218   1.626   4.313  14.566 -0.4698 -0.5672 -0.5561
 7252SOL    HW233219   1.754   4.261  14.592  1.5540  1.1067 -1.2224
 7253SOL     OW33220   2.831   0.699   2.401 -0.3653 -0.7310 -0.0673
 7253SOL    HW133221   2.891   0.625   2.387 -0.6750 -0.9336 -0.3225
 7253SOL    HW233222   2.853   0.756   2.327  0.8795  0.8934  1.5476
 7254SOL     OW33223   2.632   3.739   5.128 -0.4618 -0.6183 -0.1800
 7254SOL    HW133224   2.728   3.739   5.136 -0.5588  0.8126  0.9290
 7254SOL    HW233225   2.634   3.774   5.039 -0.4889  0.5600  0.2853
 7255SOL     OW33226   1.792   4.573   0.142 -0.1321  0.5207  0.0798
 7255SOL    HW133227   1.729   4.622   0.090  1.3099  0.7682 -1.4387
 7255SOL    HW233228   1.742   4.572   0.223 -1.7383 -0.6203 -0.9220
 7256SOL     OW33229   4.384   2.464   7.972 -0.2436 -0.1882  0.1635
 7256SOL    HW133230   4.456   2.527   7.965 -1.4507  1.3084  1.2138
 7256SOL    HW233231   4.364   2.464   8.066 -0.5165 -0.1025  0.1046
 7257SOL     OW33232   1.293   0.529   4.157 -0.3747 -0.3290  0.6027
 7257SOL    HW133233   1.325   0.476   4.085 -2.1098  0.2458 -0.5963
 7257SOL    HW233234   1.255   0.475   4.226  0.4048  0.7612  1.9160
 7258SOL     OW33235   2.817   3.493   3.060 -0.2231 -0.2802  0.3405
 7258SOL    HW133236   2.911   3.492   3.079 -0.5040  4.2397  2.0093
 7258SOL    HW233237   2.817   3.557   2.989 -0.9494  0.1166  0.7066
 7259SOL     OW33238   2.997   1.501   3.795 -0.0554  0.1337  0.3533
 7259SOL    HW133239   3.036   1.414   3.789  1.1109  0.5860  1.4706
 7259SOL    HW233240   3.077   1.554   3.794 -0.1217  0.2286 -0.8586
 7260SOL     OW33241   2.685   1.321  13.760 -0.3117 -0.3465 -0.0770
 7260SOL    HW133242   2.690   1.322  13.855  1.2502 -1.4325 -0.1483
 7260SOL    HW233243   2.768   1.275  13.747  0.6312  1.2279  0.3079
 7261SOL     OW33244   0.161   3.459   5.091 -0.0144  0.4218  0.0248
 7261SOL    HW133245   0.162   3.553   5.074 -2.1107  0.0254 -2.4087
 7261SOL    HW233246   0.069   3.450   5.114  0.6823 -0.1580  2.6216
 7262SOL     OW33247   2.656   0.239   2.494  0.3594 -0.2330 -0.4380
 7262SOL    HW133248   2.573   0.276   2.525 -0.1088 -2.4151  0.8728
 7262SOL    HW233249   2.710   0.317   2.478 -0.9258  0.5010 -1.1780
 7263SOL     OW33250   4.160   1.650   0.164 -0.1558 -0.1778 -0.1807
 7263SOL    HW133251   4.075   1.612   0.186  1.0183 -2.3052  0.7528
 7263SOL    HW233252   4.195   1.574   0.117  1.0214  0.4630 -0.3346
 7264SOL     OW33253   3.697   2.236   2.156  0.5284  0.0057 -0.8642
 7264SOL    HW133254   3.723   2.328   2.165 -2.5978  0.7477  0.6470
 7264SOL    HW233255   3.749   2.200   2.084  0.6177 -0.6689 -0.4587
 7265SOL     OW33256   3.826   0.805   7.281  0.7182 -0.2039  0.6700
 7265SOL    HW133257   3.777   0.875   7.237  0.0718 -2.1156 -1.6803
 7265SOL    HW233258   3.759   0.756   7.330 -1.4313  0.6439 -1.4368
 7266SOL     OW33259   2.512   2.786   8.172  0.2124 -0.1352  0.5452
 7266SOL    HW133260   2.456   2.797   8.095 -1.8504  0.8531  2.2030
 7266SOL    HW233261   2.594   2.829   8.148  0.2952 -0.7481 -0.2634
 7267SOL     OW33262   2.987   0.319   5.570  0.1668  0.3515  0.4407
 7267SOL    HW133263   2.899   0.344   5.544  0.3129  2.1289  1.6566
 7267SOL    HW233264   2.997   0.225   5.559  0.6256  0.3810  0.5944
 7268SOL     OW33265   0.709   1.445   7.687  0.0882 -0.3799 -0.6010
 7268SOL    HW133266   0.774   1.400   7.742 -0.6025 -0.9512 -0.2527
 7268SOL    HW233267   0.700   1.388   7.611  1.0240  0.3327 -1.2516
 7269SOL     OW33268   4.642   3.907   1.922 -0.3273  0.2278 -0.1211
 7269SOL    HW133269   4.573   3.929   1.985  0.7227  0.0409  1.0919
 7269SOL    HW233270   4.705   3.864   1.978  1.2382  1.0007 -1.2994
 7270SOL     OW33271   0.670   2.789   3.144  0.0164 -0.4518  0.4347
 7270SOL    HW133272   0.761   2.819   3.140  0.6531 -2.4700 -0.2917
 7270SOL    HW233273   0.637   2.848   3.212 -1.7111 -0.4691 -0.4076
 7271SOL     OW33274   1.388   3.200   2.783 -0.0925 -0.2034 -0.1461
 7271SOL    HW133275   1.353   3.127   2.732  2.6088  0.0489 -2.3419
 7271SOL    HW233276   1.399   3.149   2.864 -2.9359 -2.2902 -1.0691
 7272SOL     OW33277   3.142   1.992   7.720 -0.0469 -0.6355 -0.2496
 7272SOL    HW133278   3.230   1.955   7.706 -0.1732 -1.3496  0.8181
 7272SOL    HW233279   3.138   1.962   7.810 -0.1953  1.3417  0.3916
 7273SOL     OW33280   2.333   2.949  16.563  0.2167  0.5164  0.5276
 7273SOL    HW133281   2.251   2.901  16.575  0.2185  0.5247  0.5718
 7273SOL    HW233282   2.368   2.919  16.479 -1.9806  1.1319 -0.6144
 7274SOL     OW33283   1.162   2.048  13.272 -0.1623  0.0934  0.1809
 7274SOL    HW133284   1.200   2.037  13.359  0.9723  1.3672 -0.1460
 7274SOL    HW233285   1.235   2.048  13.210 -0.1933  1.8312  0.1400
 7275SOL     OW33286   0.897   4.645   6.488  0.2021  0.6417 -0.0476
 7275SOL    HW133287   0.812   4.609   6.462  1.2778 -1.1131 -1.1777
 7275SOL    HW233288   0.904   4.613   6.578 -0.4907 -0.6046 -0.4352
 7276SOL     OW33289   2.229   1.009   5.451  0.1492 -0.5722 -0.5010
 7276SOL    HW133290   2.206   0.916   5.447  0.8385 -0.7179 -1.0308
 7276SOL    HW233291   2.150   1.055   5.421 -0.6282 -2.8087 -1.8841
 7277SOL     OW33292   1.587   2.476   1.118  0.1350 -0.1247  0.3359
 7277SOL    HW133293   1.624   2.414   1.055  0.8883 -0.6573  1.3047
 7277SOL    HW233294   1.497   2.447   1.115 -0.1387  0.8894 -1.2089
 7278SOL     OW33295   3.833   1.346   0.756  0.1978  0.0236  0.6807
 7278SOL    HW133296   3.856   1.394   0.836 -0.6110 -1.9967  2.1189
 7278SOL    HW233297   3.790   1.273   0.801  0.5984  0.2069  1.3601
 7279SOL     OW33298   1.510   2.307  17.124  0.1790  0.0323 -0.3198
 7279SOL    HW133299   1.459   2.290  17.203 -0.3875 -2.0787 -1.1459
 7279SOL    HW233300   1.560   2.385  17.148  0.2342  0.3599 -1.4726
 7280SOL     OW33301   3.205   2.850   1.158  0.3107  0.3563 -0.6513
 7280SOL    HW133302   3.281   2.855   1.217 -0.6092 -2.2809  0.7895
 7280SOL    HW233303   3.254   2.858   1.076  0.1178  2.0042 -0.6014
 7281SOL     OW33304   4.295   0.201  11.836  0.3448 -0.1507  0.0449
 7281SOL    HW133305   4.308   0.296  11.834 -3.0070  0.2850 -0.1112
 7281SOL    HW233306   4.388   0.176  11.835  0.1865 -0.6837 -0.8400
 7282SOL     OW33307   1.235   3.783   8.967 -0.3699  0.0340  0.0725
 7282SOL    HW133308   1.303   3.774   9.035  0.4318  0.0172 -0.7338
 7282SOL    HW233309   1.166   3.739   9.017 -0.9279  0.3523 -0.4178
 7283SOL     OW33310   3.178   3.565   2.293 -0.0572  0.0982 -0.2920
 7283SOL    HW133311   3.251   3.505   2.308 -1.3258 -1.9875 -2.5219
 7283SOL    HW233312   3.097   3.516   2.278 -0.3245  0.4432  0.0222
 7284SOL     OW33313   3.991   0.374  11.589 -0.2194  0.2366 -0.5935
 7284SOL    HW133314   3.930   0.418  11.648  1.2904  0.7479  0.5833
 7284SOL    HW233315   4.019   0.294  11.635 -1.8443  0.8637  1.4881
 7285SOL     OW33316   1.282   4.273   1.995  0.2265 -0.0346  0.3586
 7285SOL    HW133317   1.361   4.301   2.040  0.9895 -0.8163 -0.4983
 7285SOL    HW233318   1.248   4.359   1.971 -0.4347 -1.3459 -3.4427
 7286SOL     OW33319   1.482   0.690   0.383  0.2797  0.1728  0.7457
 7286SOL    HW133320   1.541   0.675   0.309 -3.0865 -1.5479 -1.5505
 7286SOL    HW233321   1.521   0.632   0.450  0.1263 -0.4146  0.3249
 7287SOL     OW33322   1.235   2.454   5.252  0.2857  0.0535  0.6128
 7287SOL    HW133323   1.181   2.388   5.297 -0.0729  0.0296  0.1509
 7287SOL    HW233324   1.283   2.392   5.196 -0.7257 -0.1928  0.0200
 7288SOL     OW33325   0.669   0.483   2.259 -0.9858 -0.5225  0.1233
 7288SOL    HW133326   0.605   0.416   2.235 -1.1752 -0.1732 -0.3291
 7288SOL    HW233327   0.614   0.532   2.321 -0.2651 -0.7142  0.9220
 7289SOL     OW33328   1.603   3.023  10.627  1.1247 -0.0242 -0.4112
 7289SOL    HW133329   1.662   3.098  10.633  1.0992 -0.0600  0.2697
 7289SOL    HW233330   1.535   3.051  10.565 -0.9678  0.0294  1.8825
 7290SOL     OW33331   0.034   2.897   6.784 -0.3608  0.2341 -0.4504
 7290SOL    HW133332   0.023   2.841   6.861 -0.1988  0.0350 -0.5722
 7290SOL    HW233333   0.119   2.863   6.755  0.5367  1.4029  0.7443
 7291SOL     OW33334   3.538   2.166  14.783  0.0884 -0.0424  0.5959
 7291SOL    HW133335   3.496   2.084  14.761  1.5777 -0.1182 -2.0296
 7291SOL    HW233336   3.615   2.164  14.725  0.5215  0.9745  1.1351
 7292SOL     OW33337   0.994   1.064   2.343 -0.1063  0.2556 -0.1159
 7292SOL    HW133338   0.931   1.031   2.408 -0.1532  1.6894  0.5609
 7292SOL    HW233339   0.934   1.093   2.275 -1.1342 -1.6814 -0.0385
 7293SOL     OW33340   1.885   0.449   4.827  0.1371  0.0184 -0.0319
 7293SOL    HW133341   1.922   0.488   4.748  0.1181  3.2569  1.5354
 7293SOL    HW233342   1.813   0.398   4.791 -0.6136  0.9415  0.1455
 7294SOL     OW33343   0.193   2.866   1.919 -0.4680 -0.4817 -0.1240
 7294SOL    HW133344   0.169   2.799   1.855 -0.5641 -2.8951  2.4534
 7294SOL    HW233345   0.287   2.860   1.901 -0.4100 -0.1029  0.0416
 7295SOL     OW33346   1.991   2.411   6.261 -0.1182  0.0683 -0.1169
 7295SOL    HW133347   2.045   2.335   6.238  1.0597  1.0703 -0.6308
 7295SOL    HW233348   1.908   2.377   6.227 -0.7489  1.2377  0.2398
 7296SOL     OW33349   3.350   4.006   2.566 -0.4190 -0.7098 -0.1592
 7296SOL    HW133350   3.433   3.960   2.568  0.1903  0.4687  1.3910
 7296SOL    HW233351   3.295   3.952   2.509  1.6928 -0.8673 -2.0554
 7297SOL     OW33352   4.041   2.862  16.558  0.3401 -0.7298  0.2794
 7297SOL    HW133353   4.012   2.831  16.644 -0.2104  0.9738  0.7209
 7297SOL    HW233354   4.113   2.922  16.578 -0.6753 -0.0649  1.9263
 7298SOL     OW33355   2.923   3.674   3.338  0.1416  0.8038 -0.4403
 7298SOL    HW133356   2.840   3.671   3.385 -0.5002  2.0931 -1.4931
 7298SOL    HW233357   2.899   3.708   3.252  2.5414  0.0453 -1.4147
 7299SOL     OW33358   1.974   2.789   2.556  0.1058  0.0043 -0.1862
 7299SOL    HW133359   1.913   2.715   2.551 -1.2237  0.7792  4.2627
 7299SOL    HW233360   2.013   2.775   2.470  1.4462  4.0359 -0.2214
 7300SOL     OW33361   1.615   4.667  13.801  0.4799 -0.9474 -0.4092
 7300SOL    HW133362   1.593   4.611  13.876  1.1202 -0.9508 -0.2227
 7300SOL    HW233363   1.532   4.712  13.786  1.8580  1.5286 -0.6141
 7301SOL     OW33364   1.638   4.537   4.657  0.1631  0.5866 -0.1337
 7301SOL    HW133365   1.565   4.489   4.619 -0.1920  0.5104  0.6439
 7301SOL    HW233366   1.686   4.467   4.703 -0.5222 -0.3271 -0.8151
 7302SOL     OW33367   0.865   0.800  14.536  0.1403  0.0743  0.3308
 7302SOL    HW133368   0.852   0.724  14.593 -1.9483  0.2128  0.0291
 7302SOL    HW233369   0.893   0.864  14.601 -1.5537  1.3029 -0.1358
 7303SOL     OW33370   3.654   3.324  13.260  0.2134  0.2966  0.0115
 7303SOL    HW133371   3.654   3.418  13.281 -3.0478  0.3164 -0.0444
 7303SOL    HW233372   3.601   3.312  13.181  3.5706 -0.5305 -2.0746
 7304SOL     OW33373   1.430   1.277  12.474 -0.6590  0.0928 -0.2877
 7304SOL    HW133374   1.465   1.324  12.398  1.5609  0.3396  0.8960
 7304SOL    HW233375   1.336   1.298  12.472 -1.2759 -2.6209 -0.3212
 7305SOL     OW33376   4.518   3.649   7.232 -0.2597 -0.1272  0.3294
 7305SOL    HW133377   4.508   3.709   7.306  3.4730  0.9417 -0.0219
 7305SOL    HW233378   4.461   3.577   7.258  0.0905 -0.5164  0.0107
 7306SOL     OW33379   1.373   0.726   3.058 -0.3027  0.1181  0.2462
 7306SOL    HW133380   1.402   0.771   2.979  0.3059  0.7356  0.8257
 7306SOL    HW233381   1.332   0.648   3.021  0.3937  1.9856 -4.4990
 7307SOL     OW33382   2.734   1.300   8.598 -0.2815  0.3117  0.0891
 7307SOL    HW133383   2.653   1.280   8.645 -0.7038 -1.3826 -1.3424
 7307SOL    HW233384   2.694   1.315   8.512 -2.3139  0.1595  0.9935
 7308SOL     OW33385   2.232   3.846  16.816 -0.3916 -0.5664  0.0637
 7308SOL    HW133386   2.196   3.806  16.737 -2.0201  0.4551  0.2898
 7308SOL    HW233387   2.228   3.774  16.879  2.0479 -0.9908 -0.2787
 7309SOL     OW33388   0.367   2.558   6.104 -0.2964 -0.5452 -0.8097
 7309SOL    HW133389   0.359   2.468   6.071  0.7287 -0.8044 -0.3537
 7309SOL    HW233390   0.427   2.587   6.035 -0.9981 -2.0682 -2.0775
 7310SOL     OW33391   4.119   3.172   1.746 -0.0091 -0.4497 -0.1510
 7310SOL    HW133392   4.034   3.185   1.789 -0.2804  1.2693 -1.1998
 7310SOL    HW233393   4.121   3.248   1.688 -0.9677 -0.6059 -0.3974
 7311SOL     OW33394   3.059   2.214  15.095 -0.5347 -0.1882  0.6114
 7311SOL    HW133395   3.096   2.300  15.072 -2.4090  0.0423 -1.5054
 7311SOL    HW233396   3.051   2.184  15.005  1.1073 -1.4629  0.8964
 7312SOL     OW33397   3.621   4.697  14.785  0.1533  0.2873 -0.2085
 7312SOL    HW133398   3.541   0.009  14.744  1.0718  2.3398 -0.3260
 7312SOL    HW233399   3.650   4.621  14.735 -1.2795 -0.3268 -0.1136
 7313SOL     OW33400   2.884   4.058   8.823 -0.2051 -0.3285 -0.2333
 7313SOL    HW133401   2.880   4.128   8.758  1.1779 -0.0463 -0.0194
 7313SOL    HW233402   2.979   4.047   8.834  0.2032  1.1037 -2.3126
 7314SOL     OW33403   2.797   4.612   7.826 -0.1254 -0.0786  0.2547
 7314SOL    HW133404   2.876   4.610   7.880  1.0238 -1.3766 -1.4657
 7314SOL    HW233405   2.742   4.683   7.859  0.9904  0.6875  0.4594
 7315SOL     OW33406   2.030   3.901   6.122  0.2004 -0.0374 -0.3730
 7315SOL    HW133407   2.091   3.942   6.183  1.6313 -0.7873 -1.2824
 7315SOL    HW233408   2.093   3.862   6.061  0.5084 -0.3360  0.1279
 7316SOL     OW33409   3.713   1.537   4.149 -0.1023 -0.3158 -0.1236
 7316SOL    HW133410   3.767   1.564   4.223 -1.2391 -0.5418  0.8012
 7316SOL    HW233411   3.645   1.604   4.155 -0.2647 -0.6228  1.3694
 7317SOL     OW33412   0.737   2.625  16.976  0.2261  0.2911  0.2189
 7317SOL    HW133413   0.717   2.623  17.069 -0.4339 -0.7145  0.0515
 7317SOL    HW233414   0.651   2.642  16.936  0.4180  1.2507  0.2135
 7318SOL     OW33415   4.572   1.746  12.430 -0.3455  0.5853  0.8321
 7318SOL    HW133416   4.593   1.673  12.372 -0.4251  2.2493 -1.2874
 7318SOL    HW233417   4.480   1.765  12.410  0.1549  0.3782 -1.7449
 7319SOL     OW33418   3.929   3.538   5.938  0.2177 -0.2210 -0.0983
 7319SOL    HW133419   3.871   3.556   6.012 -0.4192  1.0995 -0.9037
 7319SOL    HW233420   3.903   3.455   5.900  2.5718 -0.3670 -1.4015
 7320SOL     OW33421   3.209   4.532   5.794  0.4291 -0.0379  0.1828
 7320SOL    HW133422   3.293   4.490   5.814 -0.3361  0.0740  3.7512
 7320SOL    HW233423   3.147   4.483   5.850  0.9484  0.0572  0.8414
 7321SOL     OW33424   2.847   1.927  12.752  0.4352  0.6986  0.3251
 7321SOL    HW133425   2.762   1.929  12.797  0.4025 -0.4290  0.3083
 7321SOL    HW233426   2.851   2.017  12.718  1.8114 -0.0615 -1.5624
 7322SOL     OW33427   0.784   0.969  11.845  0.0817  0.0492  0.1154
 7322SOL    HW133428   0.841   1.024  11.791 -0.6067  1.2321  0.5908
 7322SOL    HW233429   0.778   0.895  11.785 -0.0282 -0.2351  0.4771
 7323SOL     OW33430   3.855   2.726  15.840  0.2545 -0.3000  0.3340
 7323SOL    HW133431   3.771   2.718  15.795  0.4986 -2.0326  0.2088
 7323SOL    HW233432   3.861   2.642  15.885  1.0774 -1.5008 -2.0509
 7324SOL     OW33433   4.330   3.431   7.279  0.0363 -0.4723  0.4473
 7324SOL    HW133434   4.353   3.345   7.313  0.8292  0.7864  3.1818
 7324SOL    HW233435   4.269   3.472   7.341  0.3778  0.3188  0.2679
 7325SOL     OW33436   4.363   0.033   4.302 -0.0797 -0.9200 -0.1042
 7325SOL    HW133437   4.338   0.120   4.331  1.3106 -0.9187  1.0635
 7325SOL    HW233438   4.439   0.017   4.358  0.1649  2.9761  0.6274
 7326SOL     OW33439   4.515   0.739   6.250 -0.0351  0.5208 -0.1837
 7326SOL    HW133440   4.526   0.668   6.187  2.9733  0.4776  0.3962
 7326SOL    HW233441   4.507   0.812   6.189  1.3069  1.8817  1.2710
 7327SOL     OW33442   1.693   0.183   8.248  0.2646  0.0144  0.2777
 7327SOL    HW133443   1.646   0.255   8.206 -0.3837 -0.5260  0.0753
 7327SOL    HW233444   1.694   0.210   8.340  1.5555 -1.3466  0.6692
 7328SOL     OW33445   2.571   1.251   8.364  0.7654  0.7880  0.1360
 7328SOL    HW133446   2.545   1.263   8.273 -0.5250 -1.8332  0.1769
 7328SOL    HW233447   2.498   1.193   8.387  1.4523  0.2595  1.0108
 7329SOL     OW33448   4.125   4.299  13.232 -0.4464 -0.8030  0.0620
 7329SOL    HW133449   4.043   4.258  13.206 -0.5734  0.2752 -1.2509
 7329SOL    HW233450   4.157   4.232  13.293 -0.7626 -1.4243 -0.4578
 7330SOL     OW33451   1.100   0.734   5.181  0.1110 -0.1221  0.1906
 7330SOL    HW133452   1.097   0.782   5.263 -1.5110  0.1824 -0.0522
 7330SOL    HW233453   1.085   0.644   5.209 -2.9797 -0.0098 -1.1292
 7331SOL     OW33454   3.909   0.044   6.354  0.4049 -0.0625  0.2946
 7331SOL    HW133455   3.885   4.679   6.320 -1.2795  0.4863  0.1233
 7331SOL    HW233456   4.001   0.048   6.327  0.2799  0.2359 -0.0841
 7332SOL     OW33457   3.049   0.557   5.467 -0.4754  0.1863  0.1630
 7332SOL    HW133458   3.037   0.474   5.513 -0.1724 -0.4415 -0.8972
 7332SOL    HW233459   2.990   0.536   5.395 -2.0791  0.8614  1.2737
 7333SOL     OW33460   4.079   2.550   2.517 -0.5069 -0.2656 -0.2216
 7333SOL    HW133461   4.051   2.592   2.435  2.2022  2.0667  0.0822
 7333SOL    HW233462   4.111   2.626   2.563 -0.9986 -0.2145  0.0392
 7334SOL     OW33463   2.958   0.076   9.113 -0.3970 -0.4222 -0.3085
 7334SOL    HW133464   2.959   0.146   9.049 -1.7998 -2.6090 -2.7069
 7334SOL    HW233465   2.918   0.120   9.188 -1.5389  0.0612 -1.2034
 7335SOL     OW33466   1.500   1.541   2.145 -0.3446 -0.0067 -0.3577
 7335SOL    HW133467   1.484   1.631   2.117  2.1201  0.5584 -0.0139
 7335SOL    HW233468   1.555   1.561   2.221 -1.1455  0.4376  0.0968
 7336SOL     OW33469   3.898   0.053   3.172 -0.2537  0.1329 -0.3724
 7336SOL    HW133470   3.934   0.138   3.149 -2.2377  1.6006  1.9108
 7336SOL    HW233471   3.882   0.073   3.264 -0.2514 -1.8025  0.0517
 7337SOL     OW33472   4.353   3.824  12.948  0.2182 -0.1269 -0.0285
 7337SOL    HW133473   4.359   3.835  12.853  0.6457  3.3030  0.3811
 7337SOL    HW233474   4.267   3.790  12.969 -0.5993  2.3158  0.6073
 7338SOL     OW33475   1.358   3.264   6.780 -0.5432 -0.1784 -0.3963
 7338SOL    HW133476   1.289   3.282   6.716 -2.3074 -0.7100  1.3424
 7338SOL    HW233477   1.368   3.352   6.815  3.7782 -1.3118  1.1896
 7339SOL     OW33478   4.645   2.907  12.979  0.6574 -0.1191  0.0240
 7339SOL    HW133479   4.564   2.919  12.928  0.6543  2.4384  0.5948
 7339SOL    HW233480   4.687   2.993  12.975  3.7383 -1.6491 -0.1965
 7340SOL     OW33481   3.114   0.270   3.852  0.5373  0.3346 -0.4179
 7340SOL    HW133482   3.033   0.319   3.840  0.2917  0.4512  1.6846
 7340SOL    HW233483   3.106   0.216   3.773 -1.6638 -1.3878  0.9614
 7341SOL     OW33484   0.315   2.032  10.168 -0.0391  0.5230 -0.6707
 7341SOL    HW133485   0.325   2.122  10.137  0.6535  0.7274  0.1389
 7341SOL    HW233486   0.235   2.048  10.218  0.9594  0.3225  1.0143
 7342SOL     OW33487   2.520   4.262   8.897 -0.6825  0.1177 -0.6843
 7342SOL    HW133488   2.567   4.300   8.823  0.5682 -0.9369 -0.4465
 7342SOL    HW233489   2.500   4.174   8.863  0.0151  0.2324 -1.4009
 7343SOL     OW33490   3.464   0.165   3.423  0.0078  0.1271 -0.4901
 7343SOL    HW133491   3.407   0.203   3.489 -1.1401  1.5336 -2.3086
 7343SOL    HW233492   3.535   0.141   3.483 -1.2997 -0.4967  0.8117
 7344SOL     OW33493   2.742   2.222   0.403  0.1637  0.4062 -0.4373
 7344SOL    HW133494   2.748   2.127   0.398 -2.3497  0.2003  0.4653
 7344SOL    HW233495   2.694   2.236   0.484 -1.0284 -0.5733 -0.9785
 7345SOL     OW33496   4.306   3.345  14.552  0.2661  0.2141  0.5300
 7345SOL    HW133497   4.238   3.389  14.501 -0.0774  0.5782  1.3022
 7345SOL    HW233498   4.347   3.423  14.588  1.0825  0.2671 -0.5322
 7346SOL     OW33499   0.154   0.970  11.324 -0.5143  0.2146  0.2151
 7346SOL    HW133500   0.099   0.909  11.276 -1.3586  0.6545  0.6156
 7346SOL    HW233501   0.084   1.033  11.345  0.9954  1.9795 -0.0336
 7347SOL     OW33502   1.201   0.915   8.860 -0.5156 -0.3961  0.3270
 7347SOL    HW133503   1.207   0.971   8.938 -2.1000  1.6316 -1.0158
 7347SOL    HW233504   1.127   0.859   8.883 -1.0137 -0.1575 -0.7019
 7348SOL     OW33505   4.013   3.107   8.139 -0.3186 -0.6337 -0.5879
 7348SOL    HW133506   4.062   3.058   8.073 -0.5507  0.1705 -1.3615
 7348SOL    HW233507   4.086   3.159   8.172 -0.4625 -0.5644 -0.3761
 7349SOL     OW33508   3.967   4.708   7.893 -0.3665 -0.2914 -0.8577
 7349SOL    HW133509   3.964   0.003   7.988  1.5291 -0.1697 -0.8185
 7349SOL    HW233510   4.061   4.689   7.882 -0.1973  1.0454 -1.6991
 7350SOL     OW33511   1.528   3.972   3.867 -0.3923 -0.1278  0.7191
 7350SOL    HW133512   1.490   4.019   3.941  1.6007  1.1949  0.8992
 7350SOL    HW233513   1.533   3.882   3.897 -1.1693  0.1254  1.6203
 7351SOL     OW33514   0.012   0.423   0.839  1.1039  0.2762 -0.4672
 7351SOL    HW133515   0.106   0.408   0.828  1.2440  0.9668 -0.2081
 7351SOL    HW233516   0.004   0.470   0.922 -0.1524  0.1592 -0.5230
 7352SOL     OW33517   3.011   1.151  16.722  0.0145  0.2422 -0.0938
 7352SOL    HW133518   2.970   1.080  16.771 -1.0379 -0.2087 -1.6241
 7352SOL    HW233519   3.096   1.112  16.705  0.2649  1.0250 -0.6584
 7353SOL     OW33520   0.983   1.546   0.830 -0.1155  0.3233  0.1187
 7353SOL    HW133521   0.964   1.625   0.780 -2.6167  0.9777  2.0762
 7353SOL    HW233522   1.073   1.572   0.851 -1.2436  1.6557  3.3691
 7354SOL     OW33523   0.061   4.222  10.206 -0.3320  0.4360 -0.0035
 7354SOL    HW133524   0.153   4.243  10.188  0.2814 -1.8574  0.4883
 7354SOL    HW233525   0.012   4.302  10.186  0.5544  0.9431 -0.1459
 7355SOL     OW33526   1.721   4.043   8.380  0.3355  0.2682  0.4754
 7355SOL    HW133527   1.772   3.980   8.329  2.2050  0.1317  2.5168
 7355SOL    HW233528   1.633   4.005   8.382  1.0432 -1.4179 -0.2988
 7356SOL     OW33529   3.119   4.507   7.591  0.3208 -0.4156  0.3904
 7356SOL    HW133530   3.033   4.537   7.619  0.4932  0.1645  0.3036
 7356SOL    HW233531   3.104   4.414   7.577  0.5075 -0.2975 -0.6083
 7357SOL     OW33532   3.434   3.171   9.494  0.4608 -0.3786  0.0459
 7357SOL    HW133533   3.435   3.193   9.401  0.1107  1.3289  0.4488
 7357SOL    HW233534   3.349   3.127   9.494  1.0280 -1.4737 -0.5150
 7358SOL     OW33535   3.872   2.632   5.577 -0.1081  0.4154  0.2233
 7358SOL    HW133536   3.821   2.592   5.648  0.9060  1.6447  1.6461
 7358SOL    HW233537   3.830   2.585   5.505 -1.1267 -3.5827  3.4612
 7359SOL     OW33538   2.715   2.758   3.048 -0.4027  0.0787  0.7073
 7359SOL    HW133539   2.779   2.688   3.063 -2.1334 -1.1119  2.4125
 7359SOL    HW233540   2.724   2.813   3.126 -2.8506  1.7640 -0.2115
 7360SOL     OW33541   3.792   1.007   8.002  0.2770 -0.4289  0.1451
 7360SOL    HW133542   3.753   0.936   7.951  1.5960  0.2035 -1.7334
 7360SOL    HW233543   3.860   1.045   7.947 -0.4592 -0.9019 -1.0948
 7361SOL     OW33544   1.378   3.920   1.185  0.6866 -0.1073  0.5449
 7361SOL    HW133545   1.392   3.952   1.275  0.3938 -2.5890  1.4575
 7361SOL    HW233546   1.290   3.883   1.193  0.2890  0.9428  1.0707
 7362SOL     OW33547   1.798   3.685   2.801 -0.1921 -0.1047 -0.9949
 7362SOL    HW133548   1.868   3.621   2.814 -1.5052 -1.1422  0.9209
 7362SOL    HW233549   1.725   3.633   2.834 -0.5524  0.6211 -0.6452
 7363SOL     OW33550   2.625   4.478   8.209  0.0899  0.1197 -0.5301
 7363SOL    HW133551   2.577   4.477   8.126  1.2349 -5.8211 -1.1633
 7363SOL    HW233552   2.673   4.396   8.198  1.2019  0.2610  3.0901
 7364SOL     OW33553   3.726   2.932  11.144 -0.0214  0.1751  0.3620
 7364SOL    HW133554   3.639   2.908  11.114  0.4794 -2.6671  1.1692
 7364SOL    HW233555   3.778   2.907  11.068 -2.1671 -1.7924 -0.4613
 7365SOL     OW33556   3.213   3.221  16.216 -0.0321  0.2012 -0.6195
 7365SOL    HW133557   3.149   3.237  16.285  0.2691  0.2758 -0.3605
 7365SOL    HW233558   3.266   3.146  16.243  1.2756  0.8982 -1.2429
 7366SOL     OW33559   3.730   4.122   6.920 -0.0516  0.0062  0.3009
 7366SOL    HW133560   3.755   4.075   6.999 -0.9568 -0.3492  0.3747
 7366SOL    HW233561   3.686   4.053   6.871  2.4434 -0.7390 -0.8754
 7367SOL     OW33562   0.622   2.015   3.343  0.3023  0.3959  0.4784
 7367SOL    HW133563   0.612   1.965   3.424 -1.6641 -0.9868 -0.6091
 7367SOL    HW233564   0.556   2.082   3.361 -0.7000 -0.7915  1.1931
 7368SOL     OW33565   1.005   0.686   4.263 -0.2600 -0.1155 -0.1413
 7368SOL    HW133566   0.943   0.627   4.306  0.1754  0.0440  0.7033
 7368SOL    HW233567   1.008   0.656   4.172 -3.0923 -1.6098  0.2622
 7369SOL     OW33568   1.197   2.318   3.363 -0.0679 -0.2099 -0.3627
 7369SOL    HW133569   1.247   2.314   3.444 -1.8221 -1.4630  0.6462
 7369SOL    HW233570   1.127   2.378   3.386  0.5368  1.1111 -2.0086
 7370SOL     OW33571   1.841   3.073   6.063  0.0312 -0.2396  0.1161
 7370SOL    HW133572   1.813   2.994   6.016  1.7146 -1.9448  1.9869
 7370SOL    HW233573   1.751   3.100   6.082 -0.1114 -1.3748  1.0876
 7371SOL     OW33574   3.817   3.958   8.049 -0.0406 -0.4295 -0.4987
 7371SOL    HW133575   3.793   3.905   7.973  0.8420  1.2209 -1.9332
 7371SOL    HW233576   3.804   4.040   8.002 -0.6198  0.8264  1.8610
 7372SOL     OW33577   2.104   2.594   7.124 -0.4818 -0.2778 -0.3540
 7372SOL    HW133578   2.012   2.617   7.111 -0.2705  0.5096 -0.4305
 7372SOL    HW233579   2.126   2.643   7.203  2.0209 -0.0474 -1.1768
 7373SOL     OW33580   4.031   1.446  12.923 -0.1907 -0.1315 -0.1156
 7373SOL    HW133581   3.991   1.467  12.839  0.6142 -0.1838 -0.5178
 7373SOL    HW233582   4.121   1.473  12.902  0.2109  0.5331  2.4273
 7374SOL     OW33583   1.354   2.764   5.870  0.6893  0.3933 -0.6479
 7374SOL    HW133584   1.314   2.685   5.836 -1.5670  2.2477 -2.2850
 7374SOL    HW233585   1.388   2.736   5.955  0.9602 -0.8191 -1.1616
 7375SOL     OW33586   1.127   3.393   2.378 -0.5407  0.7844 -0.1626
 7375SOL    HW133587   1.186   3.393   2.453  1.4503 -1.0197 -1.7656
 7375SOL    HW233588   1.099   3.484   2.364  3.1363  2.2434  2.0760
 7376SOL     OW33589   2.922   1.192  13.734  0.1827 -0.1482 -0.3124
 7376SOL    HW133590   2.941   1.105  13.768 -2.8704 -0.6252  0.0860
 7376SOL    HW233591   2.941   1.164  13.645 -1.4341 -1.4946 -0.2281
 7377SOL     OW33592   0.777   4.240  17.635 -0.3184  0.3224  0.5188
 7377SOL    HW133593   0.853   4.214   0.001 -0.7430  1.1755  1.5976
 7377SOL    HW233594   0.722   4.162  17.627 -0.5642  0.4883  0.5806
 7378SOL     OW33595   1.003   3.494   1.798  0.4930  0.3205  0.0603
 7378SOL    HW133596   1.054   3.478   1.718  1.1582  0.1580  0.5122
 7378SOL    HW233597   1.070   3.530   1.856  0.9861  1.5162 -1.2441
 7379SOL     OW33598   0.319   4.633   5.703 -0.3275 -0.1889  0.3647
 7379SOL    HW133599   0.232   4.671   5.690  0.0007  0.9902  1.5559
 7379SOL    HW233600   0.296   4.540   5.704  1.6559 -0.6873 -0.1850
 7380SOL     OW33601   3.272   1.725   7.059  0.4750 -0.2351  0.1499
 7380SOL    HW133602   3.196   1.784   7.065 -1.7818 -3.1819  0.5166
 7380SOL    HW233603   3.344   1.785   7.079 -0.4589  0.8544  0.2849
 7381SOL     OW33604   0.576   0.654   8.023  0.0272 -0.4018  0.5234
 7381SOL    HW133605   0.622   0.585   7.975  2.5572  2.2413 -0.8085
 7381SOL    HW233606   0.635   0.729   8.017  0.2952 -0.8144 -1.8684
 7382SOL     OW33607   0.562   3.652   5.823 -0.1017 -0.4511 -0.6576
 7382SOL    HW133608   0.576   3.744   5.798 -0.7955 -0.9620 -3.0088
 7382SOL    HW233609   0.473   3.663   5.856  0.9388  1.6795  1.4368
 7383SOL     OW33610   2.250   3.321  16.389 -0.8559  0.4104  0.5172
 7383SOL    HW133611   2.296   3.344  16.469 -0.9886  0.6663  0.5187
 7383SOL    HW233612   2.165   3.362  16.405 -0.1425  2.5666 -1.2464
 7384SOL     OW33613   3.413   2.071   2.298 -0.6735  0.1077  0.4481
 7384SOL    HW133614   3.337   2.120   2.329  0.1126  2.1857 -0.9419
 7384SOL    HW233615   3.373   2.026   2.224 -1.0312  0.5868  0.3539
 7385SOL     OW33616   3.328   0.547  17.011  0.2138 -0.0954 -0.1320
 7385SOL    HW133617   3.253   0.533  17.069 -1.1829  2.5499 -1.3100
 7385SOL    HW233618   3.292   0.598  16.939 -1.2503  0.6688  1.1568
 7386SOL     OW33619   4.251   1.467   9.620 -0.1856  0.4651 -0.6400
 7386SOL    HW133620   4.305   1.531   9.574 -1.8848  1.6950 -0.9024
 7386SOL    HW233621   4.188   1.441   9.553  1.1473  1.0428 -2.0979
 7387SOL     OW33622   0.698   3.807   6.195 -0.0238 -0.5268 -0.7908
 7387SOL    HW133623   0.619   3.755   6.212  0.1073 -0.3243  0.3903
 7387SOL    HW233624   0.684   3.887   6.244  0.1031 -0.6349 -0.5794
 7388SOL     OW33625   1.278   0.949  10.168 -0.1463  0.2997 -0.0788
 7388SOL    HW133626   1.225   0.917  10.095  1.2725  0.8304 -1.3408
 7388SOL    HW233627   1.352   0.889  10.163  2.0965  2.9462  1.7226
 7389SOL     OW33628   4.219   1.322   3.727 -0.1004  0.0051  0.3567
 7389SOL    HW133629   4.150   1.381   3.758  0.3343  0.0604  1.2021
 7389SOL    HW233630   4.268   1.379   3.668  1.3352 -1.8242 -0.1961
 7390SOL     OW33631   0.333   3.214  10.818 -0.4534  0.8427  0.1482
 7390SOL    HW133632   0.244   3.245  10.835 -0.0802  1.2436  1.3833
 7390SOL    HW233633   0.338   3.147  10.886 -0.1033  1.3308  0.6094
 7391SOL     OW33634   2.475   0.043  17.609  0.4536 -0.5367  0.0931
 7391SOL    HW133635   2.417   4.689  17.626 -0.2037 -0.3276 -1.2706
 7391SOL    HW233636   2.502   0.063   0.013 -2.5755  4.1131 -0.0276
 7392SOL     OW33637   2.401   0.673   5.229  0.4076  0.0457  0.3718
 7392SOL    HW133638   2.441   0.612   5.167  0.7793  0.2077  0.4489
 7392SOL    HW233639   2.316   0.700   5.194  0.5942 -2.4758 -2.0314
 7393SOL     OW33640   4.401   1.260   6.585  1.0028 -0.7674 -0.1635
 7393SOL    HW133641   4.488   1.231   6.612  0.5557 -0.0446  2.0584
 7393SOL    HW233642   4.395   1.335   6.644  4.0980 -0.7535  0.1705
 7394SOL     OW33643   2.946   1.569   8.950 -0.1486 -0.0116 -0.1211
 7394SOL    HW133644   2.862   1.557   8.994 -0.4412 -1.6009 -1.1143
 7394SOL    HW233645   2.948   1.662   8.928  0.8445  0.1187  0.4814
 7395SOL     OW33646   4.192   0.934   8.491  0.1009 -0.0968 -0.3617
 7395SOL    HW133647   4.190   0.938   8.587  0.5439  1.0547 -0.3991
 7395SOL    HW233648   4.134   0.860   8.470 -0.8511  1.0326 -1.7479
 7396SOL     OW33649   4.540   1.278   9.194  0.4558  0.3974  0.5435
 7396SOL    HW133650   4.535   1.331   9.273  2.6257 -0.5139  1.2890
 7396SOL    HW233651   4.600   1.210   9.224 -1.3092 -0.7773  1.4106
 7397SOL     OW33652   1.247   2.503  17.299 -0.1375 -0.1056  0.2090
 7397SOL    HW133653   1.298   2.584  17.298  0.0505 -0.2429 -0.9200
 7397SOL    HW233654   1.312   2.447  17.342 -1.3384 -2.2162 -0.7627
 7398SOL     OW33655   2.488   0.468   8.737  0.3339 -0.1351 -0.1988
 7398SOL    HW133656   2.432   0.505   8.804  2.1182 -0.3259  1.3785
 7398SOL    HW233657   2.500   0.543   8.679 -0.3001  0.3943  0.3598
 7399SOL     OW33658   3.959   4.536  15.869 -0.4103 -0.1925 -0.2394
 7399SOL    HW133659   3.986   4.627  15.884  0.5073 -0.5390  0.2170
 7399SOL    HW233660   3.900   4.534  15.794 -1.5350  2.9429  0.5759
 7400SOL     OW33661   1.563   1.892   6.837 -0.6610 -0.0379 -0.0164
 7400SOL    HW133662   1.476   1.931   6.841 -0.9068 -0.5753 -0.1225
 7400SOL    HW233663   1.618   1.969   6.829  1.3021 -1.3782  0.5034
 7401SOL     OW33664   0.125   3.880   8.940 -0.2598 -0.0791  0.0022
 7401SOL    HW133665   0.211   3.921   8.934 -0.5837  0.0998 -3.9147
 7401SOL    HW233666   0.120   3.806   8.879  2.2894 -0.2609  0.0337
 7402SOL     OW33667   2.426   0.661   6.960  0.6102  0.3268 -0.5537
 7402SOL    HW133668   2.498   0.682   7.020  1.0456 -1.4741 -0.4598
 7402SOL    HW233669   2.356   0.648   7.024  0.8841 -0.5411 -0.4302
 7403SOL     OW33670   2.553   1.210   4.669  0.2202 -0.5614  0.5021
 7403SOL    HW133671   2.596   1.127   4.648  1.5607  0.3797 -0.4230
 7403SOL    HW233672   2.478   1.188   4.724 -0.9434 -0.3253 -0.9776
 7404SOL     OW33673   0.377   0.880   4.255 -0.3413  0.1473 -0.2388
 7404SOL    HW133674   0.413   0.954   4.207 -1.3239  0.3484 -0.6646
 7404SOL    HW233675   0.418   0.801   4.218  2.1142  0.6939  1.3644
 7405SOL     OW33676   2.282   2.840   0.284 -0.8400  0.6726  0.2725
 7405SOL    HW133677   2.373   2.827   0.310 -0.6395 -0.6735 -1.0823
 7405SOL    HW233678   2.248   2.903   0.348  0.1636 -0.1959  1.6605
 7406SOL     OW33679   2.979   1.551   6.346  0.1896 -0.2204 -0.0336
 7406SOL    HW133680   2.904   1.547   6.405 -1.4796 -0.6036 -2.1921
 7406SOL    HW233681   2.966   1.465   6.306 -0.7596 -1.3662  2.7907
 7407SOL     OW33682   3.795   1.630   3.708 -0.5498  0.3453  0.2795
 7407SOL    HW133683   3.851   1.566   3.752 -0.4183 -0.0044 -0.3882
 7407SOL    HW233684   3.837   1.642   3.623  0.7846  0.7729  0.9921
 7408SOL     OW33685   1.575   4.094   3.626  0.0700  0.0694 -0.1568
 7408SOL    HW133686   1.521   4.052   3.559 -2.9018  1.7714  1.1669
 7408SOL    HW233687   1.528   4.067   3.705 -0.9780 -1.5689 -1.3213
 7409SOL     OW33688   1.713   0.024   2.089 -0.7258 -0.0440  0.0102
 7409SOL    HW133689   1.773   0.075   2.143 -1.4653  0.1998  0.6116
 7409SOL    HW233690   1.720   4.656   2.124  1.0115  0.1431  0.1212
 7410SOL     OW33691   2.906   3.152  12.790  0.1463 -0.0221 -0.1055
 7410SOL    HW133692   2.981   3.189  12.742 -0.9489  0.1520 -1.7001
 7410SOL    HW233693   2.947   3.129  12.873 -0.6643 -1.3414 -0.0713
 7411SOL     OW33694   2.962   3.170   9.839  0.4661 -0.0801 -0.5010
 7411SOL    HW133695   2.982   3.086   9.881  0.0634  0.7511  1.3597
 7411SOL    HW233696   2.879   3.149   9.797  1.5457  2.6841 -3.9413
 7412SOL     OW33697   0.646   3.807   4.282  0.3383  0.1411  0.0486
 7412SOL    HW133698   0.582   3.754   4.329  0.7591  1.2660  1.8796
 7412SOL    HW233699   0.728   3.758   4.278  0.4200  0.4339 -2.0252
 7413SOL     OW33700   3.897   4.717   3.931 -0.4284 -0.3828  0.1515
 7413SOL    HW133701   3.862   4.632   3.907 -0.2570 -0.6949  1.0164
 7413SOL    HW233702   3.910   4.701   4.025 -1.2866  0.7941  0.4763
 7414SOL     OW33703   2.342   1.805  12.726 -0.1288  0.3357  0.9316
 7414SOL    HW133704   2.277   1.741  12.698  0.3084  1.3596 -2.3603
 7414SOL    HW233705   2.379   1.763  12.804 -1.4920  1.8905  2.3994
 7415SOL     OW33706   4.158   2.779   7.461 -0.4729 -0.5367  0.7762
 7415SOL    HW133707   4.198   2.741   7.539  0.0247  0.4749  1.0246
 7415SOL    HW233708   4.234   2.822   7.421 -0.3202 -1.7647 -0.2608
 7416SOL     OW33709   0.110   0.352   2.454 -0.0925  0.3875 -0.9161
 7416SOL    HW133710   0.099   0.427   2.514  0.4180 -0.7535  0.5839
 7416SOL    HW233711   0.180   0.301   2.494 -1.4882  0.0735  1.1328
 7417SOL     OW33712   0.641   2.714   7.166 -0.0111  0.2285 -0.4324
 7417SOL    HW133713   0.650   2.762   7.248 -0.6458  1.2243 -0.9413
 7417SOL    HW233714   0.680   2.781   7.111 -0.5021  1.0019  0.1677
 7418SOL     OW33715   3.890   2.850   0.096  0.3424 -0.2784  0.2404
 7418SOL    HW133716   3.979   2.830   0.125  0.7557  0.8745 -0.2186
 7418SOL    HW233717   3.865   2.902   0.172 -0.9864  0.3764 -0.6331
 7419SOL     OW33718   0.805   0.161   1.336 -0.3272 -0.4201 -0.0002
 7419SOL    HW133719   0.747   0.164   1.412  0.6721  0.7360  0.7226
 7419SOL    HW233720   0.892   0.160   1.376 -0.5525 -1.3817  0.4565
 7420SOL     OW33721   2.438   3.340  15.281  1.0595 -0.4668  0.3442
 7420SOL    HW133722   2.533   3.328  15.285  0.9918 -1.8762 -1.7420
 7420SOL    HW233723   2.411   3.257  15.241 -0.2782  0.3695 -0.5139
 7421SOL     OW33724   0.987   0.586   1.846 -0.3948 -0.3384  0.2928
 7421SOL    HW133725   0.934   0.636   1.784  1.7968  1.4486 -0.1312
 7421SOL    HW233726   1.067   0.564   1.799 -0.2053 -1.3012  1.0739
 7422SOL     OW33727   0.750   2.616   2.245  0.0004 -0.0192  0.1970
 7422SOL    HW133728   0.694   2.688   2.273 -0.5233 -0.6362  0.7389
 7422SOL    HW233729   0.701   2.574   2.174 -0.0637 -1.8848  1.3302
 7423SOL     OW33730   4.632   1.189   4.451  0.1444  0.0271  0.2913
 7423SOL    HW133731   4.622   1.250   4.377  0.7531 -2.4154 -1.8321
 7423SOL    HW233732   4.720   1.215   4.476 -0.0700  0.0153  1.0587
 7424SOL     OW33733   2.797   3.252  17.170  0.1164  0.3512  0.0760
 7424SOL    HW133734   2.876   3.203  17.148 -2.2447 -1.9427 -3.2955
 7424SOL    HW233735   2.768   3.271  17.081  2.3832  2.0777 -0.2862
 7425SOL     OW33736   4.416   1.916   6.512  0.4180  0.2647  0.5277
 7425SOL    HW133737   4.339   1.948   6.465  0.4268 -1.2980 -0.5167
 7425SOL    HW233738   4.486   1.957   6.462  0.7781  0.8476  1.5101
 7426SOL     OW33739   0.533   4.691   6.064 -0.1164 -0.0914 -0.3849
 7426SOL    HW133740   0.579   4.616   6.026 -2.9191 -1.4539 -1.1256
 7426SOL    HW233741   0.544   0.033   5.992  0.4014  3.0265  2.4377
 7427SOL     OW33742   0.963   0.748   7.861  0.3533  0.8447  0.0532
 7427SOL    HW133743   0.883   0.800   7.853 -0.4434 -0.3316  0.3720
 7427SOL    HW233744   1.033   0.803   7.825  1.4642  0.1590  1.1838
 7428SOL     OW33745   2.606   2.349   7.271  0.0775 -0.2892 -0.4522
 7428SOL    HW133746   2.700   2.345   7.289 -0.0277 -1.1770 -0.0667
 7428SOL    HW233747   2.571   2.337   7.359 -0.3279  0.9745 -0.4509
 7429SOL     OW33748   2.002   4.629  16.063  0.2318  0.0659  0.1210
 7429SOL    HW133749   1.965   4.561  16.006 -0.5568 -1.5682  2.5501
 7429SOL    HW233750   2.042   4.572  16.129  1.9166  2.5637  1.2243
 7430SOL     OW33751   2.378   4.414  13.912  0.0590 -0.4975 -0.2621
 7430SOL    HW133752   2.414   4.488  13.962 -0.2669 -0.7786  0.3873
 7430SOL    HW233753   2.385   4.340  13.972 -0.0968 -0.5840 -0.3520
 7431SOL     OW33754   4.469   2.083  10.605 -0.1712  0.2310 -0.6517
 7431SOL    HW133755   4.467   2.175  10.629 -0.0331  0.9871 -3.5197
 7431SOL    HW233756   4.383   2.049  10.630  0.2391 -1.4721 -1.5443
 7432SOL     OW33757   1.046   2.276   4.309  0.1970  0.3929 -0.4321
 7432SOL    HW133758   1.071   2.266   4.401 -0.1571  3.2136 -0.0256
 7432SOL    HW233759   0.952   2.285   4.324  0.2646 -1.4317  1.0851
 7433SOL     OW33760   0.372   2.979   9.896  0.0209  0.3319 -0.3488
 7433SOL    HW133761   0.338   2.944   9.978  2.8534 -1.0639  0.2096
 7433SOL    HW233762   0.462   2.952   9.910  0.7460  2.4277 -0.9858
 7434SOL     OW33763   4.502   1.745   6.161  0.1206 -0.0265 -0.2296
 7434SOL    HW133764   4.418   1.699   6.164  1.3548 -2.2684  0.6192
 7434SOL    HW233765   4.547   1.687   6.099  2.0582  0.4088  0.7822
 7435SOL     OW33766   0.716   2.864   6.061  0.0548 -0.5015 -0.1582
 7435SOL    HW133767   0.653   2.889   6.130  1.5450  1.4900  0.4969
 7435SOL    HW233768   0.773   2.819   6.123  2.1458 -1.8428 -3.1145
 7436SOL     OW33769   2.559   0.663   8.562 -0.1441  0.0731 -0.3004
 7436SOL    HW133770   2.518   0.701   8.484 -4.1105  0.3150  1.9145
 7436SOL    HW233771   2.620   0.730   8.592 -0.0115  0.4382 -1.3830
 7437SOL     OW33772   4.107   1.809   2.722  0.2238 -0.1237 -0.0464
 7437SOL    HW133773   4.150   1.847   2.798  0.2502  1.3023 -0.7673
 7437SOL    HW233774   4.032   1.764   2.760  2.1615 -1.5769  1.9995
 7438SOL     OW33775   3.318   4.265  11.269 -0.0959  0.2992  0.7162
 7438SOL    HW133776   3.408   4.244  11.243  0.1082  1.8938  0.1424
 7438SOL    HW233777   3.262   4.275  11.192 -0.5606  0.3341  1.0607
 7439SOL     OW33778   0.840   1.901   6.607 -0.2986 -0.1090  0.5782
 7439SOL    HW133779   0.837   1.835   6.677 -1.1400 -0.9336 -0.2471
 7439SOL    HW233780   0.762   1.890   6.554  0.2998 -0.9915 -0.1227
 7440SOL     OW33781   2.584   1.741   5.051 -0.3534 -0.1950  0.2176
 7440SOL    HW133782   2.491   1.722   5.064 -0.4981 -0.6780 -1.4631
 7440SOL    HW233783   2.625   1.688   5.120  1.0462  0.0450 -0.4375
 7441SOL     OW33784   3.621   1.268   6.524  0.0418  0.0966 -0.1334
 7441SOL    HW133785   3.557   1.279   6.594 -0.1842 -2.0464 -0.0106
 7441SOL    HW233786   3.658   1.182   6.547  1.1168  1.4718  3.3218
 7442SOL     OW33787   1.584   0.819   1.576  0.1479  0.6923 -0.1337
 7442SOL    HW133788   1.611   0.849   1.662 -1.5929  0.4414  0.5044
 7442SOL    HW233789   1.489   0.830   1.581  0.3240  1.4700  1.4774
 7443SOL     OW33790   4.719   4.690   3.742 -0.0879  0.3362 -0.1582
 7443SOL    HW133791   4.631   0.002   3.763 -0.1854  0.1183 -0.2261
 7443SOL    HW233792   4.693   4.646   3.661  1.4648 -1.1312  0.1519
 7444SOL     OW33793   3.058   4.380   9.772  0.1251 -0.1408  0.3584
 7444SOL    HW133794   3.040   4.474   9.771 -0.3211 -0.2227  0.4932
 7444SOL    HW233795   2.976   4.336   9.796 -0.6456  0.4051 -1.2842
 7445SOL     OW33796   1.698   0.386   7.534  0.0801  0.2018 -0.1763
 7445SOL    HW133797   1.647   0.446   7.588  0.5206 -0.3741  0.8643
 7445SOL    HW233798   1.716   0.438   7.455  3.2203 -2.0845 -0.9730
 7446SOL     OW33799   0.835   3.220  13.726  0.1761  0.0743  0.7830
 7446SOL    HW133800   0.785   3.140  13.742 -0.1448 -0.2594 -1.8547
 7446SOL    HW233801   0.919   3.174  13.718  1.1009  2.0785 -1.0108
 7447SOL     OW33802   3.134   0.670   9.748  0.0695  0.6642  0.0362
 7447SOL    HW133803   3.213   0.619   9.729  0.7329  0.9637  1.9927
 7447SOL    HW233804   3.101   0.628   9.828  0.7968  1.5499  0.8051
 7448SOL     OW33805   0.815   1.191   7.229 -0.0972  0.5300  1.1494
 7448SOL    HW133806   0.832   1.231   7.143 -0.1885 -0.8195  0.5141
 7448SOL    HW233807   0.895   1.139   7.230 -0.2687  0.2221 -0.9963
 7449SOL     OW33808   4.164   0.328   7.755  0.4428  0.1143  0.1044
 7449SOL    HW133809   4.083   0.299   7.798  0.6249 -0.5689 -0.0159
 7449SOL    HW233810   4.224   0.273   7.804 -0.6894 -1.5183 -0.3348
 7450SOL     OW33811   0.489   3.649   6.944 -0.2465  0.1347 -0.3382
 7450SOL    HW133812   0.538   3.701   7.008  0.2440  1.9999 -2.2479
 7450SOL    HW233813   0.553   3.577   6.941 -1.6801 -1.0566 -2.9014
 7451SOL     OW33814   0.519   2.547   7.588  0.3252 -0.2369  0.4004
 7451SOL    HW133815   0.461   2.541   7.663 -0.9679 -2.2604 -0.7516
 7451SOL    HW233816   0.454   2.524   7.522  2.3743  0.9756 -2.0655
 7452SOL     OW33817   0.171   3.302   2.186  0.1246 -0.1361 -0.4654
 7452SOL    HW133818   0.179   3.274   2.095  0.7206 -2.0418  0.1680
 7452SOL    HW233819   0.075   3.300   2.192  0.2126  0.5648  1.1634
 7453SOL     OW33820   2.603   4.467   7.111 -0.0841  0.2619 -1.0764
 7453SOL    HW133821   2.665   4.454   7.182 -1.2560 -3.9595 -0.8577
 7453SOL    HW233822   2.582   4.378   7.082 -3.3833  0.7217 -0.1511
 7454SOL     OW33823   1.933   0.702   4.173  0.1811 -0.3375 -1.1243
 7454SOL    HW133824   1.853   0.753   4.183 -0.2226 -1.3557  0.8207
 7454SOL    HW233825   1.917   0.625   4.228 -0.3415 -0.6471 -1.7069
 7455SOL     OW33826   2.650   0.312   6.823  0.0950 -0.2934 -0.3062
 7455SOL    HW133827   2.723   0.338   6.768  0.5662 -2.1504 -0.5713
 7455SOL    HW233828   2.578   0.370   6.798  1.0196  0.3549 -1.4585
 7456SOL     OW33829   3.753   0.640   8.125  0.9880  1.4644  0.2792
 7456SOL    HW133830   3.676   0.671   8.172  0.1023 -2.9998  1.7230
 7456SOL    HW233831   3.712   0.624   8.040 -2.7133  1.1837  2.1272
 7457SOL     OW33832   4.196   2.773   9.128  0.0521 -0.4808 -0.7371
 7457SOL    HW133833   4.118   2.776   9.184  0.5450  1.9104 -0.1770
 7457SOL    HW233834   4.252   2.842   9.165 -1.5118  0.7679 -0.6640
 7458SOL     OW33835   0.719   1.286  16.130 -0.3782  0.0580 -0.5286
 7458SOL    HW133836   0.668   1.226  16.075 -1.0416  0.9941 -0.9326
 7458SOL    HW233837   0.659   1.355  16.158  0.3770 -0.5068  2.4568
 7459SOL     OW33838   1.150   1.354  16.585 -0.5117 -0.0949 -0.2241
 7459SOL    HW133839   1.104   1.283  16.630 -1.8298  0.5631 -0.5350
 7459SOL    HW233840   1.175   1.401  16.665 -1.9421  0.2649  0.0155
 7460SOL     OW33841   1.862   0.967   6.058  0.1418 -0.4418  0.7954
 7460SOL    HW133842   1.890   1.043   6.007  0.9960 -0.1056  1.7681
 7460SOL    HW233843   1.921   0.958   6.132 -0.1760  2.1416  1.3555
 7461SOL     OW33844   1.555   4.704  12.486  0.3586 -0.4138 -0.7559
 7461SOL    HW133845   1.642   4.667  12.472 -0.5420 -3.3757  1.5744
 7461SOL    HW233846   1.521   4.669  12.568  0.6952  1.3228  0.1192
 7462SOL     OW33847   0.254   2.090   5.055 -0.1184 -0.5933  0.5128
 7462SOL    HW133848   0.182   2.047   5.101 -0.2351  0.9709  1.8037
 7462SOL    HW233849   0.266   2.036   4.977  1.3342  0.5093 -0.0116
 7463SOL     OW33850   3.428   2.354   1.236  0.3959 -0.1254  0.0916
 7463SOL    HW133851   3.493   2.397   1.180 -0.4210  1.6944  0.5477
 7463SOL    HW233852   3.353   2.413   1.238  1.1332  0.8149 -0.2288
 7464SOL     OW33853   2.031   2.896   8.407  0.0484 -0.0726 -0.1997
 7464SOL    HW133854   2.099   2.907   8.473  1.4119 -0.6231 -1.4967
 7464SOL    HW233855   2.041   2.803   8.385 -3.3305 -0.5320  0.2653
 7465SOL     OW33856   3.076   1.880   7.428 -0.3661  0.6763 -0.3913
 7465SOL    HW133857   3.059   1.931   7.507 -0.4904  1.1775 -0.7348
 7465SOL    HW233858   3.039   1.946   7.368 -1.7012 -2.0686 -2.5725
 7466SOL     OW33859   1.725   0.017   7.269  0.1623 -0.5441  0.0219
 7466SOL    HW133860   1.672   4.718   7.191 -1.4642  1.0895  0.6898
 7466SOL    HW233861   1.768   0.099   7.243 -0.2150 -1.1433 -2.5499
 7467SOL     OW33862   4.064   4.471  11.261  0.2020  0.5645  0.0700
 7467SOL    HW133863   4.090   4.526  11.336  2.0102  0.0952 -0.2109
 7467SOL    HW233864   4.110   4.507  11.185  4.1737 -0.5729  1.9239
 7468SOL     OW33865   3.722   2.349   6.506  0.0325 -1.0594  0.1528
 7468SOL    HW133866   3.639   2.326   6.548 -0.8324  2.2012  0.2218
 7468SOL    HW233867   3.750   2.411   6.572 -1.3057  1.7228 -1.9211
 7469SOL     OW33868   0.898   1.351  11.013  0.3452  0.7431 -0.6319
 7469SOL    HW133869   0.987   1.384  11.025  0.6973 -0.2389 -0.5132
 7469SOL    HW233870   0.856   1.424  10.968 -2.8709  0.5867  2.1275
 7470SOL     OW33871   0.350   3.828  11.403 -0.0484 -0.0704  0.0553
 7470SOL    HW133872   0.407   3.772  11.350 -3.5237  0.8054 -4.5418
 7470SOL    HW233873   0.287   3.763  11.435  0.1745 -0.7885 -0.9675
 7471SOL     OW33874   4.360   3.997   7.535 -0.1387  0.2991  0.2808
 7471SOL    HW133875   4.406   3.974   7.455 -0.8983  0.4573 -0.2018
 7471SOL    HW233876   4.432   4.041   7.582 -0.1992 -0.8052  1.4076
 7472SOL     OW33877   4.393   3.721   1.796  0.3098  0.1713  0.4409
 7472SOL    HW133878   4.446   3.799   1.813 -0.4044  0.9990 -1.0400
 7472SOL    HW233879   4.404   3.665   1.872 -1.6635 -0.3386  0.3436
 7473SOL     OW33880   2.981   4.166   3.971 -0.4523 -0.4871  0.2371
 7473SOL    HW133881   3.023   4.251   3.986 -0.2079 -0.8371  1.5890
 7473SOL    HW233882   2.947   4.139   4.056  2.1515  1.0352  1.7788
 7474SOL     OW33883   4.088   1.836   6.695 -0.1873 -0.3344  0.0166
 7474SOL    HW133884   4.032   1.809   6.768 -0.8610 -0.1870 -0.4505
 7474SOL    HW233885   4.124   1.918   6.731  0.0780 -1.0453  1.3964
 7475SOL     OW33886   4.222   3.758   6.354  0.2113  0.5904 -0.2369
 7475SOL    HW133887   4.130   3.748   6.378  0.6890 -1.4383  0.8383
 7475SOL    HW233888   4.256   3.765   6.444  0.2018  2.4221 -0.3875
 7476SOL     OW33889   3.688   4.621  16.059  0.2048 -0.0536  0.1591
 7476SOL    HW133890   3.646   4.667  16.132  0.5809  1.2117 -0.4107
 7476SOL    HW233891   3.703   4.693  15.998  0.8729 -0.8647 -0.6211
 7477SOL     OW33892   1.383   4.333   2.409 -0.1397  0.0768  0.4963
 7477SOL    HW133893   1.290   4.347   2.392  0.0186  1.5734  0.7941
 7477SOL    HW233894   1.427   4.356   2.328  0.1771 -1.9163  0.1141
 7478SOL     OW33895   2.392   2.386   0.629  0.0267 -0.0246 -0.0012
 7478SOL    HW133896   2.454   2.313   0.631  0.8520  0.6641  0.0375
 7478SOL    HW233897   2.369   2.390   0.536 -1.5747 -1.6304  0.3414
 7479SOL     OW33898   0.108   1.513   1.693  0.2655  0.4286 -0.3682
 7479SOL    HW133899   0.136   1.570   1.622 -1.5284  0.6754 -0.8886
 7479SOL    HW233900   0.013   1.524   1.688  0.2735  1.2911  1.5206
 7480SOL     OW33901   2.176   2.554   7.824  0.2947 -0.1301  0.5754
 7480SOL    HW133902   2.098   2.608   7.813  0.0664 -1.0692 -2.4342
 7480SOL    HW233903   2.244   2.567   7.758 -0.8500  0.8762 -0.3952
 7481SOL     OW33904   0.832   1.001   5.277  0.3389 -0.5069 -0.3183
 7481SOL    HW133905   0.913   0.955   5.299  1.4613  0.3579 -2.5593
 7481SOL    HW233906   0.850   1.026   5.186  1.5136  1.0366  0.3428
 7482SOL     OW33907   2.043   0.499  13.453  0.5337 -0.3386  0.0944
 7482SOL    HW133908   2.061   0.589  13.482  1.3271 -0.4509 -0.0326
 7482SOL    HW233909   1.991   0.477  13.530 -1.1953 -0.0737 -0.9908
 7483SOL     OW33910   2.725   0.313  12.122  0.2235 -0.1832 -0.1401
 7483SOL    HW133911   2.768   0.284  12.042 -1.9860 -0.5465 -1.1979
 7483SOL    HW233912   2.800   0.320  12.181  0.3432 -2.4523 -0.0425
 7484SOL     OW33913   2.214   2.201   3.834 -0.0187  0.1049 -0.0741
 7484SOL    HW133914   2.136   2.216   3.781 -0.7717 -1.5107  0.5900
 7484SOL    HW233915   2.269   2.140   3.785  0.6938  1.0398 -0.4552
 7485SOL     OW33916   1.693   3.970  14.482  0.3483  0.0420  0.6099
 7485SOL    HW133917   1.787   3.964  14.498  0.2393  1.9849  2.0481
 7485SOL    HW233918   1.680   4.064  14.493 -2.9048 -0.4135  0.6941
 7486SOL     OW33919   2.775   1.443   7.442 -0.0626  0.0879 -0.7421
 7486SOL    HW133920   2.700   1.478   7.394 -0.7983 -1.7744 -0.9515
 7486SOL    HW233921   2.821   1.398   7.371 -2.1068 -1.9270 -0.8008
 7487SOL     OW33922   1.089   1.169   0.389  0.0259 -0.0035 -0.2813
 7487SOL    HW133923   1.082   1.113   0.466 -0.5614 -1.6884 -1.5305
 7487SOL    HW233924   1.138   1.244   0.422 -3.3320  2.4591 -0.9620
 7488SOL     OW33925   1.808   1.457   5.324 -0.3645 -0.1396 -0.2814
 7488SOL    HW133926   1.794   1.363   5.320  1.6224 -0.3814 -1.4584
 7488SOL    HW233927   1.780   1.473   5.234  1.2411  1.1006 -0.5654
 7489SOL     OW33928   4.174   4.492   3.702 -0.0266  0.4260 -0.5470
 7489SOL    HW133929   4.121   4.462   3.776  2.3079  2.9392  2.1475
 7489SOL    HW233930   4.249   4.433   3.699  0.6132  1.2067  0.2170
 7490SOL     OW33931   2.876   3.585  17.574  0.3064  0.1794 -0.2721
 7490SOL    HW133932   2.798   3.635  17.597 -1.3587 -2.4779 -0.1130
 7490SOL    HW233933   2.903   3.540  17.654  1.2540 -0.3965 -0.9184
 7491SOL     OW33934   1.298   0.498   2.924  0.0841  0.4052 -0.3613
 7491SOL    HW133935   1.267   0.563   2.862  0.9897  0.5873 -0.6282
 7491SOL    HW233936   1.220   0.443   2.930 -0.8396  1.4973 -2.4637
 7492SOL     OW33937   1.390   4.532   7.076  0.2879  0.5468  0.6297
 7492SOL    HW133938   1.471   4.581   7.058 -1.0790  2.3638 -0.5500
 7492SOL    HW233939   1.403   4.501   7.165  0.3126 -0.4669  0.2770
 7493SOL     OW33940   2.587   2.799   4.479  0.3044 -0.7047  0.0289
 7493SOL    HW133941   2.614   2.851   4.403  0.2705 -2.0071 -0.8832
 7493SOL    HW233942   2.606   2.714   4.438  0.7328 -0.1506 -0.9299
 7494SOL     OW33943   2.621   2.936   7.125 -0.0092  0.3099 -0.1211
 7494SOL    HW133944   2.616   3.015   7.072 -0.9218 -0.0746 -0.6151
 7494SOL    HW233945   2.534   2.896   7.123  0.3917 -0.5072 -2.0118
 7495SOL     OW33946   2.707   3.766  17.671 -0.3964 -0.5837  0.3992
 7495SOL    HW133947   2.754   3.840  17.633 -0.8287 -0.3966  0.2147
 7495SOL    HW233948   2.615   3.795  17.670  1.0923  3.9639 -1.0745
 7496SOL     OW33949   3.354   0.579  15.789  0.2061  0.0100 -0.1401
 7496SOL    HW133950   3.355   0.647  15.856 -0.9131 -1.8015  1.6737
 7496SOL    HW233951   3.286   0.616  15.733 -0.2285 -2.1948 -1.0730
 7497SOL     OW33952   3.612   0.959   7.517  0.4439  0.0457 -0.6936
 7497SOL    HW133953   3.652   1.032   7.564  0.4669  0.8642 -2.0035
 7497SOL    HW233954   3.586   0.999   7.434 -1.9009  0.9314  0.4602
 7498SOL     OW33955   0.148   1.033   5.190  0.2233 -0.2059 -0.2671
 7498SOL    HW133956   0.226   0.982   5.168 -0.6986 -2.3395  1.4004
 7498SOL    HW233957   0.147   1.092   5.115  1.3843  2.1821  1.6159
 7499SOL     OW33958   2.418   1.619  12.128 -0.0679  0.0519  0.2654
 7499SOL    HW133959   2.375   1.691  12.082 -0.6300 -0.1292  0.5211
 7499SOL    HW233960   2.431   1.646  12.219  1.4719 -0.4020  0.1886
 7500SOL     OW33961   4.610   2.325   9.368 -0.4251 -0.0503 -0.1920
 7500SOL    HW133962   4.651   2.280   9.442  0.4386 -2.0116 -1.8701
 7500SOL    HW233963   4.561   2.254   9.326 -0.6892  0.2384 -0.3722
 7501SOL     OW33964   2.587   0.683   9.364  0.1642  0.4391  0.3548
 7501SOL    HW133965   2.600   0.612   9.427  1.5932  0.8590  0.5326
 7501SOL    HW233966   2.580   0.635   9.281  1.2362 -0.9072  1.0493
 7502SOL     OW33967   3.841   2.377  11.527  0.3399 -0.1169 -0.0679
 7502SOL    HW133968   3.793   2.294  11.524 -0.3269  0.2780 -0.3842
 7502SOL    HW233969   3.838   2.400  11.620  0.5568 -0.6956  0.0851
 7503SOL     OW33970   4.503   4.614  13.700 -0.6558 -0.2698  0.3240
 7503SOL    HW133971   4.529   4.586  13.612 -2.3099  1.2081 -0.6171
 7503SOL    HW233972   4.524   4.707  13.698 -1.4163 -0.0501  2.4662
 7504SOL     OW33973   4.002   1.151   8.314  0.3649 -0.1741  0.0427
 7504SOL    HW133974   4.018   1.212   8.242 -0.7146 -1.9577 -1.6959
 7504SOL    HW233975   3.983   1.202   8.393 -0.3605 -0.3715 -0.0032
 7505SOL     OW33976   2.526   0.456  13.758 -0.0081 -0.1991  0.5518
 7505SOL    HW133977   2.532   0.517  13.831 -1.2907  2.2714 -1.3895
 7505SOL    HW233978   2.468   0.507  13.702 -1.1407 -1.5604  0.4833
 7506SOL     OW33979   3.900   2.463  16.677  0.2746 -0.2958 -0.2580
 7506SOL    HW133980   3.861   2.524  16.740 -1.4803 -0.3328 -1.3007
 7506SOL    HW233981   3.929   2.516  16.603  3.2174  0.8462  1.6993
 7507SOL     OW33982   0.495   3.237   0.868 -0.5764 -0.5059 -0.4697
 7507SOL    HW133983   0.566   3.190   0.913  0.0583 -0.8072 -1.8093
 7507SOL    HW233984   0.479   3.169   0.803 -2.2025 -0.4203 -0.1567
 7508SOL     OW33985   2.168   0.854   4.191 -0.4564 -0.0357  0.3378
 7508SOL    HW133986   2.206   0.793   4.255 -0.4697 -2.1144 -1.6668
 7508SOL    HW233987   2.095   0.802   4.158  0.5806 -1.8218  0.8353
 7509SOL     OW33988   0.550   1.246   9.200 -0.0324 -0.3965  0.1170
 7509SOL    HW133989   0.552   1.223   9.293  0.4540  0.5197  0.3271
 7509SOL    HW233990   0.593   1.331   9.202  0.7592 -0.8182  1.2639
 7510SOL     OW33991   1.226   2.998   7.140  0.6131 -0.0089  0.0186
 7510SOL    HW133992   1.223   2.921   7.084 -0.9701 -0.3745  0.5997
 7510SOL    HW233993   1.154   3.047   7.100  1.5764  0.1551 -1.5358
 7511SOL     OW33994   2.559   3.695   9.379  0.2876  0.4463  0.1625
 7511SOL    HW133995   2.469   3.676   9.351  0.6232 -0.1241 -0.5265
 7511SOL    HW233996   2.609   3.651   9.311  0.1087 -2.2733  1.8054
 7512SOL     OW33997   0.781   1.094  12.093 -0.3343 -0.5983 -0.1682
 7512SOL    HW133998   0.798   1.038  12.017  1.2844  0.7998 -0.8170
 7512SOL    HW233999   0.868   1.133  12.103 -0.2038 -0.5184 -1.7078
 7513SOL     OW34000   0.271   2.875  13.166  0.1860  0.5104 -0.0801
 7513SOL    HW134001   0.288   2.840  13.079  1.6648  1.2231 -0.0822
 7513SOL    HW234002   0.220   2.955  13.150  1.1947  0.6508 -2.6043
 7514SOL     OW34003   3.876   1.133   4.488  0.1341  0.0248 -0.6939
 7514SOL    HW134004   3.822   1.172   4.557 -0.5078  0.0668 -1.2279
 7514SOL    HW234005   3.860   1.039   4.497 -0.2972  0.1529 -0.1198
 7515SOL     OW34006   3.473   1.927   6.943  0.1864 -0.3715  0.2980
 7515SOL    HW134007   3.524   2.004   6.916 -0.3391 -0.1267 -0.0031
 7515SOL    HW234008   3.403   1.923   6.878 -0.3193  0.9641  0.7655
 7516SOL     OW34009   2.416   1.134   6.480 -0.2798  0.5563 -0.6619
 7516SOL    HW134010   2.394   1.217   6.438 -0.0345  0.5304 -0.8359
 7516SOL    HW234011   2.419   1.081   6.401  3.3780  0.7224 -0.6198
 7517SOL     OW34012   4.164   1.890   6.160 -0.1408 -0.1581 -0.5790
 7517SOL    HW134013   4.183   1.801   6.189 -0.2124 -0.0272 -0.1270
 7517SOL    HW234014   4.084   1.890   6.212  0.5677 -0.9485  0.5128
 7518SOL     OW34015   0.515   1.554  10.335  0.2246  0.4099 -0.0172
 7518SOL    HW134016   0.572   1.607  10.391 -0.3529 -2.0714  2.8984
 7518SOL    HW234017   0.447   1.617  10.311 -1.5605 -0.8366  1.7398
 7519SOL     OW34018   3.301   3.935   6.944 -0.2876  0.0310  0.6584
 7519SOL    HW134019   3.291   3.962   7.035 -0.5229  1.4127  0.2150
 7519SOL    HW234020   3.362   3.862   6.955 -0.8198 -0.3493  1.0764
 7520SOL     OW34021   0.261   4.504   3.287 -0.2033 -0.4491 -0.2169
 7520SOL    HW134022   0.227   4.506   3.377  0.3031  2.0520 -0.0753
 7520SOL    HW234023   0.346   4.460   3.292  0.5434  1.1582  1.4045
 7521SOL     OW34024   2.357   0.450  12.392  0.8095  0.3353  0.2661
 7521SOL    HW134025   2.315   0.532  12.365  1.8543  1.3826  1.8142
 7521SOL    HW234026   2.391   0.481  12.476  1.5099  0.2981 -0.0074
 7522SOL     OW34027   3.985   0.956   2.685  0.0528  0.3650  0.3779
 7522SOL    HW134028   4.025   1.038   2.656 -0.7247  0.8201  0.5791
 7522SOL    HW234029   3.898   0.976   2.651  0.3246 -2.9028 -2.2368
 7523SOL     OW34030   1.068   4.332   3.562 -0.5148  0.1739  0.4413
 7523SOL    HW134031   1.135   4.368   3.504  1.2573 -1.9558  1.2070
 7523SOL    HW234032   1.014   4.410   3.576 -1.9789 -0.7977  0.2669
 7524SOL     OW34033   3.002   3.992  13.796 -0.4060  0.5001  0.1848
 7524SOL    HW134034   2.973   4.081  13.815  0.0263  1.2083 -2.4096
 7524SOL    HW234035   3.060   3.998  13.720 -0.1639  0.8219  0.3993
 7525SOL     OW34036   3.883   1.273   8.551 -0.4663 -0.1639  0.2402
 7525SOL    HW134037   3.794   1.265   8.518 -0.9177  2.0125  0.9321
 7525SOL    HW234038   3.904   1.188   8.589  0.9279  1.1084  2.3442
 7526SOL     OW34039   2.515   1.581  11.701 -0.3486  0.0063 -0.1358
 7526SOL    HW134040   2.431   1.540  11.718  0.4152 -1.1346  0.8823
 7526SOL    HW234041   2.506   1.602  11.608 -0.2082 -1.6899 -0.5343
 7527SOL     OW34042   3.903   0.297  15.713 -0.1710  0.2101 -0.0284
 7527SOL    HW134043   3.865   0.333  15.793 -0.3909  0.1926 -0.1247
 7527SOL    HW234044   3.851   0.336  15.643 -0.6430 -2.0249 -0.9149
 7528SOL     OW34045   2.924   3.859   3.127  0.1663 -0.6912  0.1294
 7528SOL    HW134046   2.983   3.934   3.133 -2.1180  0.9097  2.8940
 7528SOL    HW234047   2.939   3.836   3.035 -0.7450  2.9126 -0.8937
 7529SOL     OW34048   1.684   1.444   4.596 -0.2536  0.1888 -0.7306
 7529SOL    HW134049   1.620   1.393   4.545  0.4758  0.4808 -1.9225
 7529SOL    HW234050   1.709   1.384   4.667  0.4600  1.6813  0.2837
 7530SOL     OW34051   1.494   2.057  11.956 -0.5024  0.2421  0.3455
 7530SOL    HW134052   1.492   2.141  12.002 -0.2488  0.1261  0.5627
 7530SOL    HW234053   1.423   2.059  11.891 -0.4222  1.5221  0.2950
 7531SOL     OW34054   0.277   4.057   8.707 -0.4499  0.1363 -0.3837
 7531SOL    HW134055   0.191   4.072   8.747  0.1709  1.1721  0.5356
 7531SOL    HW234056   0.298   4.126   8.645  0.8067 -0.7914 -0.9846
 7532SOL     OW34057   0.365   0.823  17.627  0.1630 -0.2757 -0.6214
 7532SOL    HW134058   0.420   0.797  17.553 -0.2178  0.0344 -1.0169
 7532SOL    HW234059   0.283   0.786  17.595  0.0620 -1.3264  0.9158
 7533SOL     OW34060   2.997   3.542   6.331  0.1327 -0.3235 -0.2054
 7533SOL    HW134061   3.056   3.534   6.405 -0.2227 -0.0337  0.1039
 7533SOL    HW234062   2.940   3.613   6.360 -1.4344 -0.7332 -2.1906
 7534SOL     OW34063   1.446   0.648  10.612  0.8151  0.2613 -0.2477
 7534SOL    HW134064   1.458   0.630  10.705 -4.0889  0.0968  0.3655
 7534SOL    HW234065   1.358   0.611  10.610  0.1924  1.6237  1.8719
 7535SOL     OW34066   0.020   4.142  10.551  0.6355  0.5037  0.0401
 7535SOL    HW134067   0.080   4.195  10.603  1.1309 -1.0942  1.0934
 7535SOL    HW234068   0.001   4.077  10.619 -3.3930  0.9871 -0.6218
 7536SOL     OW34069   1.073   1.880  11.686  0.5422 -0.1937 -0.0414
 7536SOL    HW134070   1.013   1.876  11.611 -1.0761 -1.6441  1.3398
 7536SOL    HW234071   1.077   1.789  11.715 -0.3443 -0.1240  0.3029
 7537SOL     OW34072   2.609   2.262   3.487  0.1330  0.0518 -0.0184
 7537SOL    HW134073   2.645   2.186   3.442 -1.4859 -0.9246  0.3148
 7537SOL    HW234074   2.686   2.314   3.509  1.3493 -1.2551 -1.1919
 7538SOL     OW34075   1.209   4.440   6.523 -0.0248 -0.0026 -0.4524
 7538SOL    HW134076   1.226   4.474   6.435  0.3215 -1.7630 -1.0618
 7538SOL    HW234077   1.264   4.505   6.567 -0.6800  1.0140 -1.1537
 7539SOL     OW34078   3.117   2.730  14.707  0.7379  0.1758 -0.3602
 7539SOL    HW134079   3.050   2.721  14.774 -0.6596  0.1966 -1.7442
 7539SOL    HW234080   3.077   2.677  14.638 -1.5116 -0.0941  1.1862
 7540SOL     OW34081   2.771   2.889   4.048  0.1430 -0.0349 -0.1351
 7540SOL    HW134082   2.753   2.821   3.983  0.5045 -0.3545  0.1018
 7540SOL    HW234083   2.866   2.891   4.057 -0.2018 -1.3844  3.8235
 7541SOL     OW34084   3.870   0.412   5.472 -0.3377 -0.1384  0.0370
 7541SOL    HW134085   3.887   0.323   5.502 -2.6990 -0.5589  0.1535
 7541SOL    HW234086   3.787   0.438   5.512 -0.0691  0.3370  0.2724
 7542SOL     OW34087   2.105   2.018   4.229 -0.1078  0.4773 -0.0582
 7542SOL    HW134088   2.105   1.994   4.322 -3.5504 -0.6151 -0.3153
 7542SOL    HW234089   2.199   2.016   4.215 -0.0497  1.2025  0.2246
 7543SOL     OW34090   3.022   1.896   5.828  0.1662  0.4365  0.3152
 7543SOL    HW134091   3.094   1.863   5.881 -0.9222 -0.6053  1.1531
 7543SOL    HW234092   2.949   1.861   5.881  0.3997  2.2811  1.8421
 7544SOL     OW34093   0.523   4.293   2.156 -0.1129  0.5407  0.4502
 7544SOL    HW134094   0.550   4.372   2.110 -1.0767 -0.6636 -2.2133
 7544SOL    HW234095   0.603   4.251   2.187 -1.1877 -1.4270  0.6030
 7545SOL     OW34096   1.251   3.581  13.777  0.1205 -0.3258 -0.8265
 7545SOL    HW134097   1.263   3.489  13.757 -3.0128 -1.1949  1.2092
 7545SOL    HW234098   1.212   3.618  13.697  2.0303 -0.9312 -2.0362
 7546SOL     OW34099   3.364   0.826   6.653  0.8931  0.1870  0.0916
 7546SOL    HW134100   3.271   0.809   6.640  0.9540 -0.2520  0.2159
 7546SOL    HW234101   3.388   0.820   6.561  0.5591 -0.7458  0.0643
 7547SOL     OW34102   1.480   0.229   4.974 -0.2847 -0.4074  0.7656
 7547SOL    HW134103   1.448   0.181   4.898 -0.8479  2.0265 -0.5423
 7547SOL    HW234104   1.502   0.306   4.922  1.0159 -1.1359  0.2526
 7548SOL     OW34105   3.942   4.286  17.530 -0.8386 -0.2927 -0.1374
 7548SOL    HW134106   3.871   4.250  17.478  0.9591 -2.4166 -1.1429
 7548SOL    HW234107   3.936   4.237  17.612  1.7662 -0.0441  0.2234
 7549SOL     OW34108   3.179   1.919   2.820  0.4085 -0.4625 -0.3633
 7549SOL    HW134109   3.223   1.836   2.802  1.2667 -0.5464  2.0552
 7549SOL    HW234110   3.141   1.945   2.736  0.4857  0.2233 -0.1846
 7550SOL     OW34111   1.701   1.465   7.879 -0.3065 -0.1522 -0.4136
 7550SOL    HW134112   1.774   1.525   7.863 -0.9474  0.5866 -0.5465
 7550SOL    HW234113   1.740   1.427   7.958 -0.1169 -2.6358 -1.7223
 7551SOL     OW34114   0.146   1.559   3.574 -0.2123 -0.7541  0.0162
 7551SOL    HW134115   0.229   1.595   3.603  0.9160 -1.5828 -2.1495
 7551SOL    HW234116   0.174   1.496   3.507 -1.2319 -0.7591 -0.4221
 7552SOL     OW34117   4.341   2.057   5.382 -0.3268 -0.4899  0.5869
 7552SOL    HW134118   4.386   2.133   5.420 -0.7316 -1.3505  2.7808
 7552SOL    HW234119   4.311   2.094   5.299  0.1800 -1.8649 -0.1913
 7553SOL     OW34120   1.253   1.382  16.350 -0.2269 -0.3400 -0.6962
 7553SOL    HW134121   1.230   1.375  16.443 -0.1268  0.4391 -0.6119
 7553SOL    HW234122   1.228   1.292  16.329  0.4889 -0.7825  0.3074
 7554SOL     OW34123   0.812   1.972   3.821 -0.9466 -0.0699  0.3716
 7554SOL    HW134124   0.821   1.896   3.764 -0.1052 -0.2185  0.7050
 7554SOL    HW234125   0.891   2.018   3.793 -0.5662  1.2226  3.5137
 7555SOL     OW34126   0.143   2.171   6.822  0.5109  0.0555 -0.0404
 7555SOL    HW134127   0.215   2.190   6.882  1.8600 -0.4160 -1.5110
 7555SOL    HW234128   0.174   2.223   6.747 -0.4491  0.8200  0.0926
 7556SOL     OW34129   2.173   3.426   4.515 -0.4353  0.3507  0.8863
 7556SOL    HW134130   2.147   3.359   4.578  1.7990 -0.2382  1.2054
 7556SOL    HW234131   2.193   3.494   4.580  0.3560  1.6625 -0.7348
 7557SOL     OW34132   3.934   4.491   7.251 -0.3531 -0.9763  0.2258
 7557SOL    HW134133   3.900   4.527   7.333  2.5749  2.5787 -0.1465
 7557SOL    HW234134   4.024   4.524   7.259  0.1020 -2.4182  1.1776
 7558SOL     OW34135   1.746   0.720   3.380  0.2701  0.7375  0.0585
 7558SOL    HW134136   1.677   0.781   3.404 -0.6653  0.0189 -0.7848
 7558SOL    HW234137   1.710   0.667   3.308  0.5389  0.3221  0.2303
 7559SOL     OW34138   0.959   1.268  15.980  0.1734  0.1449  0.1605
 7559SOL    HW134139   0.962   1.340  15.917  0.5995 -0.2819 -0.3118
 7559SOL    HW234140   0.880   1.284  16.031 -0.2879 -2.1023  0.1362
 7560SOL     OW34141   3.468   1.228   0.290  0.0569  0.0965 -0.1811
 7560SOL    HW134142   3.542   1.263   0.240 -1.3827  1.5075 -1.2948
 7560SOL    HW234143   3.527   1.221   0.366  2.2641  1.4426 -1.7623
 7561SOL     OW34144   0.947   3.242  16.907  0.1629  0.0372  0.1668
 7561SOL    HW134145   0.887   3.256  16.834 -0.2716  1.0154  0.7212
 7561SOL    HW234146   0.892   3.204  16.976  0.9002 -0.5494  0.4310
 7562SOL     OW34147   4.328   2.364  14.398  0.0678  0.2767 -0.0238
 7562SOL    HW134148   4.240   2.392  14.373  1.2018  2.3739 -1.5977
 7562SOL    HW234149   4.317   2.301  14.470 -2.4664  1.8984  1.0024
 7563SOL     OW34150   3.340   0.832   7.434  0.4070 -1.0315 -0.2817
 7563SOL    HW134151   3.339   0.907   7.375  0.4064 -1.7170 -1.1683
 7563SOL    HW234152   3.371   0.885   7.507  0.3980  0.0474 -1.0598
 7564SOL     OW34153   0.777   3.020   8.443  0.1958 -0.3544  0.8768
 7564SOL    HW134154   0.726   3.067   8.509 -0.8591  2.5542 -2.0056
 7564SOL    HW234155   0.725   2.940   8.434 -0.7842  0.1968  1.6763
 7565SOL     OW34156   0.865   0.512   7.962  0.0356  0.4498 -0.4987
 7565SOL    HW134157   0.820   0.464   7.894 -0.5678 -1.1124  1.0046
 7565SOL    HW234158   0.886   0.594   7.917 -1.9100  0.6065 -1.1245
 7566SOL     OW34159   0.544   1.472   6.346  0.2825  0.1781  0.2884
 7566SOL    HW134160   0.568   1.385   6.313  1.9464  0.4103  0.8564
 7566SOL    HW234161   0.580   1.525   6.275  2.5921 -0.2972  1.1049
 7567SOL     OW34162   0.396   0.359   8.373 -0.1171  0.2388 -0.1076
 7567SOL    HW134163   0.475   0.397   8.410 -1.6333  2.5821  0.7122
 7567SOL    HW234164   0.377   0.437   8.321 -0.3912  2.5045  3.4013
 7568SOL     OW34165   2.053   2.264   0.029 -0.2380 -0.0681 -0.0993
 7568SOL    HW134166   1.961   2.259   0.004 -0.0233 -0.6176 -0.7887
 7568SOL    HW234167   2.049   2.284   0.122 -1.4959  0.9129 -0.3665
 7569SOL     OW34168   2.175   2.616   0.133  0.0887 -0.4112  0.0444
 7569SOL    HW134169   2.164   2.686   0.198 -0.2622  0.6942 -1.2043
 7569SOL    HW234170   2.215   2.661   0.059 -0.2600 -1.4771 -0.7794
 7570SOL     OW34171   1.428   1.286  16.135 -0.1619 -0.5363 -0.2559
 7570SOL    HW134172   1.395   1.199  16.157 -0.0207 -0.1422  1.5412
 7570SOL    HW234173   1.374   1.309  16.059 -2.8526 -0.1701  1.7927
 7571SOL     OW34174   3.303   3.823   0.314  0.2856 -0.0341  0.5648
 7571SOL    HW134175   3.358   3.749   0.340  0.2017 -0.4661 -0.4996
 7571SOL    HW234176   3.359   3.862   0.248 -0.5455 -0.5896 -0.4754
 7572SOL     OW34177   3.566   0.424  15.864 -0.1460  0.1417  0.2348
 7572SOL    HW134178   3.528   0.506  15.833  1.1968  0.8866  0.5721
 7572SOL    HW234179   3.510   0.359  15.823  0.6897 -0.8206  0.6079
 7573SOL     OW34180   0.912   2.328   3.646 -0.4842  0.4032  0.3072
 7573SOL    HW134181   0.936   2.240   3.675  0.5766  0.7722  0.5375
 7573SOL    HW234182   1.000   2.364   3.639  0.1795 -1.4683 -1.1819
 7574SOL     OW34183   2.280   2.971  14.804  0.3498  0.6808  0.1469
 7574SOL    HW134184   2.359   3.025  14.808 -0.0722  1.3839 -1.2382
 7574SOL    HW234185   2.298   2.893  14.857  0.2200  0.7830  0.3436
 7575SOL     OW34186   3.066   4.461  10.308 -0.1767  0.4292 -0.3716
 7575SOL    HW134187   2.990   4.452  10.251  0.5149  0.8218 -1.3465
 7575SOL    HW234188   3.066   4.557  10.315  0.0648  0.4915 -1.2973
 7576SOL     OW34189   4.380   2.887  11.559 -0.0269  0.3400  0.0342
 7576SOL    HW134190   4.325   2.963  11.539  0.1206  0.1146 -1.2481
 7576SOL    HW234191   4.331   2.858  11.636  0.9127  1.4133  1.0367
 7577SOL     OW34192   1.788   3.669  16.220  0.6182 -0.0819 -0.2431
 7577SOL    HW134193   1.868   3.705  16.182  0.9751 -0.3412  0.2499
 7577SOL    HW234194   1.721   3.714  16.169  0.4912  0.0328  0.0293
 7578SOL     OW34195   3.580   1.556   4.592  0.5019  0.3275  0.1365
 7578SOL    HW134196   3.633   1.537   4.515  1.9692  0.9738  0.9894
 7578SOL    HW234197   3.642   1.551   4.664 -0.6992  1.6759  1.2742
 7579SOL     OW34198   2.507   2.704  15.839 -0.2879 -0.5043 -0.5331
 7579SOL    HW134199   2.503   2.617  15.878 -0.7609  0.0200  0.5751
 7579SOL    HW234200   2.596   2.707  15.805 -0.8101  1.8444 -1.6460
 7580SOL     OW34201   1.168   2.267  15.868  0.3666 -0.2092 -0.4940
 7580SOL    HW134202   1.245   2.312  15.903  1.8695 -1.9584 -1.5847
 7580SOL    HW234203   1.201   2.196  15.814  1.1551  0.2463 -0.5998
 7581SOL     OW34204   3.810   1.136   5.527  1.3879  0.5645  0.2674
 7581SOL    HW134205   3.827   1.202   5.594  2.2396  1.2556 -0.6193
 7581SOL    HW234206   3.881   1.161   5.466 -0.0084  0.2700 -1.4806
 7582SOL     OW34207   3.657   3.314  16.106 -0.1405 -0.0549  0.0836
 7582SOL    HW134208   3.685   3.244  16.045  2.1101  0.4382  0.5277
 7582SOL    HW234209   3.666   3.389  16.047 -2.2117 -0.2615 -0.5036
 7583SOL     OW34210   0.769   1.941   5.887  0.5826 -0.4422 -0.0858
 7583SOL    HW134211   0.783   1.881   5.814  1.9140 -0.6373  0.3418
 7583SOL    HW234212   0.743   1.888   5.962  0.2338  0.2109  0.2598
 7584SOL     OW34213   0.011   1.213   5.500  0.1271  0.4109  0.0715
 7584SOL    HW134214   4.642   1.215   5.466 -0.1367 -0.7557  0.7192
 7584SOL    HW234215   0.008   1.272   5.575 -0.9492 -3.0192  2.7210
 7585SOL     OW34216   3.485   1.039  17.275 -0.0089 -0.4427 -0.5565
 7585SOL    HW134217   3.566   1.089  17.276 -0.6132  0.5215  0.4295
 7585SOL    HW234218   3.466   1.002  17.362 -0.8837  0.5295 -0.3238
 7586SOL     OW34219   4.240   0.996   0.243  0.1528 -0.0611 -0.3029
 7586SOL    HW134220   4.163   0.943   0.259  0.8337 -0.9676 -0.0356
 7586SOL    HW234221   4.295   0.935   0.193 -0.5026 -1.7702  1.0672
 7587SOL     OW34222   4.363   4.194   5.237 -0.1411 -0.1676  0.3907
 7587SOL    HW134223   4.271   4.202   5.263 -0.0175  2.9914 -0.1656
 7587SOL    HW234224   4.378   4.115   5.288 -2.5450 -1.8286 -1.4393
 7588SOL     OW34225   3.073   2.434   8.830 -0.1698  0.2287 -0.0896
 7588SOL    HW134226   3.164   2.429   8.800 -0.4008  3.3437 -1.3423
 7588SOL    HW234227   3.091   2.433   8.924  1.7728 -1.7124 -0.4826
 7589SOL     OW34228   0.498   0.619   9.086 -0.6523  0.6090  0.1703
 7589SOL    HW134229   0.558   0.608   9.012  0.3124 -0.5921  1.1439
 7589SOL    HW234230   0.414   0.616   9.039 -1.3618 -0.6985  1.5255
 7590SOL     OW34231   2.494   3.952  17.581  0.1542  0.1369  0.2674
 7590SOL    HW134232   2.489   4.009  17.505  0.6820  1.9563  1.6107
 7590SOL    HW234233   2.403   3.938  17.605  0.4142 -1.6517  0.2182
 7591SOL     OW34234   0.007   1.756  15.953  1.2202  0.9007  0.1062
 7591SOL    HW134235   4.700   1.668  15.977 -1.8348  1.6579 -0.6383
 7591SOL    HW234236   0.055   1.732  15.874  1.8423  2.3601  0.0465
 7592SOL     OW34237   2.678   3.356   4.139 -0.1804  0.0961 -0.3877
 7592SOL    HW134238   2.720   3.438   4.165 -0.9389  0.4132 -0.1484
 7592SOL    HW234239   2.749   3.294   4.152  0.1223  0.5463  0.1198
 7593SOL     OW34240   0.460   4.449   6.708 -0.6090  0.0066 -0.0018
 7593SOL    HW134241   0.478   4.454   6.614  0.6326 -1.7294  0.1346
 7593SOL    HW234242   0.365   4.457   6.709 -0.7569 -2.4579  3.3975
 7594SOL     OW34243   4.091   2.084  11.291 -0.2972  0.6180 -0.0640
 7594SOL    HW134244   4.178   2.122  11.303 -0.4374  1.2972 -1.1875
 7594SOL    HW234245   4.043   2.161  11.260 -2.0271  0.5672  2.4474
 7595SOL     OW34246   2.447   3.370  11.580  0.8504  0.5870  0.5087
 7595SOL    HW134247   2.468   3.436  11.514  1.5477 -2.2349 -2.1324
 7595SOL    HW234248   2.415   3.422  11.653  0.6196 -0.5145  1.1961
 7596SOL     OW34249   2.096   1.551   3.905 -0.1886 -0.3107  0.2756
 7596SOL    HW134250   2.028   1.573   3.970 -0.3409 -0.3874  0.1427
 7596SOL    HW234251   2.106   1.459   3.929  0.7132 -0.0704  0.8043
 7597SOL     OW34252   4.424   0.470  10.885 -0.2666  0.4727  0.5217
 7597SOL    HW134253   4.478   0.528  10.832 -1.2105 -1.0354 -2.1286
 7597SOL    HW234254   4.453   0.383  10.856  1.8370  0.3065  3.0434
 7598SOL     OW34255   0.709   2.310   9.415  0.2120 -0.2934 -0.1335
 7598SOL    HW134256   0.771   2.382   9.421 -0.8913  0.6496  0.1256
 7598SOL    HW234257   0.684   2.307   9.507 -0.0072  1.8377 -0.1256
 7599SOL     OW34258   3.173   4.031  16.781 -0.2190  0.3627  0.1218
 7599SOL    HW134259   3.157   3.965  16.714 -2.9605  1.1693 -0.0354
 7599SOL    HW234260   3.090   4.016  16.828  0.0215  0.9548  0.7336
 7600SOL     OW34261   0.813   0.762  14.277 -0.3083  0.0676 -0.3907
 7600SOL    HW134262   0.831   0.785  14.368  0.5450  1.6096 -0.9497
 7600SOL    HW234263   0.754   0.687  14.286  2.2613 -2.0725 -1.2720
 7601SOL     OW34264   3.929   0.595   8.434 -0.2529  0.3902 -0.0017
 7601SOL    HW134265   3.968   0.635   8.512 -0.6800 -0.0163  0.4107
 7601SOL    HW234266   3.944   0.669   8.375 -0.2554 -0.9657 -1.7000
 7602SOL     OW34267   2.519   2.504   6.562  0.7824 -0.5883  0.4508
 7602SOL    HW134268   2.490   2.577   6.616  1.6005 -0.7669  1.1335
 7602SOL    HW234269   2.530   2.437   6.630  0.1068 -1.4190 -0.2473
 7603SOL     OW34270   2.769   3.622   4.193  0.4403  0.3775 -0.5629
 7603SOL    HW134271   2.790   3.629   4.286  0.9948 -0.0530 -0.6550
 7603SOL    HW234272   2.844   3.666   4.154  1.0145  1.4779  1.8308
 7604SOL     OW34273   2.568   0.251   3.759 -0.3258  0.6594 -0.4237
 7604SOL    HW134274   2.533   0.292   3.680  0.2355 -1.0923 -1.5689
 7604SOL    HW234275   2.516   0.172   3.754 -1.6509  1.5152 -0.0152
 7605SOL     OW34276   0.858   1.244   6.362 -0.1646 -0.4037  0.4426
 7605SOL    HW134277   0.766   1.265   6.348 -0.6422 -1.9590  1.2866
 7605SOL    HW234278   0.856   1.170   6.422  1.3700  0.2726  1.3126
 7606SOL     OW34279   3.425   4.629  15.279 -0.4923 -0.0846  0.1058
 7606SOL    HW134280   3.351   4.660  15.227 -2.7057 -1.1806  2.6163
 7606SOL    HW234281   3.485   4.588  15.217 -1.4918 -0.0445 -0.8940
 7607SOL     OW34282   0.063   0.737  12.962  0.3609 -0.0753 -0.0199
 7607SOL    HW134283   4.718   0.684  13.007  1.7011 -0.9459  0.9149
 7607SOL    HW234284   0.109   0.774  13.037 -2.9869  1.2185  1.3789
 7608SOL     OW34285   0.222   3.451   9.027  0.0606 -0.0374 -0.0061
 7608SOL    HW134286   0.141   3.432   9.075 -0.9843  2.2143 -0.8639
 7608SOL    HW234287   0.186   3.524   8.976  0.1688  0.2259  0.2977
 7609SOL     OW34288   1.624   0.233  12.371  0.7773  0.0873 -0.1573
 7609SOL    HW134289   1.686   0.222  12.300  0.6206  0.5994 -0.3784
 7609SOL    HW234290   1.599   0.142  12.390  1.6566  0.0351  0.7376
 7610SOL     OW34291   3.711   4.117   5.403 -0.4350 -0.2589  0.4603
 7610SOL    HW134292   3.618   4.098   5.417  0.4702 -2.7698  3.1842
 7610SOL    HW234293   3.742   4.034   5.367  1.0301 -0.0179  1.1944
 7611SOL     OW34294   1.922   1.172  15.712  0.0969  0.0936 -0.9080
 7611SOL    HW134295   1.997   1.189  15.769 -0.5924  0.1589 -0.0260
 7611SOL    HW234296   1.867   1.249  15.704  0.8555  0.5870 -1.3768
 7612SOL     OW34297   1.020   3.025  10.809 -0.1338 -0.1147  0.4364
 7612SOL    HW134298   0.951   2.959  10.815 -1.6136  1.2438 -1.5017
 7612SOL    HW234299   0.969   3.097  10.846 -0.0217  1.6035 -2.7490
 7613SOL     OW34300   2.398   2.712   9.066  0.1350 -0.5091  0.3567
 7613SOL    HW134301   2.316   2.753   9.095 -0.2973 -1.0279 -0.1129
 7613SOL    HW234302   2.445   2.673   9.139  0.0979  1.3314  1.3614
 7614SOL     OW34303   3.985   2.156   0.658 -0.3975 -0.3364  0.3852
 7614SOL    HW134304   4.011   2.087   0.598 -0.2396  0.1962 -0.1557
 7614SOL    HW234305   4.023   2.228   0.607  0.2916  1.6331  3.6096
 7615SOL     OW34306   0.830   3.519   5.589 -0.5668 -0.3346  0.7451
 7615SOL    HW134307   0.909   3.502   5.538 -1.0506 -1.3387  0.3367
 7615SOL    HW234308   0.771   3.494   5.518  1.1977  0.1615 -0.8578
 7616SOL     OW34309   3.771   2.956  11.420 -0.9636 -0.4472  0.2764
 7616SOL    HW134310   3.759   3.049  11.402 -1.2274 -0.5608 -0.1419
 7616SOL    HW234311   3.756   2.923  11.332 -1.0792  0.1376  0.0752
 7617SOL     OW34312   0.139   2.756   3.142 -0.2151  0.6572 -0.1660
 7617SOL    HW134313   0.056   2.709   3.128 -0.3491  0.4193  1.4185
 7617SOL    HW234314   0.205   2.690   3.122  0.5100  0.8105  1.7029
 7618SOL     OW34315   0.247   3.319  13.240 -0.1692 -0.0450 -0.7998
 7618SOL    HW134316   0.245   3.413  13.225  0.3276  0.3184  1.3611
 7618SOL    HW234317   0.324   3.313  13.296 -1.3419 -0.4913  0.7913
 7619SOL     OW34318   1.952   1.439   6.087 -0.2671 -0.0413 -0.0069
 7619SOL    HW134319   2.039   1.470   6.064 -0.1115 -0.5541 -0.1191
 7619SOL    HW234320   1.900   1.519   6.077 -0.9491 -0.4346  0.3882
 7620SOL     OW34321   0.294   3.324   2.422 -0.0911  0.2698 -0.3479
 7620SOL    HW134322   0.376   3.293   2.385 -0.9682 -0.8054 -1.4101
 7620SOL    HW234323   0.231   3.288   2.360  0.5899  1.7123 -1.8706
 7621SOL     OW34324   1.690   1.414   8.156  0.4831 -0.0894 -0.2320
 7621SOL    HW134325   1.686   1.459   8.240 -0.9565 -0.7423  0.0465
 7621SOL    HW234326   1.649   1.329   8.175  2.0147 -0.8936 -0.5102
 7622SOL     OW34327   3.255   1.524   3.425  0.0853 -0.4135  0.0945
 7622SOL    HW134328   3.296   1.583   3.361 -2.1137  0.5347 -0.4586
 7622SOL    HW234329   3.321   1.455   3.427  0.9884  0.5068  1.6598
 7623SOL     OW34330   1.774   1.014   4.855  0.1061  0.0553  0.1767
 7623SOL    HW134331   1.731   0.935   4.822 -1.8667  1.2678 -0.1533
 7623SOL    HW234332   1.753   1.009   4.949  0.6107  3.4273  0.4613
 7624SOL     OW34333   0.228   1.407  13.016 -0.4220 -0.1255  0.8510
 7624SOL    HW134334   0.258   1.498  13.009  1.9137 -0.9797 -0.2679
 7624SOL    HW234335   0.137   1.437  13.015 -1.4254 -3.0662  2.5349
 7625SOL     OW34336   4.549   1.604   8.286 -0.4128 -0.2945 -0.4547
 7625SOL    HW134337   4.488   1.675   8.265  0.2611  0.1692 -0.8124
 7625SOL    HW234338   4.485   1.547   8.330 -1.9388  3.5692  2.3209
 7626SOL     OW34339   1.375   0.317  14.601 -0.0228 -0.3823 -0.8980
 7626SOL    HW134340   1.338   0.403  14.620 -3.2141 -2.4821  2.3472
 7626SOL    HW234341   1.449   0.320  14.662  0.3488  2.2054 -1.4964
 7627SOL     OW34342   3.058   1.651  11.428 -0.3600 -0.2721 -0.0512
 7627SOL    HW134343   2.978   1.687  11.391 -0.3243 -0.7013 -0.5587
 7627SOL    HW234344   3.111   1.682  11.354  0.0821 -0.4913  0.1758
 7628SOL     OW34345   0.710   0.120   1.968  0.0591  0.2031  0.6344
 7628SOL    HW134346   0.776   0.178   1.931  1.1908 -0.1580  2.1000
 7628SOL    HW234347   0.751   0.103   2.052 -0.7667  0.2960  1.0534
 7629SOL     OW34348   0.713   3.096  10.107  0.0134 -0.4930 -0.5105
 7629SOL    HW134349   0.737   3.188  10.117 -1.9063  0.0064 -0.4519
 7629SOL    HW234350   0.712   3.080  10.202 -2.4981  1.0750 -0.2594
 7630SOL     OW34351   4.507   4.270   5.721 -0.5405 -0.1954  0.1318
 7630SOL    HW134352   4.459   4.188   5.730 -0.2405 -0.5212 -1.2083
 7630SOL    HW234353   4.494   4.285   5.627 -3.3557  0.8513  0.6979
 7631SOL     OW34354   0.831   3.726   6.678  0.1397 -0.4003 -0.0306
 7631SOL    HW134355   0.925   3.737   6.661  0.2983  0.6258  1.5591
 7631SOL    HW234356   0.798   3.815   6.688 -1.3673 -1.1707  1.6860
 7632SOL     OW34357   4.570   0.321  12.767 -0.0215  0.1655  0.4111
 7632SOL    HW134358   4.602   0.331  12.677 -0.2594  0.5966  0.3722
 7632SOL    HW234359   4.509   0.396  12.767  2.2533  2.0170 -2.5574
 7633SOL     OW34360   4.092   2.452   7.546  0.1651  0.0326  0.7051
 7633SOL    HW134361   4.092   2.472   7.639 -1.1544 -0.6573  0.8598
 7633SOL    HW234362   4.007   2.484   7.515  0.5594  1.5439  1.1902
 7634SOL     OW34363   3.428   1.636   6.350  0.0233  0.4922  0.3700
 7634SOL    HW134364   3.379   1.557   6.328 -0.7265  0.7938  0.9312
 7634SOL    HW234365   3.513   1.600   6.375  0.8768  1.4549 -1.1867
 7635SOL     OW34366   3.960   0.201   5.576 -0.4608  0.2381  0.4430
 7635SOL    HW134367   3.956   0.106   5.563  0.7670  0.4718 -1.6292
 7635SOL    HW234368   4.044   0.206   5.623 -0.0023 -1.8410 -0.1371
 7636SOL     OW34369   1.183   2.082   5.186 -0.3542 -0.1097 -0.0018
 7636SOL    HW134370   1.178   2.144   5.259  0.0832 -2.0152  1.6379
 7636SOL    HW234371   1.100   2.087   5.139  0.3568 -1.5688 -1.4155
 7637SOL     OW34372   0.874   4.649   6.168 -0.2678 -0.2022 -0.3025
 7637SOL    HW134373   0.897   4.635   6.260 -0.4238  2.3801  0.1193
 7637SOL    HW234374   0.790   4.603   6.172 -0.5708  0.5259  1.3382
 7638SOL     OW34375   4.018   1.236   2.696  1.0870 -0.2707  0.5101
 7638SOL    HW134376   3.927   1.236   2.664  0.5768  1.5885  1.9914
 7638SOL    HW234377   4.065   1.315   2.670  0.5576 -0.1551 -0.1133
 7639SOL     OW34378   0.120   1.835   6.515  0.1191  0.2984  0.3575
 7639SOL    HW134379   0.119   1.823   6.420 -0.8170 -1.1598  0.5441
 7639SOL    HW234380   0.192   1.896   6.528  0.8979 -0.2194 -1.4520
 7640SOL     OW34381   3.047   4.272   4.717 -0.1152  0.1123  0.0443
 7640SOL    HW134382   2.964   4.225   4.704  0.1335 -0.3540  0.1424
 7640SOL    HW234383   3.102   4.204   4.756  2.0835  1.4003 -0.8018
 7641SOL     OW34384   3.798   2.969  10.249  0.0196  0.2842  0.0937
 7641SOL    HW134385   3.722   2.954  10.193 -1.0273 -1.9549  2.0880
 7641SOL    HW234386   3.767   3.041  10.304 -0.4985 -1.6574  2.3628
 7642SOL     OW34387   2.595   3.407   7.896  0.2058 -0.2793  0.6511
 7642SOL    HW134388   2.587   3.340   7.964  0.8402 -0.6381  0.3689
 7642SOL    HW234389   2.643   3.479   7.937 -3.5743  2.6522  0.0404
 7643SOL     OW34390   3.696   4.179   4.384 -0.3593  0.1462 -0.1007
 7643SOL    HW134391   3.649   4.113   4.333  2.3484 -1.6871 -0.2251
 7643SOL    HW234392   3.732   4.117   4.448  0.9496  0.7586 -0.2466
 7644SOL     OW34393   3.151   2.156   7.100  0.0893 -0.2256  0.0549
 7644SOL    HW134394   3.151   2.252   7.092 -1.1076 -0.2923 -0.5941
 7644SOL    HW234395   3.243   2.134   7.120 -1.3464 -3.7541  2.8192
 7645SOL     OW34396   3.327   2.548   5.103  0.0231 -0.4702  0.2890
 7645SOL    HW134397   3.418   2.525   5.085 -0.8549 -1.0863 -3.2819
 7645SOL    HW234398   3.317   2.521   5.194  2.4569 -1.1692  0.3295
 7646SOL     OW34399   2.833   0.682   6.345  0.1211 -0.0457  0.6236
 7646SOL    HW134400   2.902   0.738   6.310  2.1173 -2.5522  0.6016
 7646SOL    HW234401   2.777   0.753   6.378 -0.7683  0.6280 -2.2878
 7647SOL     OW34402   2.845   3.568  11.354  0.1544 -0.5754 -0.2989
 7647SOL    HW134403   2.938   3.585  11.338 -0.2952  1.8540 -0.3668
 7647SOL    HW234404   2.807   3.585  11.268  0.3720 -1.3795 -0.5532
 7648SOL     OW34405   2.930   2.444  14.768 -0.2335  0.2073  0.2274
 7648SOL    HW134406   2.969   2.363  14.799 -0.1482  0.7523  1.5630
 7648SOL    HW234407   2.899   2.412  14.684 -1.0975  0.1558  0.5709
 7649SOL     OW34408   3.475   3.154   5.631  0.6994  0.4077 -0.3363
 7649SOL    HW134409   3.557   3.114   5.660 -0.4343 -2.2643 -0.8721
 7649SOL    HW234410   3.416   3.130   5.702 -0.6651 -0.2935 -1.6932
 7650SOL     OW34411   1.848   0.370  11.683  0.4560  0.0750 -0.2958
 7650SOL    HW134412   1.789   0.433  11.724  1.6436  0.7734  0.3176
 7650SOL    HW234413   1.783   0.310  11.646  1.2664 -1.3106  0.5415
 7651SOL     OW34414   4.427   4.627   1.696 -0.2810  0.3584  0.1295
 7651SOL    HW134415   4.435   4.693   1.765  0.3541  1.6433 -1.1760
 7651SOL    HW234416   4.339   4.649   1.664 -1.1468 -0.2089  2.1527
 7652SOL     OW34417   2.885   0.497   5.260  0.1440  0.0681  0.2271
 7652SOL    HW134418   2.842   0.568   5.212 -0.7078  0.4143  1.4843
 7652SOL    HW234419   2.902   0.430   5.195  2.0870  0.0621  0.7575
 7653SOL     OW34420   3.500   3.371   3.668  0.1605  0.0387 -0.0192
 7653SOL    HW134421   3.558   3.441   3.640 -0.6824 -0.2569 -2.4674
 7653SOL    HW234422   3.416   3.416   3.675 -0.0702 -0.1699 -1.3371
 7654SOL     OW34423   2.873   3.290  13.541 -0.2382  0.3377  0.2326
 7654SOL    HW134424   2.780   3.270  13.530  0.0625 -1.4863  1.0225
 7654SOL    HW234425   2.868   3.367  13.599 -0.5585  0.6103 -0.1583
 7655SOL     OW34426   1.041   1.716   8.107  0.1554 -0.0172  0.6745
 7655SOL    HW134427   1.126   1.721   8.063 -0.3307 -0.7281 -0.3492
 7655SOL    HW234428   1.018   1.807   8.124 -1.1823 -0.6233  2.1100
 7656SOL     OW34429   3.176   1.833   3.085 -0.0603 -0.2760  0.2084
 7656SOL    HW134430   3.140   1.857   2.999 -0.9284  0.7385  0.8568
 7656SOL    HW234431   3.223   1.909   3.119  0.9151 -1.7113  2.0730
 7657SOL     OW34432   3.180   2.446  14.978  0.3487 -0.7534 -0.1328
 7657SOL    HW134433   3.200   2.381  14.910 -1.3576 -1.2880 -0.1053
 7657SOL    HW234434   3.096   2.484  14.952  1.4343 -0.2936 -2.9887
 7658SOL     OW34435   3.998   2.483  10.561 -0.0270 -0.0974 -0.7340
 7658SOL    HW134436   3.957   2.429  10.493 -0.1674 -0.0010 -0.7254
 7658SOL    HW234437   3.946   2.462  10.639 -0.2363  1.8351 -0.3346
 7659SOL     OW34438   0.166   4.509   4.577 -0.1200  0.3281 -0.0114
 7659SOL    HW134439   0.184   4.580   4.516  1.7459  1.4403  1.8381
 7659SOL    HW234440   0.182   4.430   4.524 -1.2303 -1.1451  1.8482
 7660SOL     OW34441   1.203   2.421   6.221  0.3623 -0.0949  0.4789
 7660SOL    HW134442   1.121   2.436   6.173 -0.3272 -2.2438  0.9936
 7660SOL    HW234443   1.183   2.353   6.286  0.0136  0.7395  1.2546
 7661SOL     OW34444   0.979   3.225   3.588 -0.3606  0.4096 -0.2593
 7661SOL    HW134445   0.986   3.170   3.510 -0.5538  1.3496 -0.9388
 7661SOL    HW234446   0.891   3.221   3.626 -0.0955 -0.0280  0.3167
 7662SOL     OW34447   0.466   3.349   8.199 -0.4729  0.4363  0.1934
 7662SOL    HW134448   0.407   3.399   8.144  0.7067 -1.3911 -2.7256
 7662SOL    HW234449   0.452   3.394   8.282  0.8575  0.8215  0.2073
 7663SOL     OW34450   4.595   2.472   4.540 -0.2509  0.0823  0.3389
 7663SOL    HW134451   4.610   2.500   4.630  0.8718 -0.4229  0.3072
 7663SOL    HW234452   4.615   2.380   4.557 -1.3225 -0.0402  0.9459
 7664SOL     OW34453   3.265   4.495   2.871 -0.3253  0.3785  0.6901
 7664SOL    HW134454   3.263   4.515   2.777  0.0182 -0.1605  0.5700
 7664SOL    HW234455   3.349   4.530   2.901 -0.9276 -0.2431  3.1129
 7665SOL     OW34456   1.147   2.014   7.321 -0.3888 -0.2489  0.6266
 7665SOL    HW134457   1.099   2.066   7.256 -0.1557 -1.8424 -0.8386
 7665SOL    HW234458   1.154   2.076   7.393 -0.5376 -1.3729  1.6081
 7666SOL     OW34459   1.307   3.106   2.324  0.6165  0.7948 -0.0843
 7666SOL    HW134460   1.402   3.113   2.331  0.3238  4.3142  0.3682
 7666SOL    HW234461   1.285   3.164   2.396  1.5229 -1.3518  1.9255
 7667SOL     OW34462   1.263   3.998   7.291 -0.1502 -0.0994 -0.5755
 7667SOL    HW134463   1.283   3.940   7.217 -0.6690 -0.2497 -0.5961
 7667SOL    HW234464   1.182   3.966   7.331 -1.0471  1.4003 -1.1852
 7668SOL     OW34465   3.901   1.789   7.364  0.1613  0.1419  0.4124
 7668SOL    HW134466   3.810   1.757   7.361 -0.5006  1.9466  1.2752
 7668SOL    HW234467   3.954   1.709   7.361  0.4353  0.2941  1.4287
 7669SOL     OW34468   3.843   1.134   0.314  0.4898  0.4903  0.3809
 7669SOL    HW134469   3.831   1.191   0.390 -0.0085  0.3400  0.4191
 7669SOL    HW234470   3.849   1.049   0.358 -1.0146  2.1761  3.7996
 7670SOL     OW34471   4.328   2.056   7.295 -0.3812 -0.0416  0.1681
 7670SOL    HW134472   4.256   2.048   7.357  0.8835 -0.7414  1.5422
 7670SOL    HW234473   4.358   1.967   7.273 -0.5600 -0.2911  0.9589
 7671SOL     OW34474   4.465   3.448  13.344 -0.4737 -0.1393  0.4370
 7671SOL    HW134475   4.461   3.353  13.330  0.3834 -0.1668  0.3529
 7671SOL    HW234476   4.457   3.439  13.439 -1.5034  1.3450  0.4814
 7672SOL     OW34477   3.621   2.114  13.440  0.4533  0.4489 -0.6306
 7672SOL    HW134478   3.581   2.147  13.520 -1.4708 -1.6898 -0.7060
 7672SOL    HW234479   3.552   2.114  13.373 -1.2578 -0.4211  1.1212
 7673SOL     OW34480   1.596   1.661   2.384 -0.0194 -0.4166  0.1604
 7673SOL    HW134481   1.543   1.665   2.463  0.9421 -0.8653  0.8260
 7673SOL    HW234482   1.670   1.605   2.407  0.6144  0.4306  0.1747
 7674SOL     OW34483   0.367   1.234   7.247  0.1902  0.3550  0.2672
 7674SOL    HW134484   0.370   1.204   7.338 -0.0953  0.2712  0.2501
 7674SOL    HW234485   0.275   1.216   7.227  0.7564 -1.4330 -0.7100
 7675SOL     OW34486   3.037   0.446   2.782 -0.0520  0.3259  0.2723
 7675SOL    HW134487   3.044   0.417   2.691  4.7843 -2.0217  1.3679
 7675SOL    HW234488   3.080   0.368   2.818 -3.9637 -1.4651  1.1076
 7676SOL     OW34489   2.076   0.068   0.073 -0.3485 -0.2263 -0.1199
 7676SOL    HW134490   2.050   4.705   0.034 -0.7142 -0.5283  0.7656
 7676SOL    HW234491   2.165   0.044   0.097 -0.3338 -1.9398 -1.8280
 7677SOL     OW34492   2.155   1.689  15.078 -0.0704 -0.1448 -0.1378
 7677SOL    HW134493   2.110   1.770  15.056 -3.7066 -1.8300  0.9876
 7677SOL    HW234494   2.100   1.635  15.022 -3.3623  0.3430  2.6587
 7678SOL     OW34495   4.514   0.656   6.512  0.3362 -1.2315  0.0322
 7678SOL    HW134496   4.530   0.739   6.557  1.3830 -0.4109 -1.8447
 7678SOL    HW234497   4.523   0.680   6.420  1.6844  1.2137  0.8062
 7679SOL     OW34498   0.034   2.965   1.390  0.1066  0.0455 -0.2644
 7679SOL    HW134499   4.700   3.043   1.403 -2.3439 -1.6057 -0.6202
 7679SOL    HW234500   4.689   2.895   1.389  0.8892 -0.6730 -1.2968
 7680SOL     OW34501   2.597   1.704   0.790 -0.2958 -0.3562  0.2392
 7680SOL    HW134502   2.514   1.697   0.836 -1.5156 -2.2444 -2.2333
 7680SOL    HW234503   2.584   1.644   0.717  1.9731  1.3976 -1.6067
 7681SOL     OW34504   1.348   4.085   4.671  0.7342 -0.2149  0.0827
 7681SOL    HW134505   1.405   4.010   4.687  0.8145  0.1437  1.4843
 7681SOL    HW234506   1.351   4.083   4.575  1.0948 -2.3280  0.1255
 7682SOL     OW34507   3.088   0.554  17.474  0.0384  0.1821  0.6101
 7682SOL    HW134508   3.012   0.541  17.531 -1.2914 -2.9412 -1.8289
 7682SOL    HW234509   3.159   0.576  17.534 -0.4348 -0.4516  1.3999
 7683SOL     OW34510   0.292   3.966   2.651  0.0680  0.7742 -0.2988
 7683SOL    HW134511   0.296   4.061   2.658  1.8324  0.8177 -1.7322
 7683SOL    HW234512   0.201   3.953   2.677 -0.2204 -0.0351 -1.6711
 7684SOL     OW34513   3.138   1.798   1.777 -0.0719  0.1252  0.5086
 7684SOL    HW134514   3.172   1.887   1.780 -0.0320  0.1154  0.3651
 7684SOL    HW234515   3.165   1.769   1.690  0.9107  1.8201  0.2596
 7685SOL     OW34516   3.222   1.945  13.751 -0.0401 -0.0598 -0.3123
 7685SOL    HW134517   3.308   1.904  13.742  0.3305  0.2996  1.7067
 7685SOL    HW234518   3.238   2.032  13.715  0.0979  0.1749  0.3251
 7686SOL     OW34519   4.244   4.710  16.011 -0.1813 -0.7352 -0.3688
 7686SOL    HW134520   4.175   0.048  15.981  2.1916  1.1909 -2.0296
 7686SOL    HW234521   4.231   4.690  16.104  0.4107  0.8956  0.0566
 7687SOL     OW34522   4.253   1.523  11.578 -0.1320 -0.2301  0.1873
 7687SOL    HW134523   4.209   1.487  11.501  2.8005  1.3870 -2.2629
 7687SOL    HW234524   4.230   1.459  11.645  0.0456  2.0242  2.3936
 7688SOL     OW34525   3.050   1.219   3.421  0.0195 -0.2238  0.6187
 7688SOL    HW134526   3.070   1.133   3.459  1.1668  0.3144  1.2273
 7688SOL    HW234527   3.063   1.210   3.327  0.7954 -0.2160  0.7282
 7689SOL     OW34528   3.932   2.303   5.192  0.0666  0.0227 -1.0883
 7689SOL    HW134529   4.000   2.351   5.144  0.8965  0.5414  0.6257
 7689SOL    HW234530   3.920   2.355   5.271  1.1645 -1.7053  0.2211
 7690SOL     OW34531   4.059   0.889   3.180  0.1935  0.4664 -0.4690
 7690SOL    HW134532   4.071   0.961   3.242  1.1103  0.1263 -0.2601
 7690SOL    HW234533   3.971   0.857   3.201 -0.5651  3.5500  1.1590
 7691SOL     OW34534   3.260   4.246  10.329  0.6510  0.1235  0.2832
 7691SOL    HW134535   3.314   4.312  10.286  1.7707 -1.0582 -0.1169
 7691SOL    HW234536   3.181   4.297  10.308 -0.1284 -1.1709  0.1094
 7692SOL     OW34537   4.643   4.531   4.286 -0.0103 -0.0101 -0.0876
 7692SOL    HW134538   4.609   4.444   4.307  0.3112 -0.3516 -0.9401
 7692SOL    HW234539   4.591   4.550   4.208 -1.2974 -2.3957  0.1960
 7693SOL     OW34540   1.352   0.500  13.047  0.1088 -0.3099 -0.7432
 7693SOL    HW134541   1.330   0.593  13.042  0.5049 -0.2498 -1.4306
 7693SOL    HW234542   1.269   0.454  13.063 -0.8819  1.4986 -0.7106
 7694SOL     OW34543   2.911   2.742  15.443  0.2135 -0.2442  0.2044
 7694SOL    HW134544   2.905   2.697  15.359  0.2988  0.9237 -0.4245
 7694SOL    HW234545   2.993   2.709  15.479 -0.0484 -0.0289  0.9944
 7695SOL     OW34546   4.442   1.106   8.551  0.1884 -0.0958  0.0569
 7695SOL    HW134547   4.384   1.105   8.474 -2.4250  0.2046  2.0134
 7695SOL    HW234548   4.392   1.035   8.590 -2.0014  0.1903 -2.1996
 7696SOL     OW34549   4.407   2.079   0.769 -0.7445 -0.0653 -0.1318
 7696SOL    HW134550   4.383   2.166   0.738 -0.8630 -0.7346 -1.9275
 7696SOL    HW234551   4.426   2.028   0.690 -0.6658  1.5397 -1.1309
 7697SOL     OW34552   0.661   3.865   1.124  0.1654  0.4912 -0.7837
 7697SOL    HW134553   0.662   3.801   1.195 -2.3438  0.1139 -1.1003
 7697SOL    HW234554   0.743   3.913   1.131 -1.0451  2.5668 -0.8554
 7698SOL     OW34555   1.207   3.826  14.441 -0.2688 -0.2687 -0.1142
 7698SOL    HW134556   1.130   3.882  14.441  0.3226  0.5403 -1.4126
 7698SOL    HW234557   1.231   3.869  14.359 -1.0363  0.3551 -0.0006
 7699SOL     OW34558   3.908   0.536   2.511 -0.0283  0.6272  0.5738
 7699SOL    HW134559   3.946   0.506   2.428 -1.2124 -1.9434  0.9334
 7699SOL    HW234560   3.821   0.574   2.500  0.1951  0.5933 -1.2704
 7700SOL     OW34561   3.867   2.764  13.087 -0.7170 -0.0608  0.1324
 7700SOL    HW134562   3.789   2.783  13.139 -0.2712 -0.1972  0.8533
 7700SOL    HW234563   3.905   2.702  13.149 -0.8768 -0.0678  0.2236
 7701SOL     OW34564   4.328   3.536  17.390  0.5693  0.0632 -0.1855
 7701SOL    HW134565   4.333   3.554  17.484  3.6112 -2.1194  0.0449
 7701SOL    HW234566   4.325   3.441  17.386 -0.6579  0.0715  0.5522
 7702SOL     OW34567   1.997   2.869   2.858  0.0600 -0.8121  0.3328
 7702SOL    HW134568   2.085   2.876   2.822  0.4138 -1.2578  1.1147
 7702SOL    HW234569   1.948   2.911   2.788 -0.1727  1.7135  2.0179
 7703SOL     OW34570   3.863   3.333  13.473  0.4423  0.4455 -0.3202
 7703SOL    HW134571   3.801   3.365  13.408  0.9181  1.8031 -0.0877
 7703SOL    HW234572   3.936   3.394  13.459  0.6183  0.8101  2.0866
 7704SOL     OW34573   4.200   3.657   4.889 -0.0824 -0.0202  0.4855
 7704SOL    HW134574   4.107   3.632   4.891 -0.8597  2.8491 -0.2387
 7704SOL    HW234575   4.211   3.671   4.983  3.6618  0.8042 -0.1144
 7705SOL     OW34576   1.888   3.707   8.026  0.0128  0.1382  0.2082
 7705SOL    HW134577   1.794   3.701   8.008  0.0150  0.7772  0.0065
 7705SOL    HW234578   1.884   3.770   8.098 -0.6338  0.6267 -0.2523
 7706SOL     OW34579   0.727   3.812   3.285  0.2776  0.4764  0.2883
 7706SOL    HW134580   0.725   3.727   3.330 -1.0768 -1.0754 -2.7542
 7706SOL    HW234581   0.745   3.870   3.359  2.0002  3.5460 -2.5522
 7707SOL     OW34582   2.568   1.313   7.877 -0.4096 -0.9734  0.5927
 7707SOL    HW134583   2.589   1.220   7.886 -0.9227 -1.3906 -2.7277
 7707SOL    HW234584   2.599   1.315   7.786  2.1094  0.2714  1.4749
 7708SOL     OW34585   2.051   3.673  15.218 -0.1807 -0.7267  0.0271
 7708SOL    HW134586   2.070   3.594  15.168  1.6057 -0.0734 -0.3181
 7708SOL    HW234587   2.109   3.738  15.177 -0.2919 -0.7087 -0.1053
 7709SOL     OW34588   0.899   0.639   8.765 -0.0273 -0.3962  0.4403
 7709SOL    HW134589   0.933   0.588   8.691 -0.2464 -0.8058  0.6201
 7709SOL    HW234590   0.923   0.724   8.727 -1.0186  0.4132  1.6291
 7710SOL     OW34591   1.075   4.094   1.985 -0.1433  0.4648 -0.2045
 7710SOL    HW134592   1.156   4.144   1.980 -0.9931  1.9639  0.7889
 7710SOL    HW234593   1.010   4.150   1.943 -0.2861  0.0977 -0.4747
 7711SOL     OW34594   4.156   2.988   7.950 -0.2748 -0.6897  0.0013
 7711SOL    HW134595   4.209   3.058   7.910 -0.8668  0.1174  0.6126
 7711SOL    HW234596   4.224   2.934   7.991  2.1142  1.8877 -0.5488
 7712SOL     OW34597   2.325   2.742   4.505  0.7383  0.4733  0.5329
 7712SOL    HW134598   2.420   2.752   4.514  0.7335  1.8213 -0.9683
 7712SOL    HW234599   2.293   2.735   4.595  0.8159  1.2645  0.6247
 7713SOL     OW34600   0.066   4.137   9.516  0.4429  0.1562  0.1889
 7713SOL    HW134601   0.136   4.153   9.579  1.1441  2.2811 -1.1257
 7713SOL    HW234602   0.090   4.203   9.451  1.1844 -1.3242 -1.0340
 7714SOL     OW34603   3.880   2.564   8.494  0.3367  0.1314  0.1133
 7714SOL    HW134604   3.967   2.532   8.515  0.2606  1.0616  1.8650
 7714SOL    HW234605   3.904   2.644   8.447 -0.3406  1.1417  1.4918
 7715SOL     OW34606   3.758   2.377   4.624  0.1393 -0.2394  0.6047
 7715SOL    HW134607   3.830   2.423   4.666  0.4119 -2.1234  2.2091
 7715SOL    HW234608   3.776   2.288   4.654  1.3904  0.0444  0.7072
 7716SOL     OW34609   4.127   1.433   7.721  0.6298 -0.7686  0.9187
 7716SOL    HW134610   4.164   1.345   7.712 -2.0783 -1.7784 -0.4302
 7716SOL    HW234611   4.185   1.461   7.792  2.5568  0.7940 -1.2992
 7717SOL     OW34612   1.817   3.624   4.974  0.0766 -0.4222  0.1020
 7717SOL    HW134613   1.882   3.555   4.978  0.8235  0.3284  0.9422
 7717SOL    HW234614   1.741   3.571   4.949 -0.4411  0.5858 -0.4717
 7718SOL     OW34615   0.428   0.946  11.346  0.3607 -0.1827 -1.0306
 7718SOL    HW134616   0.335   0.956  11.326  0.1191 -1.8586 -0.7374
 7718SOL    HW234617   0.480   1.025  11.330 -0.0950 -0.1497 -2.3015
 7719SOL     OW34618   4.022   1.472  11.896 -0.9964  0.4057 -0.1535
 7719SOL    HW134619   3.939   1.473  11.849 -1.6106  1.8688  0.9718
 7719SOL    HW234620   4.070   1.402  11.852 -1.8866 -0.8625  0.8974
 7720SOL     OW34621   2.223   0.686  17.430 -0.1066 -0.0847  0.2599
 7720SOL    HW134622   2.156   0.710  17.367  0.6712  2.9710  0.5846
 7720SOL    HW234623   2.296   0.747  17.414  0.3206 -1.2251 -2.0727
 7721SOL     OW34624   2.883   3.306   7.297 -0.0549  0.0962  0.4047
 7721SOL    HW134625   2.918   3.247   7.364  0.0317 -0.4151 -0.0855
 7721SOL    HW234626   2.954   3.367   7.276 -1.2486  0.0219 -3.8763
 7722SOL     OW34627   2.709   0.162   3.977 -0.1953  0.0789  0.0472
 7722SOL    HW134628   2.669   0.199   3.899  0.5727 -0.5744 -0.6509
 7722SOL    HW234629   2.775   0.230   3.989 -0.4264 -0.3434  3.9061
 7723SOL     OW34630   4.443   3.626   5.696 -0.4404  0.0398 -0.0020
 7723SOL    HW134631   4.376   3.595   5.757  1.4318 -1.9654  1.0176
 7723SOL    HW234632   4.518   3.570   5.716 -1.0145 -0.8771 -0.4682
 7724SOL     OW34633   1.558   0.274   1.807 -0.0578  0.0373  0.7832
 7724SOL    HW134634   1.535   0.320   1.888 -0.5453 -0.8476  1.1397
 7724SOL    HW234635   1.612   0.204   1.843  0.3988  0.0646  0.1584
 7725SOL     OW34636   0.529   4.678  14.729 -0.4881 -0.2234 -0.3275
 7725SOL    HW134637   0.435   4.664  14.717 -0.2158 -2.7186  0.4062
 7725SOL    HW234638   0.549   0.021  14.661 -4.8710  3.3614  1.8071
 7726SOL     OW34639   2.089   3.243  17.128 -0.7410  0.0716 -0.1245
 7726SOL    HW134640   2.071   3.174  17.192  1.6838  1.9371  2.5947
 7726SOL    HW234641   2.018   3.305  17.145  0.1579  0.2184  3.2015
 7727SOL     OW34642   4.583   3.075   8.284  0.1371 -0.1159  0.1789
 7727SOL    HW134643   4.558   2.987   8.255  2.5387 -0.5608 -0.5494
 7727SOL    HW234644   4.628   3.052   8.365  2.1879 -0.6629 -1.1032
 7728SOL     OW34645   2.224   0.659   7.121  0.1558 -0.6650  0.2635
 7728SOL    HW134646   2.219   0.752   7.141  2.5602 -0.5843  0.4242
 7728SOL    HW234647   2.148   0.652   7.063  0.5833 -0.7191 -0.2953
 7729SOL     OW34648   1.078   0.858   6.348 -0.0679  0.1448  0.3287
 7729SOL    HW134649   1.168   0.869   6.316 -0.6936  1.7102 -0.9075
 7729SOL    HW234650   1.025   0.891   6.276  0.4384  1.0500  0.3721
 7730SOL     OW34651   4.473   4.299   7.219 -0.2868  0.0214  0.0476
 7730SOL    HW134652   4.501   4.334   7.134  0.2871  0.6019  0.4787
 7730SOL    HW234653   4.383   4.270   7.203 -0.3276  0.6465 -0.8295
 7731SOL     OW34654   2.768   3.173   3.176  0.0981 -0.1396  0.0610
 7731SOL    HW134655   2.809   3.247   3.220  1.4225  0.1906 -1.7359
 7731SOL    HW234656   2.832   3.151   3.109  1.4489 -3.0640  2.3060
 7732SOL     OW34657   3.950   3.905   9.103 -0.5829 -0.1059  0.1782
 7732SOL    HW134658   3.931   3.979   9.159  1.5359  0.2041  0.4974
 7732SOL    HW234659   4.042   3.895   9.128 -0.3442 -1.5552 -1.2773
 7733SOL     OW34660   3.567   3.067  13.265 -0.6395  0.1168 -0.0332
 7733SOL    HW134661   3.473   3.074  13.247 -0.8037 -1.6211  0.1387
 7733SOL    HW234662   3.585   3.159  13.283 -3.2124  0.4246  1.0361
 7734SOL     OW34663   1.581   3.364   1.922  0.2015  0.5325 -0.2792
 7734SOL    HW134664   1.581   3.352   2.017 -0.5183  0.2770 -0.3081
 7734SOL    HW234665   1.579   3.459   1.922 -0.1397  0.5246 -0.1057
 7735SOL     OW34666   0.238   0.244   6.664 -0.0253  0.7547  0.1647
 7735SOL    HW134667   0.182   0.204   6.730 -0.6791 -2.3888 -2.2426
 7735SOL    HW234668   0.219   0.190   6.587  1.4882 -0.3365  0.5503
 7736SOL     OW34669   0.782   1.111   2.159  0.0563  0.1138  0.0804
 7736SOL    HW134670   0.744   1.198   2.143 -2.4477 -1.0415 -0.2860
 7736SOL    HW234671   0.776   1.071   2.072  0.5142 -1.3907  0.7426
 7737SOL     OW34672   3.960   4.645   2.570 -0.1430 -0.3103  0.2205
 7737SOL    HW134673   3.970   4.585   2.644 -0.4154 -1.2231 -0.4824
 7737SOL    HW234674   3.923   4.586   2.504 -2.6525  0.1374  1.2270
 7738SOL     OW34675   2.348   0.053  15.036  0.1106 -0.0530  0.2645
 7738SOL    HW134676   2.339   4.679  15.025  0.9194 -0.0466 -0.4361
 7738SOL    HW234677   2.290   0.073  15.110 -2.0197 -1.5889 -0.9920
 7739SOL     OW34678   2.269   1.571  11.233 -0.0685  0.0075 -0.2019
 7739SOL    HW134679   2.219   1.648  11.206  1.6199  1.4834  0.8593
 7739SOL    HW234680   2.201   1.511  11.264 -1.0937  1.5103  0.5224
 7740SOL     OW34681   1.912   1.165   9.691  0.0351  0.0037 -0.1796
 7740SOL    HW134682   1.937   1.231   9.626  1.1700 -0.0616  0.1913
 7740SOL    HW234683   1.830   1.135   9.650  0.9166 -2.4630 -0.1601
 7741SOL     OW34684   3.839   4.600   0.015 -0.6245 -0.3301 -0.3832
 7741SOL    HW134685   3.764   4.658   0.001 -0.7594  0.2967  2.8863
 7741SOL    HW234686   3.835   4.590   0.111  1.1045 -0.2283 -0.3024
 7742SOL     OW34687   2.946   2.035   5.241 -0.2124  0.5385  0.5839
 7742SOL    HW134688   2.979   1.946   5.251 -2.6878 -0.2045  2.0611
 7742SOL    HW234689   2.920   2.056   5.331 -0.1690 -1.7758  1.1203
 7743SOL     OW34690   2.371   0.042   8.508 -0.8028  0.2192 -0.1675
 7743SOL    HW134691   2.442   0.105   8.494 -0.7599 -0.3897 -2.5853
 7743SOL    HW234692   2.376   0.061   8.602  1.6676  0.5624 -0.3551
 7744SOL     OW34693   2.994   2.688   6.024 -0.2398  0.1595  0.0840
 7744SOL    HW134694   2.985   2.596   6.049  0.5409 -0.7080 -2.7926
 7744SOL    HW234695   3.014   2.672   5.932  2.5565  1.1239  0.5385
 7745SOL     OW34696   1.246   0.072   1.440 -0.6910  0.3267 -0.1784
 7745SOL    HW134697   1.198   0.128   1.379  0.8077  1.0537 -0.6904
 7745SOL    HW234698   1.198   4.710   1.437 -1.7300  0.8319  2.4701
 7746SOL     OW34699   2.402   3.017   4.599  0.3674  0.1635 -0.1097
 7746SOL    HW134700   2.307   3.026   4.593  0.2637 -0.7372  0.3205
 7746SOL    HW234701   2.430   2.967   4.522  2.5207 -0.5245  1.1091
 7747SOL     OW34702   3.834   2.796   9.950 -0.5243  0.5014 -0.1432
 7747SOL    HW134703   3.776   2.872   9.959  2.0581  2.4923 -0.1908
 7747SOL    HW234704   3.843   2.797   9.855  0.3576  1.3213 -0.0587
 7748SOL     OW34705   1.797   0.148  15.993 -0.2049  0.0048  0.3169
 7748SOL    HW134706   1.841   0.120  15.912 -0.0964  0.1626  0.3220
 7748SOL    HW234707   1.736   0.076  16.007  0.9290 -0.6656  1.8445
 7749SOL     OW34708   2.764   0.536  14.597 -0.1524 -0.5084 -0.1430
 7749SOL    HW134709   2.704   0.568  14.529 -0.7853 -2.3628 -0.4599
 7749SOL    HW234710   2.746   0.442  14.593 -0.9177 -0.3375 -0.8641
 7750SOL     OW34711   4.488   2.321  15.355  0.3152 -0.3788 -0.5542
 7750SOL    HW134712   4.477   2.231  15.386 -0.7506 -0.4788 -1.2203
 7750SOL    HW234713   4.563   2.350  15.408 -1.4184  1.5412  0.8397
 7751SOL     OW34714   1.020   0.682   6.579 -0.3438  0.6402  0.7465
 7751SOL    HW134715   1.098   0.627   6.575 -1.3877 -0.8525  0.8855
 7751SOL    HW234716   1.039   0.748   6.512  0.4455 -0.7238 -0.3923
 7752SOL     OW34717   0.389   0.645   5.279  0.1768 -0.2578  0.1622
 7752SOL    HW134718   0.418   0.736   5.270 -0.6773  0.0011 -0.0593
 7752SOL    HW234719   0.467   0.609   5.238  0.3810 -1.4370  1.6066
 7753SOL     OW34720   1.104   0.137   5.210 -0.2403  0.4724  0.1663
 7753SOL    HW134721   1.060   0.057   5.182  2.2424 -1.1573  0.9061
 7753SOL    HW234722   1.035   0.185   5.256 -1.0759 -2.6714  2.2003
 7754SOL     OW34723   0.138   2.602  14.667 -0.4722  0.4647 -0.1634
 7754SOL    HW134724   0.177   2.516  14.682 -2.0772  0.1673  2.3448
 7754SOL    HW234725   0.093   2.610  14.752  0.6785  0.1559  0.4692
 7755SOL     OW34726   0.092   1.608   1.969 -0.0946  0.2280  0.2069
 7755SOL    HW134727   0.077   1.671   2.040  1.3670 -0.4350  1.1135
 7755SOL    HW234728   0.111   1.665   1.895 -0.7671 -2.8015 -2.2819
 7756SOL     OW34729   0.892   3.042   8.776  0.1208 -0.2431  0.1716
 7756SOL    HW134730   0.956   3.041   8.847 -1.4295  0.5904  1.5828
 7756SOL    HW234731   0.935   3.002   8.700  1.3571 -0.9926  1.2831
 7757SOL     OW34732   1.833   2.564   2.582  0.1653 -0.1052  0.3904
 7757SOL    HW134733   1.760   2.536   2.637  0.5672  0.2941  1.1303
 7757SOL    HW234734   1.906   2.546   2.642 -1.3488  1.5218  2.7310
 7758SOL     OW34735   3.407   1.711   7.987  0.1195 -0.3758 -0.3134
 7758SOL    HW134736   3.415   1.615   7.992 -0.4843 -0.4096  0.1136
 7758SOL    HW234737   3.319   1.709   8.024  1.4497  2.0803  2.9307
 7759SOL     OW34738   0.019   3.668  15.272  0.6846 -0.0967  0.2056
 7759SOL    HW134739   0.019   3.684  15.178 -1.7240  1.7710  0.5194
 7759SOL    HW234740   4.648   3.648  15.287  0.7720  0.3510  1.3177
 7760SOL     OW34741   3.148   0.216   1.105  0.4360  0.5178 -0.3915
 7760SOL    HW134742   3.117   0.152   1.170 -1.0059  0.5400 -1.0772
 7760SOL    HW234743   3.165   0.169   1.024 -2.2186 -1.0554 -0.0207
 7761SOL     OW34744   4.136   0.489   7.520 -0.3714 -0.1989  0.4944
 7761SOL    HW134745   4.214   0.543   7.506 -1.9236  1.9016 -0.0403
 7761SOL    HW234746   4.166   0.442   7.597  1.2690  1.4364  0.8711
 7762SOL     OW34747   3.918   4.106   9.291 -0.2923 -0.1290 -0.0429
 7762SOL    HW134748   3.866   4.032   9.322 -2.4036  2.2357  2.0118
 7762SOL    HW234749   3.882   4.178   9.343 -0.2794 -0.5399  0.5358
 7763SOL     OW34750   0.952   2.690   3.852  0.0142  0.0372 -0.1014
 7763SOL    HW134751   0.883   2.626   3.835 -0.8903  0.8564  0.4901
 7763SOL    HW234752   0.941   2.752   3.781  0.1032 -0.3444 -0.4482
 7764SOL     OW34753   4.188   0.792  12.364  0.0921 -0.5872  0.2876
 7764SOL    HW134754   4.204   0.886  12.351  1.2483 -0.7973  0.2485
 7764SOL    HW234755   4.218   0.755  12.282 -0.2115 -0.4070  0.0944
 7765SOL     OW34756   3.945   1.548  14.362 -0.0608  0.6530 -0.7498
 7765SOL    HW134757   3.857   1.537  14.326  0.2924 -2.5997 -0.6226
 7765SOL    HW234758   3.997   1.506  14.293  0.9914  0.3696  0.2177
 7766SOL     OW34759   0.819   2.919   4.873  0.4857  0.3031  0.0925
 7766SOL    HW134760   0.888   2.980   4.846  0.2377  0.5452  0.0172
 7766SOL    HW234761   0.772   2.902   4.792  1.4848 -0.9496 -0.2431
 7767SOL     OW34762   1.288   2.964  14.980 -0.0630 -0.1589  0.2425
 7767SOL    HW134763   1.347   2.915  14.923  1.1746  1.7959 -0.1855
 7767SOL    HW234764   1.326   3.052  14.975  0.1755 -0.2405  0.6323
 7768SOL     OW34765   0.434   0.022   5.499 -0.6419  0.3256 -0.3731
 7768SOL    HW134766   0.407   4.703   5.581 -0.8593  0.5981 -0.3112
 7768SOL    HW234767   0.459   0.113   5.515 -1.0304  0.0515  1.7710
 7769SOL     OW34768   4.071   3.229   5.503 -0.4048 -0.4210  0.2899
 7769SOL    HW134769   4.125   3.171   5.556 -0.4246 -0.7846 -0.0898
 7769SOL    HW234770   4.099   3.217   5.412  0.2240 -0.2546  0.4616
 7770SOL     OW34771   1.473   4.529   5.042 -0.2457  0.5332 -0.2011
 7770SOL    HW134772   1.454   4.490   4.957  1.2038 -1.9246  0.6128
 7770SOL    HW234773   1.405   4.596   5.043 -0.0825  0.7060 -0.8006
 7771SOL     OW34774   0.644   1.943   1.532  0.0565 -0.0556 -0.0594
 7771SOL    HW134775   0.611   2.026   1.566  3.5546  1.6893 -0.9126
 7771SOL    HW234776   0.634   1.884   1.607  2.6887 -1.4340 -0.7990
 7772SOL     OW34777   0.406   2.356   5.709  0.0245  0.0438  0.7448
 7772SOL    HW134778   0.356   2.375   5.789 -0.5664 -0.4340  0.4818
 7772SOL    HW234779   0.483   2.313   5.747 -1.0817  0.2034  3.1962
 7773SOL     OW34780   3.662   1.701   7.318 -0.4795 -0.1773 -0.3129
 7773SOL    HW134781   3.577   1.658   7.310 -0.1060 -0.3323 -3.4181
 7773SOL    HW234782   3.696   1.686   7.230 -0.3975 -1.6206 -0.0306
 7774SOL     OW34783   2.409   0.530   7.297 -0.2173 -0.2138  0.1652
 7774SOL    HW134784   2.376   0.441   7.282  2.5394 -1.1120 -0.4830
 7774SOL    HW234785   2.349   0.581   7.243 -0.8061  0.1473  1.1539
 7775SOL     OW34786   4.385   2.498   6.372  0.6639  0.6102 -0.3574
 7775SOL    HW134787   4.461   2.439   6.366 -1.1126 -1.8949  1.3676
 7775SOL    HW234788   4.375   2.550   6.293 -0.6749  0.6578 -0.1591
 7776SOL     OW34789   3.261   4.131   3.626  0.3520  0.2526 -0.1341
 7776SOL    HW134790   3.299   4.122   3.713  1.7274 -1.3152 -0.8874
 7776SOL    HW234791   3.338   4.109   3.574 -0.0494  0.7876 -0.9476
 7777SOL     OW34792   1.123   3.531   5.165 -0.4190 -0.6367 -0.2557
 7777SOL    HW134793   1.213   3.555   5.189 -0.2634 -1.2357 -0.2379
 7777SOL    HW234794   1.140   3.478   5.087  0.6756 -0.3393 -0.2184
 7778SOL     OW34795   1.616   0.080  10.350  0.1388 -0.4114 -0.4846
 7778SOL    HW134796   1.565   0.139  10.295 -1.3748 -1.3942 -0.1424
 7778SOL    HW234797   1.689   0.071  10.288 -0.2765  0.9237 -1.1495
 7779SOL     OW34798   1.258   3.310   3.104  0.1589 -0.3673 -0.1611
 7779SOL    HW134799   1.252   3.365   3.026  0.4485 -0.4086 -0.2141
 7779SOL    HW234800   1.224   3.366   3.173  3.6255  1.6850 -0.1082
 7780SOL     OW34801   1.853   1.957   7.127 -1.0629  0.0681  0.1442
 7780SOL    HW134802   1.892   1.922   7.047  3.2422  0.9573  1.8569
 7780SOL    HW234803   1.931   1.987   7.174 -1.4181  0.1990  0.6485
 7781SOL     OW34804   2.407   2.400   3.832  0.3180  0.7751  0.0800
 7781SOL    HW134805   2.332   2.459   3.826 -1.5309 -1.4106  1.8133
 7781SOL    HW234806   2.357   2.320   3.820  0.5883  0.3807  1.6313
 7782SOL     OW34807   1.931   2.047  13.287 -0.4067 -0.6166  0.4673
 7782SOL    HW134808   1.938   2.131  13.332  1.7982 -0.4869 -0.1159
 7782SOL    HW234809   1.844   2.023  13.318 -1.3125  0.8269 -0.9869
 7783SOL     OW34810   2.548   0.481   6.256  0.3322 -0.3077 -0.0486
 7783SOL    HW134811   2.542   0.533   6.336  2.1142  2.6501 -1.8544
 7783SOL    HW234812   2.536   0.392   6.290 -1.8572  1.4306  3.7231
 7784SOL     OW34813   0.803   0.995  13.797  0.1901 -0.1237  0.3320
 7784SOL    HW134814   0.756   1.025  13.719  1.5189  0.9696 -0.0552
 7784SOL    HW234815   0.890   0.994  13.757  0.0283 -0.2931 -0.0130
 7785SOL     OW34816   1.790   3.686  11.691 -0.3794  0.6651 -0.0533
 7785SOL    HW134817   1.764   3.761  11.743 -0.5389 -0.6355  1.7245
 7785SOL    HW234818   1.879   3.710  11.665 -0.0811  1.4269  1.7240
 7786SOL     OW34819   4.172   2.804  12.937  0.5552  0.6783  0.4043
 7786SOL    HW134820   4.141   2.894  12.945 -0.8353  0.2647 -0.3314
 7786SOL    HW234821   4.259   2.829  12.908 -1.0483  3.5868 -1.9703
 7787SOL     OW34822   4.187   1.343  16.274  0.2255  0.0770 -0.2179
 7787SOL    HW134823   4.218   1.293  16.199  0.7336  0.5835 -0.3395
 7787SOL    HW234824   4.191   1.296  16.358 -1.1947  1.0165  0.3820
 7788SOL     OW34825   2.886   4.583  12.414 -0.1056  0.6170 -0.3101
 7788SOL    HW134826   2.843   4.669  12.420  0.2043  0.6552  1.2668
 7788SOL    HW234827   2.858   4.553  12.500  1.4272  2.8384  0.9709
 7789SOL     OW34828   2.194   3.057   6.511 -0.2329  0.0555  0.6680
 7789SOL    HW134829   2.133   3.059   6.437 -0.5583  0.7177  0.9478
 7789SOL    HW234830   2.151   3.116   6.574  0.5808  1.5282 -0.1468
 7790SOL     OW34831   1.959   2.666   6.134  0.2199 -0.0630  0.0070
 7790SOL    HW134832   1.883   2.716   6.163 -1.3406 -2.7900  0.6109
 7790SOL    HW234833   1.972   2.605   6.207 -0.0106 -1.4714 -1.1358
 7791SOL     OW34834   3.458   3.055   3.262  0.5992 -0.0898 -0.3179
 7791SOL    HW134835   3.391   3.095   3.317  1.8252 -1.9451  2.5203
 7791SOL    HW234836   3.532   3.116   3.270 -0.3998  0.9488  0.9569
 7792SOL     OW34837   4.019   1.707   5.937 -0.5507  0.4369 -0.7946
 7792SOL    HW134838   3.988   1.789   5.974  0.3354 -0.6349  2.3715
 7792SOL    HW234839   3.967   1.703   5.857 -2.3949 -1.2896  0.4930
 7793SOL     OW34840   0.661   3.617   8.000 -0.7586  0.2878  0.2303
 7793SOL    HW134841   0.655   3.681   8.071 -0.3377 -0.3437  0.8373
 7793SOL    HW234842   0.574   3.606   7.963  0.4096 -3.0751 -1.4700
 7794SOL     OW34843   1.420   0.210   3.389 -0.8851 -0.6504  0.2682
 7794SOL    HW134844   1.366   0.260   3.328 -0.0548  1.1586  1.0287
 7794SOL    HW234845   1.361   0.145   3.429 -1.6080  0.7848  1.5318
 7795SOL     OW34846   0.181   2.837   8.199 -0.7612  0.6817  0.0424
 7795SOL    HW134847   0.270   2.800   8.205 -0.7445  0.9131  1.2120
 7795SOL    HW234848   0.129   2.771   8.244  1.5853 -1.8774 -0.9861
 7796SOL     OW34849   4.309   1.946   1.809 -0.3503  0.7382 -0.0151
 7796SOL    HW134850   4.389   1.969   1.855 -0.0614 -1.3122  0.5176
 7796SOL    HW234851   4.341   1.900   1.732 -0.8078  1.4423 -0.6208
 7797SOL     OW34852   4.701   0.352  14.800  0.0132 -0.1656  0.0978
 7797SOL    HW134853   4.718   0.412  14.873 -3.0410 -0.7450  1.2675
 7797SOL    HW234854   4.647   0.413  14.751  1.1489  1.1638  0.4885
 7798SOL     OW34855   4.534   4.343   9.462 -0.3113 -0.3501  0.2285
 7798SOL    HW134856   4.483   4.304   9.533  1.5721 -1.1818  1.1370
 7798SOL    HW234857   4.500   4.284   9.395 -0.1299 -2.5987  2.1152
 7799SOL     OW34858   0.005   3.581   5.897 -0.1417 -0.4138  0.1238
 7799SOL    HW134859   4.648   3.592   5.951  0.1888  4.0018 -0.3594
 7799SOL    HW234860   0.046   3.666   5.908 -0.2188 -0.2216 -1.0883
 7800SOL     OW34861   1.353   3.825   7.836 -0.3330 -0.1372 -0.2587
 7800SOL    HW134862   1.373   3.916   7.858 -1.9528  0.1771 -0.0632
 7800SOL    HW234863   1.273   3.812   7.886  0.1222 -0.8436  0.2780
 7801SOL     OW34864   3.366   4.360   3.976  0.2104  0.0667  0.1362
 7801SOL    HW134865   3.342   4.433   3.919  3.4788  0.4444 -0.7472
 7801SOL    HW234866   3.341   4.283   3.925  0.6156 -0.4216  0.6669
 7802SOL     OW34867   3.215   0.738  14.268 -0.4198 -0.0931 -0.4412
 7802SOL    HW134868   3.280   0.668  14.259 -1.4424 -0.7629 -2.6613
 7802SOL    HW234869   3.177   0.721  14.355  0.4424 -0.3461 -0.1172
 7803SOL     OW34870   2.367   4.276  14.393 -0.2521  0.2617 -0.4365
 7803SOL    HW134871   2.399   4.320  14.472  5.0833  1.2881 -3.1621
 7803SOL    HW234872   2.322   4.206  14.441 -0.9038 -1.0684 -3.0091
 7804SOL     OW34873   2.701   3.833   7.748  1.1363  0.1247  0.5266
 7804SOL    HW134874   2.632   3.774   7.780  1.7877 -1.2797 -0.6758
 7804SOL    HW234875   2.777   3.779   7.725  0.6318 -0.3675  0.0242
 7805SOL     OW34876   3.378   2.409   7.939 -0.1617  0.1178  0.7057
 7805SOL    HW134877   3.402   2.466   7.866  1.1834  0.3849  1.3601
 7805SOL    HW234878   3.358   2.474   8.006  3.3326  1.6829  0.2180
 7806SOL     OW34879   1.582   4.467   8.078 -0.2090 -0.5863 -0.6158
 7806SOL    HW134880   1.594   4.490   8.170 -0.1366  0.9412 -1.0210
 7806SOL    HW234881   1.491   4.437   8.079 -1.0570  1.9910 -2.0128
 7807SOL     OW34882   3.475   1.783  10.620  0.1469 -0.3116 -0.3969
 7807SOL    HW134883   3.457   1.729  10.696  0.6354 -0.1631 -0.1748
 7807SOL    HW234884   3.488   1.870  10.658 -1.3828  0.2336 -1.1360
 7808SOL     OW34885   0.729   3.085   3.544  0.6712  0.0157 -0.0086
 7808SOL    HW134886   0.691   3.013   3.493 -2.4725  2.1055 -0.5730
 7808SOL    HW234887   0.657   3.148   3.539  0.5530 -0.0413  0.9942
 7809SOL     OW34888   2.987   0.605  16.750 -0.4207 -0.2890  0.6791
 7809SOL    HW134889   2.894   0.606  16.774 -0.6369 -0.9950 -0.0967
 7809SOL    HW234890   3.008   0.523  16.795 -0.5208 -0.9489 -0.4684
 7810SOL     OW34891   3.997   0.882   1.683  0.1469  0.0934 -0.0222
 7810SOL    HW134892   3.982   0.864   1.591 -0.5928 -3.8102  0.8498
 7810SOL    HW234893   3.919   0.839   1.718  0.4617 -0.5601 -0.1263
 7811SOL     OW34894   4.290   2.067   2.909  0.6805 -0.1889  0.5728
 7811SOL    HW134895   4.198   2.062   2.883  0.5299 -0.1135  1.0971
 7811SOL    HW234896   4.305   1.982   2.950 -1.3036 -0.4939  0.6760
 7812SOL     OW34897   0.724   1.331  11.852  0.4103  0.0608 -0.3913
 7812SOL    HW134898   0.711   1.269  11.924 -0.3783  0.0209 -0.5670
 7812SOL    HW234899   0.651   1.393  11.852  0.9026  0.6424 -3.3920
 7813SOL     OW34900   0.472   0.354   1.623  0.2231  0.0448 -0.4178
 7813SOL    HW134901   0.466   0.445   1.595  0.6901  0.0224 -0.5813
 7813SOL    HW234902   0.462   0.365   1.717  1.2882 -1.1867 -0.1632
 7814SOL     OW34903   2.916   4.716   7.388  0.1816  0.5886 -0.5350
 7814SOL    HW134904   2.910   0.072   7.331 -0.0730  1.9946  1.3492
 7814SOL    HW234905   2.972   4.658   7.337  0.8122  0.4397  0.3400
 7815SOL     OW34906   2.811   3.181   5.727  0.4046 -0.0878  0.7083
 7815SOL    HW134907   2.888   3.153   5.677 -0.4799  1.4610 -1.5154
 7815SOL    HW234908   2.849   3.181   5.815  2.2941  2.9739 -0.0965
 7816SOL     OW34909   4.631   0.745   3.472 -0.3254 -0.6391  0.1470
 7816SOL    HW134910   4.577   0.701   3.407  1.5482 -0.6742 -1.3747
 7816SOL    HW234911   4.567   0.803   3.514  0.9121  0.3406  0.6911
 7817SOL     OW34912   4.528   2.749   9.789 -0.0339 -0.4304 -0.4525
 7817SOL    HW134913   4.498   2.719   9.703  0.6356  0.8377 -1.1256
 7817SOL    HW234914   4.507   2.674   9.845  0.7549 -0.8981 -0.7732
 7818SOL     OW34915   4.256   4.313  11.968  0.2612  0.5488  0.0850
 7818SOL    HW134916   4.239   4.402  11.940 -0.0077  1.3307  2.6616
 7818SOL    HW234917   4.290   4.333  12.056  0.6050 -1.8124  0.5074
 7819SOL     OW34918   3.567   1.801   0.636 -0.3960 -0.1417  0.3525
 7819SOL    HW134919   3.658   1.795   0.605 -0.1946  0.0145  0.9188
 7819SOL    HW234920   3.575   1.795   0.731  0.8168 -3.5406  0.0280
 7820SOL     OW34921   2.461   0.260   3.503 -0.3277 -0.5335  0.3831
 7820SOL    HW134922   2.512   0.194   3.455 -0.1312 -0.0930 -0.0154
 7820SOL    HW234923   2.388   0.262   3.441 -1.5799  0.6276  1.8924
 7821SOL     OW34924   2.693   1.707   2.174 -0.0058 -0.7601 -0.2738
 7821SOL    HW134925   2.678   1.668   2.087 -2.0462 -0.5789 -0.0110
 7821SOL    HW234926   2.728   1.631   2.221  0.6987 -0.4126 -0.2405
 7822SOL     OW34927   2.851   3.376   8.640 -0.2082 -0.1867  0.0443
 7822SOL    HW134928   2.837   3.450   8.698 -1.7228 -1.5614  1.4405
 7822SOL    HW234929   2.822   3.299   8.688 -1.8598  0.0004 -0.6180
 7823SOL     OW34930   2.481   3.774   8.060 -0.0858 -0.1039  0.1801
 7823SOL    HW134931   2.541   3.702   8.076  0.1333  0.0299 -0.0467
 7823SOL    HW234932   2.425   3.749   8.134  0.1589 -2.0547 -0.2970
 7824SOL     OW34933   1.874   3.106   4.654  0.2559  0.1546  0.3754
 7824SOL    HW134934   1.904   3.189   4.691 -2.9524  1.8522 -0.8139
 7824SOL    HW234935   1.932   3.095   4.578 -0.4703 -0.6302 -0.0674
 7825SOL     OW34936   0.654   4.423  10.519 -0.6654 -0.0594 -0.4041
 7825SOL    HW134937   0.726   4.420  10.456 -0.9933 -1.2634 -0.7064
 7825SOL    HW234938   0.575   4.435  10.466  0.5285  2.5629 -1.6072
 7826SOL     OW34939   0.950   3.022   6.027 -0.0937 -0.6629  0.5947
 7826SOL    HW134940   0.873   2.967   6.013 -0.3005  0.1267 -1.2965
 7826SOL    HW234941   0.923   3.104   5.986  1.3789 -1.0036 -1.0851
 7827SOL     OW34942   0.706   0.234   6.761  0.3153 -0.7517  0.3811
 7827SOL    HW134943   0.667   0.316   6.732 -2.0408 -1.1386  2.4236
 7827SOL    HW234944   0.630   0.176   6.766  0.4022 -0.9223 -0.2880
 7828SOL     OW34945   0.926   2.663   6.522 -0.5954  0.1993  0.1703
 7828SOL    HW134946   0.944   2.734   6.584 -2.7353  0.1694  0.8148
 7828SOL    HW234947   1.008   2.615   6.531 -0.9861 -0.3124  0.9045
 7829SOL     OW34948   0.687   0.641   0.554 -0.3001 -0.6777 -0.1107
 7829SOL    HW134949   0.612   0.690   0.521  0.1900  1.7563  2.4337
 7829SOL    HW234950   0.757   0.696   0.520  1.0292 -2.1520  0.2150
 7830SOL     OW34951   4.483   2.225   2.269 -0.1098 -0.3922 -0.1740
 7830SOL    HW134952   4.516   2.139   2.246  1.4368 -0.1290  1.1303
 7830SOL    HW234953   4.437   2.254   2.190 -0.3255 -0.2173  0.0118
 7831SOL     OW34954   1.042   3.565  11.036 -0.0720 -0.1489  0.2643
 7831SOL    HW134955   1.114   3.549  10.975  0.1727  0.3086  0.4412
 7831SOL    HW234956   1.035   3.660  11.032 -0.4274 -0.1263  1.4651
 7832SOL     OW34957   4.459   3.300   6.529 -0.2058 -0.1929  0.2195
 7832SOL    HW134958   4.459   3.208   6.557 -0.2275 -0.1797  0.2628
 7832SOL    HW234959   4.396   3.291   6.458  1.2138  0.4749 -1.1145
 7833SOL     OW34960   3.804   0.021   8.741  0.2514 -0.3230 -0.2924
 7833SOL    HW134961   3.784   4.682   8.813 -0.7093  0.7470  0.3291
 7833SOL    HW234962   3.863   0.088   8.773  1.7871 -1.5418 -0.5961
 7834SOL     OW34963   3.671   1.420   7.016  0.4277 -0.2070  0.1814
 7834SOL    HW134964   3.751   1.425   7.069 -0.8888  1.7986  2.0208
 7834SOL    HW234965   3.646   1.511   6.999 -2.3126 -0.8711  0.6279
 7835SOL     OW34966   1.496   2.990   3.416 -0.0462  0.2998 -0.1453
 7835SOL    HW134967   1.507   3.057   3.484 -1.9964 -1.5063  1.9741
 7835SOL    HW234968   1.455   3.031   3.340 -0.1178 -2.2782 -1.4883
 7836SOL     OW34969   0.596   1.840   1.799  0.3292  0.1645  0.0513
 7836SOL    HW134970   0.529   1.813   1.862 -0.1177  0.2366 -0.3973
 7836SOL    HW234971   0.676   1.809   1.841  0.8946  0.8839 -0.4841
 7837SOL     OW34972   1.413   0.536   0.137 -0.8491  0.3312 -0.6362
 7837SOL    HW134973   1.398   0.601   0.068  1.1063  1.5929  0.1226
 7837SOL    HW234974   1.319   0.531   0.152 -0.2250 -0.8082  2.7661
 7838SOL     OW34975   1.025   2.948  10.198 -0.3932 -0.1557  0.2935
 7838SOL    HW134976   1.051   2.857  10.213  0.9861  0.4680  1.6959
 7838SOL    HW234977   0.955   2.965  10.261 -0.9768 -1.4445 -0.0160
 7839SOL     OW34978   0.103   3.880   2.116 -0.1843  0.2513 -0.0985
 7839SOL    HW134979   0.070   3.850   2.200  0.9042 -1.4033 -0.2773
 7839SOL    HW234980   0.165   3.951   2.132 -0.5960  0.6510 -0.2590
 7840SOL     OW34981   4.507   0.424   5.442 -0.1421  0.2074  0.0829
 7840SOL    HW134982   4.514   0.394   5.352  0.0947  1.3000 -0.2622
 7840SOL    HW234983   4.549   0.508   5.427  1.5331 -0.9541 -1.7840
 7841SOL     OW34984   1.635   0.533   0.567  0.0177 -0.0142 -0.4599
 7841SOL    HW134985   1.592   0.554   0.650  2.4007 -0.7199  0.9541
 7841SOL    HW234986   1.593   0.450   0.545 -0.4980  0.4252 -1.1492
 7842SOL     OW34987   3.835   3.127   3.166 -0.4715  0.1952  0.0847
 7842SOL    HW134988   3.825   3.043   3.122  0.6028 -1.6496  3.3950
 7842SOL    HW234989   3.747   3.164   3.157  0.7664  2.9808 -0.5664
 7843SOL     OW34990   1.647   4.493   8.332 -0.2496  0.1156 -0.0071
 7843SOL    HW134991   1.684   4.540   8.407 -0.3261  2.1683 -1.2550
 7843SOL    HW234992   1.564   4.463   8.368 -1.2784  1.2071 -1.4612
 7844SOL     OW34993   1.825   2.645   7.157 -0.1404 -0.0414  0.2431
 7844SOL    HW134994   1.733   2.670   7.143 -0.3097 -1.7975 -1.7462
 7844SOL    HW234995   1.827   2.625   7.251 -0.5575 -0.4410  0.1693
 7845SOL     OW34996   3.625   0.140   0.700  0.4172  0.7688  0.0492
 7845SOL    HW134997   3.646   0.114   0.789  3.1834 -2.3066 -1.5120
 7845SOL    HW234998   3.530   0.150   0.698  0.5450  2.2408  1.7895
 7846SOL     OW34999   2.198   3.182   6.758  0.3053 -0.6904  0.2390
 7846SOL    HW135000   2.156   3.203   6.841 -0.0434 -2.0442  0.4012
 7846SOL    HW235001   2.258   3.114   6.786 -1.7627 -2.1485  1.1273
 7847SOL     OW35002   0.049   4.468   6.368 -0.0167  0.2581  0.2528
 7847SOL    HW135003   0.137   4.460   6.331 -0.3953 -2.8556  0.0569
 7847SOL    HW235004   0.008   4.514   6.294  1.1222  0.6643 -0.1341
 7848SOL     OW35005   2.461   4.073   4.558  0.1637  0.6559  0.4361
 7848SOL    HW135006   2.436   4.105   4.644  0.7652 -0.8803  1.1776
 7848SOL    HW235007   2.499   4.152   4.519  1.2746  1.5289  3.3224
 7849SOL     OW35008   2.557   4.020   5.952 -0.0550  0.0871 -0.0879
 7849SOL    HW135009   2.514   4.013   6.037 -2.1011  1.3325 -1.0163
 7849SOL    HW235010   2.618   4.092   5.970 -1.5298  0.9776  1.2983
 7850SOL     OW35011   4.034   1.519   6.974 -0.3221  0.0048 -0.8475
 7850SOL    HW135012   4.003   1.459   6.906 -0.1354 -1.3285  0.2257
 7850SOL    HW235013   3.957   1.575   6.987  1.3617  2.3167 -0.9780
 7851SOL     OW35014   2.388   1.995   4.622  0.2966 -0.2723 -0.0870
 7851SOL    HW135015   2.447   1.921   4.638  0.2310 -0.7282 -1.9555
 7851SOL    HW235016   2.334   1.962   4.550  0.4787 -1.6683  0.4145
 7852SOL     OW35017   4.513   0.157  13.702 -0.4513 -0.0838 -0.3069
 7852SOL    HW135018   4.576   0.169  13.631 -1.4826 -0.0964 -1.2203
 7852SOL    HW235019   4.444   0.215  13.669 -0.9883  0.0077  0.9614
 7853SOL     OW35020   0.465   1.422  12.314  0.7339 -0.1732 -0.5224
 7853SOL    HW135021   0.406   1.390  12.383  0.7692 -0.1985 -0.5039
 7853SOL    HW235022   0.420   1.500  12.281 -1.6964 -1.2173  0.3483
 7854SOL     OW35023   0.756   4.373   5.693  0.3680  0.1764 -0.0270
 7854SOL    HW135024   0.760   4.285   5.654  0.1641  0.1424  0.0268
 7854SOL    HW235025   0.673   4.365   5.741 -0.0359  0.3769 -0.6911
 7855SOL     OW35026   1.070   0.322   4.679  0.2785  0.0348 -0.1092
 7855SOL    HW135027   0.985   0.353   4.711 -0.4044  0.4704 -2.3771
 7855SOL    HW235028   1.093   0.393   4.619  0.2793 -2.3441 -2.9296
 7856SOL     OW35029   4.013   2.684   4.622  0.2442  0.4558 -0.8669
 7856SOL    HW135030   3.974   2.638   4.697 -1.1004 -2.1359 -3.1455
 7856SOL    HW235031   4.094   2.715   4.662 -0.3267 -0.5211  1.0690
 7857SOL     OW35032   1.384   0.175  12.912  0.0344  0.4363  0.0420
 7857SOL    HW135033   1.299   0.140  12.940  0.2609 -0.9438 -1.0112
 7857SOL    HW235034   1.428   0.188  12.996  1.0466 -0.3635 -0.3648
 7858SOL     OW35035   1.768   2.408   1.852 -0.3109  0.0598 -0.5788
 7858SOL    HW135036   1.840   2.426   1.791 -0.5907  2.2833 -0.2443
 7858SOL    HW235037   1.809   2.346   1.913  2.2522  1.6006 -0.6942
 7859SOL     OW35038   1.705   0.889  15.118 -0.5846  0.8219 -0.3086
 7859SOL    HW135039   1.614   0.860  15.107 -0.2195 -1.8089  3.6052
 7859SOL    HW235040   1.721   0.870  15.211 -3.1219 -0.6364 -0.1629
 7860SOL     OW35041   3.686   2.429   4.341 -0.1695  0.2103  0.6832
 7860SOL    HW135042   3.710   2.413   4.432 -0.6801  0.5027  0.8720
 7860SOL    HW235043   3.771   2.411   4.301  0.1413  0.5345  1.1959
 7861SOL     OW35044   4.268   1.903   4.069  0.5937  0.0503  0.4474
 7861SOL    HW135045   4.209   1.901   4.144  1.0765  0.5042  0.8362
 7861SOL    HW235046   4.209   1.881   3.997 -1.1476  2.1777  1.2179
 7862SOL     OW35047   2.305   0.442   4.211  0.2861  0.1543  0.1124
 7862SOL    HW135048   2.259   0.474   4.133  1.6773 -1.2363 -1.2730
 7862SOL    HW235049   2.311   0.350   4.185  0.1552  0.0091  0.5999
 7863SOL     OW35050   3.915   4.590  10.214 -0.1043  0.0413  0.0421
 7863SOL    HW135051   3.911   4.657  10.281 -2.1023 -2.1092  2.0750
 7863SOL    HW235052   3.986   4.533  10.245 -1.1338 -0.5041  1.3933
 7864SOL     OW35053   1.693   3.675   7.195 -0.2777  0.3944 -0.0037
 7864SOL    HW135054   1.710   3.581   7.205 -4.4071 -0.2733  0.7100
 7864SOL    HW235055   1.673   3.694   7.104 -2.8243 -2.8629 -0.1585
 7865SOL     OW35056   2.698   2.024   3.063 -0.4788 -0.2667  0.4359
 7865SOL    HW135057   2.694   2.004   2.970  0.0022 -1.2774  0.6223
 7865SOL    HW235058   2.656   2.109   3.070 -2.9019 -1.1318 -3.5973
 7866SOL     OW35059   0.724   1.335   7.981  0.0048 -0.0650  0.1380
 7866SOL    HW135060   0.748   1.420   8.017 -0.5760  1.3677 -2.8754
 7866SOL    HW235061   0.679   1.302   8.058  1.6649 -0.5493  0.9136
 7867SOL     OW35062   3.032   2.301  10.144 -0.7342 -0.3957 -0.1863
 7867SOL    HW135063   3.078   2.282  10.062 -1.2642  0.8584 -0.7749
 7867SOL    HW235064   2.949   2.253  10.135  0.2809 -2.0404 -0.9282
 7868SOL     OW35065   1.223   1.472   6.039  0.4378 -0.9231  0.1778
 7868SOL    HW135066   1.131   1.445   6.046  0.0634  0.4145  0.4973
 7868SOL    HW235067   1.263   1.390   6.065 -1.6512 -1.9353  0.2539
 7869SOL     OW35068   3.216   2.948  14.619  0.2939  0.2820 -0.7177
 7869SOL    HW135069   3.194   2.861  14.652 -0.2314  0.6224 -0.1609
 7869SOL    HW235070   3.169   2.955  14.536 -0.4328  1.6800 -0.1845
 7870SOL     OW35071   1.066   3.023   6.626  0.0606  0.0595 -0.3485
 7870SOL    HW135072   1.090   3.106   6.668  1.0314 -0.5607  0.3306
 7870SOL    HW235073   0.974   3.006   6.644 -0.3324  0.7067 -1.6908
 7871SOL     OW35074   2.416   1.044   2.756 -0.1266 -0.2765 -0.4003
 7871SOL    HW135075   2.463   1.109   2.809 -1.5789  1.7754 -1.6294
 7871SOL    HW235076   2.480   0.972   2.751  0.9618  0.3882  3.7006
 7872SOL     OW35077   4.182   2.182   0.295 -0.5325 -0.7919  0.0445
 7872SOL    HW135078   4.161   2.230   0.375  1.8635 -0.7576  0.6579
 7872SOL    HW235079   4.277   2.180   0.291 -0.5754 -1.2702 -0.7291
 7873SOL     OW35080   0.238   0.500   1.340  0.6120  0.4425  0.1033
 7873SOL    HW135081   0.308   0.435   1.348  0.6613  0.3816 -0.8265
 7873SOL    HW235082   0.283   0.550   1.272  0.9966 -0.8215 -0.5787
 7874SOL     OW35083   0.623   0.611  11.755 -0.9229 -0.2027  0.2865
 7874SOL    HW135084   0.693   0.579  11.812  0.2735  0.8791 -0.5920
 7874SOL    HW235085   0.615   0.692  11.804  0.2882  0.8336 -1.2411
 7875SOL     OW35086   2.124   4.227   2.311 -0.0537  0.1671  0.5205
 7875SOL    HW135087   2.181   4.302   2.330  0.0121  0.2624 -0.0448
 7875SOL    HW235088   2.152   4.226   2.220 -1.4516  1.3190  0.0653
 7876SOL     OW35089   2.181   4.530   6.769 -0.3971 -0.4796  0.1414
 7876SOL    HW135090   2.272   4.554   6.749 -0.3043 -0.2716  0.7791
 7876SOL    HW235091   2.167   4.457   6.709  0.0564 -0.5893  0.1718
 7877SOL     OW35092   1.144   1.451   2.760 -0.4057 -0.1132  0.3592
 7877SOL    HW135093   1.114   1.363   2.738  1.9719 -0.8196  0.0177
 7877SOL    HW235094   1.111   1.503   2.687 -1.3009  0.0832  0.8994
 7878SOL     OW35095   0.334   1.134   9.085  0.1920 -0.0958 -0.1240
 7878SOL    HW135096   0.343   1.141   8.990  1.1580 -2.1588 -0.1860
 7878SOL    HW235097   0.423   1.151   9.116  0.1467  0.7391 -0.4458
 7879SOL     OW35098   3.599   1.039   7.256 -0.2057 -0.5321 -0.0274
 7879SOL    HW135099   3.565   1.128   7.241 -0.1608 -0.6541 -0.8385
 7879SOL    HW235100   3.679   1.047   7.204  0.4368 -1.4621  0.8295
 7880SOL     OW35101   2.741   4.140  12.099 -0.1363  0.2087  0.1426
 7880SOL    HW135102   2.710   4.178  12.181  3.0968  0.8575  1.0414
 7880SOL    HW235103   2.721   4.215  12.043 -0.5328 -0.5136 -0.6761
 7881SOL     OW35104   0.025   1.067   9.570 -0.1893 -0.2486  0.0196
 7881SOL    HW135105   0.116   1.093   9.558 -0.8033  0.8840 -2.1283
 7881SOL    HW235106   4.697   1.146   9.595 -2.1098 -0.7119 -2.3389
 7882SOL     OW35107   4.282   1.748  11.341 -0.0235  0.0728  0.1390
 7882SOL    HW135108   4.332   1.807  11.397  0.9034 -0.8242  0.2704
 7882SOL    HW235109   4.356   1.711  11.292  2.8852  1.7957  3.3127
 7883SOL     OW35110   2.941   2.730  14.274 -0.0885 -0.4645 -0.4032
 7883SOL    HW135111   2.969   2.742  14.184 -0.7334  1.3180 -0.3597
 7883SOL    HW235112   2.998   2.783  14.330 -0.4239  2.1608 -2.5157
 7884SOL     OW35113   1.108   0.646   3.707  0.1706  0.4978  0.3201
 7884SOL    HW135114   1.134   0.565   3.751  0.4326  0.4362  0.0520
 7884SOL    HW235115   1.110   0.620   3.615 -2.5926 -0.4173  0.5139
 7885SOL     OW35116   4.201   1.450  15.357 -0.0124  0.5522  0.0634
 7885SOL    HW135117   4.211   1.502  15.278 -2.7984  0.5154 -0.2880
 7885SOL    HW235118   4.268   1.498  15.407 -0.5687  1.9648 -0.5813
 7886SOL     OW35119   0.381   3.777   4.925  0.2684 -0.0521  0.0291
 7886SOL    HW135120   0.409   3.816   5.008 -0.7823  0.0908  0.3221
 7886SOL    HW235121   0.393   3.844   4.858  0.5322  3.3489  3.4513
 7887SOL     OW35122   1.563   0.013   6.993 -0.0569 -0.2709 -0.0686
 7887SOL    HW135123   1.656   0.014   6.971 -0.0503 -2.0297 -0.1206
 7887SOL    HW235124   1.532   0.104   7.001 -0.4843 -0.3136 -1.2323
 7888SOL     OW35125   3.305   2.741   3.552  0.2085 -0.3545 -0.5167
 7888SOL    HW135126   3.387   2.790   3.543 -1.0923  1.5383 -2.2678
 7888SOL    HW235127   3.329   2.649   3.560  0.4773 -0.3364 -1.0888
 7889SOL     OW35128   2.145   1.117  15.852 -0.1114 -0.3627  0.0667
 7889SOL    HW135129   2.214   1.063  15.814  1.3832  0.9500  0.9647
 7889SOL    HW235130   2.206   1.167  15.906 -0.9996 -0.8475  1.5043
 7890SOL     OW35131   2.827   0.412   8.042 -0.4853  0.0564 -0.3028
 7890SOL    HW135132   2.835   0.505   8.064  0.9163 -0.0821 -0.1930
 7890SOL    HW235133   2.792   0.419   7.953 -0.6752 -0.3075 -0.2572
 7891SOL     OW35134   3.696   3.579  12.519 -0.1699 -0.8204 -0.0040
 7891SOL    HW135135   3.698   3.552  12.610 -0.5620 -1.4987 -0.1914
 7891SOL    HW235136   3.606   3.555  12.494 -0.1700  1.0837 -1.8556
 7892SOL     OW35137   0.432   2.349   3.574 -0.9179  0.8758  0.1143
 7892SOL    HW135138   0.515   2.311   3.602 -2.0500 -0.6338  1.3505
 7892SOL    HW235139   0.384   2.334   3.655 -0.2845  0.0530  0.3343
 7893SOL     OW35140   4.357   0.047   5.178 -0.5398  0.2716 -0.3549
 7893SOL    HW135141   4.304   0.086   5.110  0.8221  1.4268 -0.7511
 7893SOL    HW235142   4.356   4.676   5.151 -0.3570 -0.0279  0.6567
 7894SOL     OW35143   0.168   3.628   0.727 -0.2186  0.3962 -0.1083
 7894SOL    HW135144   0.163   3.664   0.638 -1.0092 -2.0517 -1.0593
 7894SOL    HW235145   0.251   3.581   0.715 -0.3747 -0.2856  1.5092
 7895SOL     OW35146   1.623   2.710   7.497 -0.0240  0.1653 -0.2340
 7895SOL    HW135147   1.532   2.679   7.496  0.4129 -1.0229 -2.9226
 7895SOL    HW235148   1.627   2.804   7.481  0.2432  0.1106 -0.4810
 7896SOL     OW35149   2.297   1.913  16.553  0.0826  0.4549  0.3714
 7896SOL    HW135150   2.248   1.866  16.485  0.9549  1.4826 -0.9493
 7896SOL    HW235151   2.313   1.838  16.610  1.3003  0.7944  0.4700
 7897SOL     OW35152   2.452   3.436   8.240 -0.1982 -0.0513 -0.5684
 7897SOL    HW135153   2.433   3.387   8.320 -0.8880  1.3154  0.1002
 7897SOL    HW235154   2.436   3.528   8.262  0.2651  0.0458 -0.6394
 7898SOL     OW35155   0.909   3.675   8.982 -0.5248 -0.6029 -0.0973
 7898SOL    HW135156   0.829   3.691   9.032 -1.3033  0.3886 -1.6533
 7898SOL    HW235157   0.980   3.648   9.041 -1.8345  1.7008  2.5161
 7899SOL     OW35158   2.855   0.360   9.224  0.1720  0.1298 -0.4373
 7899SOL    HW135159   2.949   0.376   9.212 -0.0285 -0.5955 -3.0918
 7899SOL    HW235160   2.816   0.381   9.139  2.1247 -0.2910 -1.4444
 7900SOL     OW35161   4.157   3.969  13.125 -0.2018  0.0878 -0.2656
 7900SOL    HW135162   4.250   3.978  13.108 -0.2943 -0.9911 -1.2796
 7900SOL    HW235163   4.162   3.985  13.219  0.0215  2.5389 -0.6854
 7901SOL     OW35164   4.674   3.877   4.535  0.4174 -0.5820  0.2204
 7901SOL    HW135165   0.041   3.874   4.573  0.4583  1.6727  0.3347
 7901SOL    HW235166   4.644   3.967   4.549  0.4363 -1.0166  3.0405
 7902SOL     OW35167   0.330   3.789   5.453 -0.0915  0.0091 -0.5624
 7902SOL    HW135168   0.418   3.795   5.417  0.8715 -0.7560  1.6175
 7902SOL    HW235169   0.284   3.773   5.371  0.4021  0.7950 -0.9895
 7903SOL     OW35170   2.197   0.985   7.734  0.3378 -0.0131 -0.1083
 7903SOL    HW135171   2.277   0.940   7.760  0.2366 -0.0767  0.0939
 7903SOL    HW235172   2.192   1.059   7.794  0.9496  1.3321 -1.7187
 7904SOL     OW35173   1.097   2.148   6.327 -0.2570 -0.3105 -0.4578
 7904SOL    HW135174   1.079   2.095   6.250 -2.4068  0.8633 -0.7760
 7904SOL    HW235175   1.007   2.177   6.341 -0.7929 -1.8557 -0.6525
 7905SOL     OW35176   3.382   3.018  16.311 -0.2236 -0.0215 -0.3205
 7905SOL    HW135177   3.422   2.984  16.231 -2.3447  1.2772 -1.9050
 7905SOL    HW235178   3.452   3.072  16.348  0.6885  0.1030 -2.2550
 7906SOL     OW35179   2.230   0.270  13.969  0.2870  0.1504 -0.1784
 7906SOL    HW135180   2.269   0.357  13.966  3.0555 -0.9972  2.1398
 7906SOL    HW235181   2.243   0.247  14.061 -1.1305 -0.8485 -0.2315
 7907SOL     OW35182   0.071   3.026  13.491 -0.2565 -0.4658 -0.1224
 7907SOL    HW135183   0.125   2.949  13.473 -1.3719 -1.3148  0.2024
 7907SOL    HW235184   0.007   3.020  13.421  0.7313 -1.5884 -0.9288
 7908SOL     OW35185   2.305   0.008   0.195  0.5149 -0.2302  0.6096
 7908SOL    HW135186   2.315   0.020   0.289 -0.2822 -1.6552  0.8737
 7908SOL    HW235187   2.388   0.047   0.167 -0.4205  0.4911 -1.1594
 7909SOL     OW35188   4.579   0.845   7.491  0.8360 -0.3834 -0.4601
 7909SOL    HW135189   4.646   0.879   7.431  0.8499 -0.7443 -0.6464
 7909SOL    HW235190   4.608   0.758   7.517  0.2396 -0.6454 -0.6880
 7910SOL     OW35191   3.910   2.227   6.990  0.2605  0.1029  0.2472
 7910SOL    HW135192   3.954   2.227   6.905  2.1647 -1.5639  1.2394
 7910SOL    HW235193   3.987   2.215   7.046  0.1227  3.3653  1.1320
 7911SOL     OW35194   3.672   4.612   5.869  0.1713  0.6165  0.4813
 7911SOL    HW135195   3.717   4.589   5.787 -3.8596 -1.1668 -1.2105
 7911SOL    HW235196   3.724   4.680   5.912 -0.1437  0.8956  0.4236
 7912SOL     OW35197   3.097   1.420   5.534  0.3273 -0.2564  0.0345
 7912SOL    HW135198   3.025   1.391   5.478 -1.6295  1.2451  1.8067
 7912SOL    HW235199   3.079   1.360   5.607 -1.5190  1.8665  1.3063
 7913SOL     OW35200   2.058   3.081   9.901  0.4011 -0.2111  0.2397
 7913SOL    HW135201   2.079   3.069   9.994 -0.0235  0.0007  0.3662
 7913SOL    HW235202   2.148   3.074   9.870  0.0090 -0.5750 -0.7939
 7914SOL     OW35203   3.439   1.729   1.990 -0.2763 -0.1833  0.0916
 7914SOL    HW135204   3.534   1.730   1.976 -0.6720  0.0024 -2.5726
 7914SOL    HW235205   3.402   1.699   1.907  0.3967  3.1143 -1.3695
 7915SOL     OW35206   0.554   1.746  15.663  0.4211 -0.5814  0.3059
 7915SOL    HW135207   0.467   1.705  15.662  0.0030  0.2937  1.3867
 7915SOL    HW235208   0.576   1.740  15.756  2.7028  2.0356 -0.0597
 7916SOL     OW35209   4.411   3.292   4.646 -0.7384  0.1871 -0.3913
 7916SOL    HW135210   4.409   3.357   4.576 -0.3871  0.3491 -0.2539
 7916SOL    HW235211   4.390   3.347   4.722 -0.3743  1.0370 -0.9069
 7917SOL     OW35212   1.008   4.632   7.618  0.4605  0.1141  0.2413
 7917SOL    HW135213   1.016   0.001   7.653 -4.2005  0.3137  0.8183
 7917SOL    HW235214   1.040   4.638   7.528  0.0105 -0.8386  0.0221
 7918SOL     OW35215   2.312   1.507   5.651 -0.0294  0.2732  0.0405
 7918SOL    HW135216   2.258   1.570   5.603  0.1516 -0.7653 -1.5036
 7918SOL    HW235217   2.396   1.532   5.614 -1.9280  2.0703 -2.9612
 7919SOL     OW35218   4.251   4.467   4.308 -0.6083  0.0993 -0.1856
 7919SOL    HW135219   4.213   4.469   4.220 -1.7132 -1.3773  0.2628
 7919SOL    HW235220   4.285   4.555   4.325  0.7911 -0.5445  0.4032
 7920SOL     OW35221   4.454   0.986  11.143 -0.4333 -0.2703 -0.0843
 7920SOL    HW135222   4.371   0.946  11.117 -0.1736 -0.8431 -0.0498
 7920SOL    HW235223   4.408   1.030  11.215 -0.8832 -1.8080  0.5760
 7921SOL     OW35224   3.289   4.366   5.530 -0.0595  0.1893  0.1790
 7921SOL    HW135225   3.253   4.417   5.457  0.5836  0.2727 -0.0809
 7921SOL    HW235226   3.209   4.359   5.582  0.8544 -1.9332  1.2718
 7922SOL     OW35227   3.771   3.385  10.899 -0.2059 -0.2443 -0.1209
 7922SOL    HW135228   3.775   3.478  10.917  0.1862 -0.3489  0.3354
 7922SOL    HW235229   3.836   3.376  10.829 -0.1536  0.9091 -0.2158
 7923SOL     OW35230   3.226   1.422   6.355  0.2154  0.4162  0.1994
 7923SOL    HW135231   3.146   1.475   6.345 -1.0742 -1.8149 -1.1088
 7923SOL    HW235232   3.242   1.398   6.264  0.3231 -2.8307  1.0890
 7924SOL     OW35233   2.230   2.728   6.851  0.1029  0.1604 -0.4073
 7924SOL    HW135234   2.216   2.733   6.945  1.4511 -0.8528 -0.1480
 7924SOL    HW235235   2.145   2.702   6.816  0.1095  2.5150 -2.2166
 7925SOL     OW35236   4.013   4.007   4.324 -0.2664 -0.3561  0.1420
 7925SOL    HW135237   3.951   3.967   4.385  0.6691 -0.5190  0.9708
 7925SOL    HW235238   4.054   4.075   4.378 -1.9648 -0.2025  1.2365
 7926SOL     OW35239   1.076   0.673   8.291 -0.9619 -0.3929  0.0474
 7926SOL    HW135240   0.993   0.626   8.294 -1.5094  0.4884 -1.6215
 7926SOL    HW235241   1.052   0.760   8.261  0.1432 -0.0863  0.0609
 7927SOL     OW35242   2.161   1.715   9.838  0.0009  0.2546 -0.0511
 7927SOL    HW135243   2.090   1.679   9.786 -0.2784 -2.2725  2.0957
 7927SOL    HW235244   2.105   1.766   9.897  0.0062  0.5670 -0.3154
 7928SOL     OW35245   4.220   1.244  16.539 -0.1405  0.1450  0.0892
 7928SOL    HW135246   4.272   1.181  16.587  0.0694  1.8344  2.0766
 7928SOL    HW235247   4.249   1.328  16.575 -0.4141 -0.1770  1.0596
 7929SOL     OW35248   2.788   4.219  11.021 -0.1947  0.0005 -0.6067
 7929SOL    HW135249   2.838   4.267  11.087  1.1304 -0.8663 -0.9665
 7929SOL    HW235250   2.697   4.234  11.044 -0.4096  0.4680 -1.7680
 7930SOL     OW35251   1.086   1.616  14.697  0.5926 -0.2723  0.2170
 7930SOL    HW135252   1.078   1.545  14.761  1.5998 -1.5659 -1.0753
 7930SOL    HW235253   1.066   1.579  14.611  0.6187 -1.0567  0.5433
 7931SOL     OW35254   3.390   3.673  17.089  0.2242  0.1955  0.2166
 7931SOL    HW135255   3.434   3.588  17.091  1.0484  0.6283  0.5066
 7931SOL    HW235256   3.332   3.668  17.166  0.0272  1.3146  0.1357
 7932SOL     OW35257   0.672   3.619   6.458  0.1042  0.0756  0.2446
 7932SOL    HW135258   0.701   3.528   6.450 -0.9350 -0.3814  1.5640
 7932SOL    HW235259   0.706   3.639   6.546  2.0805 -2.0529 -0.0265
 7933SOL     OW35260   0.758   1.217  11.510  0.6002  0.3009 -0.5493
 7933SOL    HW135261   0.776   1.176  11.425  0.7814 -0.5487 -0.1021
 7933SOL    HW235262   0.670   1.184  11.525  0.4686  1.1937  0.6357
 7934SOL     OW35263   2.056   1.433   6.542 -0.0652 -0.6918 -0.1983
 7934SOL    HW135264   2.108   1.357   6.568  0.2383 -0.4491 -0.0947
 7934SOL    HW235265   1.993   1.443   6.614  0.9786  1.9851  0.3394
 7935SOL     OW35266   2.689   0.100  17.444 -0.4225  0.2863 -0.6336
 7935SOL    HW135267   2.624   0.060  17.502  1.5026 -0.3692  1.0799
 7935SOL    HW235268   2.762   0.070  17.498 -0.7048  0.0856 -0.3680
 7936SOL     OW35269   0.073   4.033   5.506 -0.1664 -0.2151 -0.3223
 7936SOL    HW135270   0.137   3.963   5.520 -1.2273 -1.1890 -0.3529
 7936SOL    HW235271   0.022   3.998   5.434 -1.0839 -0.9665  0.6965
 7937SOL     OW35272   3.787   2.313   3.182 -0.4828 -0.4577  0.7032
 7937SOL    HW135273   3.776   2.280   3.271  2.2159 -0.2854  1.1000
 7937SOL    HW235274   3.806   2.239   3.125  0.6026 -0.4494  1.0349
 7938SOL     OW35275   0.201   3.833   7.090  0.0839 -0.4476  0.0490
 7938SOL    HW135276   0.177   3.776   7.018 -0.4289  0.9459 -0.8919
 7938SOL    HW235277   0.254   3.897   7.042  2.5245 -0.1040  3.1656
 7939SOL     OW35278   3.910   1.878   7.106 -0.3405  0.0451 -0.4527
 7939SOL    HW135279   4.006   1.881   7.102 -0.3386  0.4016 -0.1900
 7939SOL    HW235280   3.901   1.862   7.199 -1.3653 -3.3116 -1.1524
 7940SOL     OW35281   2.293   2.950   2.939  0.6208  0.3272  0.4621
 7940SOL    HW135282   2.375   2.954   2.987  0.0945  0.1359  1.3680
 7940SOL    HW235283   2.289   3.035   2.894  2.3222  0.5159  0.6565
 7941SOL     OW35284   3.283   3.014   7.595  0.3785 -0.2539 -0.2244
 7941SOL    HW135285   3.323   2.998   7.510 -3.4086  0.4400 -2.1485
 7941SOL    HW235286   3.343   3.079   7.631 -0.0398 -0.4190  0.7693
 7942SOL     OW35287   0.729   3.287  16.374  0.0422 -0.2160  0.0610
 7942SOL    HW135288   0.787   3.251  16.307  0.1650  2.1238 -1.0911
 7942SOL    HW235289   0.642   3.277  16.336 -0.1868  0.4148  0.4178
 7943SOL     OW35290   2.741   4.066   7.284 -0.1363  0.0460 -0.2595
 7943SOL    HW135291   2.715   3.983   7.324  1.3218  0.4052  1.4336
 7943SOL    HW235292   2.696   4.046   7.202  0.2390 -0.8783 -0.2499
 7944SOL     OW35293   0.531   2.128   5.062 -0.2238 -0.2841 -0.0359
 7944SOL    HW135294   0.440   2.122   5.092  0.1497 -3.9366  0.4042
 7944SOL    HW235295   0.567   2.048   5.101 -1.8961  0.0315  2.1513
 7945SOL     OW35296   4.711   1.165   2.223 -0.2952 -0.4443  0.0141
 7945SOL    HW135297   0.030   1.240   2.179 -2.2617 -0.5565 -1.9303
 7945SOL    HW235298   0.055   1.154   2.292 -0.5231  0.6122  0.4004
 7946SOL     OW35299   3.418   2.991   5.404  0.9412 -0.0787 -0.6325
 7946SOL    HW135300   3.397   3.057   5.470  1.1581 -1.6668  1.0107
 7946SOL    HW235301   3.459   2.913   5.440  1.1347  0.7134  0.8495
 7947SOL     OW35302   0.478   3.686   6.280 -0.9106  0.2384 -0.5965
 7947SOL    HW135303   0.421   3.758   6.310 -1.8101  0.5335 -3.0395
 7947SOL    HW235304   0.531   3.652   6.352 -1.9554  3.2972  1.6213
 7948SOL     OW35305   4.029   1.521   1.073  0.5250  0.1771 -0.3301
 7948SOL    HW135306   4.082   1.535   1.152 -0.8912  0.9398  0.4778
 7948SOL    HW235307   4.067   1.438   1.043  1.6161 -0.0830  1.7364
 7949SOL     OW35308   2.044   1.656  13.131  0.1281 -0.2138 -0.2458
 7949SOL    HW135309   2.055   1.573  13.086 -0.2188 -0.6138  0.4099
 7949SOL    HW235310   1.951   1.657  13.152 -0.0505  0.0896 -1.0591
 7950SOL     OW35311   0.958   2.704  14.077 -0.3353  0.0088 -0.0359
 7950SOL    HW135312   1.018   2.755  14.022 -1.2741 -0.0668 -1.1309
 7950SOL    HW235313   0.879   2.759  14.076  0.8795  1.6972 -1.8528
 7951SOL     OW35314   3.733   3.407   2.502  0.3774 -0.1584 -0.8555
 7951SOL    HW135315   3.656   3.360   2.470 -0.0011  0.6584 -1.1429
 7951SOL    HW235316   3.795   3.374   2.437 -0.2285  1.1513 -2.1024
 7952SOL     OW35317   2.758   0.379  13.623  0.2474  0.7069 -0.4421
 7952SOL    HW135318   2.799   0.294  13.634 -0.6117  0.0934 -2.1300
 7952SOL    HW235319   2.697   0.380  13.697  1.4399  1.4441  0.5458
 7953SOL     OW35320   2.370   2.734   5.430 -0.1190  0.3170 -0.3982
 7953SOL    HW135321   2.449   2.737   5.375 -0.5821  0.7828 -1.0390
 7953SOL    HW235322   2.397   2.670   5.495  0.0824 -0.2504 -1.0324
 7954SOL     OW35323   3.393   3.201   9.243 -0.1479 -0.0423 -0.2538
 7954SOL    HW135324   3.434   3.143   9.178 -1.0228 -1.3755  0.3811
 7954SOL    HW235325   3.305   3.194   9.207 -0.2606  1.7579 -0.3195
 7955SOL     OW35326   0.541   1.486   3.776 -0.5083 -0.2011 -0.4361
 7955SOL    HW135327   0.497   1.556   3.727  2.0303  0.0447 -2.3564
 7955SOL    HW235328   0.586   1.536   3.844  1.0882 -0.9806 -0.9193
 7956SOL     OW35329   3.710   4.665   0.269  0.4519 -0.1594 -0.0937
 7956SOL    HW135330   3.622   4.652   0.303  0.9251 -1.1615  0.7340
 7956SOL    HW235331   3.742   0.007   0.333 -0.3028  2.0450 -1.8914
 7957SOL     OW35332   3.744   3.583   5.435 -0.0233  0.0572 -0.0891
 7957SOL    HW135333   3.699   3.662   5.465 -0.9777 -1.2841  2.0676
 7957SOL    HW235334   3.769   3.555   5.523 -0.9849  2.7100  1.0396
 7958SOL     OW35335   2.011   2.485   0.871  0.1074 -0.1749 -0.2364
 7958SOL    HW135336   2.095   2.518   0.840  0.0922  1.0905  1.0651
 7958SOL    HW235337   1.968   2.542   0.935 -1.7419 -0.4759 -1.2020
 7959SOL     OW35338   1.847   1.102   7.238 -0.7063 -0.2367  0.4044
 7959SOL    HW135339   1.912   1.032   7.227 -1.3461 -0.3729 -2.4353
 7959SOL    HW235340   1.866   1.131   7.327  0.6472  0.2491 -0.0433
 7960SOL     OW35341   2.642   1.259  15.554  0.2910 -0.4869  0.1547
 7960SOL    HW135342   2.658   1.334  15.497 -0.4808 -0.5218 -0.1084
 7960SOL    HW235343   2.682   1.189  15.504  0.1254 -2.1992  2.4341
 7961SOL     OW35344   3.407   3.796   5.889 -0.3175 -0.0633 -1.0507
 7961SOL    HW135345   3.472   3.730   5.867  1.2094 -0.4678  4.5101
 7961SOL    HW235346   3.426   3.803   5.983  1.0439 -0.7515 -1.2760
 7962SOL     OW35347   2.780   1.804   3.659  0.0444  0.1533 -0.0888
 7962SOL    HW135348   2.825   1.859   3.722 -1.4906  1.8241 -0.4442
 7962SOL    HW235349   2.703   1.786   3.713  1.1254 -3.1337  0.3290
 7963SOL     OW35350   3.088   0.930   0.822  0.2117 -0.0233  0.4399
 7963SOL    HW135351   3.065   0.968   0.737  2.6737  3.0119  1.1545
 7963SOL    HW235352   3.056   0.841   0.808  0.9837 -0.4721  1.4942
 7964SOL     OW35353   4.382   3.971   8.698  0.0656 -0.6309  0.2523
 7964SOL    HW135354   4.469   3.954   8.663 -0.2956 -0.4098 -0.7406
 7964SOL    HW235355   4.337   4.018   8.628 -0.3945 -1.9099 -0.2982
 7965SOL     OW35356   4.139   3.243  13.875 -0.7468  0.0510  0.3400
 7965SOL    HW135357   4.155   3.285  13.960  0.4490 -1.7048  0.9566
 7965SOL    HW235358   4.085   3.171  13.907  0.3354 -1.2247 -0.7243
 7966SOL     OW35359   0.670   3.639   2.804  0.1294 -0.1837 -0.1443
 7966SOL    HW135360   0.721   3.677   2.876  1.5485 -1.2836 -0.5764
 7966SOL    HW235361   0.623   3.719   2.780  0.0895 -0.3298 -0.5512
 7967SOL     OW35362   0.322   2.500   7.336  0.3470  0.5917  0.3515
 7967SOL    HW135363   0.234   2.464   7.348  1.0626 -1.0936  0.5215
 7967SOL    HW235364   0.303   2.588   7.305 -1.0502  0.2294  0.1817
 7968SOL     OW35365   1.953   3.051  17.398 -0.5614  0.0559  0.6207
 7968SOL    HW135366   1.878   3.042  17.340  0.9055  2.5974 -1.6999
 7968SOL    HW235367   1.970   2.959  17.418 -1.2384 -0.1622  0.2150
 7969SOL     OW35368   2.830   0.101   4.945 -0.0801  0.6973 -0.0631
 7969SOL    HW135369   2.887   0.048   4.890 -0.0616  1.0978 -0.4318
 7969SOL    HW235370   2.895   0.128   5.009 -0.7981  0.4755  0.7706
 7970SOL     OW35371   1.679   4.530  16.348  0.3231 -0.6577 -0.1262
 7970SOL    HW135372   1.753   4.470  16.358  0.5865  0.0127  1.8343
 7970SOL    HW235373   1.662   4.562  16.437  1.6291 -0.1147 -0.0803
 7971SOL     OW35374   2.833   1.534   9.471  0.1947  0.9487  0.2908
 7971SOL    HW135375   2.880   1.469   9.418 -1.4696  0.4303 -0.5441
 7971SOL    HW235376   2.751   1.510   9.429 -1.6339  1.8482  3.2746
 7972SOL     OW35377   2.740   4.507   2.157  0.3624 -0.3055 -0.1064
 7972SOL    HW135378   2.754   4.430   2.102  0.1807 -1.2936  1.2325
 7972SOL    HW235379   2.827   4.543   2.173 -0.5237  1.8878 -0.2572
 7973SOL     OW35380   2.491   0.329   0.265 -0.0384 -0.1307  0.4366
 7973SOL    HW135381   2.580   0.335   0.300  0.5435 -0.6958 -0.9496
 7973SOL    HW235382   2.491   0.246   0.217 -0.5049  0.1086  0.0303
 7974SOL     OW35383   0.397   4.577  12.021 -0.2346 -0.0936 -0.2159
 7974SOL    HW135384   0.305   4.560  12.043 -0.6668  0.3532 -1.6269
 7974SOL    HW235385   0.412   4.663  12.059  0.3170 -0.4966  0.4761
 7975SOL     OW35386   3.330   2.055   3.178 -0.6330  0.0931  0.2848
 7975SOL    HW135387   3.333   2.056   3.274  1.0832 -1.1560  0.2281
 7975SOL    HW235388   3.420   2.034   3.157 -2.0368 -2.6823 -2.9797
 7976SOL     OW35389   3.200   2.732   6.266 -0.0859  0.0932 -0.3062
 7976SOL    HW135390   3.175   2.644   6.294 -0.8708  0.3116 -0.3216
 7976SOL    HW235391   3.142   2.734   6.190  0.6313 -0.7323 -0.8839
 7977SOL     OW35392   1.779   3.478   3.628  0.0493  0.2929  0.3261
 7977SOL    HW135393   1.772   3.568   3.660  0.0121  0.8366 -1.2176
 7977SOL    HW235394   1.819   3.439   3.706  1.1803 -1.2351 -1.0286
 7978SOL     OW35395   1.478   4.195  13.559  0.1217 -0.1919 -0.1935
 7978SOL    HW135396   1.519   4.263  13.612 -2.3962  1.1230  0.0503
 7978SOL    HW235397   1.455   4.124  13.620 -1.8960 -0.1978 -0.9523
 7979SOL     OW35398   3.673   2.171   5.302  0.3245  0.0506  0.0912
 7979SOL    HW135399   3.602   2.222   5.339 -1.3826 -0.4254 -2.4914
 7979SOL    HW235400   3.748   2.220   5.333  2.4131 -1.8221 -1.9679
 7980SOL     OW35401   2.185   0.494   6.648 -0.0776  0.6197 -0.0910
 7980SOL    HW135402   2.164   0.437   6.574 -0.6041 -0.3186  0.7839
 7980SOL    HW235403   2.145   0.574   6.613 -0.3756 -0.0096 -1.2068
 7981SOL     OW35404   1.656   3.024   7.999 -0.1113  0.2465 -0.1235
 7981SOL    HW135405   1.637   3.091   7.933 -0.5974  0.0052 -0.2358
 7981SOL    HW235406   1.697   2.961   7.940 -0.0367  0.0615  0.1261
 7982SOL     OW35407   3.212   0.959   2.577 -0.1853 -0.5767 -0.2760
 7982SOL    HW135408   3.276   0.924   2.639  0.0155 -0.5574 -0.4715
 7982SOL    HW235409   3.225   1.052   2.597  1.6079 -0.4741 -1.8776
 7983SOL     OW35410   1.948   1.379   7.681  0.8668 -0.0252 -0.1257
 7983SOL    HW135411   1.898   1.453   7.715 -1.6936 -1.9933  0.4124
 7983SOL    HW235412   2.012   1.371   7.752  0.5162  2.7957  0.5172
 7984SOL     OW35413   2.513   1.183   5.193 -0.0427  0.1622  0.1303
 7984SOL    HW135414   2.554   1.154   5.112 -0.2280  1.4759 -0.4234
 7984SOL    HW235415   2.537   1.113   5.255 -1.4620  1.5945  2.3170
 7985SOL     OW35416   3.161   4.672  12.311 -0.5178  0.4755 -0.2689
 7985SOL    HW135417   3.069   4.648  12.324 -0.8975  1.8545 -0.3873
 7985SOL    HW235418   3.193   4.633  12.392 -0.5852  2.5850  0.7705
 7986SOL     OW35419   4.162   3.424   8.233  0.3675  0.3770 -0.2168
 7986SOL    HW135420   4.224   3.442   8.303  0.2314 -1.4756  0.3776
 7986SOL    HW235421   4.165   3.329   8.226 -1.2857  0.0870  2.7427
 7987SOL     OW35422   2.561   0.946   4.029 -0.2911  0.8152  0.3582
 7987SOL    HW135423   2.492   0.884   4.004  0.2525 -0.1991  1.3659
 7987SOL    HW235424   2.623   0.937   3.956  0.2617  2.3421  0.6480
 7988SOL     OW35425   2.748   0.316   3.300 -0.8642 -0.3719 -0.2841
 7988SOL    HW135426   2.843   0.306   3.294 -0.7148 -0.5055  2.2599
 7988SOL    HW235427   2.719   0.227   3.322 -0.4467 -0.2715  0.6615
 7989SOL     OW35428   2.047   3.534   0.614  0.1637 -0.0521 -0.6279
 7989SOL    HW135429   2.140   3.510   0.617  0.1968 -0.1443 -2.4824
 7989SOL    HW235430   2.055   3.630   0.622 -2.8514  0.0072  1.6135
 7990SOL     OW35431   3.315   0.107   1.759 -0.1403  0.0454 -0.3264
 7990SOL    HW135432   3.380   0.103   1.689 -1.2304  0.5536 -1.3568
 7990SOL    HW235433   3.365   0.112   1.841  0.1753  1.0862 -0.5778
 7991SOL     OW35434   0.217   2.028   9.892 -0.3648  0.1063  0.3515
 7991SOL    HW135435   0.125   2.034   9.917 -0.1921 -0.9680  1.2663
 7991SOL    HW235436   0.262   2.027   9.976 -0.1982  0.3353  0.2641
 7992SOL     OW35437   1.671   0.855  10.236 -0.5239 -0.0377  0.5966
 7992SOL    HW135438   1.683   0.779  10.294 -2.7526  0.3600  1.5602
 7992SOL    HW235439   1.597   0.835  10.179  0.8710 -1.4364 -0.7371
 7993SOL     OW35440   4.493   2.276   5.474 -0.3185 -0.3450  0.3358
 7993SOL    HW135441   4.438   2.351   5.496 -1.0301 -0.6606 -0.3761
 7993SOL    HW235442   4.543   2.258   5.554  1.0628  4.5297  0.5470
 7994SOL     OW35443   3.709   4.439   4.856  0.1494 -0.0337 -0.3481
 7994SOL    HW135444   3.630   4.389   4.838 -0.5230  0.9031  0.0031
 7994SOL    HW235445   3.762   4.419   4.779  1.4013  2.0357 -0.0366
 7995SOL     OW35446   0.158   3.103   5.708 -0.1945  0.1636 -0.3805
 7995SOL    HW135447   0.254   3.107   5.710 -0.1614 -0.0321 -1.8696
 7995SOL    HW235448   0.143   3.169   5.641  2.4730 -0.4133 -1.5483
 7996SOL     OW35449   3.634   0.538  10.847  0.0155  0.0870  0.0250
 7996SOL    HW135450   3.612   0.552  10.940  3.9704 -0.1781  1.0010
 7996SOL    HW235451   3.714   0.487  10.845  0.3105  0.5770 -0.4374
 7997SOL     OW35452   0.752   2.626  10.537  0.1163  0.0864 -0.0959
 7997SOL    HW135453   0.712   2.570  10.602 -0.0057 -0.9739 -1.0832
 7997SOL    HW235454   0.843   2.636  10.566  0.3115  1.0742 -1.0508
 7998SOL     OW35455   3.506   2.865   4.199 -0.2003 -0.3032 -0.1212
 7998SOL    HW135456   3.528   2.802   4.130 -1.4467  0.8398 -1.5423
 7998SOL    HW235457   3.575   2.848   4.264 -0.2659  0.5838  0.1724
 7999SOL     OW35458   0.564   2.224   2.972 -0.0503 -0.0092 -1.4892
 7999SOL    HW135459   0.655   2.193   2.964  0.9407  2.0348  1.6494
 7999SOL    HW235460   0.576   2.299   3.031  2.0215 -1.3256 -0.2329
 8000SOL     OW35461   4.509   3.419   5.993 -0.4736  0.1601  0.3292
 8000SOL    HW135462   4.483   3.510   6.010 -1.0301 -0.1168  0.9168
 8000SOL    HW235463   4.527   3.381   6.079  1.8830  0.9378  0.1952
 8001SOL     OW35464   0.028   2.526   2.838  0.3120  0.2182 -0.6502
 8001SOL    HW135465   0.034   2.621   2.847  0.0954  0.1211  0.5687
 8001SOL    HW235466   0.007   2.523   2.745  1.7429 -2.8293 -0.8761
 8002SOL     OW35467   3.225   2.101   6.712 -0.1058 -0.1907  0.3142
 8002SOL    HW135468   3.262   2.153   6.783 -1.1558  1.6148 -0.4542
 8002SOL    HW235469   3.235   2.014   6.750 -1.4340  0.0769  1.2636
 8003SOL     OW35470   0.133   4.668  15.544  0.2689  0.4756 -0.2016
 8003SOL    HW135471   0.049   4.712  15.560 -0.0895  0.2155 -1.4025
 8003SOL    HW235472   0.192   4.717  15.602  0.4348  1.5452 -1.2581
 8004SOL     OW35473   0.266   3.940   4.273 -0.1279 -0.5981 -0.2587
 8004SOL    HW135474   0.293   4.008   4.335 -0.2180  1.1992 -2.1865
 8004SOL    HW235475   0.228   3.984   4.197  1.9238  0.0779 -0.8725
 8005SOL     OW35476   4.512   2.605   4.863  0.3716 -0.4212 -0.0919
 8005SOL    HW135477   4.444   2.543   4.836  1.0550 -1.6141  0.9443
 8005SOL    HW235478   4.547   2.542   4.927 -0.8858  0.8812  1.8687
 8006SOL     OW35479   0.063   4.487   2.054 -0.0744 -0.0440 -0.2771
 8006SOL    HW135480   0.139   4.481   1.996  0.7353 -0.3043  0.8138
 8006SOL    HW235481   0.099   4.506   2.141 -0.9635 -1.0440  0.3158
 8007SOL     OW35482   3.605   0.105   3.901  0.4755  0.2209 -0.0364
 8007SOL    HW135483   3.602   0.175   3.967  0.0103  0.4676 -0.3241
 8007SOL    HW235484   3.660   0.043   3.950  0.7511 -1.3169 -2.3038
 8008SOL     OW35485   1.947   0.195   8.714  0.1836 -0.0191 -0.5045
 8008SOL    HW135486   2.006   0.125   8.740 -0.9984 -0.3561  1.2839
 8008SOL    HW235487   1.884   0.178   8.784 -1.5805 -0.3410 -2.1891
 8009SOL     OW35488   1.010   3.169   1.192  0.0969  0.1551  0.0171
 8009SOL    HW135489   1.032   3.082   1.158 -0.4761  0.4035 -0.9956
 8009SOL    HW235490   1.030   3.216   1.111 -0.0653  0.0323 -0.0936
 8010SOL     OW35491   2.523   4.228   6.988 -0.0615  0.2975  0.5347
 8010SOL    HW135492   2.543   4.280   6.910 -0.7650 -1.2615 -0.6788
 8010SOL    HW235493   2.430   4.205   6.990  0.1455 -0.6999 -1.4336
 8011SOL     OW35494   2.622   4.364   7.876 -0.1989  0.1285 -0.0973
 8011SOL    HW135495   2.552   4.387   7.937 -1.1335  0.8328 -1.4167
 8011SOL    HW235496   2.581   4.293   7.826  1.0588  0.1950 -1.2186
 8012SOL     OW35497   3.761   1.403  17.233 -0.3485 -0.7496  0.1738
 8012SOL    HW135498   3.765   1.317  17.190  0.1620 -1.0857  0.8826
 8012SOL    HW235499   3.804   1.399  17.318 -0.8824 -0.4715  0.4532
 8013SOL     OW35500   2.267   2.070  12.846  0.3862  0.0804  0.6161
 8013SOL    HW135501   2.225   1.996  12.891  1.9056 -0.4368  1.1809
 8013SOL    HW235502   2.310   2.024  12.774  0.4394  0.6921  0.2531
 8014SOL     OW35503   3.698   2.131   6.103  0.0973  0.4404 -0.0296
 8014SOL    HW135504   3.607   2.160   6.112 -0.0347  0.8209 -2.5098
 8014SOL    HW235505   3.736   2.210   6.140  0.0176  0.1967  0.5769
 8015SOL     OW35506   2.193   1.717   6.778  0.6537  0.2110  0.8596
 8015SOL    HW135507   2.207   1.624   6.759 -1.1300  0.4097 -1.3629
 8015SOL    HW235508   2.247   1.761   6.713  1.8759 -0.2809  1.5232
 8016SOL     OW35509   1.462   3.977  17.289 -0.3804 -0.2239 -0.5433
 8016SOL    HW135510   1.512   4.058  17.301  0.1735 -0.3052 -2.2596
 8016SOL    HW235511   1.528   3.914  17.258  2.4308  0.3374  4.3153
 8017SOL     OW35512   3.739   1.340   9.823 -0.1553 -0.1415 -0.2178
 8017SOL    HW135513   3.814   1.311   9.874 -0.8480  0.4553  1.1298
 8017SOL    HW235514   3.761   1.338   9.730  1.3825  1.6904  0.0924
 8018SOL     OW35515   2.888   2.368   7.363 -0.3669 -0.3232 -0.0982
 8018SOL    HW135516   2.910   2.409   7.447  1.5609 -0.8489 -0.3489
 8018SOL    HW235517   2.899   2.443   7.304  3.3934 -2.0878 -1.6183
 8019SOL     OW35518   2.331   2.534   4.960 -0.3248  0.2990  0.0999
 8019SOL    HW135519   2.421   2.509   4.981 -0.5681  0.4602  1.3540
 8019SOL    HW235520   2.289   2.448   4.961  2.1103 -0.8603  0.2077
 8020SOL     OW35521   3.292   0.390  12.208 -0.1252  0.4042 -0.2400
 8020SOL    HW135522   3.250   0.450  12.270 -1.5616 -1.4400  0.5746
 8020SOL    HW235523   3.219   0.332  12.188 -0.2015  0.1453  0.7867
 8021SOL     OW35524   1.484   2.125   4.733 -0.6379 -0.2343 -0.1670
 8021SOL    HW135525   1.559   2.147   4.677 -1.0933  0.6009 -0.4526
 8021SOL    HW235526   1.526   2.053   4.781  0.3110  0.2594 -0.2418
 8022SOL     OW35527   1.803   0.974  15.866  0.3540  0.0275 -0.1736
 8022SOL    HW135528   1.722   1.020  15.845 -0.8439 -1.8721  0.2990
 8022SOL    HW235529   1.855   1.021  15.801  3.7781 -1.2455  1.6797
 8023SOL     OW35530   4.624   1.201  11.098  0.2101 -0.4006  0.3553
 8023SOL    HW135531   4.592   1.125  11.146 -3.3329  1.4513  0.9039
 8023SOL    HW235532   4.671   1.252  11.164 -1.1725  1.2391  0.0772
 8024SOL     OW35533   3.873   4.332   4.261  0.1206 -0.4017  0.3593
 8024SOL    HW135534   3.934   4.290   4.322 -0.1869  0.4088  1.2264
 8024SOL    HW235535   3.790   4.299   4.297 -0.5586  1.4180  0.4764
 8025SOL     OW35536   3.693   2.598  14.559 -0.4059  0.0365 -0.1748
 8025SOL    HW135537   3.785   2.605  14.587 -0.4487 -0.2507  0.0400
 8025SOL    HW235538   3.644   2.643  14.628  1.1164  2.2392 -0.5217
 8026SOL     OW35539   3.790   1.603   0.964 -0.4583 -0.0960 -0.1493
 8026SOL    HW135540   3.868   1.592   1.018 -1.2531 -0.9067  0.8360
 8026SOL    HW235541   3.781   1.697   0.946  0.9037  0.1435  0.4480
 8027SOL     OW35542   0.834   2.266   1.120 -0.6453 -0.1562 -0.7810
 8027SOL    HW135543   0.883   2.213   1.058 -1.2580 -1.2568 -0.3305
 8027SOL    HW235544   0.763   2.297   1.064 -0.4950  1.3159 -0.1516
 8028SOL     OW35545   0.519   1.709   8.565 -0.1478 -0.5084 -0.0918
 8028SOL    HW135546   0.496   1.799   8.589  1.3188  0.1439 -1.1836
 8028SOL    HW235547   0.517   1.718   8.470  0.2405  0.5938 -0.0031
 8029SOL     OW35548   4.143   4.370   6.230 -0.2531 -0.2226  0.3793
 8029SOL    HW135549   4.192   4.356   6.149 -0.6208 -0.9721  0.2895
 8029SOL    HW235550   4.216   4.380   6.293 -1.6898 -1.7575  2.2912
 8030SOL     OW35551   0.920   2.685  13.630  0.0139 -0.0377  0.0211
 8030SOL    HW135552   0.935   2.645  13.715 -0.3955  0.4940  0.3481
 8030SOL    HW235553   0.885   2.768  13.663  1.3634  0.6051 -0.1529
 8031SOL     OW35554   1.127   1.454   6.432 -0.3430 -0.5045 -0.1055
 8031SOL    HW135555   1.035   1.469   6.456  0.0269 -0.6399  1.3542
 8031SOL    HW235556   1.140   1.519   6.363  0.0399 -1.5416 -1.0162
 8032SOL     OW35557   4.208   3.589   6.136 -0.4553  0.7047  0.2621
 8032SOL    HW135558   4.124   3.586   6.183 -1.5545 -1.3023 -1.8290
 8032SOL    HW235559   4.241   3.673   6.166  0.3728  0.2740  0.5584
 8033SOL     OW35560   3.678   3.886  14.716  0.7200 -0.0729  0.0779
 8033SOL    HW135561   3.732   3.952  14.758 -0.9182 -0.2870  2.5675
 8033SOL    HW235562   3.725   3.804  14.731 -0.7255 -0.6444  1.5667
 8034SOL     OW35563   0.086   1.389   5.674  0.5417 -0.1158  0.8562
 8034SOL    HW135564   0.173   1.359   5.648  0.2083 -0.0991 -0.2779
 8034SOL    HW235565   0.117   1.471   5.713  0.0495  1.0053 -1.1504
 8035SOL     OW35566   4.397   1.833   8.271  0.0132 -0.5382 -0.0176
 8035SOL    HW135567   4.303   1.850   8.269  0.3524  1.3766  0.1116
 8035SOL    HW235568   4.431   1.857   8.184  1.1236  0.2112  0.6222
 8036SOL     OW35569   1.784   4.099   0.105 -0.3079  0.4567 -0.0004
 8036SOL    HW135570   1.716   4.105   0.039 -2.7032  0.2130  2.4646
 8036SOL    HW235571   1.733   4.124   0.182 -1.2293 -3.0683  0.5071
 8037SOL     OW35572   2.242   1.032   2.543 -0.0502 -0.5159  0.2839
 8037SOL    HW135573   2.306   1.014   2.612  0.0401 -1.1135  0.0475
 8037SOL    HW235574   2.248   1.128   2.540 -1.7477 -0.3877  0.8441
 8038SOL     OW35575   2.372   3.167   6.261  0.3279 -0.0351  0.8415
 8038SOL    HW135576   2.277   3.178   6.263  0.1134 -1.2655 -2.4014
 8038SOL    HW235577   2.400   3.199   6.175 -2.5876 -0.2122 -0.2064
 8039SOL     OW35578   3.712   3.017   2.700  0.1179 -0.1298  0.1977
 8039SOL    HW135579   3.645   2.989   2.762  1.3631  2.2949  2.6172
 8039SOL    HW235580   3.728   2.937   2.649 -1.2846 -0.1411 -0.2342
 8040SOL     OW35581   4.385   2.946   9.220 -0.0355 -0.1885  0.0710
 8040SOL    HW135582   4.451   3.008   9.190 -0.3760 -0.7454 -1.7956
 8040SOL    HW235583   4.339   3.004   9.280 -0.5562 -1.0886  0.5472
 8041SOL     OW35584   1.567   1.364   8.648  0.0943 -0.0876 -0.2526
 8041SOL    HW135585   1.489   1.309   8.651 -1.0530  1.5783  0.5842
 8041SOL    HW235586   1.552   1.416   8.727 -1.1344 -1.7106  0.5698
 8042SOL     OW35587   3.127   0.239   4.148  0.2898  0.3631 -0.6871
 8042SOL    HW135588   3.167   0.236   4.061  3.6225  2.1992  0.7510
 8042SOL    HW235589   3.199   0.222   4.209 -0.5441  1.7955  0.6822
 8043SOL     OW35590   4.085   0.367   4.717 -0.6120 -0.0702 -0.1648
 8043SOL    HW135591   4.040   0.408   4.790  0.5996  0.5691  0.2295
 8043SOL    HW235592   4.175   0.400   4.718 -1.1933  1.4684  0.6831
 8044SOL     OW35593   3.983   2.260  12.452 -0.2147  0.0128  0.0091
 8044SOL    HW135594   4.055   2.228  12.397 -1.1433 -0.5066 -0.9032
 8044SOL    HW235595   3.946   2.172  12.460 -1.1627  0.4851  0.8106
 8045SOL     OW35596   4.167   0.638   7.843 -0.3855  0.1059 -0.0419
 8045SOL    HW135597   4.238   0.574   7.850  0.6564  1.1282 -1.4420
 8045SOL    HW235598   4.104   0.614   7.911  0.4644 -1.7237  0.0955
 8046SOL     OW35599   0.731   0.678   3.156  0.1235  0.5702 -0.1062
 8046SOL    HW135600   0.692   0.692   3.242 -0.2815  0.8587 -0.3360
 8046SOL    HW235601   0.665   0.711   3.095 -0.1473  1.6955  0.7960
 8047SOL     OW35602   4.206   0.203   3.449  0.0832 -0.0870 -0.0710
 8047SOL    HW135603   4.221   0.123   3.499 -0.4737 -0.6848 -0.8703
 8047SOL    HW235604   4.156   0.257   3.511  0.4781  1.0305 -0.7205
 8048SOL     OW35605   1.769   2.236  16.593  0.3551  0.2735 -0.1165
 8048SOL    HW135606   1.774   2.247  16.688 -3.1182  1.7161 -0.1081
 8048SOL    HW235607   1.839   2.294  16.565  1.1757 -0.9809 -0.6815
 8049SOL     OW35608   4.445   1.138   2.901 -0.9473  0.0100  0.7401
 8049SOL    HW135609   4.486   1.216   2.863  1.1572 -0.7750  1.4252
 8049SOL    HW235610   4.434   1.090   2.819 -0.1248 -0.9055  1.1745
 8050SOL     OW35611   2.143   2.678   8.692 -0.3290  0.1302  0.2201
 8050SOL    HW135612   2.130   2.660   8.599  1.8686 -2.6343  0.4475
 8050SOL    HW235613   2.092   2.758   8.702 -1.1980 -0.1898 -1.6633
 8051SOL     OW35614   0.889   3.682   5.116 -0.4991  0.0575  0.1536
 8051SOL    HW135615   0.943   3.752   5.081  1.3588 -0.6273  1.6674
 8051SOL    HW235616   0.960   3.627   5.150 -1.5925  0.2773  2.7824
 8052SOL     OW35617   3.424   4.108   3.860  0.7358  0.1787 -0.1974
 8052SOL    HW135618   3.489   4.176   3.843  0.3458  0.5021 -0.3750
 8052SOL    HW235619   3.470   4.027   3.839  1.5098 -0.1388  2.6239
 8053SOL     OW35620   2.623   1.850   9.662 -0.7781  0.3370  0.2882
 8053SOL    HW135621   2.543   1.822   9.706 -0.3113 -1.0160  0.2897
 8053SOL    HW235622   2.695   1.802   9.703  0.3323  0.5475 -1.4220
 8054SOL     OW35623   4.672   3.868  13.141 -0.1084 -0.1708 -0.4664
 8054SOL    HW135624   4.615   3.938  13.173 -2.1025 -1.4163 -1.2952
 8054SOL    HW235625   4.664   3.803  13.211  3.0253 -0.7280 -0.6385
 8055SOL     OW35626   2.481   4.084   2.388 -0.0069 -0.0101 -0.8820
 8055SOL    HW135627   2.426   4.033   2.328  0.3608 -2.9666  1.3121
 8055SOL    HW235628   2.543   4.130   2.331  0.9574 -1.1247 -0.7205
 8056SOL     OW35629   4.394   2.140  17.540  0.1024  0.5812  0.1671
 8056SOL    HW135630   4.450   2.094  17.478 -0.6798  1.4697 -1.1902
 8056SOL    HW235631   4.451   2.148  17.616  1.3963 -0.0330 -0.7350
 8057SOL     OW35632   3.932   4.038   7.749  0.2439 -0.2742  0.1255
 8057SOL    HW135633   3.845   3.997   7.747 -0.0397  0.3478 -0.0873
 8057SOL    HW235634   3.959   4.007   7.663  0.9932 -0.3953  0.4072
 8058SOL     OW35635   0.686   3.700   9.140 -0.1778 -0.0056  0.5680
 8058SOL    HW135636   0.596   3.734   9.141  0.5778  1.9997 -0.3561
 8058SOL    HW235637   0.719   3.755   9.211  1.7142  0.2883 -0.5457
 8059SOL     OW35638   3.087   3.352  12.702 -0.5482  0.0341 -0.2249
 8059SOL    HW135639   3.083   3.415  12.631  1.8800 -0.6104 -0.9190
 8059SOL    HW235640   3.167   3.308  12.674  0.3825  1.5093  0.1125
 8060SOL     OW35641   2.955   2.561  10.219 -0.4698 -0.0963  0.3248
 8060SOL    HW135642   3.019   2.504  10.175  1.0266  2.5607 -0.8979
 8060SOL    HW235643   2.873   2.519  10.193  0.5395 -2.0304  0.2622
 8061SOL     OW35644   4.148   4.644   3.004 -0.1199 -0.5086  0.2057
 8061SOL    HW135645   4.135   0.018   3.005 -0.1363 -0.5128  0.4441
 8061SOL    HW235646   4.103   4.626   2.922 -0.4717  2.5968 -0.2666
 8062SOL     OW35647   2.093   1.857  14.847  0.1659  0.0332  0.4035
 8062SOL    HW135648   2.041   1.779  14.830 -0.3564  0.6973 -1.0775
 8062SOL    HW235649   2.173   1.806  14.836 -0.8916 -1.6314  0.5901
 8063SOL     OW35650   2.920   1.227  11.871  0.5021 -1.1297 -0.5251
 8063SOL    HW135651   2.867   1.245  11.793 -0.4567  0.6456  0.5296
 8063SOL    HW235652   2.872   1.265  11.944  0.3751 -0.1112 -1.1359
 8064SOL     OW35653   1.566   3.965   6.177  0.3065 -0.5059  0.4064
 8064SOL    HW135654   1.501   3.923   6.122 -2.3689  2.1320  1.5647
 8064SOL    HW235655   1.649   3.953   6.130  0.4587  2.0046  0.0539
 8065SOL     OW35656   0.606   1.019   4.974 -0.3559 -0.2473 -0.5964
 8065SOL    HW135657   0.702   1.016   4.982 -0.5436  0.0448  1.6988
 8065SOL    HW235658   0.611   1.023   4.879 -0.4815  0.2857 -0.5808
 8066SOL     OW35659   4.560   0.150  11.833 -0.0108 -0.1775 -0.2050
 8066SOL    HW135660   4.617   0.115  11.901  0.3588 -0.1037 -0.4792
 8066SOL    HW235661   4.621   0.152  11.760 -0.8299  0.3034 -0.8796
 8067SOL     OW35662   0.836   0.763   1.670  0.2763  0.5891 -0.4883
 8067SOL    HW135663   0.791   0.846   1.657  1.0060  1.1968  0.8914
 8067SOL    HW235664   0.780   0.713   1.729  1.1893 -1.0561 -1.0184
 8068SOL     OW35665   0.697   2.347   5.119 -0.4520  0.1084  0.1565
 8068SOL    HW135666   0.627   2.289   5.090 -0.7720  0.9443 -0.7332
 8068SOL    HW235667   0.691   2.352   5.215 -0.4088 -0.9218  0.2115
 8069SOL     OW35668   3.368   4.081   6.528 -0.2656 -0.0609 -0.2190
 8069SOL    HW135669   3.325   4.086   6.613 -0.8375 -0.8452 -0.4594
 8069SOL    HW235670   3.425   4.157   6.528  0.5542 -0.6820 -0.6991
 8070SOL     OW35671   0.483   1.838   9.590  0.2896  0.1128 -0.2644
 8070SOL    HW135672   0.530   1.920   9.603 -0.5096  0.4252  0.6504
 8070SOL    HW235673   0.546   1.766   9.590 -0.4533 -0.5619  1.5317
 8071SOL     OW35674   2.084   1.712   4.169  0.0873  0.7242  0.7635
 8071SOL    HW135675   2.080   1.796   4.214 -0.2438  1.6100 -0.9219
 8071SOL    HW235676   2.163   1.727   4.117  0.2010  0.7408  0.9430
 8072SOL     OW35677   2.397   4.169  12.016  0.3168  0.0704  0.3564
 8072SOL    HW135678   2.426   4.242  12.072  2.1635  1.1843 -2.0454
 8072SOL    HW235679   2.411   4.090  12.068 -0.1735  0.0193  0.4039
 8073SOL     OW35680   4.687   2.954   0.380  0.1090 -0.0590 -0.0363
 8073SOL    HW135681   4.685   3.040   0.422 -0.4394 -0.5396  0.9110
 8073SOL    HW235682   4.696   2.902   0.459  0.4070 -0.3447 -0.2589
 8074SOL     OW35683   2.401   3.695   0.646  0.3679  0.2485 -0.0833
 8074SOL    HW135684   2.324   3.731   0.601  1.0628  1.3024 -0.4532
 8074SOL    HW235685   2.406   3.745   0.728 -1.6494 -0.0774  0.2374
 8075SOL     OW35686   3.865   0.217   4.170 -0.2008  0.2586 -0.0531
 8075SOL    HW135687   3.864   0.149   4.237 -1.0326 -0.6754 -1.0196
 8075SOL    HW235688   3.909   0.289   4.214 -0.6081 -0.4169  1.4346
 8076SOL     OW35689   2.937   3.394   2.247  0.0701 -0.5527  0.1873
 8076SOL    HW135690   2.874   3.326   2.221  0.0139  0.1993 -1.6534
 8076SOL    HW235691   2.890   3.465   2.290  3.3900 -0.6613  4.0110
 8077SOL     OW35692   0.761   3.761   7.636 -0.1053  0.1719  0.0965
 8077SOL    HW135693   0.685   3.748   7.693 -1.4450 -1.5387 -2.1141
 8077SOL    HW235694   0.720   3.783   7.553  0.9037  0.9207 -0.1936
 8078SOL     OW35695   4.491   0.411   5.845  0.0793 -0.0928 -0.1088
 8078SOL    HW135696   4.431   0.455   5.784 -0.5084 -1.0685 -0.2338
 8078SOL    HW235697   4.527   0.342   5.790  2.2787  2.7235 -2.1919
 8079SOL     OW35698   0.298   0.560   2.619  0.0115 -0.3733  0.1708
 8079SOL    HW135699   0.323   0.542   2.710  0.0706  0.4544  0.3138
 8079SOL    HW235700   0.263   0.648   2.631  2.7448  0.8534 -1.0146
 8080SOL     OW35701   3.591   2.247   8.649 -0.5501  0.5093  0.4237
 8080SOL    HW135702   3.595   2.325   8.593  0.9219 -0.5258 -0.9188
 8080SOL    HW235703   3.613   2.293   8.730 -3.1400 -0.5251  1.7204
 8081SOL     OW35704   2.966   4.318   0.655 -0.6775 -0.3319 -0.8025
 8081SOL    HW135705   2.874   4.326   0.632 -0.9475 -1.6679 -0.1434
 8081SOL    HW235706   2.963   4.259   0.730 -0.2421 -0.1325 -0.6252
 8082SOL     OW35707   1.149   4.193   1.043  0.1287  0.2952  0.3009
 8082SOL    HW135708   1.079   4.211   1.106 -0.1148 -0.0602  0.1324
 8082SOL    HW235709   1.126   4.256   0.974  0.4658  0.0632 -0.0251
 8083SOL     OW35710   3.025   0.985   7.556 -0.0848 -0.1746 -0.1501
 8083SOL    HW135711   2.943   0.994   7.605 -1.3621  0.2576 -2.4024
 8083SOL    HW235712   3.007   1.003   7.464 -2.6810  0.0973  0.4006
 8084SOL     OW35713   1.739   0.076   7.960  0.3270  0.4266  0.2125
 8084SOL    HW135714   1.672   0.077   8.028 -0.6012 -0.1452 -0.6964
 8084SOL    HW235715   1.797   0.138   8.004  2.1772 -0.1435 -1.3929
 8085SOL     OW35716   0.457   4.637  10.724  0.3307 -0.0775  0.8127
 8085SOL    HW135717   0.490   4.591  10.646  2.4901 -0.1720  1.7966
 8085SOL    HW235718   0.524   4.703  10.740  2.1423 -1.7467  0.0247
 8086SOL     OW35719   2.829   3.684   7.500 -0.2267 -0.0960 -0.1046
 8086SOL    HW135720   2.805   3.615   7.561  0.6067 -0.7524 -0.5248
 8086SOL    HW235721   2.879   3.639   7.432  0.3251  3.4249 -2.0501
 8087SOL     OW35722   3.547   4.487  12.526 -0.3915 -0.2088  0.1941
 8087SOL    HW135723   3.540   4.451  12.437  0.2551 -0.9189  0.4368
 8087SOL    HW235724   3.542   4.578  12.496  1.9923 -0.6207 -1.4593
 8088SOL     OW35725   2.156   3.064   9.516 -0.3396 -0.5193 -0.2715
 8088SOL    HW135726   2.158   2.982   9.565 -1.0365 -0.2749  0.1687
 8088SOL    HW235727   2.095   3.040   9.446 -1.0881 -2.5728  1.0847
 8089SOL     OW35728   1.974   3.636   7.389  0.3540  0.0747 -0.6662
 8089SOL    HW135729   2.031   3.707   7.421 -0.2658  0.8856 -1.3639
 8089SOL    HW235730   1.897   3.671   7.434  0.7239  0.2056 -0.1310
 8090SOL     OW35731   1.581   1.692   8.116  0.2125  0.5924  0.4317
 8090SOL    HW135732   1.539   1.687   8.201  1.3500 -0.2769  0.9528
 8090SOL    HW235733   1.611   1.603   8.095 -0.6083  0.8236 -1.7709
 8091SOL     OW35734   3.096   2.852   2.717  0.0661  0.5457 -0.0638
 8091SOL    HW135735   3.090   2.815   2.628 -2.8780  1.1510 -0.1326
 8091SOL    HW235736   3.172   2.808   2.755 -0.2373  1.2635  1.3769
 8092SOL     OW35737   2.850   2.188  12.677  1.1092  0.0264 -0.3812
 8092SOL    HW135738   2.786   2.239  12.727 -0.6793 -1.7133 -0.9177
 8092SOL    HW235739   2.876   2.249  12.608  0.7567 -2.4671 -2.6782
 8093SOL     OW35740   1.453   4.347   2.783  0.2469 -0.2132 -0.0572
 8093SOL    HW135741   1.500   4.287   2.726 -0.8653 -0.6283 -0.5305
 8093SOL    HW235742   1.399   4.294   2.841 -0.2658 -1.6522 -1.8611
 8094SOL     OW35743   2.060   3.861  15.868  0.1866 -0.3470 -0.0447
 8094SOL    HW135744   1.986   3.891  15.814 -0.5883  1.3609  1.9870
 8094SOL    HW235745   2.083   3.782  15.819  0.8165  0.4046 -0.9575
 8095SOL     OW35746   0.492   3.086   7.171 -0.2873 -0.1893  0.5705
 8095SOL    HW135747   0.561   3.148   7.149  0.5554 -1.4396 -0.3135
 8095SOL    HW235748   0.529   3.059   7.255  1.6093  2.3946  0.5525
 8096SOL     OW35749   1.481   4.503  14.856 -0.3428  0.2492  0.3208
 8096SOL    HW135750   1.522   4.426  14.896 -2.4837 -1.0426  0.0108
 8096SOL    HW235751   1.522   4.493  14.770  0.0410  1.0021  0.4211
 8097SOL     OW35752   1.673   3.266   6.364  0.4304  0.3819  0.1311
 8097SOL    HW135753   1.747   3.281   6.423  0.2878 -2.1104  0.9250
 8097SOL    HW235754   1.656   3.345   6.312 -1.1666 -0.0458  0.0016
 8098SOL     OW35755   0.420   0.004   7.753  0.2723 -0.1154 -0.3337
 8098SOL    HW135756   0.387   4.635   7.761  1.3608 -0.5490 -0.7144
 8098SOL    HW235757   0.511   4.706   7.776 -0.5620 -1.9932  1.5053
 8099SOL     OW35758   2.393   1.598   0.466 -0.0045 -0.3777  0.1606
 8099SOL    HW135759   2.330   1.664   0.496 -1.3380 -1.6815  0.2184
 8099SOL    HW235760   2.340   1.542   0.410  0.3807 -1.7205  1.1450
 8100SOL     OW35761   4.566   3.873   5.290  0.6205 -0.1608 -0.2948
 8100SOL    HW135762   4.609   3.843   5.370 -0.4438 -0.1172  0.3008
 8100SOL    HW235763   4.490   3.923   5.320  0.6785  0.8378 -1.7868
 8101SOL     OW35764   2.469   3.001   4.263  0.5739  0.4064  0.5258
 8101SOL    HW135765   2.472   2.923   4.208  0.6311  0.4521  0.4634
 8101SOL    HW235766   2.563   3.020   4.264  0.2225  2.1333  0.2674
 8102SOL     OW35767   1.514   2.821  10.363  0.5166  0.5100 -0.0997
 8102SOL    HW135768   1.482   2.828  10.453  0.2475  0.9119 -0.2296
 8102SOL    HW235769   1.439   2.866  10.324 -0.0720  1.3274  1.9825
 8103SOL     OW35770   3.444   3.689   7.003 -0.1675 -0.5975 -0.3528
 8103SOL    HW135771   3.353   3.659   7.003 -0.6148  0.7136  1.3311
 8103SOL    HW235772   3.499   3.611   7.013 -0.2780 -0.9197 -2.2467
 8104SOL     OW35773   4.407   3.933   6.032  0.3467  0.3452  0.1058
 8104SOL    HW135774   4.326   3.951   6.080  0.5009  1.5818 -0.1109
 8104SOL    HW235775   4.448   4.019   6.032  0.0661  0.4789  0.3821
 8105SOL     OW35776   1.560   0.068   3.839  0.4540 -0.1803  0.5317
 8105SOL    HW135777   1.651   0.041   3.832  0.5913 -0.0501  1.9952
 8105SOL    HW235778   1.517   4.719   3.789 -1.0127  0.0923  1.4231
 8106SOL     OW35779   2.068   2.407   0.257 -0.2683 -0.0655 -0.1935
 8106SOL    HW135780   2.162   2.410   0.275 -0.0737  0.9444 -1.3962
 8106SOL    HW235781   2.051   2.482   0.200 -0.1651 -0.2653 -0.4858
 8107SOL     OW35782   2.845   4.449   5.526 -0.4967  0.3532  0.3690
 8107SOL    HW135783   2.885   4.512   5.466  0.8552 -0.4039  0.4809
 8107SOL    HW235784   2.758   4.481   5.548 -0.0832  0.8221  1.3389
 8108SOL     OW35785   0.502   3.949  14.939  0.6268 -0.1340  0.0728
 8108SOL    HW135786   0.530   3.975  14.852  1.4406  1.5037  0.8312
 8108SOL    HW235787   0.543   3.862  14.936 -0.9528 -0.9149  1.2847
 8109SOL     OW35788   1.852   0.852   5.592  0.2361  0.4116  0.0887
 8109SOL    HW135789   1.889   0.835   5.679  1.5624 -1.1149 -0.7676
 8109SOL    HW235790   1.889   0.939   5.576 -0.0324  0.5673  0.3295
 8110SOL     OW35791   1.623   3.600   0.652 -0.5192  0.1721  0.0556
 8110SOL    HW135792   1.602   3.574   0.562  3.5235  0.5416 -0.9540
 8110SOL    HW235793   1.641   3.516   0.694  3.1207  0.6430 -0.6430
 8111SOL     OW35794   2.921   2.481   9.859 -0.0212 -0.4125 -0.2735
 8111SOL    HW135795   2.902   2.387   9.866  1.3605 -0.5562  1.5915
 8111SOL    HW235796   3.015   2.478   9.876  0.0182 -1.9747 -0.7306
 8112SOL     OW35797   3.500   3.920  13.560  0.0815 -0.0737  0.4461
 8112SOL    HW135798   3.561   3.877  13.620 -0.5825 -0.0384  1.1331
 8112SOL    HW235799   3.552   3.991  13.522  0.3399 -0.8696 -0.7000
 8113SOL     OW35800   1.340   1.008   8.324 -0.1210 -0.0774  0.7200
 8113SOL    HW135801   1.379   0.921   8.335  0.1335 -0.2498 -1.5934
 8113SOL    HW235802   1.257   1.007   8.370 -0.6382  1.1391 -0.1870
 8114SOL     OW35803   1.542   0.308   1.176 -0.1245 -0.2978 -0.3692
 8114SOL    HW135804   1.633   0.314   1.147 -0.6356 -1.2342 -2.2048
 8114SOL    HW235805   1.535   0.213   1.164 -0.6485 -0.4390  1.1633
 8115SOL     OW35806   0.724   0.806   4.351  0.3162  0.2373 -0.4087
 8115SOL    HW135807   0.756   0.820   4.262 -0.4748 -0.4627 -0.7984
 8115SOL    HW235808   0.753   0.716   4.361 -0.3758 -0.0375 -0.8864
 8116SOL     OW35809   2.095   2.178   7.533 -0.6448 -0.3133 -0.1055
 8116SOL    HW135810   2.127   2.195   7.622  1.9479 -1.7322 -0.7377
 8116SOL    HW235811   2.146   2.241   7.482 -2.0968 -0.6177 -1.8892
 8117SOL     OW35812   0.616   3.493   5.401  0.5827 -0.4801 -0.1526
 8117SOL    HW135813   0.636   3.541   5.321  1.1414 -0.6146 -0.0955
 8117SOL    HW235814   0.551   3.429   5.373  1.4221 -1.2565 -0.3380
 8118SOL     OW35815   4.518   2.484  10.528 -0.2875  0.1127  0.3183
 8118SOL    HW135816   4.611   2.483  10.552 -0.1064 -1.4301 -0.4873
 8118SOL    HW235817   4.476   2.439  10.601 -0.6264 -3.7707 -2.2575
 8119SOL     OW35818   0.136   4.230   1.597  0.0744 -0.3022 -0.4159
 8119SOL    HW135819   0.079   4.207   1.670  0.9941  1.7805  0.9549
 8119SOL    HW235820   0.143   4.141   1.561 -0.5838  0.4523 -2.4132
 8120SOL     OW35821   3.415   0.587  13.948 -0.2505  0.8174  0.1368
 8120SOL    HW135822   3.365   0.513  13.913 -0.0645  0.0076  1.5667
 8120SOL    HW235823   3.505   0.568  13.922 -0.4774 -1.9597  1.3454
 8121SOL     OW35824   1.808   0.968   4.101 -0.6698  0.1434 -0.3330
 8121SOL    HW135825   1.787   1.060   4.082 -0.2918  0.5327  1.1454
 8121SOL    HW235826   1.843   0.977   4.190  0.6034 -0.3025 -0.7919
 8122SOL     OW35827   2.005   4.001   5.132 -0.1971 -0.4306  0.1955
 8122SOL    HW135828   2.070   3.999   5.203  2.3239  0.0266 -2.0881
 8122SOL    HW235829   1.945   3.940   5.174 -0.4959 -1.4347 -1.7186
 8123SOL     OW35830   3.165   2.750   6.612  0.5849 -0.3652  0.2737
 8123SOL    HW135831   3.112   2.675   6.638 -2.1475  0.6791 -2.2172
 8123SOL    HW235832   3.091   2.808   6.593 -0.4558 -2.3548 -1.7767
 8124SOL     OW35833   1.385   1.748  12.239  0.3466 -0.1921 -0.3528
 8124SOL    HW135834   1.378   1.693  12.317  0.6420  1.0807  0.5691
 8124SOL    HW235835   1.355   1.686  12.173 -0.2740 -0.0128 -0.2374
 8125SOL     OW35836   3.003   2.799  14.963 -0.8861 -0.0095  0.2373
 8125SOL    HW135837   2.956   2.767  15.040 -2.9839 -0.4442 -1.2246
 8125SOL    HW235838   3.090   2.816  15.000 -0.4857 -0.9247 -0.2754
 8126SOL     OW35839   0.555   0.862   5.293  0.1078  0.6283  0.1764
 8126SOL    HW135840   0.627   0.918   5.265 -0.3557  0.7519 -0.7748
 8126SOL    HW235841   0.481   0.921   5.276 -0.8721  0.3965  3.6772
 8127SOL     OW35842   0.553   1.979   4.168  0.4006  0.7463  0.1454
 8127SOL    HW135843   0.634   1.969   4.118 -0.9983  0.4750 -2.0991
 8127SOL    HW235844   0.580   2.022   4.249  0.0310  1.7190 -0.2457
 8128SOL     OW35845   0.372   2.214   0.256 -0.4249  0.0868  0.7178
 8128SOL    HW135846   0.392   2.121   0.255  0.6329  0.3526 -2.2664
 8128SOL    HW235847   0.450   2.244   0.209 -0.6731  0.6914  0.6821
 8129SOL     OW35848   1.011   0.517   6.920  0.0362  0.0605  0.7089
 8129SOL    HW135849   1.096   0.547   6.953  0.2601  1.1593 -0.8609
 8129SOL    HW235850   1.045   0.474   6.842  1.8084 -0.3034  1.6862
 8130SOL     OW35851   3.602   4.162   7.301  0.0815  0.0046  0.5328
 8130SOL    HW135852   3.696   4.153   7.318  0.4200  1.4877 -0.5448
 8130SOL    HW235853   3.580   4.081   7.255 -0.5804  2.2119 -3.0700
 8131SOL     OW35854   4.590   2.727   7.200  0.3160 -0.4456 -0.6674
 8131SOL    HW135855   4.640   2.673   7.138 -0.6264  0.4539 -2.2150
 8131SOL    HW235856   4.636   2.702   7.280 -0.4902  1.4188  0.3689
 8132SOL     OW35857   1.111   0.054   3.793 -0.5339 -0.2769 -0.8885
 8132SOL    HW135858   1.185   0.012   3.835 -1.1381 -1.1286 -0.6610
 8132SOL    HW235859   1.027   0.019   3.823 -0.0317  0.8304  1.8115
 8133SOL     OW35860   4.307   3.537  13.941 -0.3065 -0.3106 -0.4821
 8133SOL    HW135861   4.317   3.521  14.035  0.7476 -0.1294 -0.5630
 8133SOL    HW235862   4.363   3.466  13.909  0.9801  0.4589  0.0538
 8134SOL     OW35863   3.565   1.923   6.629  0.3346 -0.3229  0.2257
 8134SOL    HW135864   3.586   1.930   6.722  0.4827  0.4474  0.1339
 8134SOL    HW235865   3.563   2.018   6.614  2.4312  0.0968  2.6276
 8135SOL     OW35866   1.902   4.449   8.196  0.9410 -0.3509  0.2374
 8135SOL    HW135867   1.812   4.430   8.223  0.5062 -0.2693 -1.1471
 8135SOL    HW235868   1.916   4.543   8.208  2.4224 -0.3419 -1.4690
 8136SOL     OW35869   2.050   1.285  17.535  0.0095  0.0580 -0.1415
 8136SOL    HW135870   2.035   1.192  17.553  0.7492  0.3072  1.7688
 8136SOL    HW235871   2.128   1.306  17.587  0.5759  1.2148 -1.4589
 8137SOL     OW35872   1.406   3.418   3.446  0.1514 -0.6359 -0.0535
 8137SOL    HW135873   1.413   3.322   3.448 -1.2114 -0.7533 -0.7550
 8137SOL    HW235874   1.462   3.435   3.371  1.8841 -0.7536  1.2317
 8138SOL     OW35875   1.917   0.590   3.630  0.1445  0.0256  0.1609
 8138SOL    HW135876   1.880   0.667   3.587  0.7122 -0.5184 -1.3178
 8138SOL    HW235877   1.858   0.571   3.703 -1.1050 -0.0995 -0.8807
 8139SOL     OW35878   0.429   3.820   3.260  0.4750 -0.6260 -0.3733
 8139SOL    HW135879   0.436   3.901   3.311  0.1762 -1.9572  1.7635
 8139SOL    HW235880   0.523   3.804   3.262  0.5801 -0.0417 -0.4937
 8140SOL     OW35881   2.212   4.660  14.139  0.3265  0.0295 -0.0221
 8140SOL    HW135882   2.168   4.697  14.062 -1.4294  0.5301  1.2279
 8140SOL    HW235883   2.157   4.693  14.210 -0.2917  0.8349 -0.8786
 8141SOL     OW35884   2.578   2.600   2.086  0.3987 -0.3229 -0.7379
 8141SOL    HW135885   2.544   2.519   2.047  0.8485 -1.1351  0.5245
 8141SOL    HW235886   2.660   2.567   2.122  0.1238  0.7015  0.8066
 8142SOL     OW35887   0.005   0.909  12.769  0.0303  0.1119  0.2155
 8142SOL    HW135888   0.032   0.842  12.832  1.9063 -1.2647 -2.0430
 8142SOL    HW235889   4.649   0.950  12.807 -1.4421 -1.4154 -1.1055
 8143SOL     OW35890   4.373   0.339  13.535  0.0611 -0.0323 -1.0019
 8143SOL    HW135891   4.344   0.275  13.469 -0.4965 -0.3382 -0.4623
 8143SOL    HW235892   4.288   0.373  13.562  0.3704 -1.2251  1.4498
 8144SOL     OW35893   0.919   2.469   3.015  0.5975 -0.5159 -0.2666
 8144SOL    HW135894   0.988   2.525   3.049 -0.5163 -0.2973  1.6450
 8144SOL    HW235895   0.903   2.408   3.087 -0.1127 -1.9197 -1.6082
 8145SOL     OW35896   3.610   3.897   4.693 -0.5640  0.4988  0.6723
 8145SOL    HW135897   3.578   3.807   4.698 -1.4221  0.7405 -0.6564
 8145SOL    HW235898   3.599   3.926   4.784  1.0518  1.4515  0.5617
 8146SOL     OW35899   4.283   0.947   2.756 -0.1740  0.8101 -0.1415
 8146SOL    HW135900   4.263   0.928   2.847  1.3919  2.7556  0.6137
 8146SOL    HW235901   4.224   0.881   2.721 -1.7113  0.7023  2.7018
 8147SOL     OW35902   3.887   0.249   8.871 -0.2370 -0.7474  0.8286
 8147SOL    HW135903   3.876   0.313   8.800  0.6569 -1.2427  0.2477
 8147SOL    HW235904   3.982   0.248   8.867 -0.2812  1.5292 -1.3473
 8148SOL     OW35905   2.775   3.253   2.865  0.3524  0.1429  0.5971
 8148SOL    HW135906   2.798   3.323   2.926 -1.1843  1.7534 -0.6627
 8148SOL    HW235907   2.859   3.229   2.825  0.3573  2.7978 -0.9740
 8149SOL     OW35908   0.759   2.116   9.932  0.1445  0.2535  0.4080
 8149SOL    HW135909   0.768   2.045   9.995 -1.3783  1.5698  2.0783
 8149SOL    HW235910   0.825   2.179   9.959 -0.9714  0.2497  3.0993
 8150SOL     OW35911   1.104   4.352   9.289  0.0794  0.0228 -0.5212
 8150SOL    HW135912   1.154   4.433   9.296 -0.5123  0.0597  3.1045
 8150SOL    HW235913   1.077   4.346   9.381  0.7011 -1.5772 -0.4623
 8151SOL     OW35914   3.715   3.729  13.106  0.0743 -0.5134  0.3012
 8151SOL    HW135915   3.654   3.771  13.045  0.5976 -0.1175  0.0541
 8151SOL    HW235916   3.786   3.793  13.110  0.8923 -1.5308  2.3810
 8152SOL     OW35917   3.584   2.767  14.749  0.2212  0.3260 -0.6334
 8152SOL    HW135918   3.603   2.764  14.843 -1.1159  4.1666 -0.2565
 8152SOL    HW235919   3.547   2.854  14.737 -1.3731 -0.2685 -0.0684
 8153SOL     OW35920   4.514   3.825   3.374 -0.5013  0.1186 -0.5748
 8153SOL    HW135921   4.597   3.869   3.397  0.4397 -0.3465 -3.0943
 8153SOL    HW235922   4.521   3.797   3.283  0.7486  1.3955 -0.8731
 8154SOL     OW35923   2.546   0.430   2.855 -0.1874  0.2671  0.0248
 8154SOL    HW135924   2.585   0.360   2.802 -1.5373 -0.3000 -0.2263
 8154SOL    HW235925   2.515   0.380   2.930  0.1022  1.9135  1.2355
 8155SOL     OW35926   1.884   3.335   2.202 -0.0960 -0.0233  0.1492
 8155SOL    HW135927   1.884   3.335   2.107 -2.6317 -0.3952  0.1522
 8155SOL    HW235928   1.939   3.261   2.227 -0.6889 -0.1985  0.9448
 8156SOL     OW35929   2.050   3.092  14.176  0.3316  0.2699 -0.2744
 8156SOL    HW135930   2.076   3.180  14.202  1.0935  0.2074 -0.8555
 8156SOL    HW235931   2.118   3.043  14.223  2.4912  0.1975 -3.5258
 8157SOL     OW35932   1.475   4.339   3.596  0.2490 -1.1185 -0.0218
 8157SOL    HW135933   1.461   4.354   3.503 -1.1206  0.4346  0.4301
 8157SOL    HW235934   1.499   4.246   3.599  0.1510 -1.1574 -0.5224
 8158SOL     OW35935   0.049   0.077   6.527  0.1456 -0.1896 -0.2107
 8158SOL    HW135936   4.714   0.116   6.595 -0.4492 -1.7717  0.2001
 8158SOL    HW235937   0.060   4.706   6.553  1.4697  0.4508  1.4827
 8159SOL     OW35938   1.160   3.829   7.521 -0.1071  0.2234 -0.1595
 8159SOL    HW135939   1.109   3.845   7.601  0.4526  0.0698  0.2244
 8159SOL    HW235940   1.238   3.881   7.539  1.6041 -0.9901 -4.1569
 8160SOL     OW35941   4.284   4.417   9.354  0.3841  0.3434 -1.1190
 8160SOL    HW135942   4.268   4.429   9.260 -2.3287 -0.7544 -0.7848
 8160SOL    HW235943   4.338   4.341   9.333  1.6278  1.2953 -1.3636
 8161SOL     OW35944   3.818   1.465   1.298 -0.0963  0.5493 -0.0624
 8161SOL    HW135945   3.914   1.458   1.296 -0.2651 -1.4834 -0.4877
 8161SOL    HW235946   3.787   1.404   1.364 -0.2843 -1.0562 -1.6094
 8162SOL     OW35947   3.096   1.255   1.677  0.0300  0.7640 -0.0862
 8162SOL    HW135948   3.043   1.287   1.750 -0.1572 -2.4456  1.1403
 8162SOL    HW235949   3.175   1.230   1.726 -0.7618  2.2071  1.9205
 8163SOL     OW35950   1.298   2.289   7.886  1.1350 -0.2019 -0.2735
 8163SOL    HW135951   1.347   2.354   7.936  2.3126 -1.7020  0.5143
 8163SOL    HW235952   1.282   2.227   7.957 -0.3861 -0.1529 -0.5917
 8164SOL     OW35953   1.062   3.639   2.670 -0.7608  0.1960  0.1320
 8164SOL    HW135954   1.148   3.601   2.658 -0.4779  1.3344 -1.4566
 8164SOL    HW235955   1.050   3.655   2.764  0.1822  1.0966  0.0943
 8165SOL     OW35956   2.410   2.849   3.203  0.0994  0.0043  0.5378
 8165SOL    HW135957   2.435   2.881   3.289  3.3815  1.0071 -0.8040
 8165SOL    HW235958   2.390   2.758   3.228 -2.3884  0.0163 -1.4454
 8166SOL     OW35959   4.131   2.116   7.124  0.5933  0.4572  0.6305
 8166SOL    HW135960   4.148   2.035   7.075 -0.3425  0.0877  0.9068
 8166SOL    HW235961   4.217   2.119   7.165  0.3355 -0.4411  1.2459
 8167SOL     OW35962   4.217   1.827   5.167  0.4056 -0.2373 -0.0980
 8167SOL    HW135963   4.226   1.830   5.262 -0.7681  0.2887 -0.0115
 8167SOL    HW235964   4.136   1.877   5.173  0.4025 -0.3194  0.5050
 8168SOL     OW35965   1.855   1.331   6.679  0.0895  0.1422 -0.0374
 8168SOL    HW135966   1.767   1.342   6.715  0.7385  3.0267  0.6734
 8168SOL    HW235967   1.847   1.260   6.616  0.1027  0.6994 -0.6629
 8169SOL     OW35968   0.762   3.423  17.184  0.1243  0.2646 -0.3185
 8169SOL    HW135969   0.841   3.406  17.236 -0.7002 -3.9104 -0.4023
 8169SOL    HW235970   0.725   3.334  17.181  0.3786  0.1150  1.0905
 8170SOL     OW35971   1.909   3.327   6.521 -0.8919 -0.2753 -0.0517
 8170SOL    HW135972   1.987   3.377   6.495 -0.8322  0.6864  2.0065
 8170SOL    HW235973   1.865   3.411   6.536 -1.3016 -0.6580  0.8647
 8171SOL     OW35974   3.221   4.425   3.412  0.4015  0.1933 -0.3644
 8171SOL    HW135975   3.315   4.444   3.415  0.0437  1.8863 -0.1179
 8171SOL    HW235976   3.201   4.382   3.495 -1.6488  0.4468 -0.7247
 8172SOL     OW35977   1.090   4.576  13.124  0.8974 -0.0987  0.0036
 8172SOL    HW135978   0.996   4.581  13.110  1.0757  0.0346 -1.1152
 8172SOL    HW235979   1.094   4.481  13.124 -0.0196 -0.1344 -0.7841
 8173SOL     OW35980   2.466   2.047  12.577 -0.4598 -0.3785 -0.1861
 8173SOL    HW135981   2.418   1.965  12.566 -2.8018  0.9053  0.4534
 8173SOL    HW235982   2.517   2.026  12.655  0.8709 -0.1080 -0.9900
 8174SOL     OW35983   3.613   1.049   9.281 -0.3116 -0.1991  0.4099
 8174SOL    HW135984   3.568   1.105   9.344 -1.9444  0.6223 -1.4717
 8174SOL    HW235985   3.704   1.079   9.284 -0.3468 -0.0269 -0.1797
 8175SOL     OW35986   3.855   4.174  13.250 -0.0520 -0.4253  0.5954
 8175SOL    HW135987   3.797   4.160  13.324 -1.4508  0.6305 -0.3067
 8175SOL    HW235988   3.853   4.268  13.270 -0.1300 -0.3643  0.3033
 8176SOL     OW35989   1.429   3.353   7.995 -0.3574 -0.0782 -0.2748
 8176SOL    HW135990   1.343   3.389   7.972 -0.4389  1.3105  2.1934
 8176SOL    HW235991   1.447   3.311   7.911 -0.9418 -0.1078 -0.3850
 8177SOL     OW35992   0.329   1.444   4.977  0.2974 -0.1292 -0.3714
 8177SOL    HW135993   0.339   1.493   4.896  0.5351  0.6872  0.1453
 8177SOL    HW235994   0.421   1.440   5.004 -0.0658  1.5133  1.0837
 8178SOL     OW35995   3.754   2.484   5.391  0.6086 -0.0865 -0.2300
 8178SOL    HW135996   3.719   2.518   5.309 -0.7958 -0.1982  0.3282
 8178SOL    HW235997   3.682   2.432   5.426 -0.6587  1.9575  0.2084
 8179SOL     OW35998   4.140   2.888   5.849  0.2464  0.4275 -0.0549
 8179SOL    HW135999   4.087   2.964   5.872  0.7029  1.0113 -0.8885
 8179SOL    HW236000   4.073   2.823   5.832  1.3602 -1.1186  1.4527
 8180SOL     OW36001   0.697   3.274   7.143 -0.0882 -0.0684  0.1342
 8180SOL    HW136002   0.727   3.358   7.178 -0.3505  1.3311 -2.9874
 8180SOL    HW236003   0.725   3.220   7.217 -0.6582 -1.8335 -0.9440
 8181SOL     OW36004   4.580   4.392   3.515  0.2345 -0.5767  0.2477
 8181SOL    HW136005   4.674   4.390   3.499  0.1560  2.7424 -0.6001
 8181SOL    HW236006   4.553   4.466   3.459  1.0327 -0.8226 -0.4621
 8182SOL     OW36007   3.615   2.464   8.459  0.5522 -0.1376 -0.4654
 8182SOL    HW136008   3.574   2.503   8.382 -1.1763  1.3720  1.2208
 8182SOL    HW236009   3.689   2.520   8.480  0.2195  0.5790 -1.2314
 8183SOL     OW36010   2.107   0.169   9.121  0.1262 -0.3093 -0.0765
 8183SOL    HW136011   2.116   0.244   9.180 -1.1197 -0.8735  0.8056
 8183SOL    HW236012   2.196   0.142   9.098 -0.7731 -2.1410 -1.3919
 8184SOL     OW36013   0.577   1.588   4.045  0.0209 -0.1188 -0.6032
 8184SOL    HW136014   0.648   1.624   4.099  0.4122  1.6243 -2.2734
 8184SOL    HW236015   0.622   1.504   4.032 -3.6905 -2.3507  0.8754
 8185SOL     OW36016   3.685   4.665   5.083  0.0237  0.0305  0.9473
 8185SOL    HW136017   3.645   4.610   5.015  1.6002 -1.2408  1.0526
 8185SOL    HW236018   3.766   4.615   5.096  0.4277  0.0031 -1.6860
 8186SOL     OW36019   1.605   1.010   2.724  0.9118  0.7684 -0.9920
 8186SOL    HW136020   1.632   0.969   2.642 -0.9813  1.2455 -1.8682
 8186SOL    HW236021   1.677   1.068   2.747 -0.4087  1.6739  0.8886
 8187SOL     OW36022   1.455   4.009   3.394  0.1805  0.4329 -0.3079
 8187SOL    HW136023   1.544   4.023   3.363 -0.0349  1.1231 -0.6063
 8187SOL    HW236024   1.416   4.090   3.361  1.4506  1.1553 -0.0409
 8188SOL     OW36025   1.083   2.879  14.386 -0.1344  0.4752 -0.2322
 8188SOL    HW136026   0.988   2.872  14.375 -0.1048  1.1521 -0.9267
 8188SOL    HW236027   1.118   2.798  14.349 -0.5559  0.2336 -0.0994
 8189SOL     OW36028   2.164   3.510   8.108  0.0210 -0.0266 -0.2427
 8189SOL    HW136029   2.206   3.427   8.084  0.1562 -0.3943  1.2823
 8189SOL    HW236030   2.081   3.519   8.061 -0.0006 -0.1838 -0.2344
 8190SOL     OW36031   4.449   3.851   0.767 -0.3042  0.2672  0.0431
 8190SOL    HW136032   4.501   3.832   0.689 -0.1306  1.5125 -0.1534
 8190SOL    HW236033   4.476   3.785   0.830  3.3925  1.0334 -0.7287
 8191SOL     OW36034   0.828   1.504   2.512 -0.8990  0.4217  0.0921
 8191SOL    HW136035   0.895   1.450   2.471 -2.8094 -2.0412  0.1530
 8191SOL    HW236036   0.794   1.553   2.437  1.7701 -1.3096 -2.2252
 8192SOL     OW36037   3.798   1.240  11.907  0.4508  0.2805 -0.3173
 8192SOL    HW136038   3.758   1.297  11.842 -0.8506 -0.3734 -0.0922
 8192SOL    HW236039   3.823   1.304  11.973 -0.3671  0.3438 -0.0751
 8193SOL     OW36040   4.538   0.067   5.949  0.2508  0.8361 -0.1148
 8193SOL    HW136041   4.459   0.107   5.986  0.0812  0.9622 -0.6217
 8193SOL    HW236042   4.505   0.023   5.871 -1.7996 -0.7110  1.6206
 8194SOL     OW36043   1.476   2.346   6.138 -0.9172  0.4594 -0.2480
 8194SOL    HW136044   1.430   2.329   6.220 -0.8820  0.7818 -0.1601
 8194SOL    HW236045   1.565   2.328   6.165 -1.6334  0.5476  2.1268
 8195SOL     OW36046   1.109   3.493   1.327 -0.7564  0.4898  0.4878
 8195SOL    HW136047   1.171   3.446   1.383 -1.8142 -0.5933  0.7511
 8195SOL    HW236048   1.028   3.458   1.364 -0.3988  2.1854  2.8852
 8196SOL     OW36049   0.449   1.156   4.150  0.4482 -0.0991 -0.5092
 8196SOL    HW136050   0.539   1.154   4.183  0.0550  1.6915  0.6560
 8196SOL    HW236051   0.457   1.191   4.061  2.5101  0.5701 -0.0479
 8197SOL     OW36052   1.157   3.415   3.341  0.1631 -0.0057  0.5759
 8197SOL    HW136053   1.131   3.351   3.407  1.4435 -0.0776  1.0197
 8197SOL    HW236054   1.240   3.434   3.384  0.9133  2.5063 -1.9382
 8198SOL     OW36055   0.913   2.322   3.263  0.2366  0.0033 -0.3702
 8198SOL    HW136056   0.864   2.240   3.249 -0.3186  0.4806 -1.2269
 8198SOL    HW236057   0.858   2.362   3.330 -0.9706 -3.0122  0.4473
 8199SOL     OW36058   3.769   0.309  15.474  0.1770  0.0026  0.4441
 8199SOL    HW136059   3.825   0.294  15.397 -1.3364  1.5150 -0.9534
 8199SOL    HW236060   3.703   0.368  15.438 -1.6719 -0.7742  2.6079
 8200SOL     OW36061   1.005   0.304   8.337 -0.1084 -0.7324  0.1955
 8200SOL    HW136062   1.083   0.258   8.368  0.2818 -1.3862 -1.7323
 8200SOL    HW236063   1.035   0.329   8.249 -2.4005  2.3959  0.3017
 8201SOL     OW36064   1.467   3.180   5.872  0.6212  0.0222  0.3739
 8201SOL    HW136065   1.406   3.111   5.847  0.1290  0.9647 -1.0813
 8201SOL    HW236066   1.487   3.156   5.962  1.6559  2.2453  0.7361
 8202SOL     OW36067   2.798   3.685   2.853 -0.8592 -0.1886 -0.3869
 8202SOL    HW136068   2.783   3.655   2.763 -1.3869 -1.8997  0.2854
 8202SOL    HW236069   2.837   3.772   2.838 -0.8321 -0.8644 -4.3660
 8203SOL     OW36070   4.581   3.415   3.933  0.4570  0.2919  0.0088
 8203SOL    HW136071   4.664   3.431   3.978 -0.2134  2.0003  0.6165
 8203SOL    HW236072   4.582   3.483   3.866 -1.1221  0.1865 -0.1183
 8204SOL     OW36073   0.917   1.843   7.012 -0.5703 -0.2704  0.8362
 8204SOL    HW136074   0.877   1.929   7.000  0.0138 -0.2178 -0.7441
 8204SOL    HW236075   0.921   1.845   7.108 -0.4476  0.6816  0.8127
 8205SOL     OW36076   2.099   2.241   1.832 -0.1210 -0.0357 -0.1153
 8205SOL    HW136077   2.083   2.155   1.792  1.5654  0.8513 -2.7245
 8205SOL    HW236078   2.194   2.247   1.823  0.0572 -0.1311  1.7600
 8206SOL     OW36079   2.180   4.006  10.782 -0.1082 -0.2987  0.4596
 8206SOL    HW136080   2.181   4.045  10.869 -1.3578  2.1697 -0.6284
 8206SOL    HW236081   2.218   3.920  10.795  2.4746  0.3281 -2.9236
 8207SOL     OW36082   0.481   2.564  10.070 -0.1283 -0.4018  0.1952
 8207SOL    HW136083   0.452   2.655  10.056  0.9621 -0.1347 -0.3714
 8207SOL    HW236084   0.577   2.563  10.070 -0.0990 -1.0881 -4.1679
 8208SOL     OW36085   3.558   3.715   2.829  0.0720 -0.0146 -0.1112
 8208SOL    HW136086   3.549   3.672   2.744 -1.0103  0.5328 -0.2712
 8208SOL    HW236087   3.637   3.764   2.809  0.6237 -1.3194 -1.1575
 8209SOL     OW36088   3.555   1.275   6.777 -0.7083 -0.0110  0.2210
 8209SOL    HW136089   3.597   1.194   6.807 -0.2168 -0.5997 -2.0854
 8209SOL    HW236090   3.578   1.326   6.855 -2.1345 -0.2954  0.8351
 8210SOL     OW36091   2.978   2.303  13.196  0.0329  0.3450 -0.1996
 8210SOL    HW136092   2.899   2.254  13.221  0.7291 -0.9762 -0.5725
 8210SOL    HW236093   2.988   2.279  13.104 -1.2642 -2.3467  0.3627
 8211SOL     OW36094   1.617   2.022  15.309 -0.1546 -0.0924 -0.4054
 8211SOL    HW136095   1.535   1.979  15.282  0.3321 -0.7884 -0.7696
 8211SOL    HW236096   1.672   1.953  15.346 -0.6535 -1.0507 -1.4240
 8212SOL     OW36097   3.039   3.383   4.873 -0.2298  0.4842  0.2331
 8212SOL    HW136098   3.029   3.288   4.866 -0.7175  0.4596  1.3831
 8212SOL    HW236099   3.039   3.404   4.779  0.2667 -0.9858 -0.0977
 8213SOL     OW36100   2.385   0.543   5.547  0.6155  0.2316  0.1926
 8213SOL    HW136101   2.479   0.535   5.530  0.8930  1.6333  1.0210
 8213SOL    HW236102   2.348   0.568   5.462  0.1482 -1.3491 -0.0569
 8214SOL     OW36103   0.972   2.173   8.461  0.5455  0.6801 -0.0910
 8214SOL    HW136104   0.911   2.194   8.390 -0.4246  0.9790  0.8150
 8214SOL    HW236105   0.915   2.172   8.538  0.5386 -0.6097 -0.1130
 8215SOL     OW36106   0.046   0.787   2.022 -0.4820  0.1163  0.6094
 8215SOL    HW136107   4.707   0.740   2.079 -2.5484  0.1068 -1.5453
 8215SOL    HW236108   0.124   0.789   2.077 -0.0927 -0.4925  0.0842
 8216SOL     OW36109   2.915   0.523   8.446 -0.0652 -0.5170  0.3271
 8216SOL    HW136110   2.827   0.497   8.422 -0.1380  0.9900 -1.0140
 8216SOL    HW236111   2.911   0.603   8.394  2.3092  0.8630  2.2554
 8217SOL     OW36112   2.637   3.769   1.714 -0.1554  0.0711 -0.3074
 8217SOL    HW136113   2.689   3.848   1.727  1.7054 -1.4409  1.4481
 8217SOL    HW236114   2.652   3.745   1.622  0.3982 -1.6569  0.2265
 8218SOL     OW36115   0.255   4.254  12.255  0.2986 -0.5798 -0.1537
 8218SOL    HW136116   0.205   4.223  12.331  0.6143 -0.3972  0.1301
 8218SOL    HW236117   0.344   4.258  12.291  1.2268  2.1124 -2.7170
 8219SOL     OW36118   2.640   0.400  14.296 -0.8430 -0.3642 -0.0889
 8219SOL    HW136119   2.598   0.475  14.340  0.8822  0.3224  0.3718
 8219SOL    HW236120   2.637   0.345  14.374  1.5675  1.1114  1.0267
 8220SOL     OW36121   3.863   3.088  13.186 -0.0285  0.5733  0.0964
 8220SOL    HW136122   3.776   3.096  13.227 -0.6832  2.7499 -1.6688
 8220SOL    HW236123   3.916   3.088  13.266  0.3635  0.9698 -0.1650
 8221SOL     OW36124   2.916   3.850   8.524 -0.4901  0.6609 -0.3609
 8221SOL    HW136125   2.876   3.873   8.440 -1.6641  1.3946  0.3961
 8221SOL    HW236126   2.957   3.936   8.539  0.2673  0.6876 -2.5392
 8222SOL     OW36127   3.080   0.641   5.889  0.1430 -0.5105  0.3602
 8222SOL    HW136128   3.161   0.591   5.875  1.2372  0.8647  1.8194
 8222SOL    HW236129   3.027   0.578   5.937 -0.7985 -1.6606 -2.2023
 8223SOL     OW36130   2.946   2.887   6.519 -0.2803  0.1100 -0.0204
 8223SOL    HW136131   2.919   2.849   6.436 -0.6686  0.6034 -0.1224
 8223SOL    HW236132   2.870   2.858   6.568  0.4836 -0.8631  0.5959
 8224SOL     OW36133   2.890   0.354   4.051  0.2075  0.0435  0.2675
 8224SOL    HW136134   2.980   0.323   4.051  0.2139  0.0626  0.2656
 8224SOL    HW236135   2.860   0.341   4.141 -0.5229 -0.0695  0.0123
 8225SOL     OW36136   1.825   3.167   9.818  0.2358 -0.0112 -0.0296
 8225SOL    HW136137   1.913   3.132   9.830 -0.9372 -2.8714  0.2113
 8225SOL    HW236138   1.771   3.089   9.832  0.8020 -0.4896 -0.4865
 8226SOL     OW36139   4.303   4.547   8.627 -0.2865  0.0622 -0.7026
 8226SOL    HW136140   4.367   4.479   8.606  0.7672  1.7476 -2.9496
 8226SOL    HW236141   4.230   4.494   8.662 -0.4545  0.5860 -0.2527
 8227SOL     OW36142   3.528   0.750   8.842  0.2258 -0.4366  0.3686
 8227SOL    HW136143   3.504   0.708   8.925  1.6085  0.4088  1.1921
 8227SOL    HW236144   3.441   0.784   8.819  0.3668 -0.9616 -0.9085
 8228SOL     OW36145   3.875   1.718   6.877  0.4126  0.1725  0.6398
 8228SOL    HW136146   3.783   1.689   6.883  0.6858 -0.8271  0.0596
 8228SOL    HW236147   3.884   1.789   6.940 -2.4194  2.2145 -1.2556
 8229SOL     OW36148   4.129   2.435   8.543 -0.1558  0.1997 -0.2163
 8229SOL    HW136149   4.133   2.359   8.601 -1.2484  0.1473 -0.2146
 8229SOL    HW236150   4.176   2.506   8.586  0.9991 -0.9412  0.4386
 8230SOL     OW36151   3.076   4.453   4.960 -0.0332 -0.1423 -0.2763
 8230SOL    HW136152   3.018   4.416   5.027  0.7893 -1.2880 -0.2003
 8230SOL    HW236153   3.040   4.435   4.873 -1.3500 -0.4966  0.3294
 8231SOL     OW36154   1.791   1.684  14.342  0.0976  0.0858 -0.0988
 8231SOL    HW136155   1.858   1.687  14.274  0.1786  0.9220  0.0252
 8231SOL    HW236156   1.733   1.615  14.311 -0.5551  0.1200  1.0290
 8232SOL     OW36157   3.555   0.660  11.865 -0.0775  0.3992  0.4584
 8232SOL    HW136158   3.644   0.646  11.833 -0.6446  1.0700 -1.3885
 8232SOL    HW236159   3.507   0.578  11.861  1.5249 -0.5696  0.8832
 8233SOL     OW36160   3.263   2.071   5.247 -0.0096  0.2466  0.3990
 8233SOL    HW136161   3.196   2.136   5.226 -0.3623  0.4007  2.0109
 8233SOL    HW236162   3.249   2.062   5.341  2.5003 -0.0909  0.7315
 8234SOL     OW36163   4.438   0.607   3.334  0.4546 -0.0587 -0.3766
 8234SOL    HW136164   4.356   0.591   3.287  1.0694  0.0318 -1.4773
 8234SOL    HW236165   4.433   0.540   3.402 -2.9638  2.4336  1.8019
 8235SOL     OW36166   2.143   0.871  13.784  0.4066 -0.0184 -0.0134
 8235SOL    HW136167   2.190   0.952  13.806  1.7305 -1.2113  1.5397
 8235SOL    HW236168   2.093   0.858  13.864  1.4322 -0.6934  0.5220
 8236SOL     OW36169   4.546   1.016   2.654  0.2603  0.4388  0.4462
 8236SOL    HW136170   4.552   1.095   2.600  0.7017 -0.5996 -1.0401
 8236SOL    HW236171   4.460   0.987   2.626  0.4029 -1.2864  1.8188
 8237SOL     OW36172   0.050   0.214  12.077  0.4161  0.3327 -0.4717
 8237SOL    HW136173   0.070   0.121  12.061  3.2515  1.2513 -2.2796
 8237SOL    HW236174   0.101   0.274  12.023 -0.8508  1.0828 -0.8342
 8238SOL     OW36175   2.211   1.901   6.248  0.3233 -0.1022  0.5211
 8238SOL    HW136176   2.155   1.832   6.285  0.6750 -1.5103 -1.5529
 8238SOL    HW236177   2.299   1.867   6.262  0.9808  0.6035 -2.0110
 8239SOL     OW36178   0.397   2.260   0.537 -0.7087  0.3929  0.0422
 8239SOL    HW136179   0.472   2.203   0.518 -0.2491  1.0561 -0.1403
 8239SOL    HW236180   0.367   2.278   0.448  0.5987 -0.4468 -0.5729
 8240SOL     OW36181   2.315   0.663  13.686  0.5253  0.6994 -0.6497
 8240SOL    HW136182   2.287   0.662  13.594 -0.2625  0.8939 -0.4082
 8240SOL    HW236183   2.293   0.753  13.710  0.0677  0.3290  0.3163
 8241SOL     OW36184   3.171   4.525  12.567  0.4771 -0.3054  0.1994
 8241SOL    HW136185   3.164   4.438  12.529  2.8186  0.1935 -1.3278
 8241SOL    HW236186   3.092   4.518  12.620  1.0269  0.4386  1.1106
 8242SOL     OW36187   1.788   2.316  14.986  0.8896 -0.2857  0.0033
 8242SOL    HW136188   1.772   2.277  15.072 -1.4251 -1.1922 -0.8374
 8242SOL    HW236189   1.880   2.334  15.002  1.3443 -0.8502 -1.9934
 8243SOL     OW36190   0.094   2.411   5.662 -0.0445  0.3708 -0.1157
 8243SOL    HW136191   0.103   2.482   5.599  2.2770  1.0056  0.9083
 8243SOL    HW236192   0.187   2.398   5.681  0.0070  0.7393 -0.1041
 8244SOL     OW36193   0.772   3.825   4.817 -0.3032 -0.3619  0.3022
 8244SOL    HW136194   0.859   3.855   4.792 -1.2660  0.2730 -2.3112
 8244SOL    HW236195   0.787   3.746   4.868  0.4476  0.4593  1.3415
 8245SOL     OW36196   4.116   0.869  11.428 -0.0953  0.4956 -0.1392
 8245SOL    HW136197   4.184   0.810  11.397  0.6085  1.8616 -1.2163
 8245SOL    HW236198   4.153   0.957  11.424  0.0010  0.5102  1.2173
 8246SOL     OW36199   4.284   1.117  11.527  0.2703 -0.3182 -0.3260
 8246SOL    HW136200   4.335   1.132  11.448  1.5510  3.1846  1.1734
 8246SOL    HW236201   4.342   1.056  11.573  0.5748 -1.1072 -1.7565
 8247SOL     OW36202   0.713   3.664   1.380  0.0269  0.1616 -0.4679
 8247SOL    HW136203   0.773   3.721   1.428 -0.6576  3.1539 -3.1274
 8247SOL    HW236204   0.758   3.582   1.399  0.5385  0.0243 -2.2737
 8248SOL     OW36205   3.900   2.474   3.711 -0.0255 -0.2026 -0.3804
 8248SOL    HW136206   3.975   2.474   3.651 -0.9722  0.9600 -1.5670
 8248SOL    HW236207   3.928   2.542   3.774  3.2299 -0.9453 -1.0250
 8249SOL     OW36208   1.605   1.524  17.180  0.0308  0.4447  0.0258
 8249SOL    HW136209   1.544   1.525  17.106  1.0911  0.0264 -0.8545
 8249SOL    HW236210   1.624   1.432  17.194  1.2426  0.9890  1.9079
 8250SOL     OW36211   1.029   0.917   8.225 -0.0799  0.5043  0.0431
 8250SOL    HW136212   1.025   0.921   8.130 -0.8900  1.3538  0.1196
 8250SOL    HW236213   1.038   1.009   8.249  2.6690  0.4612 -0.8288
 8251SOL     OW36214   3.459   3.938  17.200 -0.4594 -0.0669  0.2338
 8251SOL    HW136215   3.495   3.855  17.233 -2.7131 -0.8169  0.8195
 8251SOL    HW236216   3.389   3.908  17.141 -0.2799  0.8458 -0.4294
 8252SOL     OW36217   0.427   3.079   8.228 -0.0831  0.0619 -0.0945
 8252SOL    HW136218   0.411   3.038   8.143  0.0442 -1.7037  0.7434
 8252SOL    HW236219   0.446   3.172   8.210 -0.7185  0.0081 -1.0930
 8253SOL     OW36220   0.625   4.195   5.482 -0.2007 -0.1096 -0.0969
 8253SOL    HW136221   0.615   4.104   5.456  0.6065  0.0948 -1.1002
 8253SOL    HW236222   0.534   4.226   5.491  0.4761  1.6023  0.9085
 8254SOL     OW36223   0.483   1.986  16.295 -0.2405  0.2298 -0.2023
 8254SOL    HW136224   0.473   1.897  16.330 -0.3653  0.2313 -0.2350
 8254SOL    HW236225   0.577   1.986  16.275 -0.6244 -0.1153 -1.9953
 8255SOL     OW36226   4.254   3.515  12.975  0.4200 -0.2274 -0.2610
 8255SOL    HW136227   4.192   3.550  12.911 -1.6644  1.1354  2.4790
 8255SOL    HW236228   4.213   3.543  13.057  2.4761  2.7472 -0.2501
 8256SOL     OW36229   0.888   1.227  12.848  0.2407 -0.1001 -0.0316
 8256SOL    HW136230   0.906   1.190  12.762 -3.0790 -0.3321 -0.6359
 8256SOL    HW236231   0.959   1.199  12.906 -0.0471 -2.1095 -0.6728
 8257SOL     OW36232   2.801   2.496  13.350  1.1292 -0.5035  0.2035
 8257SOL    HW136233   2.888   2.487  13.312  1.2220  0.3900  0.2060
 8257SOL    HW236234   2.775   2.404  13.347  1.2877 -0.6024  2.3969
 8258SOL     OW36235   1.133   2.860  13.593  0.3466  0.2976  0.1812
 8258SOL    HW136236   1.222   2.827  13.604  0.1179 -0.0329  1.0810
 8258SOL    HW236237   1.091   2.774  13.585  3.1611 -1.0963  0.4922
 8259SOL     OW36238   1.699   1.886   3.052  0.1594  0.0310 -0.9458
 8259SOL    HW136239   1.722   1.862   3.142  0.3842  1.5540 -0.5986
 8259SOL    HW236240   1.672   1.799   3.020 -0.5715  0.1850 -0.7612
 8260SOL     OW36241   2.309   4.133   4.786  0.5060  0.0097  0.1205
 8260SOL    HW136242   2.253   4.192   4.735 -2.7280 -1.1826  2.2617
 8260SOL    HW236243   2.323   4.181   4.867 -0.2181  0.9577 -0.3142
 8261SOL     OW36244   4.225   2.133   2.640 -0.0824  0.3548 -0.1940
 8261SOL    HW136245   4.178   2.066   2.589  0.8137 -1.0114  0.7707
 8261SOL    HW236246   4.188   2.214   2.604  0.9512  0.0060 -2.0699
 8262SOL     OW36247   4.060   1.705   7.779 -0.7812  0.4419  0.2896
 8262SOL    HW136248   3.972   1.720   7.812 -0.1497  0.4446  1.9428
 8262SOL    HW236249   4.064   1.610   7.766  1.0523  0.8012 -1.7963
 8263SOL     OW36250   4.092   0.419   5.779 -0.4471 -0.2157  0.2248
 8263SOL    HW136251   4.156   0.488   5.758 -0.0915 -0.6396 -0.0766
 8263SOL    HW236252   4.136   0.341   5.747  0.4277  0.7044 -0.8315
 8264SOL     OW36253   1.184   1.942   9.000  0.2499 -0.3321  0.2486
 8264SOL    HW136254   1.139   1.932   9.084 -0.0505 -1.1654 -0.0097
 8264SOL    HW236255   1.177   2.037   8.990 -0.7818 -0.2165  2.1766
 8265SOL     OW36256   0.483   3.773  13.327 -0.3300  0.1097 -0.2097
 8265SOL    HW136257   0.562   3.719  13.330 -0.2740  0.2578  0.8945
 8265SOL    HW236258   0.496   3.802  13.417  0.9560 -1.4895  0.1051
 8266SOL     OW36259   3.383   3.368   6.528 -0.4587 -0.9961  0.0115
 8266SOL    HW136260   3.328   3.324   6.463 -1.6233  0.7804 -0.1924
 8266SOL    HW236261   3.326   3.429   6.574  0.5306  0.3719 -0.5592
 8267SOL     OW36262   1.094   0.869   6.969 -0.5783  0.5862 -0.5929
 8267SOL    HW136263   1.126   0.893   6.882  0.9276 -0.6188 -0.3847
 8267SOL    HW236264   1.001   0.877   6.947 -0.8911 -1.3077  0.0537
 8268SOL     OW36265   0.621   3.592   2.281  0.0384  0.0414 -0.0849
 8268SOL    HW136266   0.651   3.536   2.210 -0.6421 -0.8765  0.3543
 8268SOL    HW236267   0.634   3.526   2.349 -1.7936  0.1185  0.3352
 8269SOL     OW36268   1.905   4.010   4.185 -0.1475  0.5500  0.2049
 8269SOL    HW136269   1.853   4.069   4.130  1.0702  1.9408  0.5307
 8269SOL    HW236270   1.980   3.994   4.128  1.5327  1.8413  2.0559
 8270SOL     OW36271   1.720   1.624   2.990  0.2043  0.1651 -0.3521
 8270SOL    HW136272   1.702   1.578   2.908  0.7337  0.1487 -0.4588
 8270SOL    HW236273   1.696   1.554   3.051  0.8057  0.0384 -0.2551
 8271SOL     OW36274   2.263   0.716   0.291 -0.9053 -0.3289 -0.3110
 8271SOL    HW136275   2.277   0.633   0.337 -0.9875 -0.1625  0.0152
 8271SOL    HW236276   2.280   0.696   0.199 -2.2592 -1.7047 -0.2523
 8272SOL     OW36277   1.006   4.029   5.989  0.6134  0.2134  0.1898
 8272SOL    HW136278   1.100   4.032   6.008  0.6067  1.9702 -0.0429
 8272SOL    HW236279   0.970   3.941   6.004 -1.0781  0.7810 -0.5692
 8273SOL     OW36280   0.766   2.077   7.006 -0.2075 -0.7003 -0.0686
 8273SOL    HW136281   0.720   2.144   6.955  0.4935 -0.1048  0.0832
 8273SOL    HW236282   0.701   2.049   7.070  0.7693 -2.8956 -0.0614
 8274SOL     OW36283   3.276   0.786  11.947 -0.1931 -0.8326  0.2592
 8274SOL    HW136284   3.269   0.714  11.884 -0.7266  0.1919 -0.8350
 8274SOL    HW236285   3.367   0.776  11.975 -0.7814 -1.8868  1.8270
 8275SOL     OW36286   1.112   2.829  13.897  0.0606 -0.2266 -0.0541
 8275SOL    HW136287   1.136   2.877  13.818 -0.8627  1.3395  0.6118
 8275SOL    HW236288   1.156   2.744  13.889 -0.4850 -0.4536 -0.6705
 8276SOL     OW36289   2.557   3.203   7.640 -0.8658  0.2451  0.4495
 8276SOL    HW136290   2.538   3.265   7.711  2.7435  0.3784  1.3217
 8276SOL    HW236291   2.483   3.213   7.581 -0.3233 -0.5361 -0.3650
 8277SOL     OW36292   2.466   3.286   9.858 -0.0775 -0.1383 -0.2584
 8277SOL    HW136293   2.396   3.255   9.800 -0.5167  1.2195 -0.4563
 8277SOL    HW236294   2.468   3.379   9.832  0.9709 -0.4801 -1.4305
 8278SOL     OW36295   2.253   0.863   8.553  0.0903 -0.3964  0.4326
 8278SOL    HW136296   2.162   0.891   8.558  0.4602  1.3168 -2.7156
 8278SOL    HW236297   2.273   0.879   8.460 -1.0423 -0.4678  0.1745
 8279SOL     OW36298   2.004   1.159   3.216 -0.6045 -0.5781 -0.0831
 8279SOL    HW136299   1.920   1.157   3.169 -2.1361 -0.0924  2.6423
 8279SOL    HW236300   2.012   1.070   3.250 -1.4505 -0.2323  1.0006
 8280SOL     OW36301   1.092   2.012  15.439 -0.3660 -0.1987  0.2545
 8280SOL    HW136302   1.045   2.080  15.488  1.3361 -1.4382  3.5837
 8280SOL    HW236303   1.085   2.049  15.351 -0.5268 -2.7864 -0.8045
 8281SOL     OW36304   0.607   4.073   4.324  0.1978 -0.4416 -0.0410
 8281SOL    HW136305   0.666   4.095   4.397  0.0461 -1.0634  0.2638
 8281SOL    HW236306   0.627   3.979   4.321  0.1234 -0.5661  3.1436
 8282SOL     OW36307   2.575   3.661  10.853 -0.8093  0.1825 -0.4057
 8282SOL    HW136308   2.555   3.567  10.860  3.3948 -0.5903  1.2187
 8282SOL    HW236309   2.487   3.689  10.828 -1.2840 -1.3634 -0.4936
 8283SOL     OW36310   3.864   3.656   7.630 -0.3322  0.4808  0.1753
 8283SOL    HW136311   3.820   3.596   7.569  1.1729  1.2561 -1.6647
 8283SOL    HW236312   3.910   3.708   7.565 -1.4466  1.7048  0.3633
 8284SOL     OW36313   1.129   0.996   7.962  0.0437  0.0489 -0.2402
 8284SOL    HW136314   1.100   0.969   7.875  0.8106 -0.1044 -0.4475
 8284SOL    HW236315   1.071   1.072   7.963  1.4525  1.1351 -1.4367
 8285SOL     OW36316   2.167   2.126   4.765  0.3346  0.2499  0.1704
 8285SOL    HW136317   2.246   2.105   4.715  1.6960  0.8876  2.1034
 8285SOL    HW236318   2.176   2.221   4.770  1.5977  0.1121  0.4456
 8286SOL     OW36319   2.566   0.004   7.062  0.5678 -0.1248  0.2317
 8286SOL    HW136320   2.656   0.024   7.035  0.6925  0.1500  0.8591
 8286SOL    HW236321   2.582   4.631   7.077  1.2436 -0.1030 -0.3538
 8287SOL     OW36322   2.024   3.718   6.724  0.1440  0.1780  0.7160
 8287SOL    HW136323   1.929   3.718   6.717  0.4583 -0.1651 -3.5864
 8287SOL    HW236324   2.042   3.780   6.795  2.4461 -0.1818  0.4497
 8288SOL     OW36325   3.088   0.043   1.630  0.2064 -0.0218  0.2370
 8288SOL    HW136326   3.149   0.096   1.681 -0.6294 -0.3084  1.5235
 8288SOL    HW236327   3.121   4.677   1.655 -0.3044 -0.2962 -0.0570
 8289SOL     OW36328   3.887   2.701  16.845  0.3317  0.5362  0.2603
 8289SOL    HW136329   3.962   2.697  16.905  3.0754  0.7170 -3.1789
 8289SOL    HW236330   3.881   2.797  16.840  3.4513  0.8115  1.9255
 8290SOL     OW36331   1.836   4.447  15.955  0.2711 -0.0701 -0.2067
 8290SOL    HW136332   1.843   4.377  16.020  1.7418  0.7551  0.5342
 8290SOL    HW236333   1.803   4.400  15.879 -0.9734 -0.5549  0.6330
 8291SOL     OW36334   0.178   1.238   8.433  0.7573 -0.1279 -0.0934
 8291SOL    HW136335   0.127   1.205   8.360  0.3786 -0.0228  0.1264
 8291SOL    HW236336   0.228   1.311   8.396  1.1564 -1.2233 -1.7057
 8292SOL     OW36337   0.935   0.353   2.250 -0.6449  0.3038  0.0783
 8292SOL    HW136338   0.841   0.339   2.241 -0.6957  1.6436 -1.5914
 8292SOL    HW236339   0.935   0.448   2.237 -1.3299  0.3602  0.4737
 8293SOL     OW36340   3.376   2.696   7.247 -0.3220  0.5534  0.3180
 8293SOL    HW136341   3.383   2.781   7.289  1.7217  0.4852  0.1068
 8293SOL    HW236342   3.436   2.634   7.290 -0.4015 -0.1784 -0.6397
 8294SOL     OW36343   0.726   0.377  14.851  0.1180  0.4479  0.2860
 8294SOL    HW136344   0.720   0.356  14.944 -0.3418 -1.1485 -0.1169
 8294SOL    HW236345   0.790   0.315  14.815  0.4476  0.6215  0.5675
 8295SOL     OW36346   3.349   3.514   4.450  0.2693  0.7863  0.1177
 8295SOL    HW136347   3.269   3.505   4.399  0.8514  0.8734 -0.8062
 8295SOL    HW236348   3.306   3.519   4.536  1.0482  1.0078  0.4917
 8296SOL     OW36349   3.872   3.307  14.973  0.5345  0.3659  0.2853
 8296SOL    HW136350   3.858   3.300  15.067  2.8562 -0.1297  0.6039
 8296SOL    HW236351   3.953   3.257  14.961  1.0637  1.4525 -0.7075
 8297SOL     OW36352   0.801   2.411  16.799  0.4553 -0.0364 -0.7193
 8297SOL    HW136353   0.814   2.499  16.834  0.2601  0.2733 -1.4157
 8297SOL    HW236354   0.731   2.433  16.737  0.8365  1.8828 -0.4392
 8298SOL     OW36355   3.832   0.831   4.536 -0.1859  0.6889  0.2364
 8298SOL    HW136356   3.753   0.842   4.589 -0.0885 -0.1979  0.5703
 8298SOL    HW236357   3.835   0.736   4.534 -0.2760  0.7044 -0.5875
 8299SOL     OW36358   3.230   4.660   4.378 -0.9149  0.2904  0.3084
 8299SOL    HW136359   3.238   4.602   4.303 -0.1513 -1.8608  2.0744
 8299SOL    HW236360   3.295   0.007   4.358 -1.5655  1.4345  2.0599
 8300SOL     OW36361   0.601   2.950   1.711  0.3341  0.0964  0.1694
 8300SOL    HW136362   0.686   2.933   1.752  0.5696 -1.8676 -1.1038
 8300SOL    HW236363   0.567   2.861   1.707  1.4077 -0.3440  1.0064
 8301SOL     OW36364   2.756   2.850   8.770 -0.2144  0.1867 -0.3595
 8301SOL    HW136365   2.831   2.863   8.711 -1.4189 -0.4607 -2.0083
 8301SOL    HW236366   2.785   2.766   8.804 -2.0755 -1.0550 -1.8240
 8302SOL     OW36367   3.729   4.507  17.437  0.1979  0.1648 -0.2876
 8302SOL    HW136368   3.823   4.495  17.424  0.2255 -2.4535  2.4178
 8302SOL    HW236369   3.724   4.586  17.491  0.8706  0.5320 -0.7678
 8303SOL     OW36370   4.504   1.866   8.015 -0.1410  0.6383 -0.5358
 8303SOL    HW136371   4.556   1.824   7.947 -0.1169 -1.5169  0.7909
 8303SOL    HW236372   4.542   1.953   8.024 -0.2030  0.8884 -2.6931
 8304SOL     OW36373   2.183   2.859   4.273 -0.4999  0.4292  0.6986
 8304SOL    HW136374   2.276   2.854   4.295 -0.6269  0.6058  1.2921
 8304SOL    HW236375   2.165   2.765   4.282  1.6254  0.1020  1.6770
 8305SOL     OW36376   0.306   0.879   8.788 -0.1821 -0.3403  0.0813
 8305SOL    HW136377   0.246   0.897   8.715  0.3995 -1.7402 -0.7323
 8305SOL    HW236378   0.324   0.968   8.819 -0.0587 -0.7666  1.2318
 8306SOL     OW36379   2.384   3.518   2.866 -0.0924 -0.0363 -0.2615
 8306SOL    HW136380   2.427   3.503   2.782  0.6215 -0.7126  0.2273
 8306SOL    HW236381   2.388   3.613   2.863  2.0462 -0.0319  3.0743
 8307SOL     OW36382   1.010   4.444   2.976  0.3865  0.0736  0.1836
 8307SOL    HW136383   1.067   4.415   2.904  0.6590  1.6298 -0.2480
 8307SOL    HW236384   0.979   4.358   3.004 -0.0948 -0.4729 -2.0302
 8308SOL     OW36385   3.445   0.436   8.022  0.0723 -0.5450  0.0446
 8308SOL    HW136386   3.434   0.478   8.107  1.1863  0.9426 -0.5530
 8308SOL    HW236387   3.382   0.364   8.023  0.3288 -0.7707 -0.1235
 8309SOL     OW36388   4.275   0.822   3.000 -0.2158  0.6235 -0.1112
 8309SOL    HW136389   4.210   0.842   3.067 -0.4429 -2.4374  0.6031
 8309SOL    HW236390   4.352   0.861   3.040  0.8383 -0.4810 -1.0413
 8310SOL     OW36391   3.017   3.760   7.784 -0.4214  0.5270 -0.1401
 8310SOL    HW136392   3.020   3.665   7.791  1.9705  0.6737  0.8586
 8310SOL    HW236393   3.046   3.780   7.873  0.4605 -1.6671  0.0532
 8311SOL     OW36394   0.083   1.011   6.475 -0.0693 -0.6613  0.2484
 8311SOL    HW136395   0.105   1.093   6.432 -1.5054  0.1218  1.0225
 8311SOL    HW236396   0.147   0.942   6.454  0.8147 -0.1010  1.0683
 8312SOL     OW36397   2.794   1.024   7.717  0.7711 -0.6789  0.0460
 8312SOL    HW136398   2.720   1.030   7.777 -0.4033  1.8906 -1.6254
 8312SOL    HW236399   2.763   1.097   7.663  0.7720  0.4073  1.5272
 8313SOL     OW36400   4.360   2.215   1.213  0.2203 -0.0635 -0.2028
 8313SOL    HW136401   4.335   2.153   1.282 -1.0828  0.6296 -0.0537
 8313SOL    HW236402   4.291   2.279   1.200 -1.2843 -1.4472  0.8855
 8314SOL     OW36403   1.732   2.597   3.227  0.5802 -0.3644 -0.0477
 8314SOL    HW136404   1.798   2.540   3.266  0.7054  0.8312  1.4962
 8314SOL    HW236405   1.648   2.570   3.264  0.8214  0.6423  1.2360
 8315SOL     OW36406   1.719   2.619   9.668 -0.5670 -0.3500  0.1088
 8315SOL    HW136407   1.724   2.524   9.680 -1.1981 -0.3631  0.2640
 8315SOL    HW236408   1.742   2.640   9.759  1.2295 -0.8075 -0.2367
 8316SOL     OW36409   0.273   3.008   9.561 -0.1137  0.0934 -0.2924
 8316SOL    HW136410   0.300   2.967   9.479  0.3654  0.1399 -0.1579
 8316SOL    HW236411   0.357   3.055   9.564  0.7303 -1.3836 -0.5316
 8317SOL     OW36412   2.645   0.554   4.134  0.3639  0.7218  0.0424
 8317SOL    HW136413   2.606   0.467   4.138 -0.8821  1.3021  0.6592
 8317SOL    HW236414   2.628   0.574   4.042 -1.5345  0.6527  0.3603
 8318SOL     OW36415   4.129   3.268   1.337 -0.1476 -0.4522  0.1780
 8318SOL    HW136416   4.101   3.234   1.251 -1.6401  0.2650  0.3788
 8318SOL    HW236417   4.061   3.332   1.356  1.2103  0.7710  0.9061
 8319SOL     OW36418   3.543   2.502   7.357 -0.2584 -0.0860  0.0948
 8319SOL    HW136419   3.629   2.485   7.318  0.2640 -1.3988  1.8331
 8319SOL    HW236420   3.568   2.485   7.448  1.2181  0.4982 -0.2010
 8320SOL     OW36421   3.837   2.730  10.981  0.3376 -0.0675 -0.0046
 8320SOL    HW136422   3.921   2.765  11.008  0.0424 -1.3851  2.6098
 8320SOL    HW236423   3.805   2.695  11.064 -0.9130  1.8669  0.3274
 8321SOL     OW36424   2.875   3.843   1.438 -0.2777 -0.1800 -0.2137
 8321SOL    HW136425   2.842   3.888   1.516  0.2352  2.3022 -1.4086
 8321SOL    HW236426   2.961   3.813   1.468 -2.2315 -2.2468  3.1665
 8322SOL     OW36427   1.260   0.785   3.321  0.1161  0.2594 -0.5331
 8322SOL    HW136428   1.315   0.853   3.359 -2.9206  2.5042 -0.1417
 8322SOL    HW236429   1.313   0.761   3.244 -0.3074 -1.2299 -0.3404
 8323SOL     OW36430   2.708   2.549   8.343  0.9042 -0.3868  0.0566
 8323SOL    HW136431   2.708   2.591   8.429  2.5610 -0.1873 -0.0252
 8323SOL    HW236432   2.773   2.603   8.297 -0.0023  0.8064  0.1753
 8324SOL     OW36433   3.554   0.269   4.205  0.7982 -0.2806  0.0524
 8324SOL    HW136434   3.635   0.232   4.241  1.1146  1.7646  1.4863
 8324SOL    HW236435   3.588   0.343   4.154 -4.0423  2.4616  0.7734
 8325SOL     OW36436   1.967   2.953   7.671 -0.6371  0.1920 -0.0501
 8325SOL    HW136437   2.057   2.938   7.640 -0.6537  0.0454 -0.0270
 8325SOL    HW236438   1.960   3.046   7.650  2.1593  0.4772  0.2165
 8326SOL     OW36439   0.896   4.145   4.429  0.2060  0.2455  0.0908
 8326SOL    HW136440   0.952   4.174   4.501  0.0270  1.8518 -0.4075
 8326SOL    HW236441   0.950   4.071   4.402 -0.5632 -0.9850  1.9367
 8327SOL     OW36442   1.567   3.523   2.856 -0.0992 -0.6284 -0.5640
 8327SOL    HW136443   1.477   3.516   2.888 -0.8261  4.2108 -1.5409
 8327SOL    HW236444   1.604   3.453   2.910  0.9725  1.6003  1.5897
 8328SOL     OW36445   1.691   2.539   0.849 -0.3624  0.5477  0.3159
 8328SOL    HW136446   1.721   2.628   0.862  0.4170 -0.1140  2.9829
 8328SOL    HW236447   1.762   2.491   0.892 -1.5719 -0.4947  1.1730
 8329SOL     OW36448   2.670   0.825   5.613 -0.6837 -0.7208  0.5057
 8329SOL    HW136449   2.587   0.871   5.626 -0.3698  0.2116 -0.8230
 8329SOL    HW236450   2.665   0.743   5.663 -1.0300 -1.3488 -0.5438
 8330SOL     OW36451   0.467   4.180   7.573  0.4744 -0.4678  0.4633
 8330SOL    HW136452   0.393   4.220   7.526 -0.2585 -1.4960  0.7461
 8330SOL    HW236453   0.432   4.177   7.662  1.3613  0.6029  0.8551
 8331SOL     OW36454   2.345   3.247   7.491 -0.3805 -0.0894  0.5374
 8331SOL    HW136455   2.324   3.192   7.415 -1.1321  0.1589  0.5714
 8331SOL    HW236456   2.263   3.293   7.508 -0.3818 -0.4998  1.6558
 8332SOL     OW36457   2.824   0.328   7.598  0.0102  0.6125 -0.0123
 8332SOL    HW136458   2.782   0.318   7.513  0.6014 -2.5943  0.0790
 8332SOL    HW236459   2.897   0.384   7.571 -0.3727  1.0572 -0.1282
 8333SOL     OW36460   0.291   0.703   4.515 -0.4792  0.1778 -0.0382
 8333SOL    HW136461   0.246   0.755   4.448 -0.3069 -1.5134 -1.4621
 8333SOL    HW236462   0.368   0.753   4.541  0.0298 -0.4164 -0.4087
 8334SOL     OW36463   0.461   0.301   2.261  0.0941 -0.3319  0.0497
 8334SOL    HW136464   0.414   0.246   2.198  1.1414 -1.5395  0.3138
 8334SOL    HW236465   0.383   0.345   2.294  0.2049  2.0290 -2.8832
 8335SOL     OW36466   1.772   1.369   7.182 -0.1240 -0.2616  0.5468
 8335SOL    HW136467   1.773   1.274   7.171  1.1321  0.0841 -2.1454
 8335SOL    HW236468   1.784   1.392   7.090 -0.0821 -0.8457  0.4033
 8336SOL     OW36469   1.972   2.681  10.204  0.2902  0.1529  0.0450
 8336SOL    HW136470   1.967   2.750  10.270 -2.0548 -0.6210  0.6814
 8336SOL    HW236471   1.878   2.664  10.217  0.1832 -0.3319 -1.3803
 8337SOL     OW36472   4.461   4.576   6.783  0.8004  0.5078  0.5119
 8337SOL    HW136473   4.439   4.551   6.693 -1.0110  1.5614  0.6752
 8337SOL    HW236474   4.402   4.525   6.839  0.7644 -1.2360 -1.1155
 8338SOL     OW36475   2.110   4.604   3.331 -0.0719  0.0650 -0.4882
 8338SOL    HW136476   2.038   4.618   3.392 -0.8167  1.7932 -1.7620
 8338SOL    HW236477   2.182   4.608   3.394  2.2770  1.4607 -3.2599
 8339SOL     OW36478   3.145   0.968   6.473 -0.1444 -0.7419  0.2306
 8339SOL    HW136479   3.103   1.010   6.397  0.0124  0.0685  0.5963
 8339SOL    HW236480   3.233   0.996   6.449 -1.4507  2.8345 -0.3412
 8340SOL     OW36481   1.858   2.214   7.780  0.0098  0.4483  0.1515
 8340SOL    HW136482   1.882   2.277   7.848  3.9351 -1.9144  0.9913
 8340SOL    HW236483   1.935   2.163   7.804 -0.6769 -0.9216 -0.5606
 8341SOL     OW36484   4.526   1.224  10.852 -0.2317 -0.3541 -0.0337
 8341SOL    HW136485   4.508   1.130  10.845  0.5654 -0.2593 -3.3455
 8341SOL    HW236486   4.571   1.239  10.936  0.0135 -0.8876 -0.0704
 8342SOL     OW36487   3.563   1.115  11.419  0.1667  0.4609 -0.4076
 8342SOL    HW136488   3.596   1.064  11.345 -1.0027  1.2576 -1.4834
 8342SOL    HW236489   3.517   1.050  11.473  2.6923 -1.0262 -0.0422
 8343SOL     OW36490   0.674   2.771   7.617  0.3550 -1.0244 -0.1153
 8343SOL    HW136491   0.702   2.726   7.696 -0.7588 -0.8640  0.3731
 8343SOL    HW236492   0.614   2.707   7.578  1.7114 -0.6801 -2.8161
 8344SOL     OW36493   3.172   2.486   4.457 -0.0148  0.7444  0.2671
 8344SOL    HW136494   3.130   2.463   4.374 -0.1641  0.2660  0.4719
 8344SOL    HW236495   3.239   2.419   4.473 -2.2138 -0.9497  2.3782
 8345SOL     OW36496   3.959   4.548  10.679 -0.1959  0.0858 -0.6532
 8345SOL    HW136497   3.951   4.461  10.717  1.8416  0.5751  0.9332
 8345SOL    HW236498   3.876   4.588  10.703 -0.4507 -0.2354 -1.0042
 8346SOL     OW36499   1.312   1.013   3.496  0.5898  0.2695 -0.1442
 8346SOL    HW136500   1.307   0.981   3.586  0.6282 -1.1785 -0.6473
 8346SOL    HW236501   1.405   0.996   3.479  0.8943 -0.5923  2.4039
 8347SOL     OW36502   4.209   3.503  14.978  0.1303  0.0302 -0.6900
 8347SOL    HW136503   4.135   3.520  14.921 -0.4469  1.7619  0.5777
 8347SOL    HW236504   4.171   3.518  15.064 -2.1429 -1.7266 -1.3690
 8348SOL     OW36505   1.768   1.952  10.234  0.1654  0.0295  0.0167
 8348SOL    HW136506   1.826   1.955  10.310 -0.5992  0.3822  0.5894
 8348SOL    HW236507   1.725   1.868  10.249 -0.0489  0.6035  2.6428
 8349SOL     OW36508   1.933   2.427   3.831 -0.1072 -0.0469  0.0578
 8349SOL    HW136509   1.886   2.510   3.824  1.6330  0.9376  0.2269
 8349SOL    HW236510   1.883   2.387   3.760  0.1523 -0.8733  0.3368
 8350SOL     OW36511   4.039   3.056   2.681  0.0582 -0.3066 -0.1214
 8350SOL    HW136512   3.960   3.097   2.715 -0.9209 -1.3640 -1.1081
 8350SOL    HW236513   4.073   3.132   2.633 -0.2338 -0.4154 -0.5003
 8351SOL     OW36514   3.060   4.419   3.968  0.1776  0.5280  0.5825
 8351SOL    HW136515   3.106   4.446   4.048  1.8997 -1.6156  0.2975
 8351SOL    HW236516   2.981   4.467   3.992  1.1590  1.6345  1.6128
 8352SOL     OW36517   2.052   0.473   2.731  0.2944 -0.4215  0.0035
 8352SOL    HW136518   2.024   0.519   2.810  1.0335  2.1605 -1.2404
 8352SOL    HW236519   2.085   0.389   2.761  0.1867 -0.3884  0.2109
 8353SOL     OW36520   2.985   0.440   8.727  0.3327  0.4104  0.1486
 8353SOL    HW136521   2.975   0.479   8.640  4.4072  3.5068  1.0571
 8353SOL    HW236522   2.933   0.499   8.781  1.2773 -0.4384  1.9778
 8354SOL     OW36523   0.199   1.849   7.112 -0.0574 -0.1892  0.7130
 8354SOL    HW136524   0.181   1.833   7.020 -1.2933  1.9296  0.5853
 8354SOL    HW236525   0.150   1.774   7.148 -0.3180 -0.5416 -0.3868
 8355SOL     OW36526   4.489   2.716   6.191  0.7479  0.3015  0.7080
 8355SOL    HW136527   4.571   2.759   6.169  1.3433 -0.8156  0.7700
 8355SOL    HW236528   4.464   2.671   6.110 -1.2407  2.9482 -0.1865
 8356SOL     OW36529   1.666   4.346  12.315 -0.1157 -0.5099 -0.3498
 8356SOL    HW136530   1.637   4.295  12.390  1.8977  0.3702  1.0560
 8356SOL    HW236531   1.679   4.434  12.351  0.0733 -1.2736  1.4466
 8357SOL     OW36532   0.116   3.877   3.173  0.8429  0.4264  0.6289
 8357SOL    HW136533   0.169   3.857   3.096 -0.2859 -1.2117  0.2676
 8357SOL    HW236534   0.059   3.948   3.143  1.1405 -0.6305 -2.3993
 8358SOL     OW36535   3.300   1.842   4.089  0.5291 -0.6461  0.1909
 8358SOL    HW136536   3.225   1.854   4.147  0.2960 -0.4047 -0.1594
 8358SOL    HW236537   3.260   1.837   4.002  0.1298  0.8061  0.2951
 8359SOL     OW36538   1.071   3.484   3.721 -0.7320  0.6176  0.0306
 8359SOL    HW136539   1.020   3.418   3.674  0.7682 -0.5189 -0.0004
 8359SOL    HW236540   1.031   3.567   3.697 -1.6012  1.0344  2.9270
 8360SOL     OW36541   1.609   4.315   1.745 -0.1153  0.3451 -0.4271
 8360SOL    HW136542   1.570   4.400   1.765 -1.0251 -0.1585 -0.0228
 8360SOL    HW236543   1.697   4.347   1.725  0.4308 -1.5005 -0.9902
 8361SOL     OW36544   4.377   0.729  10.115  0.2810  0.4460  0.2477
 8361SOL    HW136545   4.422   0.728  10.031 -0.4222  1.1227 -0.1402
 8361SOL    HW236546   4.400   0.644  10.152 -3.4333  0.0141  1.6007
 8362SOL     OW36547   1.638   2.266   3.232 -0.1327 -0.0978 -0.2934
 8362SOL    HW136548   1.575   2.325   3.274 -0.2788 -2.5526  2.9778
 8362SOL    HW236549   1.667   2.222   3.312 -0.6954  2.3775  1.2944
 8363SOL     OW36550   3.155   2.144   8.716  0.5395  0.2198 -0.7781
 8363SOL    HW136551   3.082   2.152   8.777  1.1079  0.6889 -0.1488
 8363SOL    HW236552   3.198   2.229   8.726  1.1327 -0.3581  1.5375
 8364SOL     OW36553   3.954   1.767   3.930 -0.0717 -0.5619  0.1765
 8364SOL    HW136554   3.972   1.683   3.888 -1.0661 -0.9498  0.5305
 8364SOL    HW236555   3.900   1.817   3.868 -0.5679 -0.5101  0.6431
 8365SOL     OW36556   3.747   1.043   2.632 -0.3793  0.3398  0.4557
 8365SOL    HW136557   3.721   1.066   2.543  0.8311 -2.3408 -0.5881
 8365SOL    HW236558   3.667   1.068   2.679 -0.4880 -0.9298  0.9329
 8366SOL     OW36559   4.196   2.175   8.041  0.3146  0.2143  0.2836
 8366SOL    HW136560   4.130   2.110   8.065 -0.1487  0.4201 -0.4236
 8366SOL    HW236561   4.156   2.258   8.064 -1.0764 -0.0227 -1.2727
 8367SOL     OW36562   2.310   3.312   8.790  0.4368  0.3205 -0.5882
 8367SOL    HW136563   2.283   3.275   8.874  0.1859  0.3263 -0.6673
 8367SOL    HW236564   2.400   3.281   8.784  0.0295 -1.0259  0.2412
 8368SOL     OW36565   1.960   4.509  10.078  0.4688 -0.2386  0.5585
 8368SOL    HW136566   2.033   4.540  10.025  0.6006 -2.2382 -0.4232
 8368SOL    HW236567   1.996   4.431  10.120  1.0998 -0.8525 -1.1469
 8369SOL     OW36568   4.630   2.462   2.359 -0.0109 -0.0980 -0.0476
 8369SOL    HW136569   4.650   2.490   2.269  0.5517 -1.2154 -0.2715
 8369SOL    HW236570   4.602   2.371   2.354  0.6838 -0.2928 -0.4378
 8370SOL     OW36571   3.260   2.977   7.116 -0.0329  0.3683  0.6243
 8370SOL    HW136572   3.260   2.920   7.039  2.0003 -3.1427  3.1928
 8370SOL    HW236573   3.348   3.009   7.100  0.5221 -1.0560  0.8170
 8371SOL     OW36574   0.561   2.661  12.836 -0.3887  0.6709  0.3502
 8371SOL    HW136575   0.617   2.608  12.893  1.7747  2.6091  0.0712
 8371SOL    HW236576   0.578   2.626  12.748 -1.7750 -0.4882  0.5561
 8372SOL     OW36577   3.393   0.197   8.678  0.0818  0.3115 -0.1622
 8372SOL    HW136578   3.418   0.174   8.768 -1.1693 -1.8984 -0.3813
 8372SOL    HW236579   3.431   0.120   8.636  1.2441  0.3981  0.7175
 8373SOL     OW36580   2.979   2.632  13.853 -0.1441  0.2988  0.1250
 8373SOL    HW136581   2.894   2.589  13.848 -0.1134  0.4013 -1.1921
 8373SOL    HW236582   3.033   2.556  13.874  1.2038  1.5197  1.1119
 8374SOL     OW36583   2.632   1.140   2.417 -0.6694 -0.2880 -0.2452
 8374SOL    HW136584   2.555   1.122   2.363  0.8703 -2.0374 -1.8615
 8374SOL    HW236585   2.611   1.086   2.493 -1.7678  0.7631  0.1995
 8375SOL     OW36586   0.245   0.514   0.157 -0.5534 -0.1456 -0.2893
 8375SOL    HW136587   0.202   0.444   0.108  1.1211 -1.5033  0.1824
 8375SOL    HW236588   0.168   0.569   0.172 -0.1947 -0.2506  1.9014
 8376SOL     OW36589   1.769   0.083   8.877 -0.2006 -0.1225 -0.7136
 8376SOL    HW136590   1.791   4.711   8.875 -0.0188 -0.0529 -1.9072
 8376SOL    HW236591   1.675   0.077   8.894 -0.2907  0.7152 -0.9198
 8377SOL     OW36592   2.274   3.913   2.221  0.1780  0.5119 -0.0226
 8377SOL    HW136593   2.219   3.841   2.252  1.1783  0.2046  1.0712
 8377SOL    HW236594   2.218   3.990   2.217  0.9125  1.0077 -0.6410
 8378SOL     OW36595   3.635   3.986   3.149  0.1951  0.4014 -0.3184
 8378SOL    HW136596   3.576   4.059   3.169 -0.1508  0.0066  0.1290
 8378SOL    HW236597   3.577   3.911   3.165 -0.1587  0.3399 -1.8913
 8379SOL     OW36598   0.318   1.422   6.812 -0.0428 -0.0910 -1.1482
 8379SOL    HW136599   0.313   1.327   6.799 -2.8717  0.1467 -1.8778
 8379SOL    HW236600   0.373   1.409   6.889 -2.1503  0.3662  0.4244
 8380SOL     OW36601   4.063   0.040  17.646  0.2265  0.1559 -0.8016
 8380SOL    HW136602   4.138   0.077   0.007 -0.4283  1.3401 -0.6895
 8380SOL    HW236603   3.998   0.036   0.031  0.7693  0.7642 -0.2736
 8381SOL     OW36604   3.780   2.335   0.248  0.1117 -0.1991 -0.2446
 8381SOL    HW136605   3.802   2.245   0.222  0.1996  0.0404 -0.9896
 8381SOL    HW236606   3.735   2.369   0.171  1.2581  1.1687 -0.3114
 8382SOL     OW36607   3.949   0.859   5.177 -0.5404  0.1026  0.0622
 8382SOL    HW136608   4.036   0.823   5.196 -0.9039 -0.1621  1.2320
 8382SOL    HW236609   3.902   0.827   5.254 -0.4887  0.7953  0.3842
 8383SOL     OW36610   0.526   3.565   8.695  0.3353  0.3991 -0.2428
 8383SOL    HW136611   0.532   3.660   8.705  0.4312  0.1575  2.0772
 8383SOL    HW236612   0.548   3.546   8.786 -3.0334 -2.0554  0.0464
 8384SOL     OW36613   4.122   1.242   8.775  0.1341 -0.2041 -0.4169
 8384SOL    HW136614   4.174   1.277   8.848 -0.7996  2.5882 -1.1126
 8384SOL    HW236615   4.157   1.153   8.768 -0.3180 -0.1642 -3.1639
 8385SOL     OW36616   1.413   2.600   6.084 -0.5206  0.2796 -1.1895
 8385SOL    HW136617   1.424   2.507   6.101  0.1440  0.8211  1.3831
 8385SOL    HW236618   1.330   2.618   6.128 -0.0620 -1.0702  0.2471
 8386SOL     OW36619   0.713   4.422   4.463 -0.3089 -0.2351  0.0295
 8386SOL    HW136620   0.739   4.387   4.547 -0.4930  1.4430  0.7949
 8386SOL    HW236621   0.761   4.365   4.403  2.1006  1.4023  0.3889
 8387SOL     OW36622   1.052   4.582   1.472 -0.0742  0.2606  0.0395
 8387SOL    HW136623   0.962   4.549   1.472  0.5982 -1.5940 -0.6930
 8387SOL    HW236624   1.027   4.672   1.488  2.0559  1.1015 -1.3606
 8388SOL     OW36625   4.169   4.592   7.282  0.8371 -0.2128 -0.5307
 8388SOL    HW136626   4.221   4.618   7.358 -0.7280  1.0961  0.0886
 8388SOL    HW236627   4.202   4.660   7.223  2.9157 -0.8051 -0.0454
 8389SOL     OW36628   3.193   0.196   7.335 -0.0838 -0.7289  0.2096
 8389SOL    HW136629   3.115   0.165   7.290 -0.3673  0.3235 -0.0417
 8389SOL    HW236630   3.241   0.123   7.373 -0.3931 -0.8621  0.3396
 8390SOL     OW36631   3.223   4.471   4.199 -0.2184  0.0109  0.6943
 8390SOL    HW136632   3.299   4.419   4.172 -0.1915  0.2945  0.2331
 8390SOL    HW236633   3.173   4.412   4.255 -2.6998 -0.4003 -1.9540
 8391SOL     OW36634   0.007   3.074  14.747  0.3234  0.7539 -0.2563
 8391SOL    HW136635   4.681   3.150  14.713 -1.0045  0.3477  0.6691
 8391SOL    HW236636   4.646   3.026  14.749  1.1535 -0.7565 -2.4867
 8392SOL     OW36637   3.377   4.646   3.298 -0.2592  0.1351  0.4079
 8392SOL    HW136638   3.407   0.010   3.330 -0.7150  0.0773  0.9948
 8392SOL    HW236639   3.283   4.660   3.313 -0.3388  0.9784 -0.8617
 8393SOL     OW36640   3.644   1.462   5.918 -0.4189 -0.2818 -0.0205
 8393SOL    HW136641   3.590   1.534   5.950 -1.5455 -2.3117  2.6091
 8393SOL    HW236642   3.684   1.426   5.997 -2.3030  2.1827  2.0535
 8394SOL     OW36643   0.126   4.242   2.547  0.1482 -0.6289  0.7369
 8394SOL    HW136644   0.074   4.277   2.474 -0.5677 -0.1208  1.4918
 8394SOL    HW236645   0.195   4.307   2.553 -1.2964  0.9810 -0.1747
 8395SOL     OW36646   1.419   1.422   3.657  0.3724  0.5266 -0.5543
 8395SOL    HW136647   1.442   1.508   3.624 -0.1629 -0.6088 -3.9127
 8395SOL    HW236648   1.440   1.372   3.578  2.8227  0.4511  0.1568
 8396SOL     OW36649   2.037   3.099   3.007  0.0473  0.9420 -0.5569
 8396SOL    HW136650   2.030   3.024   2.948 -0.8856 -0.5644  1.4773
 8396SOL    HW236651   2.128   3.124   2.991 -0.0694  1.3584 -0.5889
 8397SOL     OW36652   0.271   0.673  11.302  0.4869 -0.1028 -0.0857
 8397SOL    HW136653   0.326   0.719  11.239 -0.2393  0.3702 -0.3774
 8397SOL    HW236654   0.322   0.674  11.383 -0.5620  2.5266  0.5634
 8398SOL     OW36655   3.235   1.549   3.093 -0.5320  0.3383 -0.8913
 8398SOL    HW136656   3.301   1.606   3.132 -0.0233  1.5089 -3.4716
 8398SOL    HW236657   3.190   1.616   3.042 -2.1286  0.1249  0.2368
 8399SOL     OW36658   2.309   1.484  13.487  0.2620 -0.0575  0.2872
 8399SOL    HW136659   2.385   1.437  13.521  0.2643  0.0702  0.4598
 8399SOL    HW236660   2.241   1.416  13.477  1.4164 -0.4963 -4.5704
 8400SOL     OW36661   1.326   0.651   6.332  0.0367  0.4581  0.5305
 8400SOL    HW136662   1.237   0.638   6.300  0.4024 -0.5657 -0.0863
 8400SOL    HW236663   1.338   0.746   6.326 -0.5021  0.5106  0.2823
 8401SOL     OW36664   0.914   3.793   7.362 -0.1357  0.0286 -0.0501
 8401SOL    HW136665   0.952   3.723   7.309  2.3721  2.8577 -1.9909
 8401SOL    HW236666   0.973   3.810   7.435  2.2933  1.5188 -2.3412
 8402SOL     OW36667   4.344   0.239   6.039  0.1395  0.2857  0.0607
 8402SOL    HW136668   4.342   0.308   5.973  2.0311  0.6795  0.4237
 8402SOL    HW236669   4.314   0.285   6.117  2.6680 -1.5377  2.1226
 8403SOL     OW36670   3.920   3.634   4.857 -0.1806 -0.2103  0.5877
 8403SOL    HW136671   3.866   3.643   4.936 -1.3973 -1.2528 -0.1373
 8403SOL    HW236672   3.883   3.557   4.813  0.0560  2.4159 -4.1810
 8404SOL     OW36673   0.899   3.573   4.857  0.3370  0.8374 -0.1719
 8404SOL    HW136674   0.902   3.604   4.948 -0.1625 -0.2101  0.2059
 8404SOL    HW236675   0.985   3.530   4.857  1.0373  2.2624 -0.9753
 8405SOL     OW36676   0.351   3.031   8.488  0.2011 -0.3287 -0.4119
 8405SOL    HW136677   0.384   3.059   8.402  0.6706 -5.4817 -1.8911
 8405SOL    HW236678   0.413   3.058   8.556  0.3792  0.0956 -0.7441
 8406SOL     OW36679   2.737   3.185   5.187 -0.1333 -0.3528 -0.7307
 8406SOL    HW136680   2.703   3.272   5.210 -3.4738 -2.0889  0.9254
 8406SOL    HW236681   2.666   3.130   5.221 -0.8338  1.4491  0.7332
 8407SOL     OW36682   0.786   4.655   7.992  0.2242  0.0900  0.5405
 8407SOL    HW136683   0.794   0.007   8.053  1.1535  1.7863 -1.6014
 8407SOL    HW236684   0.735   4.593   8.044 -3.8952  1.2075 -2.1671
 8408SOL     OW36685   2.445   3.549   2.156 -0.0185  0.4947  0.6197
 8408SOL    HW136686   2.417   3.562   2.065 -1.7613  1.9570  1.3661
 8408SOL    HW236687   2.522   3.606   2.154  0.7324 -0.6088 -1.6139
 8409SOL     OW36688   1.798   4.536   8.817  0.1734  0.2350 -0.0479
 8409SOL    HW136689   1.804   4.458   8.872 -2.2096  0.1014  0.0065
 8409SOL    HW236690   1.851   4.517   8.740  0.0132 -0.0100 -0.0978
 8410SOL     OW36691   2.772   0.585   3.105  0.2835  0.0978 -0.3595
 8410SOL    HW136692   2.802   0.497   3.082  0.9264  0.3976 -0.6697
 8410SOL    HW236693   2.838   0.632   3.054  1.6486  1.1286  2.3362
 8411SOL     OW36694   0.342   4.487   1.934 -0.2209  0.6557 -0.2187
 8411SOL    HW136695   0.397   4.415   1.904 -0.2562  0.2711  0.6737
 8411SOL    HW236696   0.399   4.508   2.008 -1.6977 -2.1315  1.6693
 8412SOL     OW36697   2.696   3.060   9.820  0.3129 -0.0292 -0.1438
 8412SOL    HW136698   2.766   3.063   9.885  0.2004 -1.8570  0.0809
 8412SOL    HW236699   2.633   3.120   9.860  2.4429  1.9225  0.2173
 8413SOL     OW36700   0.141   1.581   5.373 -0.4068 -0.2553  0.0621
 8413SOL    HW136701   0.063   1.627   5.343 -0.3487  0.6297  1.3042
 8413SOL    HW236702   0.112   1.496   5.338  1.0313 -0.0546 -1.5876
 8414SOL     OW36703   1.816   2.654   3.709 -0.2089 -0.0835 -0.5496
 8414SOL    HW136704   1.757   2.665   3.635 -3.2395  0.5543  1.9472
 8414SOL    HW236705   1.899   2.678   3.669  0.4579 -0.8698  0.3285
 8415SOL     OW36706   3.361   0.496  14.262  0.4121 -0.2110 -0.1467
 8415SOL    HW136707   3.373   0.451  14.345  5.4353 -1.2203 -1.4555
 8415SOL    HW236708   3.267   0.483  14.247  0.3523 -1.0375  0.9895
 8416SOL     OW36709   1.801   1.549   3.345 -0.3878  0.4503  0.1726
 8416SOL    HW136710   1.754   1.489   3.286  1.3344 -1.9824  1.2907
 8416SOL    HW236711   1.809   1.495   3.423 -0.7609 -1.6718 -1.2603
 8417SOL     OW36712   0.044   2.782   0.590 -0.1237 -0.3090 -0.0861
 8417SOL    HW136713   0.135   2.758   0.608 -0.6875 -2.1868  0.2435
 8417SOL    HW236714   0.012   2.746   0.672 -0.8618  0.1171 -0.1910
 8418SOL     OW36715   3.834   3.447   3.761  0.7063  0.1687  0.7537
 8418SOL    HW136716   3.825   3.379   3.694  0.4567  0.5821  0.3655
 8418SOL    HW236717   3.929   3.453   3.770  0.9032 -1.1099 -0.3402
 8419SOL     OW36718   4.712   1.809  11.414  0.7826 -0.0924 -0.3341
 8419SOL    HW136719   0.052   1.775  11.480  0.3063  2.2474  1.3035
 8419SOL    HW236720   4.704   1.728  11.363 -0.6487  1.0023 -1.8312
 8420SOL     OW36721   0.133   1.993  15.900 -0.5769 -0.1403 -0.6769
 8420SOL    HW136722   0.133   2.078  15.944 -1.3715  0.1355 -1.2063
 8420SOL    HW236723   0.104   1.948  15.979 -0.4766  1.6403  0.3808
 8421SOL     OW36724   0.979   0.845   8.533 -0.0131 -0.1403  0.1316
 8421SOL    HW136725   1.042   0.912   8.560 -1.4770  1.1920  0.2047
 8421SOL    HW236726   1.022   0.812   8.454  3.5288  3.6631  0.4471
 8422SOL     OW36727   2.089   0.217   7.805 -0.0894  0.1021 -0.0108
 8422SOL    HW136728   2.167   0.199   7.751  1.4323  1.0385  1.8639
 8422SOL    HW236729   2.121   0.287   7.861 -1.3004 -0.3240  1.2153
 8423SOL     OW36730   1.974   0.599   2.518  0.4040 -0.3319  0.1171
 8423SOL    HW136731   2.005   0.556   2.598 -1.7781 -2.3859 -0.1703
 8423SOL    HW236732   1.972   0.687   2.557  2.8047  0.2330 -0.9706
 8424SOL     OW36733   2.426   3.879   0.851  0.0331  0.3569 -0.0316
 8424SOL    HW136734   2.391   3.848   0.934  1.6571  0.7334  0.7950
 8424SOL    HW236735   2.434   3.974   0.863  2.0005  0.1386  0.3416
 8425SOL     OW36736   3.044   1.004   6.777  0.0863 -0.3124  0.0610
 8425SOL    HW136737   3.110   1.073   6.773  1.0368 -1.2507 -0.4444
 8425SOL    HW236738   3.024   0.984   6.686  0.1454 -1.1820  0.2378
 8426SOL     OW36739   1.016   1.514   7.094  0.2332 -0.4292  0.0931
 8426SOL    HW136740   1.108   1.496   7.074  0.1892 -0.7692  0.2021
 8426SOL    HW236741   0.970   1.446   7.045  1.9161 -0.6286 -1.2273
 8427SOL     OW36742   0.940   0.725   4.637  0.6448 -0.4404 -0.0374
 8427SOL    HW136743   0.888   0.697   4.712 -0.4714  1.8715  0.0374
 8427SOL    HW236744   0.939   0.820   4.640  1.9698 -0.3893 -0.9628
 8428SOL     OW36745   2.456   3.408   7.174  0.1478 -0.3849  0.5449
 8428SOL    HW136746   2.434   3.421   7.266 -3.2107 -1.5035 -0.1063
 8428SOL    HW236747   2.396   3.475   7.140 -0.9851 -0.9385  1.4409
 8429SOL     OW36748   2.399   4.368   8.058 -0.2481 -0.0684  0.4230
 8429SOL    HW136749   2.355   4.287   8.033  2.1363 -1.0016 -0.8278
 8429SOL    HW236750   2.328   4.420   8.094 -0.0153  0.8218 -0.4058
 8430SOL     OW36751   4.577   0.514  13.621  0.5117  0.0338 -0.3198
 8430SOL    HW136752   4.643   0.476  13.679 -0.3571 -0.6064  0.2460
 8430SOL    HW236753   4.499   0.461  13.634 -0.6587  1.2417 -2.3875
 8431SOL     OW36754   1.875   2.588   7.435  0.9469  0.0521  0.3284
 8431SOL    HW136755   1.877   2.498   7.467  2.1810  0.3061  1.0076
 8431SOL    HW236756   1.783   2.611   7.437  0.9426  0.0605 -0.0475
 8432SOL     OW36757   4.301   3.331   6.287 -0.2361 -0.4048 -0.0473
 8432SOL    HW136758   4.217   3.287   6.280 -1.1971  1.4241 -0.0785
 8432SOL    HW236759   4.287   3.412   6.238 -2.2884 -1.9114 -1.8899
 8433SOL     OW36760   2.682   1.785   2.470  0.2366 -0.2629  0.8331
 8433SOL    HW136761   2.640   1.802   2.386  0.6654  0.2466  0.7216
 8433SOL    HW236762   2.658   1.697   2.499  1.2374 -1.1515 -1.0894
 8434SOL     OW36763   3.892   0.522   3.322  0.5017  0.9033  0.1442
 8434SOL    HW136764   3.927   0.493   3.239 -1.1737  1.1717 -0.6591
 8434SOL    HW236765   3.812   0.469   3.319  0.7510  0.4771  1.0018
 8435SOL     OW36766   2.158   2.372   7.337 -0.4897  0.5136  0.3187
 8435SOL    HW136767   2.168   2.449   7.282 -0.6927  0.3758  0.0900
 8435SOL    HW236768   2.199   2.407   7.417  3.2653 -1.0647 -0.9061
 8436SOL     OW36769   0.749   1.410   3.557 -0.0197 -0.0454 -0.1208
 8436SOL    HW136770   0.695   1.463   3.616 -2.1667 -0.8210 -1.4242
 8436SOL    HW236771   0.811   1.379   3.624  0.4048  0.0517 -0.4708
 8437SOL     OW36772   2.834   0.028   6.979 -0.0829 -0.0218  0.1347
 8437SOL    HW136773   2.872   4.663   6.961  2.3181  1.0317  0.1390
 8437SOL    HW236774   2.826   0.074   6.895 -0.9311 -0.9621 -0.2932
 8438SOL     OW36775   1.534   3.603  13.194  0.0969 -0.4365  0.3859
 8438SOL    HW136776   1.525   3.536  13.127 -4.1493  1.1448 -0.6141
 8438SOL    HW236777   1.449   3.645  13.204  0.6617  0.6943  0.5320
 8439SOL     OW36778   3.770   1.016   6.572  0.4283  0.3675 -0.3271
 8439SOL    HW136779   3.769   1.039   6.665  2.0212  2.6745 -0.8740
 8439SOL    HW236780   3.861   1.031   6.547  0.2886  0.3258 -0.8501
 8440SOL     OW36781   2.552   4.528   8.481 -0.9625 -0.2276 -0.4533
 8440SOL    HW136782   2.492   4.600   8.463  0.1518  1.0695  1.1110
 8440SOL    HW236783   2.552   4.492   8.392 -1.0018 -0.3808 -0.3919
 8441SOL     OW36784   4.550   1.926  16.120 -0.2099 -0.0897 -0.2574
 8441SOL    HW136785   4.595   1.854  16.076  0.0131  0.0150 -0.1999
 8441SOL    HW236786   4.459   1.900  16.109 -0.8021  2.3603 -1.1235
 8442SOL     OW36787   4.557   4.325   2.449  0.3000  0.2901 -0.6494
 8442SOL    HW136788   4.516   4.395   2.499  3.7691  0.6998  1.5550
 8442SOL    HW236789   4.573   4.367   2.365  0.6741 -0.1583 -0.8052
 8443SOL     OW36790   4.503   4.169   2.703 -0.4063 -0.1515  0.2080
 8443SOL    HW136791   4.571   4.207   2.760 -1.7696  0.8273  1.1835
 8443SOL    HW236792   4.520   4.211   2.619 -2.8748 -1.5119 -0.9617
 8444SOL     OW36793   4.196   3.550   7.753  0.1144 -0.0722 -0.1101
 8444SOL    HW136794   4.213   3.644   7.738 -0.7764  0.1163  0.0766
 8444SOL    HW236795   4.262   3.534   7.820  2.1013 -0.7167 -2.2054
 8445SOL     OW36796   4.051   2.629   9.868 -0.6214 -0.5098  0.1099
 8445SOL    HW136797   4.111   2.556   9.886  0.7889  0.3990 -0.8841
 8445SOL    HW236798   4.020   2.650   9.956 -0.2506  2.6942 -0.5196
 8446SOL     OW36799   3.313   3.781   4.210  0.3016 -0.1863  0.1974
 8446SOL    HW136800   3.372   3.707   4.195  1.0354  0.3160  0.6396
 8446SOL    HW236801   3.269   3.787   4.125  1.0525  0.1850 -0.1677
 8447SOL     OW36802   3.165   0.966   5.152  0.0405 -0.1189  0.1516
 8447SOL    HW136803   3.073   0.945   5.162 -0.6490  2.6693 -0.2945
 8447SOL    HW236804   3.178   0.989   5.244 -0.3419  3.8242 -0.7839
 8448SOL     OW36805   4.493   2.487   1.328  0.2565 -0.0540 -0.9283
 8448SOL    HW136806   4.442   2.458   1.404 -1.7527  0.0246 -2.2567
 8448SOL    HW236807   4.547   2.409   1.323  2.8332  1.7319 -1.3091
 8449SOL     OW36808   3.541   3.903  11.135  0.4688 -0.3937  0.1846
 8449SOL    HW136809   3.590   3.985  11.144  0.4032 -0.1691 -1.5434
 8449SOL    HW236810   3.562   3.869  11.048  1.8294 -0.1689  0.4199
 8450SOL     OW36811   0.181   0.363   5.965  0.1189 -0.0934  0.2266
 8450SOL    HW136812   0.132   0.438   5.999  0.7777  0.7986 -0.7946
 8450SOL    HW236813   0.147   0.289   6.016  2.5581 -0.6003  1.1334
 8451SOL     OW36814   2.951   0.714   1.146 -0.4812  0.2219 -0.2261
 8451SOL    HW136815   2.946   0.618   1.149 -1.2552  0.2494 -0.5330
 8451SOL    HW236816   2.992   0.730   1.231  0.6241 -0.4372 -0.6366
 8452SOL     OW36817   4.350   3.100  13.074  0.3079  0.1757 -0.3323
 8452SOL    HW136818   4.304   3.031  13.121  1.0046  0.6515  1.0323
 8452SOL    HW236819   4.301   3.171  13.117  0.5916  0.1593  0.0132
 8453SOL     OW36820   0.032   0.036  14.045  0.1392  0.2847 -0.0291
 8453SOL    HW136821   4.690   0.105  14.025 -1.1632 -0.6645  0.8529
 8453SOL    HW236822   0.030   4.702  13.967  2.2977 -0.0510  0.1381
 8454SOL     OW36823   4.200   2.129  14.163 -0.1914  0.6636  0.3301
 8454SOL    HW136824   4.224   2.090  14.079  0.6822  0.9322  0.4616
 8454SOL    HW236825   4.285   2.118  14.204  0.8303  0.5923 -1.8283
 8455SOL     OW36826   2.426   3.029  12.753 -0.1102  0.2683 -0.3202
 8455SOL    HW136827   2.398   3.102  12.697  0.3288  1.9081  1.5917
 8455SOL    HW236828   2.342   2.994  12.783 -0.6117 -1.5648 -3.8666
 8456SOL     OW36829   2.105   2.726   7.364  0.7560 -0.1576  0.6692
 8456SOL    HW136830   2.134   2.770   7.444 -1.0580 -0.9147  1.7572
 8456SOL    HW236831   2.017   2.695   7.388  0.0712  1.1514 -0.2038
 8457SOL     OW36832   3.265   1.197   5.261  0.1994  0.6734 -0.1987
 8457SOL    HW136833   3.200   1.267   5.261 -0.9650 -0.4092  0.6085
 8457SOL    HW236834   3.259   1.154   5.176 -2.0206 -0.5243  0.5464
 8458SOL     OW36835   4.070   3.794  17.309 -0.0074  0.0478  0.1254
 8458SOL    HW136836   4.029   3.840  17.382  1.0046  0.0589  0.6861
 8458SOL    HW236837   3.988   3.767  17.268 -0.0896  1.2961 -0.5306
 8459SOL     OW36838   3.603   0.484   5.606 -0.0850 -0.4070  0.3697
 8459SOL    HW136839   3.517   0.452   5.633 -0.3821  1.2195  1.3532
 8459SOL    HW236840   3.596   0.491   5.511 -2.0150 -2.0890  0.3786
 8460SOL     OW36841   2.748   2.157   4.625  0.4486 -0.0472 -0.1568
 8460SOL    HW136842   2.788   2.074   4.651 -2.3871 -0.8920  1.4685
 8460SOL    HW236843   2.760   2.209   4.704 -0.7742  0.7083 -0.4774
 8461SOL     OW36844   3.074   2.568  12.150 -0.0980  0.8831  0.1022
 8461SOL    HW136845   3.088   2.582  12.243 -1.8132 -1.2724  0.6601
 8461SOL    HW236846   2.988   2.609  12.148 -0.1839  0.7057  0.2130
 8462SOL     OW36847   0.331   4.180   7.824 -0.0745  0.1192 -0.1734
 8462SOL    HW136848   0.246   4.215   7.796 -0.7507  1.9363  4.2122
 8462SOL    HW236849   0.309   4.104   7.879 -1.8922  0.4820 -0.4055
 8463SOL     OW36850   3.263   3.173   5.127 -0.1907 -0.1157 -0.6955
 8463SOL    HW136851   3.259   3.240   5.194 -0.1964 -0.1602 -0.6515
 8463SOL    HW236852   3.176   3.133   5.136  0.1069 -0.7025 -0.4164
 8464SOL     OW36853   4.576   0.409   3.645  0.4283 -1.0898 -0.7002
 8464SOL    HW136854   4.598   0.503   3.645 -0.4740 -0.8829  0.2319
 8464SOL    HW236855   4.522   0.409   3.566  0.0777 -1.5921 -0.4618
 8465SOL     OW36856   2.486   4.049   1.169  0.2310 -0.4864 -0.5533
 8465SOL    HW136857   2.511   3.959   1.149  0.8758 -0.9265  2.1406
 8465SOL    HW236858   2.564   4.070   1.220 -1.4707 -0.4938  2.0830
 8466SOL     OW36859   2.683   2.226  16.610  0.2977  0.3309 -0.2848
 8466SOL    HW136860   2.639   2.214  16.694 -0.1232  0.6987 -0.4532
 8466SOL    HW236861   2.723   2.140  16.599 -0.7194 -0.0232 -1.2912
 8467SOL     OW36862   2.042   2.200   2.227 -0.2506 -0.2751  0.1785
 8467SOL    HW136863   2.014   2.266   2.291  2.5738 -1.4578  2.5984
 8467SOL    HW236864   2.135   2.221   2.220 -0.0735 -1.4662 -1.1993
 8468SOL     OW36865   1.006   1.763  15.464 -0.0696  0.3110  0.4168
 8468SOL    HW136866   1.037   1.852  15.447  2.2658 -0.7091 -0.6520
 8468SOL    HW236867   1.066   1.714  15.408  1.1286  1.5956  0.5713
 8469SOL     OW36868   1.193   4.695   2.675 -0.4446 -0.2140 -0.2140
 8469SOL    HW136869   1.177   4.700   2.580  1.1049 -0.1653 -0.4677
 8469SOL    HW236870   1.147   0.050   2.711  1.0290  0.2893  0.5749
 8470SOL     OW36871   4.563   2.958   2.953  0.1255 -0.4280 -0.2868
 8470SOL    HW136872   4.621   3.022   2.994 -0.7298 -0.1605  0.5047
 8470SOL    HW236873   4.630   2.891   2.942 -1.0289 -1.7103  0.4741
 8471SOL     OW36874   4.203   2.271  17.325  0.3914  0.1139  0.8659
 8471SOL    HW136875   4.270   2.204  17.339  1.3172  1.0716  1.0424
 8471SOL    HW236876   4.123   2.222  17.342 -0.2626  0.8715 -0.0657
 8472SOL     OW36877   1.502   4.422   5.405  0.2346 -0.1217  0.1969
 8472SOL    HW136878   1.545   4.404   5.489  0.3635 -0.4068  0.0711
 8472SOL    HW236879   1.522   4.515   5.406 -0.7551  0.0596  2.8978
 8473SOL     OW36880   4.143   3.269   4.889 -0.3068  0.6404 -0.2935
 8473SOL    HW136881   4.216   3.329   4.897  0.9843 -0.9951  0.2367
 8473SOL    HW236882   4.115   3.292   4.801 -0.5394  1.2001 -0.0726
 8474SOL     OW36883   3.360   4.287  10.603  0.1390  0.6354  0.1916
 8474SOL    HW136884   3.435   4.233  10.578 -0.9727 -1.2981  0.9780
 8474SOL    HW236885   3.292   4.265  10.540 -0.3138  1.3407  0.4394
 8475SOL     OW36886   0.500   4.392   8.743 -0.4103 -0.6110 -0.4076
 8475SOL    HW136887   0.547   4.351   8.815  0.9752 -1.3607 -1.7336
 8475SOL    HW236888   0.439   4.452   8.786 -2.3125 -1.4867 -1.8357
 8476SOL     OW36889   1.994   2.442   3.125 -0.0671  0.4227  0.0762
 8476SOL    HW136890   1.912   2.414   3.165  0.5029  0.5776  1.3611
 8476SOL    HW236891   1.959   2.494   3.053 -0.0507 -0.2811 -0.4357
 8477SOL     OW36892   0.264   1.531   7.674 -0.1494 -0.2475  0.6827
 8477SOL    HW136893   0.197   1.572   7.619  1.3715  0.7177 -0.4360
 8477SOL    HW236894   0.211   1.476   7.732 -0.3635 -1.0462 -0.2788
 8478SOL     OW36895   1.342   3.129  15.290  0.2782 -0.4378 -0.0975
 8478SOL    HW136896   1.375   3.087  15.369  0.2806  2.6496  1.5450
 8478SOL    HW236897   1.421   3.159  15.245 -0.0325  0.7763  0.1457
 8479SOL     OW36898   0.251   1.084   1.558 -0.0454  0.0380  0.0697
 8479SOL    HW136899   0.176   1.143   1.550 -0.0441 -0.2465 -1.9398
 8479SOL    HW236900   0.314   1.133   1.506  0.3497 -0.4185  0.1174
 8480SOL     OW36901   3.262   0.011   4.081  0.0872  1.6273 -0.5058
 8480SOL    HW136902   3.189   4.675   4.107  1.6718 -0.4496 -0.5873
 8480SOL    HW236903   3.344   4.690   4.106 -0.1800  1.9848  1.0127
 8481SOL     OW36904   2.968   3.365   6.149  0.3333  0.4113 -0.1285
 8481SOL    HW136905   2.995   3.442   6.200 -1.8974 -0.1565  1.8823
 8481SOL    HW236906   2.914   3.306   6.200  0.7619  0.7962  0.7643
 8482SOL     OW36907   0.684   1.296  10.370 -0.2081 -0.4271 -0.3952
 8482SOL    HW136908   0.633   1.373  10.395 -1.2695 -1.3317  0.2281
 8482SOL    HW236909   0.765   1.338  10.341  0.3927 -2.0828 -1.0798
 8483SOL     OW36910   2.668   4.576   3.794  0.5997 -0.5157  0.0877
 8483SOL    HW136911   2.739   4.570   3.730 -0.5762 -2.9761 -0.9388
 8483SOL    HW236912   2.723   4.584   3.873 -1.3835 -0.8270  1.4879
 8484SOL     OW36913   2.838   2.927   7.310 -0.6818 -0.2783  0.2685
 8484SOL    HW136914   2.765   2.944   7.251 -0.7908  0.9405  0.7691
 8484SOL    HW236915   2.796   2.934   7.396  0.3241  0.4895  0.7084
 8485SOL     OW36916   4.025   4.187  15.194 -0.0792 -0.0382  0.5127
 8485SOL    HW136917   4.087   4.183  15.121 -1.9687 -0.2764 -1.0811
 8485SOL    HW236918   3.945   4.220  15.154 -0.1095  1.4075  1.7836
 8486SOL     OW36919   2.582   0.878   8.943  0.0873 -0.2406 -0.3016
 8486SOL    HW136920   2.509   0.824   8.912  0.4090  0.5009 -2.3135
 8486SOL    HW236921   2.535   0.953   8.978 -1.9510 -1.8346  0.4352
 8487SOL     OW36922   4.070   4.313   2.660  0.3463  0.1130  0.2426
 8487SOL    HW136923   4.088   4.367   2.583  1.2153  2.4809  2.1369
 8487SOL    HW236924   4.129   4.239   2.644 -1.6550 -0.9164 -2.3948
 8488SOL     OW36925   3.682   2.068   7.947  0.1492 -0.1188  0.1029
 8488SOL    HW136926   3.706   2.146   7.897 -0.4939  0.5042  0.7716
 8488SOL    HW236927   3.609   2.040   7.891  1.1026 -0.3517 -1.0231
 8489SOL     OW36928   0.347   2.870   5.611 -0.6239  0.0329 -0.2288
 8489SOL    HW136929   0.314   2.861   5.701  0.0898 -3.1869 -0.2674
 8489SOL    HW236930   0.399   2.950   5.617  0.8302 -0.8799 -0.7203
 8490SOL     OW36931   0.156   0.148   3.779  0.0728 -0.1210 -0.0933
 8490SOL    HW136932   0.241   0.103   3.775 -1.0388 -2.1276 -1.0544
 8490SOL    HW236933   0.092   0.077   3.774  1.0655 -1.0962  0.8461
 8491SOL     OW36934   2.730   1.184   5.607  0.5565 -0.2779  0.7234
 8491SOL    HW136935   2.699   1.275   5.609  0.9780 -0.1660  1.8823
 8491SOL    HW236936   2.656   1.126   5.626 -0.4211  0.3491 -1.1175
 8492SOL     OW36937   3.724   3.865   7.810 -0.2899 -0.3969 -0.5902
 8492SOL    HW136938   3.630   3.849   7.815 -0.4047  0.7235  1.0065
 8492SOL    HW236939   3.745   3.789   7.756 -0.2352 -0.1947 -0.8487
 8493SOL     OW36940   3.150   3.758   0.528  0.0513  0.5322  0.2687
 8493SOL    HW136941   3.209   3.798   0.464 -1.5023  3.4107  0.6475
 8493SOL    HW236942   3.115   3.832   0.578 -1.0885  1.1413 -1.4293
 8494SOL     OW36943   4.367   4.012   5.752 -0.5247  1.1315  0.0574
 8494SOL    HW136944   4.310   3.963   5.692  1.4687  1.7844 -2.3761
 8494SOL    HW236945   4.397   3.940   5.808 -0.0840  0.1019 -1.4989
 8495SOL     OW36946   4.579   1.914   8.447 -0.4031  0.2825 -0.0044
 8495SOL    HW136947   4.538   1.969   8.514  0.8765 -1.3505  2.0823
 8495SOL    HW236948   4.502   1.887   8.397 -0.7352  0.6989  0.2785
 8496SOL     OW36949   2.821   0.694   1.445 -0.0717 -0.2078  0.3378
 8496SOL    HW136950   2.869   0.708   1.526 -0.2854  0.1405  0.3994
 8496SOL    HW236951   2.802   0.785   1.422 -1.5421 -0.5822  0.0812
 8497SOL     OW36952   3.400   0.988   0.152 -0.5873  0.3957  0.3045
 8497SOL    HW136953   3.431   0.919   0.211  0.0601  1.2686  0.9786
 8497SOL    HW236954   3.392   1.070   0.200  1.3438  0.2734  0.8471
 8498SOL     OW36955   3.251   3.777   2.029 -0.3882  0.3038 -0.2617
 8498SOL    HW136956   3.302   3.797   2.107 -2.4309  1.2627  0.8155
 8498SOL    HW236957   3.305   3.710   1.986 -1.9877 -0.5162 -1.0152
 8499SOL     OW36958   3.240   2.558   1.251 -0.7359  0.6025 -0.0030
 8499SOL    HW136959   3.147   2.577   1.241 -0.6042  0.4911 -1.4144
 8499SOL    HW236960   3.293   2.637   1.239 -0.4728  0.3743 -0.3510
 8500SOL     OW36961   3.667   0.886   7.785 -0.3850 -0.1364  0.0427
 8500SOL    HW136962   3.588   0.937   7.799 -2.0342 -2.1234 -2.0413
 8500SOL    HW236963   3.680   0.897   7.691  0.6907 -3.4594 -0.2132
 8501SOL     OW36964   0.658   2.577   1.948  0.5277 -0.0244  0.2647
 8501SOL    HW136965   0.662   2.482   1.960 -0.3747  0.1237  1.6740
 8501SOL    HW236966   0.752   2.593   1.935  0.7045 -2.9068 -1.9910
 8502SOL     OW36967   2.787   4.335  16.632 -0.5139 -0.0255  0.5601
 8502SOL    HW136968   2.797   4.242  16.651  0.0922 -0.2059 -0.6404
 8502SOL    HW236969   2.693   4.345  16.641 -0.6713 -0.5284 -0.5361
 8503SOL     OW36970   2.702   2.954  12.721  0.0597 -0.3020 -0.2158
 8503SOL    HW136971   2.761   3.029  12.721 -0.7624  0.3430  0.9638
 8503SOL    HW236972   2.620   2.984  12.760  0.7301 -1.6171  2.2061
 8504SOL     OW36973   2.830   1.495  11.672 -0.5666  0.7048 -0.3498
 8504SOL    HW136974   2.794   1.409  11.651  0.7591  0.0421  0.1413
 8504SOL    HW236975   2.915   1.484  11.630  0.1183 -0.4029  1.3263
 8505SOL     OW36976   1.305   3.213  16.327  0.3548  0.3388  0.2174
 8505SOL    HW136977   1.239   3.237  16.392 -0.9119  1.2560 -1.4283
 8505SOL    HW236978   1.245   3.164  16.271  2.2423  1.3487 -2.7306
 8506SOL     OW36979   1.829   3.769   3.148 -0.0566 -0.7161  0.7970
 8506SOL    HW136980   1.862   3.843   3.200  2.5895 -1.4776  0.1855
 8506SOL    HW236981   1.907   3.718   3.127 -0.5006 -0.7719 -0.6975
 8507SOL     OW36982   4.159   4.371  15.995  0.1382  0.5274 -0.2024
 8507SOL    HW136983   4.101   4.422  15.939 -0.5994 -0.8799 -0.7398
 8507SOL    HW236984   4.181   4.441  16.057  0.9852  0.0870 -0.0044
 8508SOL     OW36985   0.388   0.596   8.217  0.3864 -0.5137  0.5137
 8508SOL    HW136986   0.433   0.653   8.279 -0.1619  2.9914 -2.2972
 8508SOL    HW236987   0.448   0.607   8.143 -1.2348 -2.7603 -1.1202
 8509SOL     OW36988   3.426   0.844   6.370  0.0320  0.4794  0.0386
 8509SOL    HW136989   3.438   0.896   6.291  1.5120  0.1180  0.0227
 8509SOL    HW236990   3.381   0.769   6.329  2.2424 -0.1081 -1.3252
 8510SOL     OW36991   2.390   2.042  16.760  0.2863  0.4266  0.2114
 8510SOL    HW136992   2.348   2.127  16.759  0.1671  0.3499 -0.7512
 8510SOL    HW236993   2.377   2.014  16.670  1.7817 -0.8861  0.4049
 8511SOL     OW36994   4.170   1.592   6.579  0.4512  0.4871 -0.0075
 8511SOL    HW136995   4.260   1.578   6.549 -0.9158  1.1970 -4.4752
 8511SOL    HW236996   4.167   1.687   6.582 -0.8372  0.3719  2.3207
 8512SOL     OW36997   2.519   1.842   0.487 -0.4857  0.0009  0.3031
 8512SOL    HW136998   2.446   1.893   0.523  2.2377  1.4867  3.6542
 8512SOL    HW236999   2.477   1.805   0.409  1.4348  1.9244 -1.6424
 8513SOL     OW37000   4.271   3.239  10.688 -0.0991  0.4203  0.4549
 8513SOL    HW137001   4.349   3.280  10.725  1.0434 -0.5675 -0.8668
 8513SOL    HW237002   4.302   3.184  10.616 -1.1576 -1.4018  1.3854
 8514SOL     OW37003   3.600   1.740   5.477  0.2078  0.1897 -0.2011
 8514SOL    HW137004   3.627   1.648   5.474  0.4943  0.1462  3.4618
 8514SOL    HW237005   3.532   1.742   5.410 -0.9539 -0.9724  0.9262
 8515SOL     OW37006   1.324   1.284   6.394 -0.0555  0.2661  0.1602
 8515SOL    HW137007   1.375   1.326   6.463 -1.9131  0.8481  1.1543
 8515SOL    HW237008   1.245   1.338   6.394 -0.0670  0.2485  0.4486
 8516SOL     OW37009   1.113   0.392   3.798 -0.1238 -0.1079 -0.1706
 8516SOL    HW137010   1.176   0.349   3.740  0.4235 -0.0061  0.3565
 8516SOL    HW237011   1.094   0.334   3.872  1.3418  1.2452  1.2577
 8517SOL     OW37012   1.327   3.583  11.731  0.2823  0.0789 -0.4957
 8517SOL    HW137013   1.295   3.510  11.678 -0.6017  0.5410 -0.5967
 8517SOL    HW237014   1.421   3.566  11.725  0.3609  0.3171  0.0417
 8518SOL     OW37015   3.330   0.513   0.260 -0.2226  0.0496  0.6403
 8518SOL    HW137016   3.359   0.526   0.350  0.0446  1.4640  0.3407
 8518SOL    HW237017   3.362   0.425   0.241 -1.1221 -0.3016  0.7213
 8519SOL     OW37018   0.687   0.989   4.707 -0.6023  0.2846 -0.1849
 8519SOL    HW137019   0.628   0.949   4.643  0.3509 -1.1540 -0.1730
 8519SOL    HW237020   0.775   0.991   4.671 -0.0215  2.3038  1.3226
 8520SOL     OW37021   0.877   4.198   3.025  0.4636 -0.0713  0.0224
 8520SOL    HW137022   0.902   4.106   3.019 -0.0807 -0.1501 -1.1628
 8520SOL    HW237023   0.819   4.196   2.948 -0.9840  0.6639  1.1068
 8521SOL     OW37024   2.772   3.260   9.277  0.0940  0.1139 -0.0464
 8521SOL    HW137025   2.710   3.205   9.229  0.5222  0.1513 -0.6384
 8521SOL    HW237026   2.736   3.255   9.365 -0.0464 -0.5999 -0.1452
 8522SOL     OW37027   0.544   0.476   0.938  0.3961 -0.5215  0.4196
 8522SOL    HW137028   0.547   0.462   0.843  3.7287 -1.8416  0.7368
 8522SOL    HW237029   0.518   0.389   0.970  0.9506 -1.6645 -2.2273
 8523SOL     OW37030   4.702   3.842  15.791  0.1250  0.1815 -0.1977
 8523SOL    HW137031   4.694   3.931  15.825 -1.4607 -0.7430  1.8801
 8523SOL    HW237032   4.641   3.796  15.849  0.1639  2.4407  1.6055
 8524SOL     OW37033   4.382   2.688   2.276 -0.4586 -0.1034 -0.6543
 8524SOL    HW137034   4.333   2.769   2.265  2.7906  2.3170  2.9142
 8524SOL    HW237035   4.471   2.723   2.284  0.0547 -1.2214 -1.4397
 8525SOL     OW37036   0.753   2.675   3.547  0.4255 -0.0917 -0.5896
 8525SOL    HW137037   0.672   2.726   3.558  0.3180  0.0208 -1.8797
 8525SOL    HW237038   0.810   2.738   3.503 -0.2179  2.0551  1.6178
 8526SOL     OW37039   2.692   4.563   6.130 -0.0683  0.5788 -0.0272
 8526SOL    HW137040   2.727   4.622   6.063  0.7261  0.6290  0.4258
 8526SOL    HW237041   2.599   4.564   6.107 -0.4083 -0.2164  1.3075
 8527SOL     OW37042   1.228   0.095  12.063  0.0403  0.5093  0.2122
 8527SOL    HW137043   1.278   0.061  12.137  0.6402  0.0705 -0.3846
 8527SOL    HW237044   1.217   0.017  12.008 -0.1714  0.5324  0.2240
 8528SOL     OW37045   4.414   3.306   5.078  0.5591  0.0611  0.1409
 8528SOL    HW137046   4.404   3.355   4.997 -2.7547 -0.0604  0.4918
 8528SOL    HW237047   4.409   3.218   5.041 -1.1307  0.2826 -0.1389
 8529SOL     OW37048   4.157   2.732   1.290 -0.1158 -0.6001 -0.2793
 8529SOL    HW137049   4.101   2.736   1.368  2.3756 -1.6227  1.5822
 8529SOL    HW237050   4.186   2.823   1.282  1.8940 -1.1725  0.4500
 8530SOL     OW37051   0.873   1.560   4.431 -0.0948 -0.5848 -1.0130
 8530SOL    HW137052   0.779   1.547   4.439 -0.2140  1.3543  0.9631
 8530SOL    HW237053   0.882   1.619   4.506  2.9387 -2.1860 -0.1299
 8531SOL     OW37054   0.042   2.232   2.501 -0.1050  0.2521 -0.1293
 8531SOL    HW137055   0.106   2.189   2.557  0.5919 -0.5107 -1.5043
 8531SOL    HW237056   0.045   2.318   2.543 -1.0474 -0.5952  1.6597
 8532SOL     OW37057   0.376   3.440   6.240 -0.4072  0.0172 -0.2568
 8532SOL    HW137058   0.347   3.474   6.155 -0.6886  2.9365  0.9961
 8532SOL    HW237059   0.414   3.522   6.270 -0.0067 -0.8751  1.6339
 8533SOL     OW37060   1.855   3.498   7.007  0.4792 -0.6571  0.3350
 8533SOL    HW137061   1.903   3.581   7.000  1.3244 -1.0043  1.8734
 8533SOL    HW237062   1.792   3.513   6.937  1.2993 -0.0270 -0.2716
 8534SOL     OW37063   1.605   4.580  15.515 -0.7166  0.2283 -0.4846
 8534SOL    HW137064   1.614   4.599  15.422 -0.4626  0.4501 -0.4135
 8534SOL    HW237065   1.522   4.621  15.542 -0.3033  0.2451  0.7630
 8535SOL     OW37066   3.358   1.840   0.243 -0.0467 -0.3248  0.1354
 8535SOL    HW137067   3.272   1.850   0.284  1.1489 -0.9904  2.8105
 8535SOL    HW237068   3.415   1.878   0.311 -1.5581  1.1620  0.5714
 8536SOL     OW37069   0.558   3.249  17.589  0.2089 -0.1525  0.2729
 8536SOL    HW137070   0.483   3.239  17.529 -0.7839  0.5527  1.3933
 8536SOL    HW237071   0.545   3.174  17.647  1.4616 -1.3834 -1.0195
 8537SOL     OW37072   1.335   3.579  12.511  0.0092 -0.0267 -0.0492
 8537SOL    HW137073   1.424   3.552  12.532  0.1557  0.2862 -0.2818
 8537SOL    HW237074   1.332   3.568  12.416  2.2369  2.3446 -0.3923
 8538SOL     OW37075   1.825   3.245   9.486 -0.1298 -0.4214 -0.1412
 8538SOL    HW137076   1.890   3.175   9.480 -1.2048 -1.3600 -0.9794
 8538SOL    HW237077   1.811   3.266   9.394  0.9775  0.5657 -0.0859
 8539SOL     OW37078   2.847   2.286   4.398  0.0046 -0.1235  0.4300
 8539SOL    HW137079   2.818   2.251   4.482 -0.6026 -0.8414 -0.0774
 8539SOL    HW237080   2.841   2.380   4.411 -1.2125  0.1348 -1.9220
 8540SOL     OW37081   2.903   0.949   2.644  1.1347  0.2267  0.4086
 8540SOL    HW137082   2.922   0.972   2.553 -4.2007  0.0220 -0.8037
 8540SOL    HW237083   2.979   0.903   2.679  1.7346 -0.2236 -1.4906
 8541SOL     OW37084   4.007   1.387  12.594  0.2467  0.3853  0.1561
 8541SOL    HW137085   3.929   1.388  12.650 -0.4443  0.2484 -0.8074
 8541SOL    HW237086   3.967   1.425  12.516 -0.2913 -1.7815 -0.5998
 8542SOL     OW37087   2.203   2.845  12.529 -0.5183 -0.2444 -0.0493
 8542SOL    HW137088   2.189   2.752  12.545  2.6212 -0.2759  2.5582
 8542SOL    HW237089   2.197   2.879  12.618 -1.6599 -0.3678 -0.0830
 8543SOL     OW37090   2.447   1.510  11.450  0.3241  0.1787  0.1979
 8543SOL    HW137091   2.394   1.434  11.475  2.0505 -0.5407  1.6620
 8543SOL    HW237092   2.389   1.545  11.382  0.4517 -0.3858 -0.1994
 8544SOL     OW37093   2.253   4.196   2.807 -0.2803  0.5815  0.2227
 8544SOL    HW137094   2.343   4.170   2.822 -1.2668 -2.5199  0.7316
 8544SOL    HW237095   2.240   4.160   2.719  0.8069 -1.2998  0.8503
 8545SOL     OW37096   0.233   0.671   1.029  0.5899  0.3438 -0.6478
 8545SOL    HW137097   0.293   0.707   0.964  1.5203 -0.4142 -0.2260
 8545SOL    HW237098   0.293   0.640   1.098 -2.9664  0.5478  2.5402
 8546SOL     OW37099   2.700   2.659   7.131 -0.1768 -0.0458  0.3525
 8546SOL    HW137100   2.703   2.749   7.097  0.4933 -0.0137  0.4910
 8546SOL    HW237101   2.619   2.655   7.181  0.3365  0.3519  1.2100
 8547SOL     OW37102   2.795   4.190   6.505  0.1431 -0.1638 -1.0868
 8547SOL    HW137103   2.879   4.200   6.549 -0.7811  1.3097  0.3596
 8547SOL    HW237104   2.785   4.273   6.458  0.6747 -0.0914 -1.0757
 8548SOL     OW37105   3.129   2.970   3.642  0.7114 -0.4762 -0.6259
 8548SOL    HW137106   3.211   2.922   3.659  0.3992 -0.3841  1.1675
 8548SOL    HW237107   3.076   2.890   3.647  1.7894 -1.0446  1.6551
 8549SOL     OW37108   0.411   0.159  10.410  0.0993 -0.6750 -0.4222
 8549SOL    HW137109   0.487   0.178  10.355 -0.5846  1.7740 -0.5530
 8549SOL    HW237110   0.336   0.196  10.365 -1.5078 -0.1913  2.6723
 8550SOL     OW37111   3.351   0.065  16.026 -0.2119 -0.4560 -0.0024
 8550SOL    HW137112   3.346   0.032  15.936  1.7772 -0.7982  0.0146
 8550SOL    HW237113   3.362   0.159  16.013  0.7306 -0.3920  1.3240
 8551SOL     OW37114   1.897   3.332   8.810  0.4533 -0.1754  0.1636
 8551SOL    HW137115   1.916   3.268   8.741  1.1555 -1.4358  1.5426
 8551SOL    HW237116   1.934   3.297   8.891 -1.0330 -2.0711  0.0155
 8552SOL     OW37117   3.354   3.434   7.720  0.1992  0.4910  0.1077
 8552SOL    HW137118   3.407   3.508   7.748  0.8056 -0.5974  1.8248
 8552SOL    HW237119   3.320   3.410   7.806  0.1121 -0.1152 -0.0912
 8553SOL     OW37120   1.555   2.710   7.136 -0.0148  0.3566 -0.4178
 8553SOL    HW137121   1.523   2.629   7.096 -0.8480 -1.3585  3.6223
 8553SOL    HW237122   1.504   2.781   7.098 -0.5790  1.7507  2.9619
 8554SOL     OW37123   0.429   4.045   6.561  0.4321 -0.1365 -0.6254
 8554SOL    HW137124   0.342   4.062   6.596  0.4964 -0.8225 -0.1466
 8554SOL    HW237125   0.472   3.995   6.630  2.6743  1.7348 -0.6403
 8555SOL     OW37126   0.154   4.270   4.428  0.0157 -0.2580  0.2907
 8555SOL    HW137127   0.227   4.209   4.412 -1.0107 -1.2516 -0.6269
 8555SOL    HW237128   0.136   4.294   4.337 -1.2864 -1.4260  0.2337
 8556SOL     OW37129   0.799   0.232   8.089 -0.3813  0.1991 -0.4364
 8556SOL    HW137130   0.888   0.223   8.054 -0.4059  3.6488 -1.4057
 8556SOL    HW237131   0.805   0.173   8.164 -0.7774  1.0679  0.2819
 8557SOL     OW37132   2.820   3.303  11.048 -0.3335 -0.3146 -0.2886
 8557SOL    HW137133   2.842   3.353  10.970  1.4027 -0.6636 -0.0265
 8557SOL    HW237134   2.741   3.347  11.080  0.6073 -0.2009  1.8620
 8558SOL     OW37135   0.868   2.303  15.850  0.1069 -0.1736 -0.0752
 8558SOL    HW137136   0.956   2.283  15.819  0.3135  0.2455  0.2520
 8558SOL    HW237137   0.858   2.233  15.916  0.5425  0.9264  1.1632
 8559SOL     OW37138   4.226   0.771   5.171  0.6195 -0.5976  0.5460
 8559SOL    HW137139   4.251   0.692   5.123 -0.2321 -1.4570  1.5036
 8559SOL    HW237140   4.277   0.839   5.128  0.5267 -1.0762 -0.3222
 8560SOL     OW37141   2.748   3.221  10.093  0.4093 -0.7032  0.0670
 8560SOL    HW137142   2.773   3.313  10.104 -2.2905 -0.1717  1.9139
 8560SOL    HW237143   2.672   3.213  10.151 -0.1045  2.0232 -0.2068
 8561SOL     OW37144   3.010   3.476   5.613 -0.5261  0.1927 -0.5573
 8561SOL    HW137145   2.918   3.456   5.596 -0.8348  1.5317 -0.4998
 8561SOL    HW237146   3.054   3.495   5.529 -0.5194 -2.3242 -1.1313
 8562SOL     OW37147   2.847   3.490   2.595 -0.8369 -0.1604 -0.1101
 8562SOL    HW137148   2.925   3.442   2.569 -0.5115 -0.4398  1.4010
 8562SOL    HW237149   2.848   3.550   2.520  0.6983  1.8429  1.4991
 8563SOL     OW37150   1.550   1.066  12.194  1.0928 -0.5898  0.2379
 8563SOL    HW137151   1.469   1.084  12.242  1.3566 -1.1437  0.8833
 8563SOL    HW237152   1.576   0.992  12.249  0.7798 -0.5688  0.4139
 8564SOL     OW37153   3.152   3.212  11.460 -0.6482  0.1894  0.0204
 8564SOL    HW137154   3.126   3.286  11.516  0.1536 -1.9751  3.2800
 8564SOL    HW237155   3.077   3.192  11.404  0.3286  1.7496 -1.8406
 8565SOL     OW37156   4.106   2.577  11.565  0.5232 -0.2076 -0.4216
 8565SOL    HW137157   4.154   2.594  11.484  1.8166 -3.2810 -0.2779
 8565SOL    HW237158   4.013   2.576  11.542  0.7988  0.1118 -1.5497
 8566SOL     OW37159   0.910   0.023   8.232  0.1907 -0.0010  0.0754
 8566SOL    HW137160   0.911   4.649   8.217 -0.3683  0.0459 -0.2491
 8566SOL    HW237161   1.003   0.040   8.249  0.9312 -0.4925 -3.5869
 8567SOL     OW37162   0.145   2.179   4.007  0.4198 -0.3227 -0.2002
 8567SOL    HW137163   0.194   2.186   4.089  2.8786  0.8831 -1.7723
 8567SOL    HW237164   0.105   2.092   4.016  0.5634 -0.2753  0.8975
 8568SOL     OW37165   3.219   3.811   2.802 -0.0287 -0.4580 -0.5999
 8568SOL    HW137166   3.268   3.830   2.721  0.5071 -0.0817 -0.1857
 8568SOL    HW237167   3.251   3.730   2.841  0.4096  0.5740  1.1703
 8569SOL     OW37168   0.315   3.339  10.152  0.2769 -0.1840  0.2561
 8569SOL    HW137169   0.360   3.380  10.078  0.2110 -1.6589 -0.5792
 8569SOL    HW237170   0.386   3.286  10.188  1.7012  1.3886 -0.2069
 8570SOL     OW37171   3.206   4.669   9.147 -0.0435 -0.1078  0.1240
 8570SOL    HW137172   3.253   4.669   9.064 -0.0060 -1.9457  0.1568
 8570SOL    HW237173   3.123   4.700   9.112  0.8844  1.8491 -0.3612
 8571SOL     OW37174   2.544   3.130   1.876  0.3563 -0.3882 -0.0866
 8571SOL    HW137175   2.589   3.166   1.799  1.7162  0.0844  0.9418
 8571SOL    HW237176   2.533   3.195   1.945  0.2643 -0.6085  0.1051
 8572SOL     OW37177   0.771   4.606   1.517  0.0402 -0.0608  0.4715
 8572SOL    HW137178   0.686   4.600   1.561  0.1464  1.2318  0.8527
 8572SOL    HW237179   0.771   4.701   1.508 -1.1504  0.0243  1.3786
 8573SOL     OW37180   1.279   1.344   7.364  0.9635 -0.3139 -0.6002
 8573SOL    HW137181   1.373   1.337   7.350  1.2270 -3.1538  2.6442
 8573SOL    HW237182   1.269   1.251   7.385  0.6912 -0.2029 -0.2222
 8574SOL     OW37183   3.752   1.716   1.970  0.4788  0.3022  0.2228
 8574SOL    HW137184   3.712   1.801   1.950  0.7474  0.1666 -0.8658
 8574SOL    HW237185   3.800   1.738   2.049 -1.6430  1.5701  1.1834
 8575SOL     OW37186   4.548   3.782   3.108 -0.3801  0.3460  0.1982
 8575SOL    HW137187   4.537   3.856   3.048  0.4434  0.9840  0.8347
 8575SOL    HW237188   4.582   3.717   3.047 -1.3502  1.8849 -1.9905
 8576SOL     OW37189   4.717   4.627   6.752  0.4498  0.5726 -0.0118
 8576SOL    HW137190   4.624   4.610   6.759  0.2951  2.2351  2.1315
 8576SOL    HW237191   0.006   4.707   6.804 -2.2906 -0.4934  2.1155
 8577SOL     OW37192   0.089   4.248   7.753 -0.0866  0.3450  0.5892
 8577SOL    HW137193   0.047   4.272   7.836 -2.4627 -1.2591 -0.1611
 8577SOL    HW237194   0.039   4.298   7.689  0.2971  0.1581  0.1437
 8578SOL     OW37195   1.836   2.901   5.594  0.5862  0.2217 -0.0211
 8578SOL    HW137196   1.867   2.811   5.585  0.2823  0.2023 -0.8622
 8578SOL    HW237197   1.741   2.891   5.596  0.6336 -0.1903  0.1175
 8579SOL     OW37198   4.391   1.586  15.539  0.2558 -0.4219  0.1098
 8579SOL    HW137199   4.464   1.574  15.599  0.0053 -2.0263  0.0917
 8579SOL    HW237200   4.420   1.658  15.483  0.0246 -0.0551  0.4590
 8580SOL     OW37201   2.595   4.204   8.471  0.7353 -0.0079  0.8837
 8580SOL    HW137202   2.622   4.124   8.517 -0.2284 -0.1423  1.2289
 8580SOL    HW237203   2.523   4.182   8.412  1.0817  2.8223 -0.5502
 8581SOL     OW37204   4.488   0.300   5.190  0.2956  0.1655  0.3211
 8581SOL    HW137205   4.535   0.285   5.108  0.6058 -0.0448  0.5402
 8581SOL    HW237206   4.455   0.212   5.207  1.0040 -0.1670 -0.0294
 8582SOL     OW37207   4.407   1.909   3.471 -0.2405 -0.4614 -0.4316
 8582SOL    HW137208   4.395   1.904   3.566 -1.2730 -0.8317 -0.5836
 8582SOL    HW237209   4.396   2.005   3.471  0.4973 -0.3638 -4.4587
 8583SOL     OW37210   0.348   0.269   7.787 -0.0701  0.5264  0.0679
 8583SOL    HW137211   0.408   0.337   7.756 -0.7637  0.8714 -0.5100
 8583SOL    HW237212   0.405   0.192   7.795  0.0625  0.8925  2.4825
 8584SOL     OW37213   1.831   4.421   5.292  0.6123 -0.4965  0.0386
 8584SOL    HW137214   1.839   4.482   5.365 -1.4768  0.1178 -0.2566
 8584SOL    HW237215   1.794   4.479   5.225 -0.4879 -3.5440 -1.9510
 8585SOL     OW37216   0.258   3.769   3.643  0.4769 -0.6475  0.2985
 8585SOL    HW137217   0.237   3.681   3.615  0.5212 -0.3192 -0.7546
 8585SOL    HW237218   0.206   3.829   3.589 -1.1081  1.1904  3.8323
 8586SOL     OW37219   2.845   0.544   7.249  0.1226  0.2490  0.2813
 8586SOL    HW137220   2.933   0.541   7.212  0.6149  0.4215  1.4519
 8586SOL    HW237221   2.820   0.629   7.213 -0.2799 -1.0126 -2.4080
 8587SOL     OW37222   0.563   3.430   3.783 -0.2050  0.0209 -0.2585
 8587SOL    HW137223   0.476   3.395   3.761 -0.3396 -0.3331  0.8532
 8587SOL    HW237224   0.573   3.397   3.872 -0.9194  0.2917 -0.0744
 8588SOL     OW37225   2.285   0.331   3.320  0.6400  0.4796 -0.3531
 8588SOL    HW137226   2.238   0.269   3.264  0.5329  1.2094 -1.0605
 8588SOL    HW237227   2.218   0.387   3.360  2.7873 -0.3242  4.4436
 8589SOL     OW37228   1.466   3.672  13.544 -0.5869  0.0272  0.0400
 8589SOL    HW137229   1.466   3.767  13.555 -0.4913 -0.1537  1.6298
 8589SOL    HW237230   1.533   3.662  13.475  1.5094  1.5269  1.8406
 8590SOL     OW37231   3.249   3.583  11.026 -0.0653 -0.1776 -0.1850
 8590SOL    HW137232   3.335   3.607  11.062  0.7963 -2.6139 -0.6558
 8590SOL    HW237233   3.275   3.500  10.986 -0.3400  0.4979 -1.7611
 8591SOL     OW37234   1.462   2.049   3.636  0.4954  0.0885  0.3099
 8591SOL    HW137235   1.449   2.025   3.544  1.0791  2.5139 -0.4074
 8591SOL    HW237236   1.540   1.999   3.657  2.8607  2.5197 -2.6659
 8592SOL     OW37237   1.783   1.983   4.824 -0.7022  0.5436  0.1012
 8592SOL    HW137238   1.801   1.901   4.780  2.0483  2.1868 -1.8412
 8592SOL    HW237239   1.706   1.949   4.871 -0.1266  0.9412  1.3323
 8593SOL     OW37240   1.989   4.697   7.512 -0.1283 -0.0588  0.2374
 8593SOL    HW137241   1.959   0.052   7.562  0.2350  1.1384 -1.3780
 8593SOL    HW237242   2.011   4.639   7.585 -0.7157  0.3205  0.7207
 8594SOL     OW37243   1.528   1.629   1.787 -0.2473  0.3425 -0.2955
 8594SOL    HW137244   1.496   1.661   1.871  0.4710 -0.3771  0.2559
 8594SOL    HW237245   1.472   1.551   1.786  1.1065 -0.5852 -2.4777
 8595SOL     OW37246   4.000   3.056   4.970 -0.2774  0.3620 -0.1319
 8595SOL    HW137247   4.061   3.121   4.933  2.1559 -0.5329  2.2957
 8595SOL    HW237248   3.955   3.112   5.033 -1.0887 -0.5871  0.1147
 8596SOL     OW37249   1.851   2.126   5.629 -0.2785 -0.2724  0.6407
 8596SOL    HW137250   1.824   2.216   5.648 -1.5885 -0.2726 -1.3004
 8596SOL    HW237251   1.941   2.136   5.597 -0.7088 -1.2251 -0.8501
 8597SOL     OW37252   1.027   3.932   4.768  0.1187  0.5216 -0.0257
 8597SOL    HW137253   1.050   4.020   4.737  0.6628  0.8738  1.3889
 8597SOL    HW237254   1.080   3.924   4.847  0.6605  0.0427 -0.4409
 8598SOL     OW37255   3.265   1.745   4.978  0.7452  0.0989 -0.3111
 8598SOL    HW137256   3.198   1.738   5.045  1.8273 -1.5877  0.5814
 8598SOL    HW237257   3.206   1.781   4.911  0.2888 -1.6756 -0.8814
 8599SOL     OW37258   2.597   2.356   2.889  0.2820 -0.0383 -0.2862
 8599SOL    HW137259   2.673   2.301   2.868  1.2358  1.3457 -0.4011
 8599SOL    HW237260   2.549   2.299   2.950  0.4463 -0.3297 -0.4296
 8600SOL     OW37261   1.451   0.325   0.646  0.0528 -0.2210 -0.2559
 8600SOL    HW137262   1.471   0.355   0.735 -0.4592 -0.3158 -0.1082
 8600SOL    HW237263   1.366   0.366   0.640 -0.6283 -1.2473  2.2576
 8601SOL     OW37264   0.059   2.583  10.566  0.0370  0.3136  0.2145
 8601SOL    HW137265   0.119   2.642  10.520  0.2648  1.4140  1.9320
 8601SOL    HW237266   0.089   2.600  10.655 -0.6825  2.6409  0.0078
 8602SOL     OW37267   1.837   1.872  12.015 -0.0865 -0.0655  0.1266
 8602SOL    HW137268   1.756   1.858  12.065 -0.0019  2.5691  1.0031
 8602SOL    HW237269   1.801   1.919  11.940 -0.0203 -2.2878 -1.2705
 8603SOL     OW37270   2.565   2.180   0.621  0.1952 -0.3416  0.2193
 8603SOL    HW137271   2.493   2.122   0.648 -1.6760  0.2645 -3.4913
 8603SOL    HW237272   2.624   2.157   0.692  0.4600  0.6799  0.3275
 8604SOL     OW37273   0.215   3.883  13.294 -0.4002  0.1885 -0.2319
 8604SOL    HW137274   0.133   3.865  13.247  1.0035  0.3764 -2.7135
 8604SOL    HW237275   0.224   3.976  13.272 -1.5325  0.0350 -1.3294
 8605SOL     OW37276   3.207   1.443   8.977 -0.5736 -0.4672  0.3257
 8605SOL    HW137277   3.254   1.523   8.955  0.2580 -1.0522 -0.0010
 8605SOL    HW237278   3.120   1.471   8.948 -0.3192  1.5226  1.5647
 8606SOL     OW37279   3.512   2.369  14.524  0.1978  0.1228 -0.8962
 8606SOL    HW137280   3.556   2.305  14.468  0.5837 -0.7580  0.4005
 8606SOL    HW237281   3.571   2.444  14.518 -3.1089  2.6663 -1.5724
 8607SOL     OW37282   4.269   3.190   5.284 -0.6353 -0.2229  0.3855
 8607SOL    HW137283   4.352   3.158   5.319  0.2879  0.5743 -1.0642
 8607SOL    HW237284   4.302   3.248   5.216 -0.1395 -1.8410 -0.7554
 8608SOL     OW37285   1.986   0.943   9.848 -0.1806 -0.3051  0.2768
 8608SOL    HW137286   2.075   0.956   9.881 -0.3536  0.0770  0.5978
 8608SOL    HW237287   1.990   1.025   9.800 -0.6340 -1.0333 -1.0063
 8609SOL     OW37288   3.990   2.822   4.400  0.3432 -0.0849  0.0493
 8609SOL    HW137289   4.025   2.894   4.453 -2.5345  1.1489  0.2586
 8609SOL    HW237290   3.986   2.759   4.471  0.0780  1.5825  1.5097
 8610SOL     OW37291   3.910   1.116   6.004 -0.1783  0.0936  0.0950
 8610SOL    HW137292   3.914   1.208   6.030  0.5375  0.1417 -0.1657
 8610SOL    HW237293   3.829   1.088   6.047 -0.5240  2.7503  1.1742
 8611SOL     OW37294   1.786   3.817   4.772  0.7208 -0.1483 -0.1554
 8611SOL    HW137295   1.815   3.772   4.692  1.7903  0.2103  0.0420
 8611SOL    HW237296   1.819   3.760   4.842  1.4367  0.0820 -0.3095
 8612SOL     OW37297   4.617   4.660   1.488 -0.4987  0.6724 -0.0265
 8612SOL    HW137298   4.552   4.656   1.418 -2.9064  0.2128  2.2592
 8612SOL    HW237299   4.575   4.648   1.572 -0.7687  1.1171 -0.0987
 8613SOL     OW37300   1.494   3.763  11.550  0.4714 -0.0456  0.5758
 8613SOL    HW137301   1.539   3.819  11.487 -1.1209  1.5332  0.8397
 8613SOL    HW237302   1.515   3.672  11.528 -1.0666 -0.7040  1.8153
 8614SOL     OW37303   3.808   0.075   0.512 -0.2875  0.4305 -0.4939
 8614SOL    HW137304   3.841   4.708   0.528 -0.1003  0.8406  1.3336
 8614SOL    HW237305   3.729   0.089   0.564 -0.8293 -2.8495 -0.4159
 8615SOL     OW37306   2.463   3.834   5.774  0.5025  0.0205 -0.0122
 8615SOL    HW137307   2.502   3.764   5.827 -0.6997 -1.6742 -1.3883
 8615SOL    HW237308   2.502   3.904   5.827 -1.0519 -0.3154  1.5958
 8616SOL     OW37309   1.973   3.344   4.751 -0.1597 -0.4102 -0.1851
 8616SOL    HW137310   1.968   3.378   4.841 -0.5498 -0.2553 -0.2672
 8616SOL    HW237311   1.930   3.408   4.696  1.8445  0.6687 -0.5177
 8617SOL     OW37312   3.614   1.369   1.674  0.4280  0.2002 -0.4194
 8617SOL    HW137313   3.560   1.315   1.730  2.9017 -1.9435 -0.1224
 8617SOL    HW237314   3.544   1.406   1.619 -0.1735 -0.8539 -0.3620
 8618SOL     OW37315   1.945   1.685   7.353 -0.0413  0.5556 -0.3941
 8618SOL    HW137316   1.991   1.766   7.374  0.0436  0.4669 -0.2341
 8618SOL    HW237317   1.859   1.725   7.339  0.4591  1.1126 -1.8084
 8619SOL     OW37318   4.052   0.550  11.992  0.1266 -0.7944 -0.0867
 8619SOL    HW137319   4.056   0.456  11.976 -3.2807 -0.7840 -0.9746
 8619SOL    HW237320   3.985   0.586  11.935 -0.6674  1.6642  2.3957
 8620SOL     OW37321   2.261   3.892   7.119 -0.0769  0.7507  0.4153
 8620SOL    HW137322   2.343   3.868   7.163  0.6531 -0.4126 -1.5880
 8620SOL    HW237323   2.259   3.984   7.143  1.3014  1.5835 -2.6279
 8621SOL     OW37324   3.154   1.272   9.161 -0.3693 -0.0637  0.1141
 8621SOL    HW137325   3.233   1.218   9.152 -0.2135  0.1452  0.2490
 8621SOL    HW237326   3.161   1.330   9.085  0.4502 -0.7434 -0.3360
 8622SOL     OW37327   3.208   1.563   5.835 -0.7260  0.3603  0.1750
 8622SOL    HW137328   3.247   1.629   5.892  0.2757 -0.8816  0.9287
 8622SOL    HW237329   3.267   1.489   5.850 -0.6469 -0.2653 -3.0604
 8623SOL     OW37330   3.080   3.334   2.566  0.6142  0.1246 -0.4117
 8623SOL    HW137331   3.090   3.278   2.489  0.4353  3.1092 -2.6169
 8623SOL    HW237332   3.049   3.269   2.629  0.1626  0.6366 -0.1052
 8624SOL     OW37333   3.286   1.833   6.787  0.3402 -0.0878 -0.5029
 8624SOL    HW137334   3.253   1.771   6.853  0.0130 -0.3459 -0.9130
 8624SOL    HW237335   3.330   1.780   6.720 -0.6100  0.6169 -1.6613
 8625SOL     OW37336   2.583   0.621  14.915  0.2334 -0.0641  0.0582
 8625SOL    HW137337   2.664   0.650  14.956 -0.8327 -0.2011  2.2999
 8625SOL    HW237338   2.526   0.594  14.988  1.0197 -3.3831 -0.5392
 8626SOL     OW37339   1.697   4.387  17.559 -0.3962 -0.1024 -0.0555
 8626SOL    HW137340   1.620   4.344  17.521 -0.8542 -0.1604  0.9517
 8626SOL    HW237341   1.650   4.467  17.584  1.7709  0.9919  0.5205
 8627SOL     OW37342   4.385   3.033   3.158  0.2554  0.3211  0.0438
 8627SOL    HW137343   4.427   3.029   3.072  2.2641 -0.6034  1.0713
 8627SOL    HW237344   4.293   3.038   3.132  0.5380  0.1994 -0.9751
 8628SOL     OW37345   1.459   1.166  16.412  0.0971 -0.1009 -0.4421
 8628SOL    HW137346   1.413   1.086  16.389 -0.1344  0.1280 -0.7836
 8628SOL    HW237347   1.453   1.161  16.507  1.7296  0.9465 -0.2677
 8629SOL     OW37348   2.385   1.639   3.593 -0.6521 -0.0246 -0.6914
 8629SOL    HW137349   2.367   1.730   3.572  1.4325  0.8501  1.3541
 8629SOL    HW237350   2.478   1.641   3.569 -0.4723  1.2783  0.1642
 8630SOL     OW37351   2.836   0.430  16.442  0.0649  0.4797 -0.1002
 8630SOL    HW137352   2.758   0.386  16.408  2.2224 -2.6156 -1.0737
 8630SOL    HW237353   2.825   0.419  16.536  1.5661  2.0380  0.2531
 8631SOL     OW37354   0.681   3.104   1.033 -0.5441  0.4275  0.6021
 8631SOL    HW137355   0.765   3.059   1.039  0.1723  1.7551  0.2805
 8631SOL    HW237356   0.627   3.041   1.081  0.0221 -2.3518 -2.3436
 8632SOL     OW37357   1.369   2.118   3.219 -0.4144  0.1475  0.2605
 8632SOL    HW137358   1.315   2.125   3.139 -1.2487  3.3061  1.0851
 8632SOL    HW237359   1.331   2.181   3.280 -2.1869 -0.2837 -0.3851
 8633SOL     OW37360   3.276   1.570  10.002 -0.3094  0.4359 -0.2001
 8633SOL    HW137361   3.317   1.583  10.087 -0.9510 -3.0756  0.6492
 8633SOL    HW237362   3.339   1.507   9.968 -2.1553 -2.4200  1.6515
 8634SOL     OW37363   4.090   2.850   8.828  0.2235 -0.6616 -0.4140
 8634SOL    HW137364   4.066   2.837   8.920 -2.4193  0.0791 -0.9920
 8634SOL    HW237365   4.019   2.908   8.800  2.3209  1.8559 -0.5558
 8635SOL     OW37366   1.211   3.952   0.955  0.2015  0.0590  0.3172
 8635SOL    HW137367   1.122   3.917   0.962  0.1419  0.4342  1.4413
 8635SOL    HW237368   1.198   4.033   1.005  3.1975 -0.0757  1.3107
 8636SOL     OW37369   4.063   3.787   2.286 -0.3301  0.6678 -0.6002
 8636SOL    HW137370   3.975   3.820   2.305  0.0081  0.9407  0.5378
 8636SOL    HW237371   4.118   3.857   2.322  2.9340 -2.1225 -0.1475
 8637SOL     OW37372   3.789   2.499  15.978  0.2179 -0.0986 -0.4368
 8637SOL    HW137373   3.703   2.460  15.965  0.6134 -1.3626  0.7162
 8637SOL    HW237374   3.832   2.419  16.009 -1.4231  0.0639  2.2285
 8638SOL     OW37375   3.056   3.406   4.609  0.0418 -0.9155  0.4575
 8638SOL    HW137376   3.083   3.314   4.603  3.4377  0.0650  0.4745
 8638SOL    HW237377   2.969   3.408   4.569 -1.0668  1.5289  3.0094
 8639SOL     OW37378   4.156   0.713   8.179 -0.4149 -0.5396 -0.2597
 8639SOL    HW137379   4.091   0.656   8.137  0.5707 -2.5024  0.8969
 8639SOL    HW237380   4.209   0.649   8.225  4.0652  1.4630 -2.6249
 8640SOL     OW37381   0.286   0.367   0.741 -0.1201 -0.0559 -0.0960
 8640SOL    HW137382   0.324   0.289   0.702 -0.4580 -0.3536  0.1646
 8640SOL    HW237383   0.348   0.439   0.729 -1.3237  1.3146  1.8509
 8641SOL     OW37384   4.239   4.536  14.360  0.2434 -0.4094 -0.5710
 8641SOL    HW137385   4.240   4.593  14.283  0.6061 -2.0145 -1.7362
 8641SOL    HW237386   4.261   4.451  14.323 -1.0987 -0.8183 -0.4211
 8642SOL     OW37387   1.636   1.491   8.406  0.0393  0.3501 -0.5082
 8642SOL    HW137388   1.699   1.557   8.435  0.3106  0.1966 -0.7446
 8642SOL    HW237389   1.609   1.446   8.487 -0.9025 -1.1601 -1.6591
 8643SOL     OW37390   0.129   4.525   3.904 -0.1445  0.2335 -0.2617
 8643SOL    HW137391   0.175   4.483   3.831 -1.6233 -0.5240 -0.7456
 8643SOL    HW237392   0.062   4.569   3.852 -2.9217 -2.2205  1.2583
 8644SOL     OW37393   3.324   4.649  15.802  0.2436  0.5520 -0.1164
 8644SOL    HW137394   3.384   4.583  15.839  1.2979  1.5843  0.0218
 8644SOL    HW237395   3.247   4.594  15.787  2.0987 -2.1120  0.1516
 8645SOL     OW37396   3.837   1.425   1.969  0.3734 -0.0239 -0.2593
 8645SOL    HW137397   3.759   1.391   1.924  1.9179 -2.4121 -1.1014
 8645SOL    HW237398   3.812   1.516   1.986  2.2857  0.1493  1.6133
 8646SOL     OW37399   0.918   4.136   0.169 -0.0164 -0.3930  0.2316
 8646SOL    HW137400   0.926   4.162   0.261  0.9572 -1.3806  0.4292
 8646SOL    HW237401   0.905   4.042   0.173 -0.9116 -0.2874 -0.2107
 8647SOL     OW37402   1.341   1.109   2.721  0.5861 -0.1187 -0.3143
 8647SOL    HW137403   1.431   1.077   2.722  0.1495 -1.3363  0.8314
 8647SOL    HW237404   1.304   1.042   2.665  1.8199  0.0882 -1.3608
 8648SOL     OW37405   3.826   3.112  17.074 -0.4694 -0.1328 -0.4117
 8648SOL    HW137406   3.790   3.201  17.079 -0.5206 -0.2557  1.2484
 8648SOL    HW237407   3.886   3.120  17.148  0.8166  2.6293 -1.7446
 8649SOL     OW37408   0.950   1.159   8.945  0.0990  0.4275  0.0676
 8649SOL    HW137409   0.911   1.137   8.860 -2.4449 -0.9272  1.6040
 8649SOL    HW237410   0.886   1.132   9.011  1.1724 -0.9406  0.5464
 8650SOL     OW37411   2.502   2.644   9.344 -0.2794  0.0823 -0.4524
 8650SOL    HW137412   2.572   2.593   9.386  0.1736 -1.2002 -2.7843
 8650SOL    HW237413   2.425   2.619   9.396  1.4342 -0.6968  1.7024
 8651SOL     OW37414   2.736   4.178   1.215  0.0945 -0.1701 -0.3394
 8651SOL    HW137415   2.695   4.256   1.179 -0.4821  0.9191  2.7401
 8651SOL    HW237416   2.781   4.205   1.295 -0.0749  0.0306 -0.3151
 8652SOL     OW37417   3.992   0.536   8.083 -0.2682 -0.2610  0.2582
 8652SOL    HW137418   3.900   0.560   8.093 -0.3715 -0.4461 -0.2647
 8652SOL    HW237419   4.006   0.469   8.149 -1.1035 -0.0067  0.6976
 8653SOL     OW37420   1.546   4.154  17.618 -0.5230  0.6667 -0.6073
 8653SOL    HW137421   1.520   4.208   0.007  0.8383  0.2520  0.1724
 8653SOL    HW237422   1.463   4.140  17.573  0.3665 -0.4353 -1.8917
 8654SOL     OW37423   4.382   4.312   3.671  0.3523 -0.2501  0.0073
 8654SOL    HW137424   4.438   4.360   3.609  0.8403 -2.0503 -0.9703
 8654SOL    HW237425   4.443   4.295   3.743 -0.2689 -1.6461  0.2005
 8655SOL     OW37426   0.837   0.935   6.889 -0.4798 -0.2125  0.2475
 8655SOL    HW137427   0.764   0.901   6.941 -1.1599 -0.5828 -0.9337
 8655SOL    HW237428   0.806   0.914   6.801  0.4383 -0.3943 -0.0268
 8656SOL     OW37429   2.785   1.285   3.277 -0.2191 -0.2227 -0.3997
 8656SOL    HW137430   2.772   1.312   3.186  2.0534 -2.5643 -1.4194
 8656SOL    HW237431   2.877   1.312   3.288 -0.7660  1.1861  0.7255
 8657SOL     OW37432   4.078   2.170   5.444  0.3169  0.2384  0.1668
 8657SOL    HW137433   4.093   2.198   5.354 -1.5982 -2.2536 -0.9326
 8657SOL    HW237434   4.055   2.078   5.425  3.0635 -0.1702 -1.2157
 8658SOL     OW37435   3.484   1.547   7.587 -0.0759  0.1090 -0.2990
 8658SOL    HW137436   3.503   1.571   7.497  0.6551  1.4105  0.2043
 8658SOL    HW237437   3.401   1.498   7.587 -0.1304  0.1994 -0.1243
 8659SOL     OW37438   0.769   2.787  10.267 -0.2610 -0.1810 -0.0074
 8659SOL    HW137439   0.787   2.726  10.195 -1.5009  0.5678 -0.9711
 8659SOL    HW237440   0.766   2.728  10.342 -0.2266 -0.9979 -0.6452
 8660SOL     OW37441   1.852   0.261   6.603  0.2405  0.2394 -0.9145
 8660SOL    HW137442   1.924   0.204   6.629  0.6046  0.2398 -1.9258
 8660SOL    HW237443   1.830   0.297   6.690  3.3581 -1.6799  0.6680
 8661SOL     OW37444   1.198   2.052   8.321  0.2984  0.3118  0.0149
 8661SOL    HW137445   1.130   2.022   8.261 -1.1828 -2.2532  2.9983
 8661SOL    HW237446   1.150   2.097   8.391 -1.6554 -1.4522 -0.1770
 8662SOL     OW37447   4.679   2.671   5.137 -0.9218 -0.4766 -0.3063
 8662SOL    HW137448   4.617   2.599   5.144 -0.5838 -0.7025  0.3355
 8662SOL    HW237449   0.038   2.631   5.171 -1.4427 -0.9903  0.3106
 8663SOL     OW37450   4.049   2.651   0.918 -0.1351 -0.2975 -0.3905
 8663SOL    HW137451   4.072   2.558   0.920  2.4888  0.3714  0.4302
 8663SOL    HW237452   4.134   2.691   0.936 -0.4173 -1.0619  2.7397
 8664SOL     OW37453   4.446   0.880  12.020 -0.2844 -0.0164  0.3722
 8664SOL    HW137454   4.487   0.948  11.967 -1.3339  0.7672  0.5743
 8664SOL    HW237455   4.442   0.816  11.948 -1.7368 -0.7381  1.0949
 8665SOL     OW37456   4.550   4.167   7.664 -0.5327  0.2189  0.1011
 8665SOL    HW137457   4.642   4.140   7.659 -0.9635 -1.0747 -0.6495
 8665SOL    HW237458   4.515   4.135   7.747  3.4791  1.0128  2.1335
 8666SOL     OW37459   3.208   1.083  17.478  0.0314 -0.6584 -0.2653
 8666SOL    HW137460   3.158   1.027  17.419  1.8121 -0.5975 -1.7878
 8666SOL    HW237461   3.294   1.043  17.492 -0.0033 -1.3574 -2.0893
 8667SOL     OW37462   3.902   4.164   0.882  0.2973  0.2548  0.8644
 8667SOL    HW137463   3.905   4.117   0.799 -2.0781  2.6239 -0.5392
 8667SOL    HW237464   3.953   4.241   0.857 -0.5496  0.8483  0.9674
 8668SOL     OW37465   2.372   2.604   8.351 -0.4293  0.4307  0.3091
 8668SOL    HW137466   2.413   2.668   8.294 -0.4768 -0.5187 -0.7911
 8668SOL    HW237467   2.405   2.626   8.438  0.5648 -1.2240  0.3460
 8669SOL     OW37468   3.357   1.369   4.735  0.0481  0.2317 -0.3897
 8669SOL    HW137469   3.415   1.337   4.805  0.1656 -0.7199 -0.9133
 8669SOL    HW237470   3.417   1.417   4.678  2.3928 -1.5368  0.5558
 8670SOL     OW37471   0.559   2.725   2.543 -0.5113  0.4623 -0.1731
 8670SOL    HW137472   0.529   2.735   2.452 -0.1047 -0.5636 -0.4234
 8670SOL    HW237473   0.522   2.640   2.566  0.9412 -0.4036 -0.9702
 8671SOL     OW37474   3.893   2.479  10.810  0.3496 -0.6923  0.1394
 8671SOL    HW137475   3.898   2.427  10.890  1.3692  2.0582  1.8707
 8671SOL    HW237476   3.892   2.568  10.844  0.4621 -1.7260  2.8678
 8672SOL     OW37477   3.382   0.856   2.774 -0.0163 -0.4129 -0.1992
 8672SOL    HW137478   3.440   0.780   2.776 -1.6207 -1.6401 -0.7922
 8672SOL    HW237479   3.329   0.844   2.853  0.3671  1.5695  0.3564
 8673SOL     OW37480   0.473   4.070  11.372  0.1502 -0.8095  0.3862
 8673SOL    HW137481   0.434   3.997  11.421 -0.3110 -2.3994 -2.3146
 8673SOL    HW237482   0.561   4.073  11.410  0.4557  0.0152 -0.3758
 8674SOL     OW37483   0.806   3.988   5.317 -0.2983 -0.1327 -0.3043
 8674SOL    HW137484   0.899   3.992   5.341 -0.3029  4.5035 -1.0531
 8674SOL    HW237485   0.780   3.901   5.347  1.3623 -0.8758 -1.0365
 8675SOL     OW37486   1.695   0.394   5.254 -0.2403 -0.0989 -0.0547
 8675SOL    HW137487   1.672   0.382   5.346 -1.0946  0.5556 -0.1854
 8675SOL    HW237488   1.699   0.490   5.256  3.0230 -0.2970  2.5279
 8676SOL     OW37489   3.646   3.387   7.227 -0.3206 -0.3855 -0.0927
 8676SOL    HW137490   3.673   3.362   7.315 -1.3334  0.1272  0.3573
 8676SOL    HW237491   3.727   3.363   7.181  1.4372  0.5523  2.5107
 8677SOL     OW37492   3.927   1.461  12.369  0.0083  0.1206 -0.0581
 8677SOL    HW137493   3.853   1.508  12.331 -0.8200 -1.3740 -0.2959
 8677SOL    HW237494   3.941   1.397  12.299  0.0393  1.7564 -1.5473
 8678SOL     OW37495   2.015   0.907   4.752 -0.5217 -0.3007  0.2361
 8678SOL    HW137496   1.923   0.932   4.765 -0.2871  1.1642 -0.8085
 8678SOL    HW237497   2.047   0.997   4.746  1.5296 -1.0275  0.4037
 8679SOL     OW37498   3.948   0.754   4.916  0.2719 -0.1666 -0.6805
 8679SOL    HW137499   4.041   0.766   4.899  0.3470 -0.6424 -0.6045
 8679SOL    HW237500   3.940   0.783   5.007 -1.8944 -1.3337 -0.5175
 8680SOL     OW37501   1.681   4.630  16.074  0.3733 -0.3684 -0.5141
 8680SOL    HW137502   1.724   4.557  16.030 -0.0765 -0.9493  0.0043
 8680SOL    HW237503   1.654   4.584  16.153 -2.1352 -0.4498 -1.4163
 8681SOL     OW37504   1.233   0.711   2.165 -0.5270  0.7961 -0.4117
 8681SOL    HW137505   1.140   0.702   2.146 -1.0500  2.0526  1.6263
 8681SOL    HW237506   1.250   0.646   2.233  0.2596  1.4430  0.0154
 8682SOL     OW37507   1.293   1.350  15.905 -0.5317  0.5220  0.5730
 8682SOL    HW137508   1.206   1.389  15.889 -1.0864 -0.5468  1.0291
 8682SOL    HW237509   1.285   1.266  15.861  1.6341  0.4459  0.3561
 8683SOL     OW37510   2.310   2.282  12.989  0.5431 -0.0341  0.3402
 8683SOL    HW137511   2.229   2.255  13.032 -0.0601  1.2213 -0.0050
 8683SOL    HW237512   2.315   2.211  12.926  2.0422 -0.0712  0.4932
 8684SOL     OW37513   1.045   3.486  11.339  0.4987  0.6565  0.0733
 8684SOL    HW137514   1.041   3.486  11.244  2.4051  1.0444 -0.0048
 8684SOL    HW237515   0.952   3.473  11.356  0.2608 -0.0971 -1.7833
 8685SOL     OW37516   1.875   1.661   7.826  0.2129  0.0719  0.4306
 8685SOL    HW137517   1.920   1.665   7.911  0.2390  0.3160  0.4051
 8685SOL    HW237518   1.899   1.751   7.804 -0.6219  0.2217  0.1645
 8686SOL     OW37519   3.267   1.517   0.371 -0.5367  0.3241 -0.7417
 8686SOL    HW137520   3.239   1.603   0.401 -2.6146 -1.0474  1.2179
 8686SOL    HW237521   3.297   1.522   0.280 -0.1461 -0.1656 -0.6411
 8687SOL     OW37522   4.280   0.727   7.453  0.7062 -0.3433 -0.1061
 8687SOL    HW137523   4.371   0.756   7.452  0.4870  0.3547 -0.3175
 8687SOL    HW237524   4.255   0.714   7.361  0.2535 -0.2610  0.0044
 8688SOL     OW37525   2.493   1.389   2.784 -0.6083 -0.5657  0.4032
 8688SOL    HW137526   2.551   1.321   2.818 -1.3598 -1.0378  0.7278
 8688SOL    HW237527   2.509   1.456   2.850  0.5693 -1.2533  0.8214
 8689SOL     OW37528   0.042   1.164  12.113  0.3004  0.3954 -0.0522
 8689SOL    HW137529   4.670   1.152  12.133  0.7341 -1.2307  0.9827
 8689SOL    HW237530   0.054   1.145  12.020  0.2428  1.0932 -0.1984
 8690SOL     OW37531   2.720   0.571   5.736  0.4628  0.5323  0.1404
 8690SOL    HW137532   2.708   0.526   5.653 -3.0177 -0.6569  1.2725
 8690SOL    HW237533   2.786   0.516   5.778  0.7088 -0.2273 -1.2554
 8691SOL     OW37534   0.598   2.076   8.494  0.8041 -0.3614 -0.0720
 8691SOL    HW137535   0.628   2.064   8.403  2.2385  2.4896  0.0370
 8691SOL    HW237536   0.511   2.035   8.495  1.2292 -1.2329  1.0907
 8692SOL     OW37537   0.631   1.452  14.134  0.8866 -0.0900  0.0528
 8692SOL    HW137538   0.599   1.491  14.215  0.8216 -0.1902  0.0750
 8692SOL    HW237539   0.575   1.378  14.111  0.3845  0.0647  0.7977
 8693SOL     OW37540   4.375   2.273   7.764 -0.0997 -0.5816  0.3440
 8693SOL    HW137541   4.289   2.302   7.733  0.4952  1.3382  0.4861
 8693SOL    HW237542   4.389   2.318   7.847  2.8311 -0.6318 -0.1098
 8694SOL     OW37543   0.725   2.731   1.130 -0.2495 -0.4891 -0.0146
 8694SOL    HW137544   0.742   2.649   1.178  3.3995 -0.5567 -1.4404
 8694SOL    HW237545   0.630   2.740   1.138  0.0357  0.9777  1.7023
 8695SOL     OW37546   0.881   0.491   8.518  0.7555  0.3168 -0.4653
 8695SOL    HW137547   0.835   0.538   8.448  1.0606  1.4427  0.0943
 8695SOL    HW237548   0.941   0.428   8.479  1.1459 -0.3036  1.1300
 8696SOL     OW37549   3.528   1.787   4.963  0.4596 -0.9459 -0.2334
 8696SOL    HW137550   3.433   1.775   4.957  0.6545 -2.9406  0.7477
 8696SOL    HW237551   3.529   1.857   5.028  1.3758 -0.1062 -1.1570
 8697SOL     OW37552   2.529   0.026   4.999 -0.3728  0.3038 -0.6033
 8697SOL    HW137553   2.550   4.656   5.021 -0.6270  0.6522  1.1184
 8697SOL    HW237554   2.617   0.061   5.016  0.0856  0.4979 -3.4685
 8698SOL     OW37555   2.763   2.962   3.688  0.4877 -0.1463  0.0064
 8698SOL    HW137556   2.833   2.962   3.623 -0.9369 -2.6673 -1.5249
 8698SOL    HW237557   2.730   2.876   3.662 -1.0417 -0.1599  2.0033
 8699SOL     OW37558   3.768   3.261   5.917 -0.0890 -0.1431  0.2179
 8699SOL    HW137559   3.691   3.313   5.938  0.0624  0.8852 -1.7384
 8699SOL    HW237560   3.725   3.180   5.888 -1.3930  0.3454  0.8225
 8700SOL     OW37561   1.208   1.422   5.011 -0.0959  0.1021  0.0696
 8700SOL    HW137562   1.174   1.471   4.936 -0.8593  0.0305  0.3673
 8700SOL    HW237563   1.299   1.450   5.010 -0.3717  0.9311 -1.5669
 8701SOL     OW37564   0.339   2.796   9.357 -0.1868  0.2766  0.1793
 8701SOL    HW137565   0.406   2.731   9.334  1.7280  1.7750  1.5605
 8701SOL    HW237566   0.388   2.877   9.345 -1.0361  0.5798 -1.2631
 8702SOL     OW37567   4.525   1.818   1.112 -0.0014  0.3977  0.0034
 8702SOL    HW137568   4.508   1.905   1.075 -1.4621  0.7171  1.3869
 8702SOL    HW237569   4.450   1.826   1.172 -1.1507 -1.3598 -1.1954
 8703SOL     OW37570   3.586   0.398   8.805 -0.4095 -0.1595  0.1356
 8703SOL    HW137571   3.660   0.397   8.744  0.9082  2.6834  1.6679
 8703SOL    HW237572   3.517   0.421   8.743 -0.2749 -0.6457 -0.1984
 8704SOL     OW37573   3.226   2.757   7.717 -0.2575  0.4961  0.1140
 8704SOL    HW137574   3.202   2.713   7.635  0.9252  1.0860 -0.5551
 8704SOL    HW237575   3.265   2.834   7.676 -1.4975  1.1984  0.2739
 8705SOL     OW37576   3.134   2.856   3.233 -0.1984 -0.3744  0.1601
 8705SOL    HW137577   3.210   2.910   3.257  0.1584 -0.8671  0.1288
 8705SOL    HW237578   3.177   2.772   3.214  0.4288 -0.6812  2.9481
 8706SOL     OW37579   4.465   0.331   3.418 -0.9315  0.1533 -0.2262
 8706SOL    HW137580   4.375   0.307   3.439 -1.2554  0.0386 -1.7489
 8706SOL    HW237581   4.480   0.281   3.338 -1.4677 -1.3812  0.6213
 8707SOL     OW37582   3.684   1.355   5.198  0.2938 -0.0465  0.5748
 8707SOL    HW137583   3.665   1.356   5.292  2.9277 -1.1451  1.1138
 8707SOL    HW237584   3.633   1.433   5.174 -0.1917 -0.6105 -0.2097
 8708SOL     OW37585   2.455   2.083   5.170 -0.0045 -0.2406 -0.1355
 8708SOL    HW137586   2.374   2.089   5.120  0.7159  1.1276 -1.1209
 8708SOL    HW237587   2.512   2.052   5.100 -0.5420 -1.4291 -0.0444
 8709SOL     OW37588   2.300   1.291   2.562  0.0767 -0.2567 -0.2977
 8709SOL    HW137589   2.364   1.322   2.626  2.0091 -2.3785 -1.1983
 8709SOL    HW237590   2.229   1.356   2.563 -1.3669 -1.8396  0.5179
 8710SOL     OW37591   0.787   2.409   7.010  0.3824 -0.0979  0.2227
 8710SOL    HW137592   0.865   2.457   6.982  0.6268 -0.7260 -0.1801
 8710SOL    HW237593   0.810   2.381   7.099 -3.0110 -0.0345  1.1105
 8711SOL     OW37594   0.198   2.460   6.369 -0.2362  0.3142 -0.2445
 8711SOL    HW137595   0.150   2.444   6.288  0.1795  0.1145 -0.4476
 8711SOL    HW237596   0.172   2.550   6.388 -4.1696 -0.7363 -0.6545
 8712SOL     OW37597   2.097   2.308   0.660 -0.4533 -0.4746 -0.2159
 8712SOL    HW137598   2.190   2.293   0.678 -0.9889 -0.5765  2.5363
 8712SOL    HW237599   2.067   2.347   0.742 -1.8757 -2.6363  0.2665
 8713SOL     OW37600   3.387   3.640   8.812  0.4805  0.2980 -0.8071
 8713SOL    HW137601   3.473   3.658   8.849  0.6965 -0.8901 -0.7179
 8713SOL    HW237602   3.404   3.550   8.785 -1.5047  0.1249 -1.4168
 8714SOL     OW37603   1.576   2.608   6.617  0.2186 -0.3076 -0.4407
 8714SOL    HW137604   1.597   2.564   6.534  1.7425 -0.0482 -0.1812
 8714SOL    HW237605   1.630   2.559   6.679 -0.6487 -0.1522  0.4409
 8715SOL     OW37606   1.578   3.687   3.981  0.3935  0.0736  0.0630
 8715SOL    HW137607   1.630   3.737   4.045  1.7443  1.1792 -1.8929
 8715SOL    HW237608   1.653   3.658   3.930  0.8027 -0.7062  1.1020
 8716SOL     OW37609   3.230   2.902  15.092 -0.0567  0.6368  0.8785
 8716SOL    HW137610   3.220   2.816  15.133 -1.8702 -0.2957 -1.4947
 8716SOL    HW237611   3.250   2.956  15.168  1.3771  1.1626  0.1244
 8717SOL     OW37612   0.545   3.208   2.368  0.1803 -0.2550 -0.3589
 8717SOL    HW137613   0.556   3.156   2.289 -0.9160 -0.3995 -0.4143
 8717SOL    HW237614   0.634   3.209   2.403  0.3031 -0.1730 -0.6712
 8718SOL     OW37615   1.700   3.747  12.068 -0.3020  0.0517 -0.4203
 8718SOL    HW137616   1.690   3.799  11.988  0.5454 -0.0762 -0.6112
 8718SOL    HW237617   1.708   3.818  12.132  1.1247  0.8220 -1.4580
 8719SOL     OW37618   0.402   1.085   0.583  0.1345  0.2582  0.3210
 8719SOL    HW137619   0.393   1.170   0.541  0.2838 -0.3323 -0.8988
 8719SOL    HW237620   0.456   1.042   0.517  0.8131 -0.2710  1.2181
 8720SOL     OW37621   0.968   1.246   4.490 -0.2177 -0.3301  0.6766
 8720SOL    HW137622   1.060   1.223   4.476 -0.3991 -0.6411 -0.0240
 8720SOL    HW237623   0.945   1.317   4.430  0.3143 -2.3017 -1.8566
 8721SOL     OW37624   2.505   0.164  16.068  0.0927  0.2338  0.4270
 8721SOL    HW137625   2.589   0.127  16.095  0.8753  2.0290  0.4545
 8721SOL    HW237626   2.492   0.105  15.994  0.4729  0.4909  0.1610
 8722SOL     OW37627   3.332   2.234   2.780 -0.3044 -0.0913 -0.0280
 8722SOL    HW137628   3.421   2.269   2.789  0.9794 -2.8984 -1.8363
 8722SOL    HW237629   3.308   2.267   2.694 -1.0926  0.7093  0.4922
 8723SOL     OW37630   4.027   0.984   9.337  0.4514 -0.0801  0.1963
 8723SOL    HW137631   4.033   0.889   9.347  0.2038  0.1210  2.2143
 8723SOL    HW237632   4.069   1.009   9.418 -0.4067 -0.3858  0.7392
 8724SOL     OW37633   3.728   4.179   5.719  0.3512  0.0953 -0.0144
 8724SOL    HW137634   3.742   4.164   5.625  1.4175 -1.1686  0.3448
 8724SOL    HW237635   3.645   4.132   5.725  0.6461 -0.6030 -1.3065
 8725SOL     OW37636   4.633   3.487   2.774  0.3966  0.6602  0.2198
 8725SOL    HW137637   4.571   3.559   2.788 -0.0754  0.5240 -1.2420
 8725SOL    HW237638   4.628   3.487   2.679  3.9867  0.0322  0.0463
 8726SOL     OW37639   4.208   0.839   7.684 -0.8543 -0.3752 -0.6224
 8726SOL    HW137640   4.183   0.754   7.721  0.3176 -0.6618 -0.4952
 8726SOL    HW237641   4.230   0.811   7.595  1.0508  1.6124 -0.7730
 8727SOL     OW37642   0.311   4.654   2.307 -0.6345 -0.3921 -0.5315
 8727SOL    HW137643   0.379   4.661   2.375 -0.4162  0.5773 -0.8585
 8727SOL    HW237644   0.359   4.687   2.231 -0.0245 -2.2042 -0.9464
 8728SOL     OW37645   3.922   2.305   2.601 -0.2017 -0.5408  0.2416
 8728SOL    HW137646   3.963   2.391   2.600 -1.3055 -0.0262 -1.0469
 8728SOL    HW237647   3.934   2.276   2.511 -2.2797 -0.5085 -0.0519
 8729SOL     OW37648   0.674   0.257   7.856  0.0428 -0.5862  0.1181
 8729SOL    HW137649   0.700   0.246   7.948 -2.6144  2.7685  1.2834
 8729SOL    HW237650   0.691   0.170   7.819 -1.3104 -1.0979  0.6934
 8730SOL     OW37651   1.194   4.518   6.897 -0.2266 -0.0711 -0.5349
 8730SOL    HW137652   1.262   4.521   6.964  1.5999 -0.8080 -2.3399
 8730SOL    HW237653   1.226   4.446   6.843  0.9005  0.4964 -0.6139
 8731SOL     OW37654   2.685   3.511   9.226  0.7468  0.2254 -0.0820
 8731SOL    HW137655   2.623   3.459   9.175  0.1836  0.0773  0.7550
 8731SOL    HW237656   2.747   3.440   9.245 -0.8518 -0.6094  2.0366
 8732SOL     OW37657   3.088   1.770   6.257  0.2633 -0.3340 -0.2938
 8732SOL    HW137658   3.054   1.834   6.319 -0.7526  0.6466 -1.8646
 8732SOL    HW237659   3.052   1.687   6.290  1.9697 -1.4425 -1.1707
 8733SOL     OW37660   3.732   4.171  17.417  0.1470  0.1407 -0.0693
 8733SOL    HW137661   3.692   4.238  17.363 -0.1144 -1.1112 -1.4325
 8733SOL    HW237662   3.660   4.107  17.420 -0.1639  0.5256  0.5964
 8734SOL     OW37663   3.550   4.154  17.037  0.2392 -0.1790 -0.2937
 8734SOL    HW137664   3.549   4.065  17.071  0.9635 -0.7606 -1.7981
 8734SOL    HW237665   3.572   4.205  17.115 -1.0511  1.6401 -1.1136
 8735SOL     OW37666   4.018   2.329   6.709 -0.7522 -0.3392  0.2712
 8735SOL    HW137667   4.064   2.320   6.626 -0.8000 -2.4013  0.4514
 8735SOL    HW237668   4.094   2.351   6.763  0.6421 -2.2648 -0.8969
 8736SOL     OW37669   0.479   3.497   4.924  0.3877  0.3812  0.1733
 8736SOL    HW137670   0.430   3.563   4.874 -1.6088 -0.2500  1.3039
 8736SOL    HW237671   0.433   3.415   4.905  2.1464 -0.9018  1.4113
 8737SOL     OW37672   3.113   0.913   1.856 -0.3611 -0.4595 -0.4233
 8737SOL    HW137673   3.067   0.897   1.774 -0.2903  3.4989 -1.2421
 8737SOL    HW237674   3.048   0.966   1.902  1.5589  1.2962  0.2759
 8738SOL     OW37675   2.593   2.236  12.984  0.2819 -0.6339  0.3197
 8738SOL    HW137676   2.499   2.234  12.965  0.2536 -0.4119  0.4515
 8738SOL    HW237677   2.605   2.329  13.000  1.0875 -0.7428  0.3678
 8739SOL     OW37678   3.066   3.338  10.027  0.3103 -0.4057  0.1854
 8739SOL    HW137679   2.996   3.303   9.971  1.1460  0.0293 -1.1195
 8739SOL    HW237680   3.010   3.370  10.098 -1.2085  0.1888 -1.2573
 8740SOL     OW37681   4.642   4.653  14.283  0.3211  0.0378  0.0744
 8740SOL    HW137682   4.682   4.668  14.197 -1.9579  2.5442 -0.5390
 8740SOL    HW237683   4.672   0.013  14.324  0.5111  1.1898 -2.3326
 8741SOL     OW37684   3.062   4.073   7.867  0.7225  0.8372  0.2449
 8741SOL    HW137685   3.078   4.106   7.779  0.6655 -0.5136 -0.2708
 8741SOL    HW237686   3.146   4.028   7.878 -0.6019 -1.5646  0.5461
 8742SOL     OW37687   0.415   0.040   3.765  0.4639  0.0255 -0.1460
 8742SOL    HW137688   0.469   0.011   3.838 -1.8462  0.5777  1.7749
 8742SOL    HW237689   0.482   0.091   3.720  1.0077  0.4411  1.1470
 8743SOL     OW37690   1.537   3.931   2.883 -0.2150  0.4293 -0.6211
 8743SOL    HW137691   1.589   3.999   2.841  0.0402 -0.8033 -2.2873
 8743SOL    HW237692   1.602   3.864   2.908 -2.3850 -1.9619 -1.3649
 8744SOL     OW37693   0.755   2.554   4.512  0.0958 -0.1057  0.3846
 8744SOL    HW137694   0.742   2.605   4.593  1.8041 -0.5195  0.9153
 8744SOL    HW237695   0.694   2.606   4.460 -0.7709  0.9191  2.4216
 8745SOL     OW37696   4.626   1.332   7.054 -0.7562  0.1615 -0.0215
 8745SOL    HW137697   4.534   1.308   7.063 -0.9869  0.4967 -1.4967
 8745SOL    HW237698   4.620   1.359   6.962 -1.1690  2.4279  0.6622
 8746SOL     OW37699   0.770   3.195   5.438 -0.0083 -0.1712  0.2184
 8746SOL    HW137700   0.680   3.169   5.418  0.4080 -2.3252  1.0853
 8746SOL    HW237701   0.810   3.200   5.351  2.3830  0.9765  1.3892
 8747SOL     OW37702   3.171   2.824   5.521  0.0845 -0.2123  0.4705
 8747SOL    HW137703   3.264   2.834   5.499 -0.1353  2.4003  0.7687
 8747SOL    HW237704   3.137   2.770   5.450 -1.2607  2.3603 -0.8212
 8748SOL     OW37705   3.960   1.390   5.981 -0.0027 -0.2099 -0.6907
 8748SOL    HW137706   4.008   1.457   5.932 -1.5113  0.4314 -1.2650
 8748SOL    HW237707   3.913   1.438   6.049  0.9007 -1.1018  0.5646
 8749SOL     OW37708   1.385   4.688  11.365  0.0629 -0.5877  0.5100
 8749SOL    HW137709   1.431   4.698  11.449  1.1320  2.0198 -0.3981
 8749SOL    HW237710   1.326   4.613  11.381  1.8702 -2.0539  0.3022
 8750SOL     OW37711   2.609   1.220   7.258  0.1212 -0.5940  0.0375
 8750SOL    HW137712   2.518   1.220   7.230 -0.2063 -3.5889  1.1018
 8750SOL    HW237713   2.605   1.162   7.334 -0.9456 -0.6169 -0.0408
 8751SOL     OW37714   4.444   3.595  10.856  0.1246 -0.2565 -0.3019
 8751SOL    HW137715   4.470   3.503  10.855  0.9658 -0.0519  1.6704
 8751SOL    HW237716   4.350   3.586  10.847 -0.1634 -0.3098  2.6084
 8752SOL     OW37717   4.082   2.116   4.675  0.4137  0.4574  0.0088
 8752SOL    HW137718   3.986   2.121   4.680  0.3736 -2.2282  1.7439
 8752SOL    HW237719   4.089   2.155   4.588 -2.0188 -2.0244 -1.3253
 8753SOL     OW37720   4.619   0.026   2.164 -0.2916 -0.0843 -0.0157
 8753SOL    HW137721   4.536   4.704   2.184  0.4744 -0.4615  2.2702
 8753SOL    HW237722   4.674   4.705   2.230  0.1041  3.9964  2.2016
 8754SOL     OW37723   1.204   0.440   0.573  0.3016 -0.0684  0.3617
 8754SOL    HW137724   1.179   0.529   0.597 -0.3906 -0.5462  1.3982
 8754SOL    HW237725   1.123   0.412   0.531 -0.6234  1.3528  1.2074
 8755SOL     OW37726   0.240   2.643   5.510  0.1598  0.4533  0.1274
 8755SOL    HW137727   0.155   2.679   5.482  0.4353  0.7124 -0.3749
 8755SOL    HW237728   0.280   2.716   5.557  0.6777 -0.4721  1.1121
 8756SOL     OW37729   3.867   4.230   8.544  0.0221 -0.0511  0.1960
 8756SOL    HW137730   3.831   4.226   8.632 -2.2240  0.6946 -0.6810
 8756SOL    HW237731   3.876   4.322   8.522  4.1405 -0.3061  0.9954
 8757SOL     OW37732   4.018   0.722  10.625 -0.2461  0.2091 -0.4030
 8757SOL    HW137733   4.050   0.638  10.593  1.4298  0.4802  0.5586
 8757SOL    HW237734   4.075   0.788  10.586 -3.4080  1.1975 -3.3435
 8758SOL     OW37735   3.850   2.862  13.701 -0.3748 -0.0741 -0.7873
 8758SOL    HW137736   3.789   2.875  13.629 -0.5617  0.7241 -0.4938
 8758SOL    HW237737   3.921   2.818  13.655 -0.6397 -1.5150  0.1612
 8759SOL     OW37738   0.384   1.808  13.384 -0.5126 -0.0881  0.3037
 8759SOL    HW137739   0.338   1.891  13.368 -0.7988 -0.5380 -1.1768
 8759SOL    HW237740   0.332   1.786  13.461 -1.5382  0.2965 -0.2788
 8760SOL     OW37741   3.072   1.461   7.944 -0.2413  0.3988 -0.2307
 8760SOL    HW137742   3.079   1.516   7.866  0.8698  0.1645 -0.3014
 8760SOL    HW237743   2.977   1.452   7.945 -0.4334  2.9136  1.4416
 8761SOL     OW37744   0.057   0.100   0.582  0.1906 -0.4902  0.0028
 8761SOL    HW137745   0.105   0.030   0.626 -0.8726 -0.7142  0.8015
 8761SOL    HW237746   0.088   0.095   0.491  0.7771 -0.3207  0.1944
 8762SOL     OW37747   3.278   3.911   6.350 -0.4168 -0.0732 -0.3851
 8762SOL    HW137748   3.309   3.973   6.416  1.6030 -0.6422 -0.7838
 8762SOL    HW237749   3.254   3.980   6.288  3.9782  1.3073 -0.5458
 8763SOL     OW37750   0.409   2.435   1.216  0.5650 -0.5162 -0.3021
 8763SOL    HW137751   0.447   2.403   1.299 -0.2664 -0.4485  0.1001
 8763SOL    HW237752   0.469   2.393   1.154  1.1230 -2.5951  1.5981
 8764SOL     OW37753   2.853   4.123   4.210 -0.5314 -0.0838  0.5956
 8764SOL    HW137754   2.849   4.078   4.294  2.0568  1.5247  1.5760
 8764SOL    HW237755   2.762   4.103   4.188 -0.0846  1.1311 -2.3216
 8765SOL     OW37756   0.163   3.019   1.684 -0.3053 -0.5124 -0.5319
 8765SOL    HW137757   0.166   2.954   1.754 -1.0370  0.6030  0.5430
 8765SOL    HW237758   0.126   2.964   1.615  1.0560 -1.8464 -0.1852
 8766SOL     OW37759   2.459   2.307   7.754  0.2472 -0.4110  0.0413
 8766SOL    HW137760   2.506   2.364   7.816  1.4992  0.0182 -1.3013
 8766SOL    HW237761   2.462   2.225   7.803 -0.3360 -1.4966 -1.7543
 8767SOL     OW37762   1.128   0.177   0.785 -0.4068  0.1154 -0.0302
 8767SOL    HW137763   1.142   0.209   0.696  0.8515 -0.3020  0.0080
 8767SOL    HW237764   1.092   0.251   0.833 -1.5271 -0.6727  0.3518
 8768SOL     OW37765   2.703   0.617   2.740 -0.1052  0.2677  0.1785
 8768SOL    HW137766   2.727   0.567   2.662 -0.1179  1.3540 -0.5268
 8768SOL    HW237767   2.633   0.564   2.778  1.0736 -2.3986 -1.4152
 8769SOL     OW37768   0.516   1.130   8.197 -0.2487  0.4032  0.0431
 8769SOL    HW137769   0.587   1.067   8.182 -0.7115  0.4175 -2.1804
 8769SOL    HW237770   0.466   1.082   8.263  1.3059  0.6374  1.3985
 8770SOL     OW37771   4.519   3.190   9.858  0.2187  0.1583 -0.3796
 8770SOL    HW137772   4.566   3.259   9.810  1.4562 -0.5552 -0.1837
 8770SOL    HW237773   4.433   3.231   9.869  0.5678  0.5433  0.8636
 8771SOL     OW37774   1.837   4.467   1.674  0.0646 -0.0843  0.3171
 8771SOL    HW137775   1.916   4.421   1.644  0.3586 -1.0099  2.5112
 8771SOL    HW237776   1.847   4.545   1.620 -0.4712 -0.5151 -0.3938
 8772SOL     OW37777   1.075   4.491   4.638  0.0069  0.0539 -0.4125
 8772SOL    HW137778   1.020   4.555   4.682 -1.6066 -1.1758 -0.6300
 8772SOL    HW237779   1.123   4.539   4.570  2.8463 -1.2942  0.6522
 8773SOL     OW37780   1.216   1.196   7.720  0.5638 -0.3807  0.1332
 8773SOL    HW137781   1.231   1.217   7.812  2.0762  1.6416 -0.5717
 8773SOL    HW237782   1.247   1.274   7.674 -2.7313  0.5364 -0.5746
 8774SOL     OW37783   3.265   4.658   7.402  0.1107  0.0868  0.4033
 8774SOL    HW137784   3.228   4.612   7.477  2.2112 -5.1727 -1.7555
 8774SOL    HW237785   3.238   4.613   7.322  2.0622  1.4764 -1.0465
 8775SOL     OW37786   1.864   0.365   0.702  0.4162 -0.5999 -0.1083
 8775SOL    HW137787   1.784   0.387   0.750  0.2345 -1.1781 -0.1469
 8775SOL    HW237788   1.825   0.340   0.619  1.2582  1.8676 -1.2471
 8776SOL     OW37789   3.021   2.591  14.506  0.3806 -0.5642 -0.3115
 8776SOL    HW137790   2.981   2.629  14.428 -0.8670 -2.2531 -0.4886
 8776SOL    HW237791   2.964   2.516  14.524 -1.1939  0.8008  0.3631
 8777SOL     OW37792   1.090   2.260   5.393 -0.1764  0.4752  0.9140
 8777SOL    HW137793   1.129   2.218   5.470 -0.0734  3.1593  2.3361
 8777SOL    HW237794   0.996   2.261   5.414 -0.4414  0.2857 -0.2938
 8778SOL     OW37795   0.497   3.506   9.655  0.3819  0.0242  0.7072
 8778SOL    HW137796   0.494   3.497   9.559 -0.5148  1.5180  0.5951
 8778SOL    HW237797   0.467   3.420   9.687 -1.5365  0.3773 -0.1044
 8779SOL     OW37798   2.554   0.228   8.631  0.2874  0.3374 -0.0613
 8779SOL    HW137799   2.534   0.308   8.681  0.6514  1.8145 -2.2977
 8779SOL    HW237800   2.560   0.163   8.701  0.2816  0.3672 -0.0331
 8780SOL     OW37801   2.852   4.327   5.131  0.5236 -0.3145  0.3396
 8780SOL    HW137802   2.848   4.239   5.094  1.5499 -0.5991  0.9083
 8780SOL    HW237803   2.855   4.305   5.224  0.7998 -1.5018  0.0464
 8781SOL     OW37804   2.977   1.792  17.332  0.0282 -0.2548 -0.2907
 8781SOL    HW137805   3.003   1.862  17.272  2.0858 -1.9901 -1.4285
 8781SOL    HW237806   2.892   1.769  17.294 -0.3266  0.0917  0.3007
 8782SOL     OW37807   3.175   4.269   0.470  0.5186  0.2032  0.2313
 8782SOL    HW137808   3.116   4.290   0.398  0.7500 -1.0927 -0.3373
 8782SOL    HW237809   3.115   4.259   0.544 -0.6417  0.4682 -0.6758
 8783SOL     OW37810   1.748   2.653  15.679 -0.3294 -0.0069 -0.1177
 8783SOL    HW137811   1.841   2.632  15.670 -0.7480 -1.0991 -1.7348
 8783SOL    HW237812   1.723   2.615  15.595  1.0922 -1.7252  0.2353
 8784SOL     OW37813   4.109   0.179   8.096  0.5658 -0.0390  0.4522
 8784SOL    HW137814   4.058   0.126   8.158  0.5201 -0.9772 -0.3959
 8784SOL    HW237815   4.047   0.251   8.086  0.2400 -0.7186 -2.4397
 8785SOL     OW37816   4.403   3.547   8.855 -0.4486  0.0476  0.0558
 8785SOL    HW137817   4.437   3.635   8.862 -0.6135  0.1511 -0.4788
 8785SOL    HW237818   4.369   3.554   8.766 -1.4342  0.3653  0.4568
 8786SOL     OW37819   4.188   4.038   2.094  0.3958 -0.2477  0.4115
 8786SOL    HW137820   4.248   3.974   2.058 -0.6509  0.8486 -3.3230
 8786SOL    HW237821   4.118   3.995   2.045  0.7154  1.7449 -1.8041
 8787SOL     OW37822   0.954   1.360   6.110 -0.3824 -0.0480 -0.2968
 8787SOL    HW137823   0.926   1.319   6.192 -2.5205  1.8893 -0.0679
 8787SOL    HW237824   0.878   1.335   6.058  0.7918  0.8390 -2.4442
 8788SOL     OW37825   2.704   1.729   4.455  0.2599 -0.2669  0.2426
 8788SOL    HW137826   2.746   1.717   4.370  0.2870  3.5384 -0.2801
 8788SOL    HW237827   2.770   1.686   4.510  0.2346  0.2412  0.6637
 8789SOL     OW37828   3.947   1.576   3.483 -0.2626  0.1011 -0.2345
 8789SOL    HW137829   4.036   1.548   3.460 -0.6670 -0.8357 -0.6538
 8789SOL    HW237830   3.898   1.493   3.489  2.2824 -1.5744 -2.6137
 8790SOL     OW37831   3.551   3.888   7.478 -0.3369 -0.5207  0.0951
 8790SOL    HW137832   3.475   3.886   7.419  0.1289  2.7868 -0.6174
 8790SOL    HW237833   3.624   3.845   7.435 -0.8260 -1.6304  0.3830
 8791SOL     OW37834   2.808   0.306   4.316 -0.4365  0.2893  0.1772
 8791SOL    HW137835   2.717   0.332   4.299 -0.0697  0.6754 -1.2286
 8791SOL    HW237836   2.797   0.236   4.380  1.6696  0.0443  0.2788
 8792SOL     OW37837   3.811   3.971   3.867 -0.5074  0.7661  0.0276
 8792SOL    HW137838   3.819   3.995   3.959  1.4581  0.0490  0.0539
 8792SOL    HW237839   3.901   3.941   3.855 -0.4386  0.2536  1.8392
 8793SOL     OW37840   3.417   0.289  11.094 -0.3339  0.3649  0.2364
 8793SOL    HW137841   3.428   0.221  11.028 -0.8169 -1.2465  1.8393
 8793SOL    HW237842   3.344   0.269  11.151 -0.7379 -1.2544 -0.8441
 8794SOL     OW37843   3.597   3.090   6.308  0.2875  0.5632 -0.0521
 8794SOL    HW137844   3.517   3.075   6.357  0.2154  0.6090 -0.1569
 8794SOL    HW237845   3.614   3.184   6.317  1.2618  0.2917  1.0208
 8795SOL     OW37846   3.390   4.174  17.314 -0.0223  0.2211 -0.7340
 8795SOL    HW137847   3.400   4.086  17.277 -2.8215  0.8118 -2.9681
 8795SOL    HW237848   3.477   4.212  17.303  1.9545 -4.3774 -0.7938
 8796SOL     OW37849   3.705   3.677   9.257 -0.2880  0.4688  0.3958
 8796SOL    HW137850   3.731   3.586   9.248 -0.0253  0.3296  2.3919
 8796SOL    HW237851   3.610   3.675   9.259 -0.2702  0.0454  0.7335
 8797SOL     OW37852   1.097   0.538   0.880  0.7524  0.8185  0.2915
 8797SOL    HW137853   1.047   0.505   0.953  2.8786 -0.6998  1.0487
 8797SOL    HW237854   1.043   0.525   0.802  1.3949  0.3035 -0.0679
 8798SOL     OW37855   4.049   2.721   6.873 -0.1877 -0.3019  0.1098
 8798SOL    HW137856   4.101   2.792   6.912  0.0503  0.6355 -1.8830
 8798SOL    HW237857   3.998   2.692   6.948 -1.0590  0.3527 -0.2333
 8799SOL     OW37858   3.592   2.775  11.627 -0.5667 -0.1471 -0.4305
 8799SOL    HW137859   3.543   2.751  11.706 -0.6449 -1.8732 -1.0097
 8799SOL    HW237860   3.533   2.746  11.557 -0.4655 -1.7154  0.1185
 8800SOL     OW37861   1.907   1.667  14.727  0.1393  0.0197 -0.2900
 8800SOL    HW137862   1.920   1.744  14.672 -1.7024  0.1800 -0.4932
 8800SOL    HW237863   1.812   1.659  14.716  0.1672  1.8858 -1.8663
 8801SOL     OW37864   2.930   1.969  13.746 -0.2288 -0.3810 -0.0524
 8801SOL    HW137865   2.932   1.874  13.762  1.1848 -0.2752  0.4164
 8801SOL    HW237866   3.022   1.974  13.718 -0.1620  2.1136  0.6281
 8802SOL     OW37867   1.245   2.450   3.121  0.2621 -0.1717 -0.4845
 8802SOL    HW137868   1.215   2.395   3.193 -2.6710  1.2249 -0.6779
 8802SOL    HW237869   1.201   2.531   3.144 -1.7987 -1.4907  0.2461
 8803SOL     OW37870   3.180   4.109   5.978  0.5125  0.1846  0.3524
 8803SOL    HW137871   3.141   4.023   5.960 -0.0031  0.6253 -0.6214
 8803SOL    HW237872   3.197   4.134   5.887  1.8395  0.8133  0.7697
 8804SOL     OW37873   1.412   2.239  12.570 -0.5884 -0.5439  0.6172
 8804SOL    HW137874   1.492   2.211  12.614 -0.6496 -1.5548  0.0849
 8804SOL    HW237875   1.392   2.157  12.525 -0.5169 -0.0341 -0.3428
 8805SOL     OW37876   1.190   4.438   5.500  0.5845 -0.0463  0.2712
 8805SOL    HW137877   1.260   4.464   5.440 -0.6874  1.9489 -0.3439
 8805SOL    HW237878   1.135   4.384   5.443  0.5800  0.5308 -0.2718
 8806SOL     OW37879   4.013   2.970   2.173  0.8599  0.1857  0.2645
 8806SOL    HW137880   3.977   3.025   2.103 -0.8620 -1.4372 -0.1130
 8806SOL    HW237881   3.964   2.995   2.251 -0.5271 -1.6012 -0.0293
 8807SOL     OW37882   2.892   2.990   0.034  0.1823 -0.2649  0.1162
 8807SOL    HW137883   2.815   2.973  17.665  0.7623 -0.4206 -0.6570
 8807SOL    HW237884   2.889   2.918   0.096 -1.7258 -0.0649  0.2723
 8808SOL     OW37885   1.830   1.710   5.788  0.9510  0.3076 -0.2932
 8808SOL    HW137886   1.806   1.656   5.713 -1.9841  0.7865  0.3318
 8808SOL    HW237887   1.749   1.752   5.815  0.5804  0.3833 -1.5425
 8809SOL     OW37888   2.020   2.162   7.240  0.3126 -0.3486 -0.1950
 8809SOL    HW137889   1.998   2.108   7.315 -0.6196  1.4892  0.8356
 8809SOL    HW237890   2.077   2.226   7.284  2.4740 -2.3638 -0.0401
 8810SOL     OW37891   2.569   4.090   4.177 -0.5160 -0.3418  0.0202
 8810SOL    HW137892   2.478   4.117   4.176 -0.6955 -1.0017 -1.2200
 8810SOL    HW237893   2.571   4.022   4.244  0.2988  1.2440  1.6226
 8811SOL     OW37894   4.109   3.633   4.389  0.0679  0.6702 -0.2002
 8811SOL    HW137895   4.056   3.667   4.461 -1.4153 -2.7093  0.2873
 8811SOL    HW237896   4.047   3.582   4.337  0.2450 -0.5195  0.7794
 8812SOL     OW37897   4.227   1.911   4.818  0.0011  0.3659 -0.2411
 8812SOL    HW137898   4.190   1.971   4.753 -2.0407 -0.5218  0.1032
 8812SOL    HW237899   4.206   1.958   4.898  2.4660  0.8626  0.0895
 8813SOL     OW37900   0.865   0.312   1.804  0.1528  0.1111  0.1397
 8813SOL    HW137901   0.887   0.319   1.711  0.8309 -0.2932  0.2658
 8813SOL    HW237902   0.909   0.386   1.845  1.0299 -0.4914  0.2921
 8814SOL     OW37903   1.687   4.352  15.656  0.4031 -0.2104 -0.3132
 8814SOL    HW137904   1.608   4.317  15.615 -0.7236  0.9870  0.8195
 8814SOL    HW237905   1.681   4.431  15.601  0.2821  0.4082  0.5880
 8815SOL     OW37906   2.826   3.102   6.284  0.0890  0.8115  0.0032
 8815SOL    HW137907   2.772   3.028   6.257 -0.5345  0.7028  1.5366
 8815SOL    HW237908   2.793   3.128   6.371  2.6382  2.3131  0.5168
 8816SOL     OW37909   0.234   1.069  16.765  0.2865  0.0483 -0.4194
 8816SOL    HW137910   0.207   0.979  16.779 -1.8881  0.4102 -2.3009
 8816SOL    HW237911   0.146   1.101  16.749  0.8820  0.3437 -3.2342
 8817SOL     OW37912   0.086   0.489   1.562 -0.2481 -0.6308 -0.0676
 8817SOL    HW137913   0.047   0.402   1.551 -1.7577 -0.1021  1.0969
 8817SOL    HW237914   0.142   0.500   1.485 -0.4280 -1.2480 -0.2893
 8818SOL     OW37915   1.302   3.521  15.427 -0.3751  0.3596  0.5046
 8818SOL    HW137916   1.298   3.617  15.423  0.9464  0.3373 -1.7668
 8818SOL    HW237917   1.320   3.501  15.335 -0.5941  0.1143  0.5177
 8819SOL     OW37918   4.490   3.050   6.614 -0.2852 -0.0482  0.6190
 8819SOL    HW137919   4.562   2.994   6.585  0.9000  2.2922 -1.0416
 8819SOL    HW237920   4.499   3.052   6.709  0.0113 -1.4840  0.6125
 8820SOL     OW37921   3.038   0.651   0.784 -0.0798  0.0553 -0.2378
 8820SOL    HW137922   3.091   0.572   0.785 -1.5728 -0.9343  2.0086
 8820SOL    HW237923   2.950   0.613   0.783  0.3217 -0.8736 -0.0877
 8821SOL     OW37924   1.730   4.290   4.762  0.1464  0.2054  0.2998
 8821SOL    HW137925   1.755   4.296   4.854  1.9465 -0.0525 -0.1698
 8821SOL    HW237926   1.799   4.230   4.732  1.9707  1.8217  1.2228
 8822SOL     OW37927   4.550   4.111   4.064  0.9940  0.5332  0.4733
 8822SOL    HW137928   4.596   4.051   4.005  1.5089  0.3434  1.0678
 8822SOL    HW237929   4.551   4.050   4.137  0.3709 -2.6923 -2.2234
 8823SOL     OW37930   2.496   3.889   6.652 -0.0686 -0.2423 -0.1306
 8823SOL    HW137931   2.453   3.836   6.585  1.6063 -2.4863  0.5695
 8823SOL    HW237932   2.504   3.828   6.725 -0.0211  1.9894  1.7393
 8824SOL     OW37933   2.730   4.389   6.352 -0.0849  0.2001 -0.0455
 8824SOL    HW137934   2.745   4.434   6.268 -0.0785 -0.4463 -0.3882
 8824SOL    HW237935   2.706   4.467   6.402 -0.1436 -0.1111  0.3993
 8825SOL     OW37936   2.926   0.108   1.896  0.3357  0.5811 -0.3021
 8825SOL    HW137937   2.969   0.111   1.811  0.2431 -4.1303 -0.5235
 8825SOL    HW237938   2.877   0.190   1.891 -0.5655  0.1925  2.0012
 8826SOL     OW37939   4.037   3.539   2.398 -0.7939  0.1705  0.4362
 8826SOL    HW137940   3.977   3.502   2.333  0.4629  1.6964 -1.5742
 8826SOL    HW237941   4.039   3.623   2.352 -1.2236 -0.8930 -1.5585
 8827SOL     OW37942   0.781   0.029   4.360 -0.0436  0.3304 -0.1646
 8827SOL    HW137943   0.788   4.657   4.340 -0.9757  0.1468  0.3943
 8827SOL    HW237944   0.706   0.024   4.419  1.9414  1.9371  2.5203
 8828SOL     OW37945   4.005   0.990   7.798  0.4167  0.1415  0.2182
 8828SOL    HW137946   4.056   0.984   7.879  0.9742  1.5250 -0.0363
 8828SOL    HW237947   4.052   0.939   7.733 -1.6017 -0.1484 -1.0011
 8829SOL     OW37948   2.096   3.960   4.008  0.0998 -0.1892 -0.3753
 8829SOL    HW137949   2.171   3.999   3.963 -0.9619 -0.6933 -2.5398
 8829SOL    HW237950   2.043   3.929   3.935 -0.7883 -0.7045  0.4856
 8830SOL     OW37951   2.492   1.425   2.298  0.2381 -0.5848 -0.8427
 8830SOL    HW137952   2.492   1.435   2.393  0.1460 -1.0197 -0.7977
 8830SOL    HW237953   2.476   1.331   2.285 -0.2559 -0.7128  0.6502
 8831SOL     OW37954   4.563   1.067   1.927 -0.2886 -0.3116  0.4846
 8831SOL    HW137955   4.493   1.079   1.992 -0.8116 -2.2349  0.2936
 8831SOL    HW237956   4.607   1.151   1.919  0.7503 -0.7756  1.4365
 8832SOL     OW37957   4.212   0.401  15.835 -0.9853 -0.4941  0.1199
 8832SOL    HW137958   4.276   0.360  15.777  1.9029  1.8355  1.6487
 8832SOL    HW237959   4.141   0.435  15.780  1.0294  3.0476 -0.2479
 8833SOL     OW37960   1.337   0.554   1.871 -0.1473  0.4199  0.2551
 8833SOL    HW137961   1.356   0.627   1.931 -0.9028  0.9948 -0.2072
 8833SOL    HW237962   1.396   0.496   1.920 -1.1798 -0.8316  0.0045
 8834SOL     OW37963   0.507   3.492  10.972  0.0706  0.0364 -0.0306
 8834SOL    HW137964   0.446   3.418  10.967 -1.1958  0.9473  1.9171
 8834SOL    HW237965   0.593   3.453  10.958 -0.0270  0.5860 -2.2698
 8835SOL     OW37966   3.205   3.936   8.289  0.2024  0.1294 -0.0398
 8835SOL    HW137967   3.290   3.896   8.305 -0.4820 -0.1412  2.9620
 8835SOL    HW237968   3.179   3.962   8.377 -0.5602 -0.8815  0.0402
 8836SOL     OW37969   2.801   1.370   8.090  0.0376 -0.1916  0.1826
 8836SOL    HW137970   2.798   1.280   8.124  2.9651 -0.8260 -1.1811
 8836SOL    HW237971   2.709   1.387   8.070  0.1010 -1.3518 -1.1742
 8837SOL     OW37972   0.747   3.586   8.286  0.0019 -0.1740  0.3250
 8837SOL    HW137973   0.720   3.516   8.226  1.0116  2.4683 -3.1823
 8837SOL    HW237974   0.820   3.542   8.330 -0.4493 -1.5077 -0.2610
 8838SOL     OW37975   2.096   3.706   4.168 -0.2974 -0.2273 -0.0854
 8838SOL    HW137976   2.177   3.706   4.219  0.3954  1.6909 -1.1975
 8838SOL    HW237977   2.076   3.798   4.149 -0.4425 -0.1029  0.6500
 8839SOL     OW37978   1.673   2.439   5.264  0.2513  0.0937  0.3779
 8839SOL    HW137979   1.747   2.381   5.274  1.6191  1.7299 -0.2382
 8839SOL    HW237980   1.646   2.405   5.179 -1.1610 -0.2274  0.9466
 8840SOL     OW37981   4.320   0.173  15.195  0.5090  0.5137  0.0679
 8840SOL    HW137982   4.303   0.250  15.140 -3.0121 -0.1765  0.1894
 8840SOL    HW237983   4.242   0.175  15.250  1.7403 -1.1129  1.8934
 8841SOL     OW37984   2.238   3.068  13.502 -0.1059  0.4561  0.3955
 8841SOL    HW137985   2.311   3.008  13.487  1.7375  2.7907  0.1089
 8841SOL    HW237986   2.209   3.030  13.586  0.8947  0.1984  0.6259
 8842SOL     OW37987   4.573   0.869   7.080  0.0735  0.2668 -0.1253
 8842SOL    HW137988   4.492   0.900   7.121 -1.0229 -0.1572 -1.9792
 8842SOL    HW237989   4.534   0.838   6.999  0.5704  2.2181 -1.1096
 8843SOL     OW37990   0.514   1.616   7.772 -0.0075 -0.0418 -0.4941
 8843SOL    HW137991   0.578   1.548   7.750  0.1112 -0.1137  0.0703
 8843SOL    HW237992   0.430   1.581   7.742 -0.1356 -0.6526  0.5845
 8844SOL     OW37993   4.282   1.801   2.976 -0.1379  0.1642 -0.5831
 8844SOL    HW137994   4.241   1.718   2.950  1.4544 -0.8931  0.3289
 8844SOL    HW237995   4.301   1.781   3.067 -0.7456 -0.0200 -0.4921
 8845SOL     OW37996   2.554   4.442  15.412 -0.3175 -0.4531 -0.2003
 8845SOL    HW137997   2.469   4.445  15.368 -0.7154 -1.8271  0.4660
 8845SOL    HW237998   2.593   4.523  15.379 -0.0317 -0.3468  0.3969
 8846SOL     OW37999   0.822   3.054  11.249  0.2412  0.4582  0.5565
 8846SOL    HW138000   0.769   3.053  11.170  1.5891 -0.3944 -0.3356
 8846SOL    HW238001   0.799   2.973  11.294 -1.3146  0.6010  0.0088
 8847SOL     OW38002   0.962   3.100  10.512  0.4432  0.6476 -0.6026
 8847SOL    HW138003   1.048   3.136  10.492  0.1359  0.7298 -1.7800
 8847SOL    HW238004   0.975   3.102  10.607  0.5111  1.8813 -0.6333
 8848SOL     OW38005   4.307   3.099  14.183 -0.2158 -0.6763 -0.1548
 8848SOL    HW138006   4.304   3.077  14.276 -1.9932  2.4574  0.5414
 8848SOL    HW238007   4.402   3.102  14.170 -0.5465 -0.5181 -2.5164
 8849SOL     OW38008   0.965   0.107   1.538 -0.1735  0.2037  0.1642
 8849SOL    HW138009   1.042   0.160   1.562 -1.9363  2.4181  0.9716
 8849SOL    HW238010   0.946   0.064   1.621  1.9137 -1.3433 -0.1604
 8850SOL     OW38011   3.567   2.627   4.072  0.1155 -0.3429  0.7507
 8850SOL    HW138012   3.634   2.574   4.115  0.6015 -2.8750 -3.1817
 8850SOL    HW238013   3.494   2.602   4.129 -0.0510 -1.0528  0.2171
 8851SOL     OW38014   3.021   3.637   8.376  0.1229  0.5172 -0.4485
 8851SOL    HW138015   2.931   3.615   8.403  0.3577 -1.6697 -1.4967
 8851SOL    HW238016   3.023   3.724   8.417  1.6880  0.8636 -1.2636
 8852SOL     OW38017   3.495   3.583   4.199  0.3060 -0.0470  0.0301
 8852SOL    HW138018   3.485   3.578   4.294 -0.4174  0.0725 -0.0404
 8852SOL    HW238019   3.583   3.614   4.180  0.7657  0.1972  2.6036
 8853SOL     OW38020   3.431   0.643   9.068  0.1748 -0.7542 -0.4616
 8853SOL    HW138021   3.477   0.569   9.109 -1.9359 -0.8151  1.7795
 8853SOL    HW238022   3.465   0.718   9.115  2.0843 -0.9164 -1.5763
 8854SOL     OW38023   2.186   0.196   9.758  0.2997  0.0054 -1.2926
 8854SOL    HW138024   2.274   0.159   9.758  0.6089  0.7144  0.1912
 8854SOL    HW238025   2.125   0.140   9.710 -0.2516  0.5177 -1.1892
 8855SOL     OW38026   4.403   3.654   7.470  0.1323  0.0112 -0.2376
 8855SOL    HW138027   4.350   3.616   7.540  2.5336  0.3942  1.7911
 8855SOL    HW238028   4.328   3.692   7.425  0.2729  1.3241  0.6153
 8856SOL     OW38029   0.296   2.593   2.216  0.1344  0.0043 -0.1013
 8856SOL    HW138030   0.263   2.683   2.205  0.1774  0.2778  2.0026
 8856SOL    HW238031   0.271   2.583   2.308 -1.6207 -1.3950 -0.7287
 8857SOL     OW38032   1.295   0.076   4.087 -0.4722 -0.3886  0.7287
 8857SOL    HW138033   1.218   0.051   4.138 -0.5315 -2.0100 -0.1587
 8857SOL    HW238034   1.302   0.006   4.022  1.0129  1.0568 -0.6720
 8858SOL     OW38035   3.256   2.732   8.529  0.4406  0.2745 -0.0794
 8858SOL    HW138036   3.181   2.680   8.557  1.3457 -0.8429  0.2568
 8858SOL    HW238037   3.294   2.730   8.616 -0.0219 -2.6202  0.0594
 8859SOL     OW38038   2.256   1.833  14.268  0.6283  0.2703  0.4506
 8859SOL    HW138039   2.280   1.750  14.227  0.5867  1.0491 -1.1696
 8859SOL    HW238040   2.184   1.813  14.327 -0.1449  2.1710  0.1555
 8860SOL     OW38041   2.229   3.877  10.049  0.4798 -0.8216  0.2741
 8860SOL    HW138042   2.221   3.805  10.112 -1.2863  0.3154  1.3354
 8860SOL    HW238043   2.138   3.894  10.025  0.3143 -0.4510  1.1618
 8861SOL     OW38044   3.292   3.010  15.351 -0.3978  0.2622  0.3441
 8861SOL    HW138045   3.210   3.056  15.368 -0.5082  0.1186  0.1931
 8861SOL    HW238046   3.333   3.010  15.438 -0.8834  1.1404  0.5743
 8862SOL     OW38047   0.663   2.764   8.877  0.1471 -0.6158  0.2159
 8862SOL    HW138048   0.715   2.715   8.812 -1.6813  1.9004 -3.1070
 8862SOL    HW238049   0.613   2.694   8.920 -2.2471  2.1499  1.8878
 8863SOL     OW38050   1.231   0.550   5.342  0.6777  0.7835 -0.5631
 8863SOL    HW138051   1.241   0.469   5.294  0.1363  0.6445 -0.4419
 8863SOL    HW238052   1.316   0.590   5.323 -1.0197  3.7316 -2.1023
 8864SOL     OW38053   3.818   3.545  13.309  0.7542  0.0960 -0.1109
 8864SOL    HW138054   3.809   3.597  13.229 -2.3758  2.7011  1.9185
 8864SOL    HW238055   3.907   3.540  13.343 -0.5634  1.7105  3.6231
 8865SOL     OW38056   3.412   3.018   2.802  0.2462  0.0734 -0.2494
 8865SOL    HW138057   3.394   3.105   2.838 -0.2195  0.5664 -1.6557
 8865SOL    HW238058   3.412   3.038   2.709  1.7527  2.1178  0.1827
 8866SOL     OW38059   2.936   0.946   5.643  1.0298  0.3316 -0.0718
 8866SOL    HW138060   2.868   0.903   5.592  0.8975  0.5029 -0.0408
 8866SOL    HW238061   3.010   0.889   5.621 -0.6303 -2.3156  1.2338
 8867SOL     OW38062   2.821   2.306   9.095 -0.0598  0.2590 -0.2203
 8867SOL    HW138063   2.799   2.399   9.103 -0.8896  0.1525 -1.3470
 8867SOL    HW238064   2.769   2.277   9.170 -0.1364  0.0182 -0.3694
 8868SOL     OW38065   4.185   1.462  16.807  0.0419 -0.4350 -0.2992
 8868SOL    HW138066   4.203   1.486  16.716  0.0867  0.5444 -0.0377
 8868SOL    HW238067   4.137   1.543  16.826  0.6707 -0.2290  0.4428
 8869SOL     OW38068   3.629   0.624  11.365 -0.3005 -0.2580  0.5290
 8869SOL    HW138069   3.572   0.647  11.438 -1.3296  1.0493 -0.6793
 8869SOL    HW238070   3.710   0.671  11.384  0.4840 -0.6949 -1.6934
 8870SOL     OW38071   2.808   3.510  16.733 -0.4157 -0.8570  0.4672
 8870SOL    HW138072   2.794   3.527  16.639  0.8548  1.1162  0.6420
 8870SOL    HW238073   2.897   3.476  16.729 -0.0093  0.2826 -0.2174
 8871SOL     OW38074   0.840   4.556  13.730  0.8756  0.2567 -0.1594
 8871SOL    HW138075   0.865   4.625  13.790  0.1397 -1.0945  1.6945
 8871SOL    HW238076   0.788   4.499  13.787  1.1119  0.4399  0.2360
 8872SOL     OW38077   1.231   3.355   7.155 -0.4833  0.2250 -0.8724
 8872SOL    HW138078   1.291   3.340   7.229 -1.2017  1.2482 -0.0840
 8872SOL    HW238079   1.288   3.397   7.092  1.5165 -1.5654 -0.2418
 8873SOL     OW38080   0.931   1.706  13.118  0.1620 -0.1429  0.0042
 8873SOL    HW138081   0.895   1.708  13.207 -0.1417 -2.0444 -0.0765
 8873SOL    HW238082   0.890   1.780  13.074  0.8383 -1.3426 -2.6358
 8874SOL     OW38083   3.550   0.987   5.765  0.7699  0.5905  0.0723
 8874SOL    HW138084   3.558   0.957   5.855 -1.8731 -1.3515 -0.3436
 8874SOL    HW238085   3.642   1.013   5.756  1.0619 -0.6205 -0.3982
 8875SOL     OW38086   2.213   1.077  17.284  0.0166  0.8988  0.2320
 8875SOL    HW138087   2.289   1.051  17.336 -0.7239 -1.7531 -0.0170
 8875SOL    HW238088   2.211   1.002  17.225  3.2173  0.0576  1.2353
 8876SOL     OW38089   4.395   2.631   1.918  0.3338  0.0004 -0.0734
 8876SOL    HW138090   4.484   2.657   1.896  0.3548 -0.9835 -1.1004
 8876SOL    HW238091   4.360   2.711   1.958  0.3538 -0.2463  0.4376
 8877SOL     OW38092   0.528   1.617   8.046 -0.1984 -0.1038  0.5054
 8877SOL    HW138093   0.623   1.619   8.045 -0.2424  1.1371 -1.1650
 8877SOL    HW238094   0.513   1.623   7.952 -1.0914  3.4638  0.8716
 8878SOL     OW38095   3.892   3.913   3.091 -0.2471  0.3847 -0.0579
 8878SOL    HW138096   3.801   3.941   3.095 -0.5588 -0.3086 -1.9341
 8878SOL    HW238097   3.887   3.821   3.119 -0.6210  0.6444  0.7092
 8879SOL     OW38098   2.888   3.675   5.017  0.6157  0.5172 -0.2402
 8879SOL    HW138099   2.958   3.610   5.032  1.1425  0.9690 -0.7478
 8879SOL    HW238100   2.822   3.622   4.971 -0.4889  2.6025 -1.0200
 8880SOL     OW38101   2.022   0.714   6.924 -0.7088  0.4060 -0.0877
 8880SOL    HW138102   1.957   0.773   6.964 -0.2656  1.4039 -0.8288
 8880SOL    HW238103   1.971   0.638   6.898 -0.0977  0.7298 -2.2041
 8881SOL     OW38104   3.736   2.991   2.385 -0.0463 -0.7664  0.2462
 8881SOL    HW138105   3.650   2.963   2.353 -0.2426  1.4630 -1.1558
 8881SOL    HW238106   3.720   2.998   2.479 -1.1280  0.9796 -0.0737
 8882SOL     OW38107   2.591   4.044   8.068  0.6200 -0.1218  0.1460
 8882SOL    HW138108   2.679   4.012   8.045  0.2120  0.1707 -1.7718
 8882SOL    HW238109   2.553   3.958   8.087  0.6195 -0.4817 -1.5250
 8883SOL     OW38110   3.679   3.979   3.559 -0.1169 -0.0178 -0.0810
 8883SOL    HW138111   3.648   3.955   3.646 -0.3317 -0.3160 -0.2413
 8883SOL    HW238112   3.765   3.937   3.563 -0.6919 -1.1567  0.4452
 8884SOL     OW38113   0.591   2.933  12.773  0.4548 -0.0417  0.2783
 8884SOL    HW138114   0.553   2.966  12.854  2.0089  0.6372  0.7242
 8884SOL    HW238115   0.562   2.842  12.775 -1.6744  0.6537  0.6742
 8885SOL     OW38116   0.033   4.031   9.162  0.4913 -0.6497  0.0843
 8885SOL    HW138117   0.072   3.990   9.084 -0.6028 -0.6323 -0.4626
 8885SOL    HW238118   0.002   3.950   9.201  0.5372 -0.3873  0.6609
 8886SOL     OW38119   3.467   0.319   5.271  0.3030 -0.4392 -0.4599
 8886SOL    HW138120   3.477   0.226   5.251  0.7163 -0.4253 -0.3070
 8886SOL    HW238121   3.418   0.346   5.193  0.2347  2.2279  0.5047
 8887SOL     OW38122   3.923   3.831   0.702 -0.2088 -0.2267  0.1470
 8887SOL    HW138123   3.854   3.800   0.643 -1.0203 -0.8261  1.4121
 8887SOL    HW238124   3.902   3.784   0.783 -3.3381  0.6163 -0.1668
 8888SOL     OW38125   2.606   1.480  17.235  0.0728 -0.0075 -0.0853
 8888SOL    HW138126   2.613   1.390  17.203 -1.0423  0.4941 -1.6895
 8888SOL    HW238127   2.514   1.482  17.261  0.5180 -0.1377  1.5075
 8889SOL     OW38128   4.369   2.274   8.990  0.0619 -0.3070  0.6092
 8889SOL    HW138129   4.357   2.360   9.031  1.4846 -1.0521  2.5831
 8889SOL    HW238130   4.286   2.282   8.942  0.7640  0.4402 -0.4857
 8890SOL     OW38131   3.520   4.206   8.467 -0.0166 -0.2845  0.0146
 8890SOL    HW138132   3.435   4.246   8.484  0.5554  0.9228  0.0372
 8890SOL    HW238133   3.550   4.174   8.552  1.2609 -0.0261 -0.3282
 8891SOL     OW38134   2.253   4.489   2.256  0.0646  0.3832 -0.0164
 8891SOL    HW138135   2.315   4.479   2.185  1.1593  0.9099  0.8593
 8891SOL    HW238136   2.285   4.537   2.333 -0.4618  0.6602  0.0356
 8892SOL     OW38137   0.444   3.377   3.229  0.1413  0.1683  0.5573
 8892SOL    HW138138   0.408   3.290   3.211  0.3433  0.6376 -2.0812
 8892SOL    HW238139   0.507   3.389   3.158  1.4082 -2.3710  1.2567
 8893SOL     OW38140   2.048   1.087   5.689  1.0084 -0.0929 -0.6870
 8893SOL    HW138141   2.013   1.145   5.757 -0.2165 -0.2466 -1.1947
 8893SOL    HW238142   2.019   1.139   5.614 -0.6595  0.2854  0.2017
 8894SOL     OW38143   0.976   0.589   2.161 -0.3324  0.3475 -0.5668
 8894SOL    HW138144   0.906   0.653   2.173 -0.0344  0.9125 -1.8284
 8894SOL    HW238145   0.976   0.590   2.066 -3.0220  1.9664 -0.5545
 8895SOL     OW38146   3.597   1.194   4.251  0.6674 -0.0127 -0.0605
 8895SOL    HW138147   3.507   1.204   4.221  1.0696 -0.8693 -1.5572
 8895SOL    HW238148   3.573   1.178   4.343  1.0551  1.2606  0.2679
 8896SOL     OW38149   3.435   3.781  16.827  0.0662 -0.2437 -0.7363
 8896SOL    HW138150   3.363   3.740  16.780  0.6164 -0.0098 -1.7781
 8896SOL    HW238151   3.409   3.768  16.918  2.1980 -1.1772 -0.2509
 8897SOL     OW38152   2.414   3.333   3.981  0.3260 -0.7915  0.1414
 8897SOL    HW138153   2.356   3.258   3.994  0.8838 -0.9938  1.3989
 8897SOL    HW238154   2.497   3.290   4.001  0.5646  0.2929  1.4745
 8898SOL     OW38155   2.075   0.412  11.861  0.5036 -0.3259 -0.1758
 8898SOL    HW138156   2.010   0.367  11.806 -0.4221 -0.8369  1.3280
 8898SOL    HW238157   2.103   0.357  11.934  0.9231  1.0854  0.7138
 8899SOL     OW38158   2.873   0.369   6.658 -0.3609  0.5634  0.4306
 8899SOL    HW138159   2.888   0.376   6.563  3.9720  0.0753  1.0770
 8899SOL    HW238160   2.883   0.454   6.700 -1.1917 -0.0846  1.9563
 8900SOL     OW38161   2.900   0.402  14.930  0.3302 -0.1330  0.3300
 8900SOL    HW138162   2.883   0.320  14.977  2.0504 -1.0411 -0.6360
 8900SOL    HW238163   2.838   0.460  14.974  0.2668 -0.6834  0.9666
 8901SOL     OW38164   3.539   2.990   5.998  0.3359 -0.0473  0.0922
 8901SOL    HW138165   3.567   2.977   6.088  1.4325 -2.3475 -0.6008
 8901SOL    HW238166   3.581   2.917   5.953 -0.0030  0.3748 -0.9253
 8902SOL     OW38167   0.332   0.067   7.508 -0.1009 -0.1626 -0.1019
 8902SOL    HW138168   0.358   0.046   7.598  0.3823 -0.0494 -0.2170
 8902SOL    HW238169   0.360   0.159   7.513  1.5076 -0.6397 -0.4447
 8903SOL     OW38170   0.906   2.238   7.450 -0.7228  0.0430 -0.1665
 8903SOL    HW138171   0.827   2.244   7.396 -2.0772 -1.4177  1.6196
 8903SOL    HW238172   0.930   2.329   7.469  0.2708 -0.4547  0.9722
 8904SOL     OW38173   4.450   2.451   3.506 -0.0977  0.2411  0.2631
 8904SOL    HW138174   4.437   2.443   3.412  0.1609 -1.4110  0.3687
 8904SOL    HW238175   4.458   2.547   3.506 -0.3693  0.2542  2.1501
 8905SOL     OW38176   2.722   0.437   9.445 -0.0462  0.8316 -0.2256
 8905SOL    HW138177   2.768   0.389   9.376 -1.2819 -1.3220  0.4299
 8905SOL    HW238178   2.795   0.471   9.498  2.9544 -2.8149 -2.0015
 8906SOL     OW38179   3.576   0.602   8.502 -0.4834 -0.1398  0.7873
 8906SOL    HW138180   3.615   0.683   8.471  1.5577 -1.6790 -0.6358
 8906SOL    HW238181   3.552   0.627   8.591 -2.0510 -0.9323  0.5959
 8907SOL     OW38182   3.126   1.897   7.975  0.0792  0.4104 -0.2409
 8907SOL    HW138183   3.137   1.816   8.024  0.1559  0.8440  0.4589
 8907SOL    HW238184   3.141   1.966   8.039 -0.0280  1.0466 -0.8984
 8908SOL     OW38185   0.510   2.377   4.159 -0.1294  0.8288 -0.0873
 8908SOL    HW138186   0.530   2.444   4.093 -3.0148  1.5334 -0.2348
 8908SOL    HW238187   0.594   2.331   4.163 -0.6370 -0.0401  0.5445
 8909SOL     OW38188   0.360   4.334  12.712 -0.0766 -0.1226 -0.0427
 8909SOL    HW138189   0.453   4.311  12.711  0.0789  0.5541 -1.0444
 8909SOL    HW238190   0.336   4.326  12.619  1.3113 -1.0403 -0.3334
 8910SOL     OW38191   4.287   3.784  15.755  0.1909  0.3772 -0.2253
 8910SOL    HW138192   4.271   3.833  15.836  0.1015 -1.2291  0.7248
 8910SOL    HW238193   4.257   3.856  15.699 -0.7458 -0.4093 -0.7258
 8911SOL     OW38194   3.335   1.700  13.529  0.3795  0.0921 -0.0310
 8911SOL    HW138195   3.312   1.780  13.481 -0.1515  1.3132  2.2641
 8911SOL    HW238196   3.317   1.725  13.619  0.3568  1.3339 -0.3783
 8912SOL     OW38197   2.475   0.197  10.960  0.2318  0.2573 -0.5943
 8912SOL    HW138198   2.396   0.165  10.915 -0.1234 -0.7309  0.7523
 8912SOL    HW238199   2.547   0.186  10.897  0.6388  2.5605 -0.5086
 8913SOL     OW38200   0.043   1.692   7.542 -0.3953 -0.1439  0.0193
 8913SOL    HW138201   0.091   1.771   7.519 -0.5218 -0.4581 -1.3076
 8913SOL    HW238202   0.019   1.705   7.634 -2.0885  2.1629 -0.7568
 8914SOL     OW38203   2.559   2.220   6.001 -0.6933  0.1988 -0.4968
 8914SOL    HW138204   2.598   2.152   5.947 -2.4819 -0.7995 -0.5287
 8914SOL    HW238205   2.466   2.200   5.992 -0.2583 -2.8673  1.6285
 8915SOL     OW38206   3.964   2.300  15.247  0.2810 -0.5718  0.1207
 8915SOL    HW138207   3.929   2.300  15.158 -0.1032 -1.4958  0.2740
 8915SOL    HW238208   4.017   2.380  15.244  1.1421 -1.1277  0.5948
 8916SOL     OW38209   4.453   1.881  11.491  0.4819  0.2595 -0.0270
 8916SOL    HW138210   4.541   1.860  11.459  0.3422  0.1385 -0.3252
 8916SOL    HW238211   4.476   1.912  11.579 -3.2056 -0.1305  1.0963
 8917SOL     OW38212   3.964   4.368   6.557 -0.6925  0.2318 -0.3466
 8917SOL    HW138213   4.056   4.387   6.574 -2.1578  4.7633  2.3218
 8917SOL    HW238214   3.960   4.320   6.474  0.0912 -1.4028  0.5668
 8918SOL     OW38215   1.258   2.066  11.764 -0.0842 -0.1322  0.3041
 8918SOL    HW138216   1.206   2.091  11.840 -0.0065 -0.0713  0.3375
 8918SOL    HW238217   1.210   1.989  11.733  0.1838 -0.1874  0.0224
 8919SOL     OW38218   3.490   3.417  12.850 -0.0859 -0.4057 -0.3135
 8919SOL    HW138219   3.434   3.345  12.880  0.9523  0.2328  3.1912
 8919SOL    HW238220   3.424   3.486  12.854 -0.4404 -0.8574  2.0066
 8920SOL     OW38221   4.381   2.914   2.751  0.4726  0.2030  0.6892
 8920SOL    HW138222   4.403   2.993   2.703 -2.9450 -0.1290 -1.4256
 8920SOL    HW238223   4.429   2.898   2.832  1.7463  1.5370  0.1941
 8921SOL     OW38224   2.757   4.623   1.185 -0.5127 -0.1421  0.4952
 8921SOL    HW138225   2.688   4.677   1.224 -1.5512 -2.0934  1.3161
 8921SOL    HW238226   2.797   4.582   1.261 -0.5854  1.1726  1.2584
 8922SOL     OW38227   1.058   4.107   3.402 -0.1543  0.0347 -0.0243
 8922SOL    HW138228   1.051   4.032   3.461 -0.1360  0.8269  1.0066
 8922SOL    HW238229   1.036   4.181   3.460 -0.8578  0.2899 -0.6191
 8923SOL     OW38230   1.590   3.696   0.981 -0.0302 -0.2968  0.1449
 8923SOL    HW138231   1.660   3.637   0.954 -1.7679 -1.7326 -1.1905
 8923SOL    HW238232   1.570   3.646   1.060  0.2534  0.0014  0.4078
 8924SOL     OW38233   0.804   0.225   2.886 -0.1674 -0.5692 -0.0091
 8924SOL    HW138234   0.764   0.303   2.924  0.9342  0.6707 -1.4077
 8924SOL    HW238235   0.788   0.165   2.959 -1.2534 -1.8975 -1.3386
 8925SOL     OW38236   3.054   2.721   4.523 -0.0417 -0.0695  0.0459
 8925SOL    HW138237   3.097   2.636   4.513  1.5000  0.8430 -1.2117
 8925SOL    HW238238   3.108   2.762   4.591 -1.1744  0.0646  0.8596
 8926SOL     OW38239   1.046   1.279   5.407  0.5013  0.5911  0.1583
 8926SOL    HW138240   0.957   1.314   5.414  0.4184  0.8311 -1.9642
 8926SOL    HW238241   1.101   1.358   5.403  0.4414  0.7801  3.1555
 8927SOL     OW38242   4.700   0.147   4.593  0.2345 -0.1542 -0.1902
 8927SOL    HW138243   4.688   0.239   4.616  0.8118  0.4688 -2.3880
 8927SOL    HW238244   0.075   0.144   4.585  0.2081  0.2756 -0.6708
 8928SOL     OW38245   4.639   2.851   4.936 -0.0776 -0.2212  0.6960
 8928SOL    HW138246   4.661   2.807   5.018  2.9160  1.1504  0.6176
 8928SOL    HW238247   4.588   2.786   4.889 -1.2005 -0.0658  1.6990
 8929SOL     OW38248   3.950   2.924   5.627  0.0097  0.0340  0.9853
 8929SOL    HW138249   4.036   2.926   5.584  0.0836  1.7554  1.2070
 8929SOL    HW238250   3.933   2.830   5.633  0.0735 -0.0927 -0.9137
 8930SOL     OW38251   4.431   0.994   5.473 -0.9857  0.5429  0.6434
 8930SOL    HW138252   4.436   1.089   5.459 -0.5160  0.4882  0.4514
 8930SOL    HW238253   4.339   0.985   5.498 -0.8093 -0.8539  0.7341
 8931SOL     OW38254   1.722   0.633  13.473 -0.0799 -0.2139  0.1801
 8931SOL    HW138255   1.752   0.569  13.408 -0.4103  0.6890 -0.8681
 8931SOL    HW238256   1.775   0.709  13.448 -1.6417  0.3186 -1.5192
 8932SOL     OW38257   1.201   0.849  15.850  0.4299  0.5996  0.0611
 8932SOL    HW138258   1.250   0.824  15.928 -1.2438 -0.5593  0.7465
 8932SOL    HW238259   1.196   0.944  15.865 -1.0824  0.8355 -1.8254
 8933SOL     OW38260   2.573   2.543   2.707 -0.1807 -0.0091 -0.3582
 8933SOL    HW138261   2.569   2.497   2.791 -0.4951  0.2832 -0.2129
 8933SOL    HW238262   2.591   2.634   2.729  0.3225 -0.7706  2.3327
 8934SOL     OW38263   1.764   1.437   2.488 -0.1649  0.0769 -0.2038
 8934SOL    HW138264   1.686   1.387   2.463 -0.2148  0.2469 -0.3912
 8934SOL    HW238265   1.823   1.406   2.420  1.5802 -0.1025  1.4023
 8935SOL     OW38266   4.242   0.193   5.660  1.3074  0.0265 -0.1817
 8935SOL    HW138267   4.272   0.183   5.570  0.8954  0.0445 -0.3222
 8935SOL    HW238268   4.265   0.111   5.704  0.2213 -0.3250 -0.2681
 8936SOL     OW38269   1.813   0.806   0.015  0.1518  0.0427 -0.5667
 8936SOL    HW138270   1.844   0.809   0.105 -1.9730 -1.3376  0.2309
 8936SOL    HW238271   1.804   0.711   0.008  0.1457  0.0693 -0.9361
 8937SOL     OW38272   3.650   1.236   7.919 -0.3100  0.4571 -0.0606
 8937SOL    HW138273   3.579   1.198   7.869 -1.3762 -0.2303  1.9890
 8937SOL    HW238274   3.690   1.155   7.950  0.9540  0.6767 -1.1152
 8938SOL     OW38275   1.923   3.631  15.479 -0.0038 -0.1459 -0.1308
 8938SOL    HW138276   1.973   3.619  15.398  0.5672 -3.5868  0.7074
 8938SOL    HW238277   1.918   3.536  15.492  2.6912 -0.4442 -1.2603
 8939SOL     OW38278   4.295   2.563  13.685  0.6454  0.3918 -0.4785
 8939SOL    HW138279   4.326   2.643  13.726 -0.9994  1.0194 -0.4591
 8939SOL    HW238280   4.375   2.510  13.690  0.6625  0.3547 -1.0915
 8940SOL     OW38281   4.375   2.198   4.368 -0.2930  0.0508  0.1391
 8940SOL    HW138282   4.368   2.111   4.406  2.4687 -0.7794 -1.2431
 8940SOL    HW238283   4.326   2.178   4.288 -0.1208 -1.5521  0.4423
 8941SOL     OW38284   0.477   3.479  16.166 -0.2760 -0.4259  0.4903
 8941SOL    HW138285   0.532   3.532  16.223  0.1547  0.5723 -0.8552
 8941SOL    HW238286   0.428   3.550  16.125  2.3736  0.4610 -1.1373
 8942SOL     OW38287   3.651   2.587   5.174  0.0030  0.2078 -0.1826
 8942SOL    HW138288   3.620   2.548   5.093  0.7688  0.2606 -0.4964
 8942SOL    HW238289   3.650   2.677   5.142  2.5585  0.3124 -0.0014
 8943SOL     OW38290   4.469   1.579   8.619 -0.0021  0.1169 -0.2909
 8943SOL    HW138291   4.419   1.621   8.689 -2.0116 -0.6529 -1.2842
 8943SOL    HW238292   4.548   1.633   8.611 -1.5348  2.8492  2.7102
 8944SOL     OW38293   2.303   2.868   8.528 -0.4609 -0.1100  0.3374
 8944SOL    HW138294   2.343   2.819   8.600  1.1919  0.2217 -0.3474
 8944SOL    HW238295   2.357   2.948   8.523 -0.6254 -0.0618 -0.5532
 8945SOL     OW38296   1.030   4.593   1.094 -0.4790 -0.2025  0.6982
 8945SOL    HW138297   1.030   4.562   1.003 -1.6652 -1.7793  1.2369
 8945SOL    HW238298   1.054   4.520   1.150 -3.2988 -1.7761 -0.1753
 8946SOL     OW38299   0.577   4.185   4.869 -0.5033  0.1706 -0.0397
 8946SOL    HW138300   0.492   4.222   4.891 -0.7998  0.1847 -1.1843
 8946SOL    HW238301   0.601   4.137   4.948  0.2873 -0.2346 -0.5255
 8947SOL     OW38302   0.323   0.663   2.177  0.1802 -0.1801 -0.1887
 8947SOL    HW138303   0.297   0.577   2.144  1.0997 -0.0852 -1.1663
 8947SOL    HW238304   0.357   0.639   2.263  1.5872 -0.7005 -0.8848
 8948SOL     OW38305   4.129   4.122   7.446 -0.0513 -0.5736 -0.5004
 8948SOL    HW138306   4.212   4.091   7.483 -0.1301 -2.1131 -1.5674
 8948SOL    HW238307   4.153   4.133   7.354 -1.1185  1.2725 -0.5629
 8949SOL     OW38308   1.774   1.059  10.663 -0.2882 -0.0313  0.0658
 8949SOL    HW138309   1.786   1.079  10.571  0.5817 -0.1423  0.1562
 8949SOL    HW238310   1.701   0.997  10.662  0.6130 -1.1365  1.3615
 8950SOL     OW38311   1.095   4.354  17.564  0.3459  0.3659  0.0098
 8950SOL    HW138312   1.041   4.388  17.635 -1.8695 -1.9557 -0.5627
 8950SOL    HW238313   1.049   4.386  17.487  1.2969 -1.3541 -1.2825
 8951SOL     OW38314   2.468   0.505   6.734  0.2804  0.5740 -0.0472
 8951SOL    HW138315   2.457   0.562   6.810 -2.2263 -2.0493  1.5816
 8951SOL    HW238316   2.374   0.501   6.715  0.1474  0.7974  0.5523
 8952SOL     OW38317   0.622   1.953   6.393 -0.3651  0.4497  0.5555
 8952SOL    HW138318   0.676   1.937   6.315  0.1453 -0.1994  1.0456
 8952SOL    HW238319   0.559   1.882   6.393 -3.1059  2.8942 -0.6186
 8953SOL     OW38320   0.034   1.587  13.339  0.1340 -0.6028 -0.0721
 8953SOL    HW138321   0.111   1.564  13.391  1.3116 -0.8810 -1.9435
 8953SOL    HW238322   4.678   1.577  13.395  2.5105  0.6660  3.4459
 8954SOL     OW38323   3.003   0.740  13.391 -0.3371  0.0799  0.3621
 8954SOL    HW138324   3.040   0.826  13.412  0.5745  0.5164 -2.9756
 8954SOL    HW238325   3.086   0.694  13.378  0.5315  1.6043  0.5055
 8955SOL     OW38326   1.487   0.599   5.957 -0.1174 -0.1176  0.1704
 8955SOL    HW138327   1.401   0.573   5.924  0.7475 -1.1152 -1.2922
 8955SOL    HW238328   1.538   0.633   5.883  1.7066 -2.0542  0.5373
 8956SOL     OW38329   4.663   0.649   5.403  0.7618  0.0406  0.2877
 8956SOL    HW138330   0.004   0.629   5.474  1.3716  3.2175  0.6866
 8956SOL    HW238331   4.625   0.727   5.443 -0.2175  0.1013 -0.7678
 8957SOL     OW38332   3.767   2.880   3.639 -0.3217  0.0092 -0.4827
 8957SOL    HW138333   3.708   2.816   3.678 -0.0197 -0.9112 -1.5242
 8957SOL    HW238334   3.706   2.949   3.615 -1.8000 -1.3708 -0.6348
 8958SOL     OW38335   1.231   2.173   2.657  0.9453  0.2677  0.1275
 8958SOL    HW138336   1.160   2.224   2.619  0.5778 -0.8521 -0.6882
 8958SOL    HW238337   1.215   2.184   2.751  0.3586 -0.8755  0.1685
 8959SOL     OW38338   4.209   1.426   2.595 -0.2963  0.2242  0.2452
 8959SOL    HW138339   4.289   1.468   2.626  1.5986 -2.3870 -1.1948
 8959SOL    HW238340   4.238   1.384   2.514 -1.5006  0.0768 -0.1193
 8960SOL     OW38341   3.733   3.080   8.125 -0.0723  0.6306 -0.1582
 8960SOL    HW138342   3.825   3.097   8.104  0.6014 -0.8202  1.5711
 8960SOL    HW238343   3.728   3.126   8.209 -1.9794  0.7073 -0.3055
 8961SOL     OW38344   2.693   3.337   3.820 -0.3976 -0.2916  0.5750
 8961SOL    HW138345   2.678   3.249   3.854 -0.7267  0.3004  1.9581
 8961SOL    HW238346   2.615   3.385   3.848  0.2277  1.2899 -0.4234
 8962SOL     OW38347   2.520   2.929   5.091  0.1611  0.0243 -0.4108
 8962SOL    HW138348   2.426   2.929   5.108  0.0092 -1.4359 -1.2637
 8962SOL    HW238349   2.517   2.933   4.995 -1.2610  0.8915 -0.3267
 8963SOL     OW38350   2.030   1.372  12.981  0.0634 -0.0015  0.2496
 8963SOL    HW138351   2.093   1.328  13.039  0.3715  0.0260 -0.0639
 8963SOL    HW238352   1.942   1.347  13.007  0.2959 -0.2350  0.8065
 8964SOL     OW38353   1.583   3.769   5.179  0.4688 -0.1791 -0.7847
 8964SOL    HW138354   1.675   3.795   5.167  0.1273  2.8271  2.8780
 8964SOL    HW238355   1.535   3.852   5.188 -1.4694 -1.2179 -1.5986
 8965SOL     OW38356   3.594   3.039  14.957  0.0432  0.8329 -0.3600
 8965SOL    HW138357   3.508   3.006  14.930 -0.6369  0.6708  1.9444
 8965SOL    HW238358   3.562   3.082  15.036 -2.2991 -0.2045 -0.7498
 8966SOL     OW38359   4.230   3.018   1.362 -0.2293  0.4593  0.4223
 8966SOL    HW138360   4.318   3.037   1.395  0.3883  1.1464 -1.6590
 8966SOL    HW238361   4.201   3.109   1.358  3.0562  1.4680 -0.2239
 8967SOL     OW38362   0.099   0.600  14.610  0.4160 -0.7308  0.3546
 8967SOL    HW138363   0.010   0.574  14.632  0.5378 -1.7183 -0.3169
 8967SOL    HW238364   0.122   0.622  14.700 -0.9877  1.5361  0.1503
 8968SOL     OW38365   4.224   0.675  16.279  0.6324  0.6131 -0.1382
 8968SOL    HW138366   4.266   0.671  16.193 -0.3699 -0.4605 -0.5754
 8968SOL    HW238367   4.134   0.646  16.262  0.6871 -0.2959  1.1035
 8969SOL     OW38368   0.596   0.246  13.468 -0.0409 -0.2905 -0.5253
 8969SOL    HW138369   0.647   0.199  13.401 -1.9198 -0.1255 -2.0769
 8969SOL    HW238370   0.634   0.205  13.545 -0.2574 -1.3253 -0.9670
 8970SOL     OW38371   0.766   3.040  10.366 -0.7654  0.0786 -0.1252
 8970SOL    HW138372   0.778   2.946  10.349  0.6944  0.1650  0.4299
 8970SOL    HW238373   0.836   3.055  10.429 -1.9370 -3.2960  2.0009
 8971SOL     OW38374   3.678   3.856   9.929  0.4274 -0.0824 -0.2020
 8971SOL    HW138375   3.646   3.776   9.889 -0.5359 -1.1457  2.6411
 8971SOL    HW238376   3.753   3.831   9.984  0.2139  0.4420  0.3385
 8972SOL     OW38377   3.753   4.493   7.887 -0.3381  0.1586 -0.1235
 8972SOL    HW138378   3.675   4.530   7.928 -0.4025 -0.1078 -0.0058
 8972SOL    HW238379   3.818   4.555   7.920  0.2529 -0.1277 -0.7350
 8973SOL     OW38380   0.053   3.434   6.750 -0.2805 -0.0118  0.1788
 8973SOL    HW138381   0.148   3.440   6.759 -0.3323  1.5841 -0.3648
 8973SOL    HW238382   0.032   3.343   6.772 -2.5590  0.6165  0.6162
 8974SOL     OW38383   1.561   0.840   4.129 -0.3197  0.2638 -0.2049
 8974SOL    HW138384   1.638   0.888   4.099  0.2263 -0.4024  0.1438
 8974SOL    HW238385   1.549   0.769   4.065 -0.4859  1.3989 -1.4477
 8975SOL     OW38386   4.421   0.485   8.502  0.1720 -0.7264  0.0723
 8975SOL    HW138387   4.329   0.462   8.512 -0.0103 -0.2709 -0.5674
 8975SOL    HW238388   4.457   0.429   8.571  0.8296 -0.5859 -0.1491
 8976SOL     OW38389   1.863   0.468  13.003 -0.0840 -0.2437 -0.5747
 8976SOL    HW138390   1.904   0.382  12.995 -2.1114 -1.3784  1.2679
 8976SOL    HW238391   1.769   0.457  12.986 -0.5305 -1.3085  2.6734
 8977SOL     OW38392   2.503   4.047  12.829 -0.0701  0.4491 -0.0783
 8977SOL    HW138393   2.534   4.020  12.916  0.1150  0.6094 -0.0945
 8977SOL    HW238394   2.522   4.140  12.842 -1.4520  0.9610 -1.8115
 8978SOL     OW38395   0.405   2.033   5.606 -0.5070  0.0891  0.1235
 8978SOL    HW138396   0.338   1.977   5.567 -1.4812  0.3951  1.3543
 8978SOL    HW238397   0.405   2.005   5.698 -1.1763  0.3811  0.2142
 8979SOL     OW38398   0.198   3.642   9.592  0.9182  0.3064 -0.0392
 8979SOL    HW138399   0.208   3.714   9.654  0.1807 -0.0406  0.4857
 8979SOL    HW238400   0.233   3.570   9.644 -0.3759  1.0835  1.8875
 8980SOL     OW38401   1.204   3.088   3.642  0.2577  0.3945 -0.4129
 8980SOL    HW138402   1.223   3.163   3.697  0.9344 -0.7825  0.9489
 8980SOL    HW238403   1.109   3.096   3.633  0.4343  3.7525  0.8115
 8981SOL     OW38404   2.420   0.464   3.115 -0.4920 -0.5125  0.1640
 8981SOL    HW138405   2.515   0.468   3.126 -0.8899  1.2389  2.7922
 8981SOL    HW238406   2.396   0.423   3.198  2.6039 -0.1320  1.2298
 8982SOL     OW38407   2.205   0.770   5.572 -0.2794  0.1994 -0.1265
 8982SOL    HW138408   2.271   0.701   5.581 -0.4223  0.3004  1.7142
 8982SOL    HW238409   2.136   0.721   5.527 -0.7105  1.2711 -0.6189
 8983SOL     OW38410   3.453   3.438   2.252  0.2397 -0.2267  0.1374
 8983SOL    HW138411   3.508   3.436   2.174  0.2726 -1.1332  0.1736
 8983SOL    HW238412   3.481   3.360   2.300 -2.8252 -2.3385 -1.4606
 8984SOL     OW38413   0.101   3.739   5.050 -0.2536  0.0852  0.2522
 8984SOL    HW138414   0.156   3.818   5.046  1.0874 -0.9153 -1.0508
 8984SOL    HW238415   0.044   3.766   5.122  1.5450  1.8981  1.0052
 8985SOL     OW38416   4.349   3.770  11.137 -0.2255 -0.3711  0.1162
 8985SOL    HW138417   4.368   3.854  11.178 -1.1730  0.0501 -0.3212
 8985SOL    HW238418   4.254   3.769  11.123 -0.5287  1.0232  2.1015
 8986SOL     OW38419   1.703   1.216   7.734 -0.4594 -0.0273 -0.6655
 8986SOL    HW138420   1.690   1.310   7.746  0.8699 -0.0866  1.1085
 8986SOL    HW238421   1.769   1.215   7.665  1.1862 -1.5398  0.9440
 8987SOL     OW38422   1.730   2.804   3.908  0.1599 -0.4147 -0.0851
 8987SOL    HW138423   1.641   2.780   3.880  0.6284 -1.2191 -0.8792
 8987SOL    HW238424   1.783   2.761   3.841 -1.0334 -1.2481 -0.5067
 8988SOL     OW38425   1.796   4.422   9.848 -0.0192  0.1940  0.3186
 8988SOL    HW138426   1.723   4.479   9.873 -0.8961 -0.1548 -1.4963
 8988SOL    HW238427   1.860   4.432   9.919  0.9817  0.8189 -0.6635
 8989SOL     OW38428   2.345   0.180   4.113  0.2836 -0.5975  0.1369
 8989SOL    HW138429   2.353   0.086   4.097 -1.5206 -0.4696 -1.4144
 8989SOL    HW238430   2.268   0.200   4.060 -0.4284 -2.3329  0.5161
 8990SOL     OW38431   1.091   2.073   3.427 -0.1603  0.1851 -0.0140
 8990SOL    HW138432   1.089   2.138   3.357  0.5562 -0.3100 -0.5012
 8990SOL    HW238433   1.099   1.998   3.367  0.7529 -0.1735  0.5498
 8991SOL     OW38434   1.303   3.165   4.024 -0.2755 -0.1007  0.2427
 8991SOL    HW138435   1.297   3.227   3.952 -0.2588 -1.1309 -0.6488
 8991SOL    HW238436   1.395   3.163   4.048 -0.4038 -2.9542  0.5655
 8992SOL     OW38437   0.779   0.350   4.721  0.1466 -0.5603  0.2715
 8992SOL    HW138438   0.699   0.400   4.701  0.5979 -0.5829 -1.5439
 8992SOL    HW238439   0.791   0.362   4.816  2.7851 -1.2120  0.0186
 8993SOL     OW38440   3.455   2.026   9.450  0.0039 -0.1047 -0.3370
 8993SOL    HW138441   3.376   2.065   9.413 -0.3031 -1.7712 -1.4695
 8993SOL    HW238442   3.433   2.019   9.543  0.5226 -1.4180 -0.3118
 8994SOL     OW38443   0.687   0.593   0.163  0.4101  0.0036  0.1296
 8994SOL    HW138444   0.605   0.578   0.118  2.0067 -1.7877 -2.1863
 8994SOL    HW238445   0.676   0.682   0.196 -1.4414 -0.1033 -0.2164
 8995SOL     OW38446   4.124   2.310   9.939  0.5026 -0.1340 -0.7368
 8995SOL    HW138447   4.072   2.305   9.859  0.9736  1.8308 -1.1601
 8995SOL    HW238448   4.132   2.216   9.953  0.6758  0.2256  1.6939
 8996SOL     OW38449   3.529   4.441   8.793 -0.0429 -0.5247  0.0843
 8996SOL    HW138450   3.436   4.453   8.813 -0.1295  1.3234 -1.3748
 8996SOL    HW238451   3.525   4.356   8.749  0.0631 -1.4659  1.9203
 8997SOL     OW38452   1.861   4.480   4.498  0.5872 -0.2941  0.3294
 8997SOL    HW138453   1.809   4.502   4.575  1.0831 -0.1508  0.6257
 8997SOL    HW238454   1.804   4.532   4.441 -0.9876 -1.3181  0.9671
 8998SOL     OW38455   2.322   2.255  17.332 -0.3426  0.5319  0.1922
 8998SOL    HW138456   2.405   2.301  17.345 -0.2677  0.8425 -1.3139
 8998SOL    HW238457   2.307   2.216  17.418  1.0880  0.9489  0.6400
 8999SOL     OW38458   0.986   3.169   5.633  0.6183  0.0871 -0.5270
 8999SOL    HW138459   0.912   3.172   5.572  0.2899  1.6061 -0.0579
 8999SOL    HW238460   0.941   3.194   5.714  0.7284 -1.3886  0.0034
 9000SOL     OW38461   0.579   1.142  15.919 -0.2185  0.1176  0.2846
 9000SOL    HW138462   0.549   1.057  15.950 -0.7983  0.8281  1.6533
 9000SOL    HW238463   0.563   1.123  15.826 -0.7416 -2.0817  0.8454
 9001SOL     OW38464   0.665   3.350   8.577 -0.0778 -0.2849  0.0844
 9001SOL    HW138465   0.624   3.432   8.604  1.8668  0.1875  1.5814
 9001SOL    HW238466   0.757   3.376   8.573 -0.3764  0.9953  1.5160
 9002SOL     OW38467   3.974   4.484   5.283 -0.3847  0.3730 -0.1771
 9002SOL    HW138468   3.988   4.494   5.189 -0.3644  0.5521 -0.1558
 9002SOL    HW238469   3.958   4.572   5.317  0.7626  0.1974  0.8314
 9003SOL     OW38470   0.350   3.015   6.955 -0.0144 -0.0607  0.2222
 9003SOL    HW138471   0.413   3.061   7.011 -1.3772  1.2940  0.6110
 9003SOL    HW238472   0.294   3.086   6.925 -0.1687  0.2382  1.2297
 9004SOL     OW38473   1.897   1.946  17.621 -0.4919 -0.2086 -0.0668
 9004SOL    HW138474   1.990   1.928  17.634 -0.5763 -0.3756  0.3277
 9004SOL    HW238475   1.894   2.003  17.545  0.0278  0.0165  0.0824
 9005SOL     OW38476   2.169   4.692  16.645  1.1882  0.2115 -0.2311
 9005SOL    HW138477   2.092   4.704  16.588  1.6103 -0.1501 -0.8791
 9005SOL    HW238478   2.159   0.039  16.712  0.4175 -0.8524  0.7263
 9006SOL     OW38479   3.838   2.214   3.835 -0.3141 -0.2174  0.2315
 9006SOL    HW138480   3.873   2.222   3.747 -1.5003  2.1334 -0.0213
 9006SOL    HW238481   3.918   2.221   3.888 -0.8467  1.4616  0.8250
 9007SOL     OW38482   0.339   1.666   5.646  0.1114 -0.2163  0.0492
 9007SOL    HW138483   0.392   1.656   5.566  0.0786 -2.1266  0.2842
 9007SOL    HW238484   0.252   1.643   5.615  0.2675  1.0334 -1.3427
 9008SOL     OW38485   0.651   2.909   5.350  0.2908 -0.2293 -0.2841
 9008SOL    HW138486   0.740   2.878   5.332  1.0559  1.7694 -0.0266
 9008SOL    HW238487   0.598   2.837   5.317 -1.8399  0.3740  1.7595
 9009SOL     OW38488   1.041   2.354  14.178 -0.0668 -0.4560  0.5976
 9009SOL    HW138489   1.018   2.383  14.267  0.8599  1.5178  0.1942
 9009SOL    HW238490   0.968   2.299  14.150  1.5785 -2.5703  0.4783
 9010SOL     OW38491   0.624   3.066   5.851  0.0794 -0.3905 -0.2349
 9010SOL    HW138492   0.610   3.012   5.929 -0.4383  1.4593  0.9619
 9010SOL    HW238493   0.535   3.091   5.830  0.4460  0.3503 -0.8730
 9011SOL     OW38494   3.616   4.224   8.231  0.1514 -0.1954 -0.2457
 9011SOL    HW138495   3.571   4.218   8.315 -1.2315 -0.0372 -0.9784
 9011SOL    HW238496   3.660   4.309   8.239  2.0590 -1.3205  1.4266
 9012SOL     OW38497   0.262   4.256   6.000  0.1318  0.0084 -0.5033
 9012SOL    HW138498   0.191   4.193   6.008 -1.4499  2.1125  2.0162
 9012SOL    HW238499   0.223   4.316   5.936 -0.6916 -0.1852 -0.1876
 9013SOL     OW38500   2.832   4.585  16.743  0.3204 -0.1782 -0.1954
 9013SOL    HW138501   2.911   4.614  16.697  0.9139  0.3040  1.0972
 9013SOL    HW238502   2.824   4.491  16.730 -0.1662 -0.3799  1.4651
 9014SOL     OW38503   3.114   2.176   2.916 -0.3156  0.1241 -0.2794
 9014SOL    HW138504   3.188   2.207   2.862 -0.7236 -0.2358 -1.0386
 9014SOL    HW238505   3.126   2.082   2.903 -0.2761 -0.3611  3.4663
 9015SOL     OW38506   2.658   3.986   7.003  0.1154 -0.4766  0.3371
 9015SOL    HW138507   2.673   4.005   6.910  0.4851 -1.9886  0.0789
 9015SOL    HW238508   2.629   4.075   7.019 -1.2705 -0.4664 -2.3707
 9016SOL     OW38509   4.400   0.649   2.565 -0.1902 -0.1986 -0.2873
 9016SOL    HW138510   4.349   0.684   2.491 -0.1883 -1.4209 -0.8684
 9016SOL    HW238511   4.347   0.575   2.592 -0.8703  0.2721 -0.3166
 9017SOL     OW38512   4.196   4.140   7.202 -0.2361 -0.4158  0.4850
 9017SOL    HW138513   4.140   4.177   7.134  0.8307  0.8447  0.3115
 9017SOL    HW238514   4.232   4.062   7.159 -0.2844 -1.0270  1.5488
 9018SOL     OW38515   1.726   1.002  14.657  0.6194  0.6806 -0.1121
 9018SOL    HW138516   1.648   0.969  14.612  0.4728  2.7391 -1.3317
 9018SOL    HW238517   1.743   0.929  14.717 -2.0644  0.8011  0.8057
 9019SOL     OW38518   4.640   2.035   7.815 -0.3977 -0.2352 -0.1390
 9019SOL    HW138519   4.670   2.016   7.726 -1.7539  0.8370 -0.8127
 9019SOL    HW238520   4.546   2.043   7.798 -0.1666  0.7192 -0.9424
 9020SOL     OW38521   0.921   1.241   7.638 -0.0748  0.2956 -0.2990
 9020SOL    HW138522   1.014   1.237   7.662 -0.7515 -3.9782  1.4696
 9020SOL    HW238523   0.916   1.163   7.584  1.8092  0.0643 -0.1511
 9021SOL     OW38524   2.810   0.211   1.149  0.3018 -0.3886  0.2721
 9021SOL    HW138525   2.850   0.296   1.129  1.0271 -0.8657 -0.3402
 9021SOL    HW238526   2.881   0.161   1.189  1.6945  0.0887 -1.5706
 9022SOL     OW38527   2.785   2.126   5.419  0.0314  0.2558 -0.0226
 9022SOL    HW138528   2.776   2.148   5.512  0.2938 -0.0756  0.0828
 9022SOL    HW238529   2.701   2.156   5.386  0.4408 -0.0733 -1.3755
 9023SOL     OW38530   4.498   4.700  15.252  0.5832  0.1326  0.7383
 9023SOL    HW138531   4.427   0.041  15.232  1.7858  1.6754  1.2196
 9023SOL    HW238532   4.565   0.047  15.265  1.7150 -1.3265  2.5550
 9024SOL     OW38533   1.659   0.788   7.596 -0.3572 -0.1163 -0.1502
 9024SOL    HW138534   1.753   0.806   7.595 -0.0219 -1.8393  0.0100
 9024SOL    HW238535   1.630   0.864   7.647  0.5463  3.3766 -4.8426
 9025SOL     OW38536   4.093   1.120   2.386  0.0296  0.4662 -0.1253
 9025SOL    HW138537   4.113   1.167   2.305  1.9167 -0.5890 -0.2689
 9025SOL    HW238538   4.153   1.168   2.443  2.0708  0.8344 -2.5731
 9026SOL     OW38539   0.961   0.837   7.268  0.0982  0.5831 -0.3702
 9026SOL    HW138540   0.881   0.850   7.216 -0.2570  1.1238  0.3163
 9026SOL    HW238541   1.027   0.880   7.214 -0.2255 -0.4971 -1.6452
 9027SOL     OW38542   3.753   3.681  17.555 -0.0233  0.4710  0.2155
 9027SOL    HW138543   3.777   3.773  17.559 -1.1747  0.7824 -0.0872
 9027SOL    HW238544   3.712   3.673  17.641  1.3468 -1.0415  0.7300
 9028SOL     OW38545   0.054   3.496   8.351 -0.2754  0.0778 -0.0127
 9028SOL    HW138546   0.083   3.423   8.405  1.1402 -0.8531 -2.0179
 9028SOL    HW238547   0.036   3.456   8.266  0.4335  0.2121 -0.2307
 9029SOL     OW38548   3.299   3.308   0.813 -0.4018  0.3333 -0.1215
 9029SOL    HW138549   3.383   3.328   0.855 -1.0645 -2.1754  2.3868
 9029SOL    HW238550   3.238   3.347   0.875 -1.0018  0.4198 -0.7657
 9030SOL     OW38551   4.285   1.541   9.185 -0.1038  0.4773  0.0103
 9030SOL    HW138552   4.269   1.616   9.242 -0.7844 -0.8024  1.5153
 9030SOL    HW238553   4.351   1.502   9.243  1.2824  4.0038  0.8429
 9031SOL     OW38554   2.749   2.532   9.432 -0.1160  0.1070  0.1339
 9031SOL    HW138555   2.751   2.436   9.433  0.2561  0.1216  0.8629
 9031SOL    HW238556   2.798   2.560   9.509 -0.3816  0.9030  0.0084
 9032SOL     OW38557   0.171   2.573   1.250 -0.6510 -0.1137 -0.2475
 9032SOL    HW138558   0.262   2.557   1.225 -0.3981  0.6875  0.1828
 9032SOL    HW238559   0.171   2.509   1.321 -2.1629 -0.1476 -0.2643
 9033SOL     OW38560   4.030   4.102   6.718 -0.2211 -0.1896 -0.1218
 9033SOL    HW138561   4.093   4.158   6.674  0.1631  1.0469  2.0040
 9033SOL    HW238562   3.966   4.094   6.647 -0.7501  0.8729  0.2363
 9034SOL     OW38563   2.512   1.546   4.250 -0.0326  0.4691 -0.2551
 9034SOL    HW138564   2.558   1.474   4.293 -1.2910 -0.1587  0.0106
 9034SOL    HW238565   2.475   1.499   4.176 -1.3614  0.3008  0.5317
 9035SOL     OW38566   3.155   2.419   7.108 -0.4235 -0.3416  0.0790
 9035SOL    HW138567   3.218   2.481   7.071 -0.5949  0.5300  1.2370
 9035SOL    HW238568   3.118   2.482   7.170 -0.8971 -0.4762 -0.0731
 9036SOL     OW38569   3.761   1.910   8.788 -0.3112 -0.1741  0.2824
 9036SOL    HW138570   3.810   1.836   8.752  0.4070  0.3909  0.0919
 9036SOL    HW238571   3.740   1.966   8.714 -1.0508  0.7188  1.1760
 9037SOL     OW38572   1.182   2.628   9.689 -0.2691 -0.7987  0.4798
 9037SOL    HW138573   1.135   2.616   9.607 -1.0171  1.9070  0.5353
 9037SOL    HW238574   1.264   2.657   9.650 -0.5558  1.0657  1.2918
 9038SOL     OW38575   3.942   3.926   6.957  0.0498  0.4986  0.0889
 9038SOL    HW138576   3.910   3.840   6.930 -0.5240  0.6884  0.1627
 9038SOL    HW238577   3.970   3.950   6.868 -1.0339 -0.0420 -0.3958
 9039SOL     OW38578   2.231   1.706  16.749  0.1144  0.8424  0.0534
 9039SOL    HW138579   2.145   1.679  16.719  0.1204  1.0923 -0.1912
 9039SOL    HW238580   2.281   1.628  16.722  0.8970  0.9686  1.1397
 9040SOL     OW38581   0.555   3.106   8.645  0.0968  0.2263  0.2856
 9040SOL    HW138582   0.599   3.081   8.726 -2.4865  0.2594  1.6833
 9040SOL    HW238583   0.606   3.186   8.631 -0.4812  0.3757 -0.9715
 9041SOL     OW38584   1.465   3.870   8.804 -0.1967 -0.3221  0.0635
 9041SOL    HW138585   1.399   3.823   8.854 -2.0563  0.1399 -1.9522
 9041SOL    HW238586   1.546   3.861   8.855  0.1487 -0.9094 -0.5922
 9042SOL     OW38587   1.903   1.902  14.573  0.0247 -0.0314  0.2175
 9042SOL    HW138588   1.830   1.921  14.514  0.0173  1.5681  0.7147
 9042SOL    HW238589   1.956   1.981  14.561  0.5786 -0.5352 -0.5849
 9043SOL     OW38590   0.081   4.307   5.519  0.7274  0.1369  0.2753
 9043SOL    HW138591   0.059   4.214   5.511 -1.4665  0.5414  1.6964
 9043SOL    HW238592   0.074   4.322   5.424 -1.7702 -2.6728  0.0127
 9044SOL     OW38593   0.887   0.292  16.014 -0.0238  0.1911 -0.2988
 9044SOL    HW138594   0.981   0.292  16.034 -0.4996  0.7668  1.8923
 9044SOL    HW238595   0.869   0.209  15.969  2.3371 -1.7198  2.3318
 9045SOL     OW38596   3.209   0.582   7.779 -0.1218 -0.2156  0.1990
 9045SOL    HW138597   3.200   0.568   7.685  0.7619 -2.3270  0.4379
 9045SOL    HW238598   3.158   0.510   7.814  0.1419  0.4705  1.9850
 9046SOL     OW38599   1.255   2.429  11.173 -0.4193 -0.3666 -0.0186
 9046SOL    HW138600   1.263   2.409  11.266  0.6453  0.6301  0.0981
 9046SOL    HW238601   1.311   2.506  11.179  1.2674 -1.6152  0.0032
 9047SOL     OW38602   3.816   2.533   7.502  0.3884  0.1870 -0.2422
 9047SOL    HW138603   3.776   2.617   7.524 -0.3660 -0.0439 -0.7330
 9047SOL    HW238604   3.855   2.564   7.420  1.7159  0.8362  0.6242
 9048SOL     OW38605   1.166   4.546   3.406 -0.7868  0.1846 -0.8978
 9048SOL    HW138606   1.191   4.593   3.327  0.9584  0.5395 -0.1290
 9048SOL    HW238607   1.071   4.545   3.394 -0.6809  0.1000 -1.7307
 9049SOL     OW38608   0.271   2.830   4.533 -0.1203 -0.1099  0.6431
 9049SOL    HW138609   0.194   2.812   4.480  0.4672  0.0600 -0.2741
 9049SOL    HW238610   0.241   2.803   4.619  2.1453 -0.5650  1.2886
 9050SOL     OW38611   3.958   1.870  16.090  0.3433 -0.1176 -0.2249
 9050SOL    HW138612   4.000   1.856  16.175  2.7311  0.3384 -1.3070
 9050SOL    HW238613   3.959   1.777  16.065 -0.3805 -0.5421  1.3434
 9051SOL     OW38614   1.540   1.325   4.418  0.1520 -0.2893  0.4737
 9051SOL    HW138615   1.479   1.273   4.472 -2.1808  0.4321 -1.4743
 9051SOL    HW238616   1.498   1.333   4.333  0.2388 -0.0963  0.4505
 9052SOL     OW38617   1.339   2.277   3.582 -0.1384 -0.4231 -0.3250
 9052SOL    HW138618   1.390   2.208   3.625  0.9033  1.5892  1.6419
 9052SOL    HW238619   1.369   2.357   3.624 -0.1756 -0.5466 -0.0635
 9053SOL     OW38620   2.056   0.050   5.673 -0.9577 -0.4662 -0.0141
 9053SOL    HW138621   2.073   0.020   5.584  1.5823  2.9967 -0.7216
 9053SOL    HW238622   2.023   0.138   5.655 -0.3456 -0.3298 -0.4812
 9054SOL     OW38623   1.992   3.113   5.583 -0.4063 -0.0940 -0.6607
 9054SOL    HW138624   2.066   3.060   5.614 -1.2078 -0.5255  0.4750
 9054SOL    HW238625   1.915   3.061   5.605  0.7309 -2.1870 -1.6306
 9055SOL     OW38626   2.959   2.411   3.062 -0.1912 -0.5049  0.2532
 9055SOL    HW138627   3.028   2.372   3.115 -1.2008 -0.0840  1.8916
 9055SOL    HW238628   3.012   2.474   3.014  0.4034 -1.5834 -0.4879
 9056SOL     OW38629   4.644   2.365   1.616 -0.2851 -0.1330 -0.3908
 9056SOL    HW138630   4.670   2.337   1.528 -0.3124 -0.7330 -0.2082
 9056SOL    HW238631   4.549   2.370   1.608 -0.2849  1.1415  0.5754
 9057SOL     OW38632   0.267   2.237   4.254 -0.1446 -0.5843  0.1399
 9057SOL    HW138633   0.252   2.301   4.324 -1.2462 -0.7297  0.0372
 9057SOL    HW238634   0.327   2.292   4.205  0.6658 -1.2662  0.3732
 9058SOL     OW38635   1.864   0.560   5.672 -0.0586 -0.1060 -0.6595
 9058SOL    HW138636   1.870   0.601   5.758  0.2345 -0.9765 -0.2677
 9058SOL    HW238637   1.843   0.635   5.615  0.8660 -0.7070 -1.8123
 9059SOL     OW38638   0.471   0.266   3.146  0.6969  0.2085  0.8903
 9059SOL    HW138639   0.498   0.322   3.219 -1.6949 -0.3612  2.2221
 9059SOL    HW238640   0.403   0.226   3.202 -0.6494  2.9049  1.1693
 9060SOL     OW38641   1.719   1.369  14.104  0.1821 -0.0859  0.1077
 9060SOL    HW138642   1.744   1.443  14.049 -1.2142  2.2642  2.6763
 9060SOL    HW238643   1.625   1.367  14.083 -0.2144 -1.1344  1.9486
 9061SOL     OW38644   2.051   3.683   7.089  0.5764 -0.1954  0.2582
 9061SOL    HW138645   2.014   3.664   7.175  1.7786 -2.3488  0.3055
 9061SOL    HW238646   2.128   3.737   7.108  0.4639  0.3394 -0.8099
 9062SOL     OW38647   2.278   4.399   2.975 -0.1907  0.0693 -0.4724
 9062SOL    HW138648   2.355   4.439   2.934 -0.8520  1.4366 -0.3646
 9062SOL    HW238649   2.274   4.315   2.928 -0.2374 -0.8904  1.2224
 9063SOL     OW38650   2.026   2.737   3.558 -0.3226 -0.3547 -0.3719
 9063SOL    HW138651   2.018   2.827   3.527  0.8924  0.8387  2.7293
 9063SOL    HW238652   2.068   2.707   3.478 -2.4735  2.6030 -2.6190
 9064SOL     OW38653   0.946   0.850  16.546 -0.3905  0.0541 -0.4057
 9064SOL    HW138654   0.857   0.884  16.536 -1.2134 -2.5714 -1.8584
 9064SOL    HW238655   0.942   0.776  16.486 -0.3966  0.7094 -1.2226
 9065SOL     OW38656   1.891   0.892   8.839 -0.2183  0.1388 -0.0453
 9065SOL    HW138657   1.857   0.846   8.916  2.4208 -1.8730 -0.0861
 9065SOL    HW238658   1.833   0.967   8.823  0.5685  0.6264 -0.6412
 9066SOL     OW38659   2.638   0.326   4.903  0.0895  0.2457 -0.5104
 9066SOL    HW138660   2.683   0.250   4.938  2.0499  1.1635 -1.0658
 9066SOL    HW238661   2.621   0.304   4.812  0.0123  0.9506 -0.6658
 9067SOL     OW38662   0.440   3.529   0.744  0.2142 -0.2175 -0.0996
 9067SOL    HW138663   0.454   3.438   0.770 -1.5925 -0.5412 -0.2868
 9067SOL    HW238664   0.499   3.578   0.800 -1.0461  0.1594  0.8912
 9068SOL     OW38665   2.134   0.372   7.495  0.1021 -0.2684  0.2494
 9068SOL    HW138666   2.193   0.354   7.569 -1.3269  1.4320  1.8069
 9068SOL    HW238667   2.114   0.285   7.462 -3.5176 -0.2438  2.3744
 9069SOL     OW38668   2.395   3.911   4.926  0.2352 -0.3597 -0.3407
 9069SOL    HW138669   2.351   3.973   4.867 -1.5875 -2.0332 -0.7466
 9069SOL    HW238670   2.374   3.954   5.009 -1.7503 -0.6272 -0.7090
 9070SOL     OW38671   3.573   2.583  15.758 -0.1795 -0.2828 -0.2161
 9070SOL    HW138672   3.496   2.533  15.784  0.1428 -0.2034  0.9021
 9070SOL    HW238673   3.631   2.519  15.717  0.3993  0.1462 -0.0677
 9071SOL     OW38674   1.825   0.123  10.167 -0.2703 -0.8483  0.2443
 9071SOL    HW138675   1.867   0.107  10.083 -0.1062  1.7865 -0.1709
 9071SOL    HW238676   1.857   0.213  10.171  0.0973 -1.0681  2.2741
 9072SOL     OW38677   2.412   2.598  12.310 -0.0536  0.3416 -0.3093
 9072SOL    HW138678   2.494   2.556  12.334  0.0724 -0.1825 -1.6779
 9072SOL    HW238679   2.354   2.525  12.291  0.7366 -0.4207  0.2295
 9073SOL     OW38680   4.025   1.489   9.147  0.4466  0.6487  0.3697
 9073SOL    HW138681   4.008   1.398   9.120  0.3635  0.8638 -0.3117
 9073SOL    HW238682   4.120   1.502   9.157  1.0019  1.0833 -4.9699
 9074SOL     OW38683   0.553   2.367   8.875  0.2442  0.3412  0.1391
 9074SOL    HW138684   0.470   2.411   8.858  1.1995  1.5266 -1.5011
 9074SOL    HW238685   0.577   2.350   8.784  1.3392 -0.5022  0.5955
 9075SOL     OW38686   0.613   3.454   7.407  0.6450  0.0362 -0.1033
 9075SOL    HW138687   0.523   3.442   7.439  1.1928 -0.6078  1.1750
 9075SOL    HW238688   0.625   3.546   7.428 -0.4787  0.0525  0.4859
 9076SOL     OW38689   0.725   2.232   7.796 -0.0611  0.0450 -0.7118
 9076SOL    HW138690   0.766   2.169   7.855 -0.7294 -2.5530 -3.0149
 9076SOL    HW238691   0.674   2.173   7.741 -0.0186 -2.4483  1.8931
 9077SOL     OW38692   0.093   0.207   2.050  0.1113 -0.1644 -0.1453
 9077SOL    HW138693   0.035   0.135   2.074  3.0580 -3.0089 -1.4938
 9077SOL    HW238694   0.029   0.259   2.002 -0.0786  0.8261  1.1845
 9078SOL     OW38695   1.879   2.227   8.824  0.4848  0.3045 -0.3022
 9078SOL    HW138696   1.966   2.235   8.864  0.4148  0.4269 -0.1748
 9078SOL    HW238697   1.846   2.154   8.877 -1.8849  0.9334 -0.9276
 9079SOL     OW38698   0.334   0.924   7.877  0.3508  0.1549  0.2340
 9079SOL    HW138699   0.371   1.004   7.915 -1.7097  1.3908 -0.3653
 9079SOL    HW238700   0.398   0.891   7.813 -0.4091 -1.7309  0.4415
 9080SOL     OW38701   4.483   4.362   1.618 -0.0072 -0.0797  0.2606
 9080SOL    HW138702   4.473   4.391   1.527 -0.8258  2.0687  1.0441
 9080SOL    HW238703   4.481   4.446   1.663 -1.7796 -0.8518  1.5875
 9081SOL     OW38704   1.535   1.619   4.400  0.1348 -0.2326  0.3208
 9081SOL    HW138705   1.460   1.616   4.459 -0.3608  0.1868 -0.2770
 9081SOL    HW238706   1.565   1.528   4.401 -0.4432 -0.4076  1.5289
 9082SOL     OW38707   2.399   1.037  10.441 -0.0010 -0.1735 -0.3493
 9082SOL    HW138708   2.444   1.004  10.363 -1.0381 -1.1282 -0.5455
 9082SOL    HW238709   2.312   1.003  10.422 -0.0084  0.2039 -0.9887
 9083SOL     OW38710   1.143   2.656  14.279 -0.3013 -0.4761 -0.0680
 9083SOL    HW138711   1.073   2.644  14.215 -0.2040  1.6217 -0.5574
 9083SOL    HW238712   1.214   2.652  14.214  0.4089  1.0743  0.6235
 9084SOL     OW38713   1.290   3.728  10.258 -0.0578  0.2101  0.5566
 9084SOL    HW138714   1.383   3.751  10.253  0.2066 -1.4694 -2.3576
 9084SOL    HW238715   1.251   3.759  10.176 -1.8085 -3.7875 -0.0986
 9085SOL     OW38716   1.480   0.172  16.771 -0.0990  0.2233 -0.2615
 9085SOL    HW138717   1.439   0.091  16.802  2.3270 -0.9212 -0.0487
 9085SOL    HW238718   1.418   0.238  16.802  0.1735  0.0489  0.6640
 9086SOL     OW38719   4.138   1.195   4.889 -0.1258 -0.1542  0.2045
 9086SOL    HW138720   4.049   1.230   4.879 -0.0392 -0.0084 -0.0540
 9086SOL    HW238721   4.153   1.164   4.800  0.4830  0.7210  0.0091
 9087SOL     OW38722   2.327   1.095   4.854  0.2290  0.1359  0.1591
 9087SOL    HW138723   2.293   1.126   4.938  1.9723 -0.9639  1.2514
 9087SOL    HW238724   2.371   1.012   4.869  3.2308  1.9463  1.4927
 9088SOL     OW38725   3.494   2.911  11.027 -0.1403  0.0654  0.1123
 9088SOL    HW138726   3.503   2.982  10.964  1.9152  0.8853  1.3337
 9088SOL    HW238727   3.411   2.939  11.065 -1.2970 -0.9853 -1.6473
 9089SOL     OW38728   4.385   0.779  10.476 -0.2122  0.0823 -0.1245
 9089SOL    HW138729   4.389   0.761  10.382 -0.2980 -2.3361  0.3266
 9089SOL    HW238730   4.352   0.869  10.474 -1.7254 -0.5131 -1.8986
 9090SOL     OW38731   3.443   1.334   3.490 -0.0647 -0.1819  0.0741
 9090SOL    HW138732   3.448   1.266   3.422 -1.6063 -0.3168  0.0899
 9090SOL    HW238733   3.373   1.301   3.547  1.6648 -1.0289  1.6786
 9091SOL     OW38734   3.910   4.090   4.093  0.2631  0.0221 -0.4383
 9091SOL    HW138735   3.940   4.063   4.180 -0.6094  2.1389  0.5195
 9091SOL    HW238736   3.893   4.182   4.110 -0.4695 -0.4366  1.2797
 9092SOL     OW38737   2.193   1.984   8.438 -0.0577 -0.2505  0.3415
 9092SOL    HW138738   2.099   1.994   8.419 -0.1728 -0.8480  0.5706
 9092SOL    HW238739   2.221   2.069   8.469 -3.7771  1.6342 -1.4192
 9093SOL     OW38740   2.939   4.499   8.797  0.1092 -0.7036  0.3677
 9093SOL    HW138741   2.871   4.530   8.857 -1.7158 -0.3846 -1.8307
 9093SOL    HW238742   2.929   4.557   8.722  1.0938  0.6563  1.3014
 9094SOL     OW38743   0.102   2.382  10.095  0.1845 -0.1043  0.4799
 9094SOL    HW138744   0.185   2.429  10.098  0.2170 -0.1034 -0.5124
 9094SOL    HW238745   0.078   2.367  10.187  0.0979 -0.3819  0.4137
 9095SOL     OW38746   3.369   2.812   8.300  0.1063  0.1982  0.0050
 9095SOL    HW138747   3.452   2.823   8.347 -1.2881  1.7472  2.1105
 9095SOL    HW238748   3.312   2.809   8.377  0.9600  1.0683  0.6738
 9096SOL     OW38749   4.646   4.397   5.928  0.2717  0.3742  0.2625
 9096SOL    HW138750   4.637   4.336   6.000 -2.6815 -1.2585 -1.4960
 9096SOL    HW238751   4.596   4.357   5.857 -0.9475 -0.2240  1.4706
 9097SOL     OW38752   1.817   4.288   6.908 -0.0709  0.0604  0.1207
 9097SOL    HW138753   1.878   4.362   6.911  0.9800 -0.8367  0.5557
 9097SOL    HW238754   1.736   4.322   6.869  0.0924 -1.6081 -1.6710
 9098SOL     OW38755   2.268   3.598  11.685 -0.2709 -0.0805  0.0688
 9098SOL    HW138756   2.277   3.581  11.778  3.2479 -1.2434 -0.4814
 9098SOL    HW238757   2.356   3.632  11.669 -0.1487 -0.5723 -0.2932
 9099SOL     OW38758   3.049   1.660   7.298 -0.2211  0.0617 -0.0982
 9099SOL    HW138759   2.963   1.673   7.258 -0.7390 -0.1830  0.9223
 9099SOL    HW238760   3.061   1.741   7.347 -0.4668  0.1043 -0.1078
 9100SOL     OW38761   1.386   0.341   3.974 -0.8650  0.5797  0.0405
 9100SOL    HW138762   1.388   0.359   3.880 -1.1317  0.4028  0.0022
 9100SOL    HW238763   1.355   0.251   3.981 -1.6439  0.8381 -0.1300
 9101SOL     OW38764   2.067   2.618   8.087  0.4130  0.3492 -0.4045
 9101SOL    HW138765   2.069   2.591   8.178 -0.1005  2.9323  0.3670
 9101SOL    HW238766   2.010   2.549   8.054 -0.2023  0.5721  0.1948
 9102SOL     OW38767   0.363   0.937   5.064  0.2800  0.5571 -0.2534
 9102SOL    HW138768   0.352   0.875   4.992 -1.1510 -0.6756  1.0032
 9102SOL    HW238769   0.440   0.981   5.029  1.3888 -2.7547 -1.9162
 9103SOL     OW38770   1.263   2.471   7.024  0.6452 -0.8007 -0.0589
 9103SOL    HW138771   1.351   2.499   7.000  0.5320 -0.1336  0.3083
 9103SOL    HW238772   1.281   2.381   7.049 -0.8398 -0.5403  1.9792
 9104SOL     OW38773   2.706   3.550   7.208 -0.0112 -0.6327 -0.9643
 9104SOL    HW138774   2.764   3.486   7.168 -0.0440  0.2261 -2.3596
 9104SOL    HW238775   2.629   3.501   7.239  0.6601 -0.5409  0.8814
 9105SOL     OW38776   0.440   0.187   4.687  0.1681 -0.1099 -0.2347
 9105SOL    HW138777   0.365   0.155   4.637  1.3818 -2.6594 -0.3944
 9105SOL    HW238778   0.439   0.113   4.747 -1.0660  0.2542  0.1972
 9106SOL     OW38779   2.443   3.256   3.300  0.4453 -0.3207 -0.2583
 9106SOL    HW138780   2.468   3.163   3.309  0.8344 -0.2286 -0.3968
 9106SOL    HW238781   2.502   3.296   3.237 -0.4175 -1.2583 -1.6642
 9107SOL     OW38782   3.919   4.620   4.175  0.0732 -0.3926  0.0477
 9107SOL    HW138783   3.929   4.673   4.254 -0.9389  1.3933 -0.9953
 9107SOL    HW238784   3.896   4.535   4.212 -0.2604  0.0179  0.7877
 9108SOL     OW38785   0.396   4.423   4.698  0.0647 -0.7152 -0.5335
 9108SOL    HW138786   0.403   4.339   4.745 -0.1988 -0.3975  0.0728
 9108SOL    HW238787   0.302   4.433   4.685 -0.0681  1.0437  1.8830
 9109SOL     OW38788   1.379   1.170   0.475  0.6012  0.5130  0.2602
 9109SOL    HW138789   1.437   1.126   0.413 -0.6211 -1.4555  0.5208
 9109SOL    HW238790   1.330   1.095   0.509 -1.2303  1.0437 -1.1923
 9110SOL     OW38791   3.974   0.220  17.354 -0.3441  0.1441  0.1199
 9110SOL    HW138792   3.987   0.168  17.274  1.8914 -1.3793  1.4662
 9110SOL    HW238793   3.949   0.160  17.424 -2.2831  0.3873 -0.3825
 9111SOL     OW38794   3.594   1.809   3.836  0.1547 -0.8230 -0.0758
 9111SOL    HW138795   3.674   1.758   3.846  0.0126 -0.8648  0.8184
 9111SOL    HW238796   3.541   1.791   3.913  0.3002 -0.8786  0.0109
 9112SOL     OW38797   0.538   4.529   0.834 -0.4804 -0.3546  0.7833
 9112SOL    HW138798   0.545   4.498   0.744  0.8408  2.7542 -0.1613
 9112SOL    HW238799   0.492   4.609   0.809 -0.6294 -0.0239  2.1175
 9113SOL     OW38800   3.012   2.427   2.513 -0.0218  0.8801 -0.1095
 9113SOL    HW138801   2.945   2.495   2.523 -1.3715 -0.3407 -0.8421
 9113SOL    HW238802   3.081   2.469   2.461 -0.5258  2.1040  0.2364
 9114SOL     OW38803   0.523   1.273   8.598  0.0256 -0.0121  0.3472
 9114SOL    HW138804   0.566   1.321   8.669  0.1645  1.4320 -0.6952
 9114SOL    HW238805   0.553   1.323   8.522  4.2758 -1.7555  0.8883
 9115SOL     OW38806   4.059   1.358   8.089 -0.1523 -0.2906 -0.1430
 9115SOL    HW138807   3.965   1.376   8.084 -0.0296 -0.1677 -1.8397
 9115SOL    HW238808   4.095   1.447   8.085  1.2207 -0.7083  2.6055
 9116SOL     OW38809   2.913   1.946   3.831  0.0881  0.2180 -0.0432
 9116SOL    HW138810   2.997   1.903   3.844  0.4605  1.2367  0.8931
 9116SOL    HW238811   2.928   2.026   3.881 -2.1673  1.5087 -1.4249
 9117SOL     OW38812   2.909   3.342   6.702 -0.2294 -0.0237 -0.2869
 9117SOL    HW138813   2.869   3.425   6.730 -0.2099 -0.5409  1.2270
 9117SOL    HW238814   2.836   3.295   6.662  1.2035 -0.2130 -2.6826
 9118SOL     OW38815   0.789   3.835  11.929  0.7622  0.6324 -0.0277
 9118SOL    HW138816   0.859   3.865  11.871  0.1488 -2.1139 -2.1688
 9118SOL    HW238817   0.838   3.769  11.977 -0.8297  1.6890  3.0925
 9119SOL     OW38818   2.485   4.545   0.768 -0.1963 -0.0248  0.6396
 9119SOL    HW138819   2.461   4.574   0.856 -1.9370  0.8004 -0.1047
 9119SOL    HW238820   2.498   4.629   0.725 -2.7243  0.9040  1.6875
 9120SOL     OW38821   3.032   0.206   3.587  0.0577 -0.2489  0.1864
 9120SOL    HW138822   2.939   0.188   3.573  0.0585 -1.4079  1.6909
 9120SOL    HW238823   3.056   0.270   3.520 -0.0589  0.9118  1.2530
 9121SOL     OW38824   0.843   2.103   2.893  0.3557  0.3915  0.2805
 9121SOL    HW138825   0.844   2.037   2.823 -1.6458  0.2912  0.3572
 9121SOL    HW238826   0.862   2.063   2.977  0.3444 -1.0100 -0.3835
 9122SOL     OW38827   0.446   2.584   2.802 -0.3442 -0.2767  0.1895
 9122SOL    HW138828   0.409   2.659   2.848  0.1376  0.9252 -1.4069
 9122SOL    HW238829   0.490   2.554   2.882 -0.2448  0.1634  0.3015
 9123SOL     OW38830   2.484   4.340   7.590 -0.0255  0.1660 -0.0994
 9123SOL    HW138831   2.455   4.429   7.611 -3.2780 -0.6399 -1.2568
 9123SOL    HW238832   2.579   4.349   7.600 -0.2849  1.0931  1.5371
 9124SOL     OW38833   1.109   0.133  13.768  0.5738 -0.4537  0.3967
 9124SOL    HW138834   1.037   0.083  13.805  0.4275 -0.2093  0.4421
 9124SOL    HW238835   1.134   0.171  13.852  0.6449  1.7288 -0.6201
 9125SOL     OW38836   4.396   1.193   6.126 -0.1038 -0.1458  0.3338
 9125SOL    HW138837   4.406   1.252   6.200  1.6115  0.7340 -0.5773
 9125SOL    HW238838   4.305   1.174   6.148 -0.1745 -0.2849 -0.0660
 9126SOL     OW38839   1.427   3.594   6.122 -0.9972 -0.1675 -0.1443
 9126SOL    HW138840   1.339   3.629   6.110 -1.2912  0.0675  2.6731
 9126SOL    HW238841   1.436   3.546   6.040 -3.2461  0.4347 -0.7183
 9127SOL     OW38842   2.666   3.144   9.511 -0.4745 -0.0410  0.1005
 9127SOL    HW138843   2.617   3.225   9.528 -1.7097 -0.4827 -1.3879
 9127SOL    HW238844   2.590   3.086   9.511  0.6371 -1.4918  0.7510
 9128SOL     OW38845   4.008   3.822   6.514  0.4453 -0.5135 -0.3599
 9128SOL    HW138846   3.972   3.911   6.520  2.8437  0.3549  1.3291
 9128SOL    HW238847   3.930   3.768   6.503 -0.4983  1.3277 -2.8036
 9129SOL     OW38848   2.915   3.621   8.759  0.5677  0.2392 -0.2362
 9129SOL    HW138849   2.989   3.655   8.810 -0.1268  1.9742 -0.3920
 9129SOL    HW238850   2.928   3.673   8.679  1.0672 -0.7438 -0.7914
 9130SOL     OW38851   0.611   4.508   4.182  0.1803  0.0403 -0.3101
 9130SOL    HW138852   0.596   4.442   4.115  0.0757 -1.2505  0.9882
 9130SOL    HW238853   0.558   4.470   4.252  1.3235  1.0381  1.1006
 9131SOL     OW38854   0.099   2.466   0.485  0.2854  0.2595 -0.2968
 9131SOL    HW138855   0.095   2.467   0.580  0.9974 -1.9077 -0.2323
 9131SOL    HW238856   0.183   2.512   0.477 -1.5129  3.2929 -1.7311
 9132SOL     OW38857   2.600   2.350   6.773 -0.2064 -0.4858 -0.1605
 9132SOL    HW138858   2.536   2.385   6.835 -0.2347  4.0507 -2.7537
 9132SOL    HW238859   2.676   2.389   6.816  1.6839  0.6322 -4.5695
 9133SOL     OW38860   1.562   3.320   9.245 -0.3602  0.0706 -0.5950
 9133SOL    HW138861   1.655   3.306   9.227  0.1586  1.1289  1.2037
 9133SOL    HW238862   1.565   3.271   9.327  1.9597 -1.4092 -1.5579
 9134SOL     OW38863   0.659   1.298   0.415 -0.4805  0.3427 -0.4422
 9134SOL    HW138864   0.570   1.327   0.396  0.0557  1.0303 -1.8613
 9134SOL    HW238865   0.675   1.368   0.478 -1.4089 -0.1662  0.3663
 9135SOL     OW38866   3.311   2.012   5.496  0.3781  0.2227 -0.2745
 9135SOL    HW138867   3.289   1.932   5.545 -1.9258  1.2663  0.3626
 9135SOL    HW238868   3.393   2.041   5.536  0.6856 -1.2433  0.1965
 9136SOL     OW38869   3.809   2.114   4.647 -0.0296  0.0661  0.4022
 9136SOL    HW138870   3.762   2.038   4.681  0.2509 -0.2446  0.0885
 9136SOL    HW238871   3.810   2.094   4.553  0.4799  0.9789  0.2144
 9137SOL     OW38872   4.627   1.118   3.258  0.2719  0.0959  0.3167
 9137SOL    HW138873   4.567   1.188   3.231 -0.4236 -0.6885 -0.1367
 9137SOL    HW238874   4.707   1.146   3.214 -1.2306  0.1085 -2.4000
 9138SOL     OW38875   0.552   0.611   6.193 -0.1759 -0.1348  0.9066
 9138SOL    HW138876   0.462   0.642   6.188 -0.8991 -2.1680  1.4951
 9138SOL    HW238877   0.548   0.525   6.151  1.6121  0.6322 -0.8069
 9139SOL     OW38878   0.229   4.192  11.437  0.2055  0.0761  0.5653
 9139SOL    HW138879   0.265   4.185  11.526  0.5908  1.4866  0.5224
 9139SOL    HW238880   0.305   4.156  11.392 -0.7215 -1.7405  0.4173
 9140SOL     OW38881   2.908   2.015   4.951  0.4767 -0.1856  0.4348
 9140SOL    HW138882   2.924   2.001   5.045 -0.9206  1.3700  0.8922
 9140SOL    HW238883   2.988   2.056   4.917  0.9454 -0.9210  0.6297
 9141SOL     OW38884   4.040   0.846  11.686 -0.0760 -0.3207 -0.5569
 9141SOL    HW138885   3.977   0.919  11.686 -1.7293 -1.7570 -0.6742
 9141SOL    HW238886   4.079   0.857  11.599 -0.9692  1.3278 -0.7588
 9142SOL     OW38887   4.660   0.444   4.217  0.4254 -0.4964 -0.6407
 9142SOL    HW138888   4.642   0.481   4.130 -1.6688 -2.3980 -1.0200
 9142SOL    HW238889   4.623   0.515   4.270 -2.8228 -1.6311 -1.3746
 9143SOL     OW38890   0.036   1.019   2.836 -0.4309  0.2478  0.0857
 9143SOL    HW138891   0.045   1.112   2.855  1.0378  0.5342 -1.9582
 9143SOL    HW238892   4.676   1.020   2.784  0.2933 -0.0515 -1.0531
 9144SOL     OW38893   0.661   2.845   9.669  0.3002  0.1238  0.0748
 9144SOL    HW138894   0.661   2.880   9.758 -0.3140  1.4434 -0.4514
 9144SOL    HW238895   0.567   2.829   9.658  0.1486 -1.4842  3.7442
 9145SOL     OW38896   3.602   4.586  16.958  0.3366  0.4497  0.4032
 9145SOL    HW138897   3.506   4.582  16.954  0.3818  1.4848 -2.2849
 9145SOL    HW238898   3.624   4.598  17.050 -0.0529  1.4954  0.3619
 9146SOL     OW38899   2.529   3.081   3.061 -0.6669  0.1051  0.1067
 9146SOL    HW138900   2.535   3.007   3.121 -1.5164 -1.1540 -1.3436
 9146SOL    HW238901   2.610   3.129   3.076 -0.2531 -0.3521 -0.6632
 9147SOL     OW38902   2.491   3.830  13.788  0.1285  0.2956  0.1787
 9147SOL    HW138903   2.491   3.875  13.872 -0.8826 -1.9615  1.3876
 9147SOL    HW238904   2.537   3.893  13.733 -2.0681 -0.3833 -2.4587
 9148SOL     OW38905   4.703   2.237   8.501 -0.1092 -0.1000  0.1634
 9148SOL    HW138906   4.663   2.187   8.573  1.7107  0.8425  1.8073
 9148SOL    HW238907   4.708   2.315   8.556 -1.6405  0.5362 -0.5855
 9149SOL     OW38908   3.099   1.013   8.089  0.3771 -0.2172 -0.1868
 9149SOL    HW138909   3.085   1.070   8.013  1.7722  0.0835 -0.2177
 9149SOL    HW238910   3.136   0.942   8.037  0.8261  0.5849 -0.9545
 9150SOL     OW38911   4.489   3.277   9.371 -0.2486  1.0266  0.1213
 9150SOL    HW138912   4.444   3.350   9.416 -1.5902 -0.1291  0.6659
 9150SOL    HW238913   4.567   3.285   9.426 -0.4477  1.9239  0.2697
 9151SOL     OW38914   1.918   4.209   6.365 -0.0611 -0.7076  0.4671
 9151SOL    HW138915   1.897   4.265   6.440 -1.4809 -0.6197  0.0047
 9151SOL    HW238916   1.849   4.143   6.379 -0.2119 -0.8513 -0.9853
 9152SOL     OW38917   3.548   0.311  11.439  0.0150 -0.0680  0.1810
 9152SOL    HW138918   3.545   0.263  11.357 -0.1913 -1.5326  1.0429
 9152SOL    HW238919   3.598   0.391  11.419  0.6521 -0.4712  0.1856
 9153SOL     OW38920   3.454   3.779   1.570 -0.4886 -0.0581  0.0604
 9153SOL    HW138921   3.476   3.763   1.478  0.2710  0.7117  0.0977
 9153SOL    HW238922   3.374   3.730   1.588 -1.8486  0.6818 -4.0318
 9154SOL     OW38923   1.054   2.117   4.095  0.5685 -0.0406 -0.1068
 9154SOL    HW138924   1.069   2.185   4.030 -0.1044  0.9070  0.7273
 9154SOL    HW238925   1.073   2.168   4.174  1.4782  1.4631 -1.3140
 9155SOL     OW38926   0.749   1.076   9.109  0.1247  0.2225  0.3168
 9155SOL    HW138927   0.698   0.995   9.112 -0.4140  0.5203 -1.0097
 9155SOL    HW238928   0.682   1.135   9.143  0.0018  0.9560 -1.2200
 9156SOL     OW38929   3.862   0.202  16.154  0.2280  0.2950  0.2851
 9156SOL    HW138930   3.952   0.230  16.168  1.2895 -1.5249 -2.8829
 9156SOL    HW238931   3.827   0.270  16.096 -2.2618  0.7557  2.2916
 9157SOL     OW38932   0.345   2.605   7.788  0.0539 -0.6187 -0.8930
 9157SOL    HW138933   0.408   2.633   7.854  0.6734 -1.5321 -1.0971
 9157SOL    HW238934   0.268   2.640   7.834  1.1832 -0.0359  0.5364
 9158SOL     OW38935   0.869   0.405   5.281  0.2573 -0.2578  0.4289
 9158SOL    HW138936   0.945   0.454   5.312 -0.1708  1.0700 -0.6227
 9158SOL    HW238937   0.845   0.360   5.362 -1.4459  0.6456  0.4429
 9159SOL     OW38938   2.031   1.799  12.192  0.2237 -0.0805  0.1007
 9159SOL    HW138939   2.101   1.808  12.127  0.0243 -0.3682 -0.1603
 9159SOL    HW238940   1.959   1.808  12.129  0.2262  2.7138  0.4916
 9160SOL     OW38941   2.524   1.291  12.915 -0.0962  0.2097 -0.0162
 9160SOL    HW138942   2.460   1.353  12.951  0.0022  0.8922 -1.0303
 9160SOL    HW238943   2.560   1.337  12.839  1.6769 -1.3079 -0.0877
 9161SOL     OW38944   3.326   2.170   4.697 -0.5311  0.2083  0.6383
 9161SOL    HW138945   3.232   2.155   4.686 -0.5020  1.2432 -1.0303
 9161SOL    HW238946   3.326   2.263   4.719  0.8443  0.3550  0.0309
 9162SOL     OW38947   2.461   3.917   4.330 -0.1466 -0.5157  0.4584
 9162SOL    HW138948   2.431   3.829   4.350  0.7036 -0.3647  2.4060
 9162SOL    HW238949   2.435   3.966   4.408  0.4776  0.5428  0.0024
 9163SOL     OW38950   2.668   3.980   3.073 -0.0642 -0.1216  0.0173
 9163SOL    HW138951   2.673   4.010   3.164  2.6735  0.6602 -0.4124
 9163SOL    HW238952   2.751   3.933   3.060 -0.9270 -1.5886 -0.2338
 9164SOL     OW38953   0.021   1.840   4.637  0.3413  0.4392  0.4575
 9164SOL    HW138954   4.702   1.813   4.554  0.9682  0.4836  0.1408
 9164SOL    HW238955   0.071   1.761   4.658  2.5469  1.4573 -0.9573
 9165SOL     OW38956   2.592   1.861  11.821 -0.1219  0.0605 -0.0749
 9165SOL    HW138957   2.617   1.950  11.796 -0.9695  0.1960 -0.4685
 9165SOL    HW238958   2.570   1.880  11.912  2.8503  0.1948  0.6129
 9166SOL     OW38959   4.303   1.020  17.535 -0.0593  0.2960 -0.1452
 9166SOL    HW138960   4.227   0.966  17.511  0.9702 -0.1801 -2.3681
 9166SOL    HW238961   4.277   1.111  17.523 -1.4620  0.0379  0.8883
 9167SOL     OW38962   3.632   3.570   3.277  0.1541 -0.2461  0.0347
 9167SOL    HW138963   3.540   3.548   3.288  0.6234 -1.0150  2.5442
 9167SOL    HW238964   3.650   3.595   3.368 -2.0651  2.9611 -0.4096
 9168SOL     OW38965   3.602   1.681   6.953 -0.1018  0.5695 -0.0598
 9168SOL    HW138966   3.533   1.638   6.903  0.3302 -0.7450  0.4647
 9168SOL    HW238967   3.562   1.763   6.981 -0.8413  0.3265 -0.4065
 9169SOL     OW38968   3.242   0.651   4.831  0.4821  0.2200  0.0515
 9169SOL    HW138969   3.193   0.584   4.878 -0.5585  1.2475  0.4327
 9169SOL    HW238970   3.202   0.646   4.744  2.6170  1.3162 -0.9967
 9170SOL     OW38971   0.710   1.781   4.894 -0.1372 -0.3504  0.4202
 9170SOL    HW138972   0.725   1.686   4.891 -1.1881 -0.4924 -0.1174
 9170SOL    HW238973   0.628   1.793   4.940  0.1842  0.6452  0.7232
 9171SOL     OW38974   3.149   4.004   8.561 -0.2020 -0.5811 -0.0826
 9171SOL    HW138975   3.208   3.931   8.580 -0.6544 -1.0255 -0.3856
 9171SOL    HW238976   3.177   4.059   8.634  0.3524  0.4247 -1.0381
 9172SOL     OW38977   4.392   2.130  15.854  0.2891 -0.2706  0.1932
 9172SOL    HW138978   4.444   2.157  15.929 -1.3241  1.1355  0.7999
 9172SOL    HW238979   4.451   2.146  15.780  0.1827 -0.7529  0.0023
 9173SOL     OW38980   1.471   4.082  15.348  0.5238 -0.5431 -0.0321
 9173SOL    HW138981   1.518   4.070  15.430  1.4598  1.1266 -0.3261
 9173SOL    HW238982   1.519   4.157  15.311 -0.0976  0.0549  0.3624
 9174SOL     OW38983   3.112   2.812   7.305 -0.7157 -0.4044  0.2543
 9174SOL    HW138984   3.169   2.846   7.236 -0.2566 -1.2983  0.1980
 9174SOL    HW238985   3.058   2.891   7.313 -1.2409 -0.6618 -0.7268
 9175SOL     OW38986   1.110   1.113   0.115  0.1177  0.2214  0.2883
 9175SOL    HW138987   1.083   1.136   0.204 -1.6116  0.0897 -0.2137
 9175SOL    HW238988   1.205   1.127   0.122  0.2809 -0.9208  0.3719
 9176SOL     OW38989   2.579   0.867   2.117 -0.8422 -0.0924 -0.7506
 9176SOL    HW138990   2.660   0.891   2.074  0.7063 -2.3434  0.8960
 9176SOL    HW238991   2.590   0.877   2.211  0.8857 -0.3291 -0.9294
 9177SOL     OW38992   1.549   0.167   7.675 -0.2577  0.5521  0.0877
 9177SOL    HW138993   1.605   0.245   7.670 -0.5510  0.6864 -1.1075
 9177SOL    HW238994   1.513   0.177   7.587 -0.7085 -0.1884  0.1886
 9178SOL     OW38995   3.825   2.080   2.997  0.2582 -0.1668 -0.2636
 9178SOL    HW138996   3.854   1.989   3.004 -0.4671 -0.2961  1.1564
 9178SOL    HW238997   3.737   2.059   2.968 -0.8288  1.6006  1.7438
 9179SOL     OW38998   2.317   0.822   4.623 -0.1036  0.3890  0.1358
 9179SOL    HW138999   2.267   0.768   4.684  1.1311  0.6051  1.3282
 9179SOL    HW239000   2.400   0.813   4.670  1.2229  2.4673 -1.7928
 9180SOL     OW39001   1.221   0.229   7.183  0.2532 -0.6857  0.2872
 9180SOL    HW139002   1.169   0.201   7.258  0.7769 -1.8476  0.2095
 9180SOL    HW239003   1.215   0.325   7.186  1.1035 -0.7171  3.2763
 9181SOL     OW39004   1.345   4.440  17.475 -0.4729  0.2972 -0.0200
 9181SOL    HW139005   1.323   4.520  17.427 -1.4606  0.3552  0.5397
 9181SOL    HW239006   1.260   4.415  17.510  0.5377 -1.3942  1.2415
 9182SOL     OW39007   4.488   1.310  17.407 -0.0067  0.0413  0.2945
 9182SOL    HW139008   4.485   1.218  17.378  1.5993 -0.4821  1.7620
 9182SOL    HW239009   4.547   1.302  17.482 -1.6658  0.2383  1.6114
 9183SOL     OW39010   1.305   4.192   2.911 -0.6072 -0.1979 -0.0945
 9183SOL    HW139011   1.273   4.184   3.001  1.3924 -2.2437  0.4320
 9183SOL    HW239012   1.229   4.151   2.869 -0.2932  0.5332 -1.3585
 9184SOL     OW39013   3.080   2.314   0.640 -0.6257  0.2889 -0.1688
 9184SOL    HW139014   3.042   2.290   0.556  1.7495  2.2260 -1.8004
 9184SOL    HW239015   3.156   2.257   0.637 -0.7424  0.0625  1.3896
 9185SOL     OW39016   3.724   2.052  17.557 -0.4142  0.1325  0.0729
 9185SOL    HW139017   3.711   2.119  17.490  1.2732 -0.2155 -0.6195
 9185SOL    HW239018   3.697   1.972  17.512  1.0188  0.1970 -0.9053
 9186SOL     OW39019   1.973   3.488  10.235  0.1409  0.0516 -0.1587
 9186SOL    HW139020   1.973   3.572  10.189  3.3911 -0.1270 -0.5488
 9186SOL    HW239021   1.981   3.432  10.157 -0.9956 -1.4456  0.8150
 9187SOL     OW39022   1.746   0.785   8.143  0.4148 -0.0471 -0.1877
 9187SOL    HW139023   1.708   0.805   8.228  1.8214 -2.5903  1.0364
 9187SOL    HW239024   1.779   0.700   8.171 -0.9575 -0.9522 -1.2906
 9188SOL     OW39025   3.374   1.990   8.642  0.3744 -0.1309 -0.2698
 9188SOL    HW139026   3.334   1.945   8.568  0.9146  1.0643 -1.2890
 9188SOL    HW239027   3.303   2.051   8.662 -1.9301 -2.1258 -2.4096
 9189SOL     OW39028   2.313   0.577   4.811  0.4379  0.6314  0.0082
 9189SOL    HW139029   2.293   0.484   4.800 -0.6037  0.5992  2.1888
 9189SOL    HW239030   2.397   0.573   4.765  0.1913 -0.7532 -0.3289
 9190SOL     OW39031   0.196   3.285   5.496  0.3165  0.5382  0.3674
 9190SOL    HW139032   0.255   3.300   5.422  0.9126 -0.7225  0.5861
 9190SOL    HW239033   0.135   3.358   5.504 -1.0116 -0.2830 -2.0451
 9191SOL     OW39034   3.946   0.449   4.936  0.0993  0.5584  0.4408
 9191SOL    HW139035   3.933   0.544   4.941 -0.7247  0.5432 -1.3302
 9191SOL    HW239036   3.967   0.431   5.027  2.2496 -0.5976 -0.2730
 9192SOL     OW39037   1.274   2.069   4.484  0.3443 -0.4933  0.4471
 9192SOL    HW139038   1.275   2.003   4.553 -1.9146  1.0042  1.9042
 9192SOL    HW239039   1.254   2.011   4.410 -1.6249 -0.9593  1.3478
 9193SOL     OW39040   2.922   0.248   8.898 -0.1362 -0.0978  0.0994
 9193SOL    HW139041   2.981   0.184   8.860  2.0563  0.2204  3.0076
 9193SOL    HW239042   2.955   0.329   8.860  0.4772 -1.4686 -2.2890
 9194SOL     OW39043   3.085   3.530   7.864 -0.2488 -0.1318  0.3240
 9194SOL    HW139044   3.110   3.441   7.887 -2.3863 -0.8715 -0.1968
 9194SOL    HW239045   3.055   3.550   7.953 -3.0751  0.4387 -0.7806
 9195SOL     OW39046   3.759   2.873   3.103 -0.4030  0.5794 -0.3208
 9195SOL    HW139047   3.672   2.892   3.069 -1.1988  2.0304  2.4576
 9195SOL    HW239048   3.741   2.821   3.181  1.0698  1.4597  0.6234
 9196SOL     OW39049   0.833   4.004   6.579  0.8047 -0.1212 -0.0569
 9196SOL    HW139050   0.898   4.060   6.537  0.3948  0.5660  0.2056
 9196SOL    HW239051   0.760   4.016   6.518  0.7993  0.2687  0.0236
 9197SOL     OW39052   4.287   4.105  15.820 -0.2334  0.4270 -0.1759
 9197SOL    HW139053   4.358   4.081  15.761  0.0790  1.9192 -0.3982
 9197SOL    HW239054   4.218   4.143  15.766  0.4546 -0.1104 -1.4321
 9198SOL     OW39055   1.731   1.756   5.159  0.2527  0.1909  0.0453
 9198SOL    HW139056   1.636   1.748   5.148  0.1318  1.8317 -0.1344
 9198SOL    HW239057   1.778   1.684   5.117 -2.3420 -0.3301 -2.0145
 9199SOL     OW39058   1.980   4.469   8.612 -0.0789 -0.4178  0.9079
 9199SOL    HW139059   2.055   4.484   8.556 -0.2829  0.3187  0.8273
 9199SOL    HW239060   1.925   4.401   8.574  1.5274 -0.6532 -0.9559
 9200SOL     OW39061   4.335   1.105  13.924  0.3009  0.2213 -0.2311
 9200SOL    HW139062   4.396   1.049  13.974  0.6949  0.8206 -0.0383
 9200SOL    HW239063   4.363   1.195  13.942  1.2630 -0.5902  2.3129
 9201SOL     OW39064   3.997   3.322  12.760 -0.4630  0.0037  0.4311
 9201SOL    HW139065   3.969   3.413  12.764 -2.0359 -0.4433 -0.4536
 9201SOL    HW239066   3.922   3.278  12.799 -0.2064  0.8081  1.8350
 9202SOL     OW39067   1.831   4.066   9.268  0.1284  0.0177 -0.0823
 9202SOL    HW139068   1.901   4.103   9.214  1.6655 -2.8496 -0.0725
 9202SOL    HW239069   1.879   4.035   9.345  0.8707  1.0589 -0.1181
 9203SOL     OW39070   3.659   0.899   0.779 -0.0141  0.1455 -0.2466
 9203SOL    HW139071   3.689   0.883   0.868 -0.6467 -2.1283 -0.4398
 9203SOL    HW239072   3.742   0.893   0.730 -0.1582 -1.5108 -0.3089
 9204SOL     OW39073   0.083   4.693   7.042 -0.5234  0.0889  0.0481
 9204SOL    HW139074   0.120   4.703   7.130 -2.4029  0.4958  0.7916
 9204SOL    HW239075   0.165   4.668   6.999  0.1153  0.1562  1.2180
 9205SOL     OW39076   3.641   0.547  14.393  0.1032 -0.4259 -0.5814
 9205SOL    HW139077   3.593   0.554  14.476 -0.4646 -0.8449 -0.8659
 9205SOL    HW239078   3.568   0.570  14.336  0.5648 -1.7160 -1.6896
 9206SOL     OW39079   3.557   0.544  13.349  0.1771  0.0291  0.5433
 9206SOL    HW139080   3.599   0.614  13.298  1.7726 -0.5946  0.9930
 9206SOL    HW239081   3.571   0.467  13.294  3.6103 -0.2852  1.8809
 9207SOL     OW39082   3.845   0.622   0.550 -0.1111  0.0298  0.0475
 9207SOL    HW139083   3.840   0.703   0.600  2.6613 -0.5010  1.1969
 9207SOL    HW239084   3.792   0.567   0.608 -0.3281 -0.7626 -0.9067
 9208SOL     OW39085   0.497   4.015   7.276 -0.3302 -0.6381  0.2727
 9208SOL    HW139086   0.561   4.076   7.239 -1.0584 -0.9214 -1.4514
 9208SOL    HW239087   0.425   4.020   7.213 -0.5608 -0.7524  0.5291
 9209SOL     OW39088   0.253   0.793   6.450 -0.1060 -0.4313 -0.1789
 9209SOL    HW139089   0.259   0.724   6.516 -2.7669  0.0692  0.5664
 9209SOL    HW239090   0.271   0.740   6.372  0.8457 -1.2309  0.5804
 9210SOL     OW39091   3.114   3.952   0.707 -0.2259 -0.0461 -0.1941
 9210SOL    HW139092   3.071   3.959   0.792  2.2261 -0.0556  1.0334
 9210SOL    HW239093   3.204   3.982   0.720  1.2006 -4.2413 -0.3678
 9211SOL     OW39094   1.726   1.540  13.899  0.0470 -0.2097  0.5851
 9211SOL    HW139095   1.713   1.633  13.878 -1.2018 -0.7292 -0.9942
 9211SOL    HW239096   1.818   1.520  13.880  0.2338  0.1360  1.1083
 9212SOL     OW39097   1.040   0.382   2.994  0.4585 -0.3200 -0.6464
 9212SOL    HW139098   1.019   0.451   3.058  1.4408 -0.2796 -0.3741
 9212SOL    HW239099   0.967   0.388   2.932  0.4435 -1.7260 -0.7512
 9213SOL     OW39100   2.659   1.641  13.167 -0.1171  0.2955 -0.3084
 9213SOL    HW139101   2.648   1.737  13.166  0.9795  0.4027 -2.0948
 9213SOL    HW239102   2.727   1.612  13.228 -0.4762  1.0159  0.4281
 9214SOL     OW39103   1.659   0.400  16.005 -0.5808 -0.0854  0.0634
 9214SOL    HW139104   1.716   0.455  15.951  0.9714 -1.3099  0.4737
 9214SOL    HW239105   1.686   0.310  15.985  2.2139  1.0065 -1.1223
 9215SOL     OW39106   2.611   1.561   2.576 -0.1864 -0.2477  0.3314
 9215SOL    HW139107   2.672   1.488   2.565  0.4338  0.5234 -1.3997
 9215SOL    HW239108   2.544   1.511   2.621 -0.1928 -1.0611 -0.5841
 9216SOL     OW39109   2.704   0.455   7.816  0.7978  0.1067  0.0279
 9216SOL    HW139110   2.753   0.407   7.749  0.8316 -2.7695  2.0937
 9216SOL    HW239111   2.700   0.541   7.775  4.2031 -0.2679 -1.0959
 9217SOL     OW39112   2.331   3.552   3.461  0.1140  0.1269 -0.0817
 9217SOL    HW139113   2.389   3.484   3.494  0.7037 -0.9008 -3.2617
 9217SOL    HW239114   2.273   3.571   3.535 -0.7007  1.0746 -0.9746
 9218SOL     OW39115   2.876   1.211   2.258  0.6280 -0.0725 -0.2591
 9218SOL    HW139116   2.943   1.153   2.295  0.6572  0.0438 -0.1255
 9218SOL    HW239117   2.799   1.200   2.314 -0.4619  0.9191 -1.5799
 9219SOL     OW39118   3.093   1.039  15.350  0.5526 -0.2096 -0.4468
 9219SOL    HW139119   3.031   1.107  15.377 -0.6954 -1.5197 -0.0333
 9219SOL    HW239120   3.167   1.087  15.313 -1.3851  2.9202 -0.2344
 9220SOL     OW39121   4.000   3.628   1.540  0.1614 -0.1977  0.0336
 9220SOL    HW139122   4.030   3.585   1.620 -0.2001  0.1093  0.3338
 9220SOL    HW239123   3.905   3.639   1.543  0.2682  0.9490 -0.9315
 9221SOL     OW39124   3.079   1.589  11.889 -0.0746 -0.0437  0.4239
 9221SOL    HW139125   2.991   1.574  11.923 -0.5470 -1.9864 -1.6215
 9221SOL    HW239126   3.069   1.575  11.795  1.6421  0.1910  0.2068
 9222SOL     OW39127   3.311   2.677   2.762  0.0164 -0.3742  0.2196
 9222SOL    HW139128   3.399   2.680   2.800 -0.4545 -2.2425  1.4996
 9222SOL    HW239129   3.325   2.642   2.674  1.1989 -1.6402  0.9030
 9223SOL     OW39130   0.938   4.534   9.046  0.6567 -0.3721 -0.0952
 9223SOL    HW139131   0.937   4.509   9.139  0.3293  1.8499  0.5055
 9223SOL    HW239132   0.970   4.624   9.054 -1.2457  0.0673  2.7838
 9224SOL     OW39133   0.165   2.191   2.236  0.1602  0.4824 -0.5562
 9224SOL    HW139134   0.094   2.199   2.299 -0.1730 -0.4397 -0.8234
 9224SOL    HW239135   0.200   2.107   2.265  0.0736 -0.1635 -2.3283
 9225SOL     OW39136   4.157   0.942  11.903  0.4780 -0.7046  0.5409
 9225SOL    HW139137   4.089   0.896  11.853  0.0719  1.0609 -0.5565
 9225SOL    HW239138   4.231   0.886  11.880  0.6067 -0.8869  1.3998
 9226SOL     OW39139   0.502   3.350   1.731 -0.6689 -0.1737  0.2589
 9226SOL    HW139140   0.432   3.410   1.757  1.2701  1.2589  2.1077
 9226SOL    HW239141   0.470   3.305   1.652 -1.7248 -0.2826  0.7477
 9227SOL     OW39142   3.313   3.797   8.604 -0.0694  0.0717  0.1240
 9227SOL    HW139143   3.313   3.726   8.668 -1.6649 -1.4678 -1.5980
 9227SOL    HW239144   3.399   3.835   8.624  0.4495 -0.9758 -0.1287
 9228SOL     OW39145   3.165   3.666  11.298  0.1375 -0.1133  0.3827
 9228SOL    HW139146   3.176   3.636  11.209 -2.2329  1.8463 -0.5926
 9228SOL    HW239147   3.246   3.715  11.311 -0.2050  0.5853 -0.0764
 9229SOL     OW39148   2.336   0.252   7.221 -0.2736 -0.2896 -0.1842
 9229SOL    HW139149   2.308   0.190   7.289 -0.3600 -0.4955 -0.4073
 9229SOL    HW239150   2.425   0.220   7.204 -1.0878 -2.4281 -0.4513
 9230SOL     OW39151   4.718   2.907  15.709 -0.5349 -0.4653  0.4582
 9230SOL    HW139152   4.667   2.954  15.643 -1.0660  0.3156  1.4229
 9230SOL    HW239153   0.038   2.980  15.754 -0.3853  0.2354 -0.8103
 9231SOL     OW39154   1.921   3.371   5.025 -0.2378  0.1849  0.0345
 9231SOL    HW139155   1.908   3.396   5.116  1.6023  3.2431 -0.5427
 9231SOL    HW239156   1.853   3.304   5.014 -0.3640  0.5597 -1.5034
 9232SOL     OW39157   1.169   3.186   5.067  0.6843  0.4514  0.7424
 9232SOL    HW139158   1.133   3.183   5.155 -1.6533  0.1667 -0.2176
 9232SOL    HW239159   1.231   3.112   5.072 -0.3351 -0.4897 -0.4962
 9233SOL     OW39160   0.548   3.853  11.603  0.0416  0.7015 -0.1882
 9233SOL    HW139161   0.591   3.933  11.574  1.9119 -1.1141 -2.3350
 9233SOL    HW239162   0.493   3.821  11.532  0.6535 -0.9972  0.0949
 9234SOL     OW39163   1.726   4.309   7.546 -0.4079 -0.0382  0.1331
 9234SOL    HW139164   1.820   4.325   7.540 -0.3139 -0.9683 -0.9569
 9234SOL    HW239165   1.694   4.395   7.572 -0.8208 -0.3640  0.7078
 9235SOL     OW39166   3.949   0.841  16.775  0.3570 -0.2313 -0.1689
 9235SOL    HW139167   3.953   0.878  16.863  3.8824 -0.7360 -0.1106
 9235SOL    HW239168   4.035   0.799  16.771  1.1654  1.7560 -3.0003
 9236SOL     OW39169   3.131   0.005  11.391 -0.0993  0.2243 -0.6410
 9236SOL    HW139170   3.048   4.693  11.356 -0.3482 -0.2301  0.3931
 9236SOL    HW239171   3.133   4.673  11.471  0.8836  1.5270  0.1941
 9237SOL     OW39172   4.585   3.003   0.650  0.3865  0.0379 -0.1916
 9237SOL    HW139173   4.579   3.061   0.726 -1.1799 -1.2818  0.6773
 9237SOL    HW239174   4.612   2.919   0.686 -2.7061 -0.5998  0.7159
 9238SOL     OW39175   1.787   3.235  16.781 -0.0971  0.1944  0.5116
 9238SOL    HW139176   1.744   3.249  16.866 -0.6236 -0.9579  0.4416
 9238SOL    HW239177   1.754   3.303  16.723  0.6762 -0.9651 -1.3039
 9239SOL     OW39178   3.393   3.281   7.167  0.4186  0.1488 -0.5763
 9239SOL    HW139179   3.478   3.312   7.200  0.3040  0.3695 -0.4906
 9239SOL    HW239180   3.424   3.220   7.100  0.3454 -0.9578  0.4102
 9240SOL     OW39181   0.576   4.488   8.098 -0.1054  0.0734  0.0317
 9240SOL    HW139182   0.615   4.471   8.013 -0.2679 -0.7585  0.1311
 9240SOL    HW239183   0.481   4.486   8.088 -0.1064  1.2189 -0.2492
 9241SOL     OW39184   1.105   3.396   6.413 -0.4112 -0.2555  0.3425
 9241SOL    HW139185   1.058   3.380   6.331 -2.6577  1.5945  1.2391
 9241SOL    HW239186   1.153   3.475   6.388  2.4454 -1.8978  0.6402
 9242SOL     OW39187   4.631   1.679   9.282  0.1699  0.0557 -0.6832
 9242SOL    HW139188   4.668   1.717   9.361  0.3616 -3.5666  0.9848
 9242SOL    HW239189   4.578   1.610   9.322 -0.3895  1.2927  0.6627
 9243SOL     OW39190   4.674   2.055  12.254  0.3112 -0.5347 -1.0337
 9243SOL    HW139191   0.030   2.000  12.239 -0.8487 -2.6934  1.0420
 9243SOL    HW239192   4.623   2.006  12.318  1.0481 -0.0335 -0.0416
 9244SOL     OW39193   4.303   1.090   8.322 -0.0598  0.0705  0.1332
 9244SOL    HW139194   4.267   1.050   8.243  0.4993  1.1313 -0.6634
 9244SOL    HW239195   4.244   1.051   8.386 -0.4795  0.1055 -0.2288
 9245SOL     OW39196   2.247   4.633   2.507 -0.0561 -0.2253 -0.2506
 9245SOL    HW139197   2.329   4.676   2.481  0.5020 -1.1276  0.0219
 9245SOL    HW239198   2.257   4.680   2.590  0.0450 -0.8912  0.1133
 9246SOL     OW39199   4.579   4.376   6.547  0.7624  0.5086 -0.0964
 9246SOL    HW139200   4.526   4.456   6.550  1.7057  1.1496 -0.4429
 9246SOL    HW239201   4.648   4.397   6.485 -0.2758 -2.0617 -2.1296
 9247SOL     OW39202   3.759   3.628  10.567  0.0044  0.2407  0.4372
 9247SOL    HW139203   3.787   3.546  10.526  0.9713  0.3967  0.7861
 9247SOL    HW239204   3.691   3.655  10.505  1.5069 -1.1235 -1.7955
 9248SOL     OW39205   1.091   3.386   4.918 -0.4911  0.0003 -0.2407
 9248SOL    HW139206   1.125   3.355   4.834 -0.9986  2.1454 -1.2597
 9248SOL    HW239207   1.109   3.309   4.971  2.1500  0.7378 -0.0412
 9249SOL     OW39208   3.718   1.988   1.971 -0.2079 -0.3954  0.0712
 9249SOL    HW139209   3.645   2.049   1.974  0.7771  0.7022  1.5959
 9249SOL    HW239210   3.786   2.038   1.924  1.5155  0.3000  3.3238
 9250SOL     OW39211   2.788   0.681   6.959 -0.2886 -0.0597  0.0581
 9250SOL    HW139212   2.833   0.598   6.975  1.1962  0.6199 -0.6690
 9250SOL    HW239213   2.771   0.671   6.866 -3.1669  1.1484  0.4613
 9251SOL     OW39214   2.473   4.344   2.012  0.3773 -0.0487 -0.6506
 9251SOL    HW139215   2.559   4.306   1.993  1.0789  1.0057  0.3919
 9251SOL    HW239216   2.485   4.427   2.059 -0.9261 -0.4606  0.4204
 9252SOL     OW39217   1.116   3.707   2.252 -0.4675  0.0971  0.1347
 9252SOL    HW139218   1.158   3.673   2.173 -2.8927 -2.4240 -0.0645
 9252SOL    HW239219   1.140   3.796   2.229  2.4520 -0.7362 -0.0703
 9253SOL     OW39220   1.035   4.535   8.552 -0.0431 -0.1374  0.1690
 9253SOL    HW139221   1.032   4.486   8.634 -0.2506  3.1540  2.1279
 9253SOL    HW239222   1.034   4.628   8.576 -0.3454  0.2112 -1.2188
 9254SOL     OW39223   1.013   4.376  12.867 -0.3880  0.3013  0.2854
 9254SOL    HW139224   0.983   4.304  12.811 -1.4830  0.9913 -0.0194
 9254SOL    HW239225   0.963   4.363  12.947  0.6963 -1.8063  0.6195
 9255SOL     OW39226   3.712   2.381   6.217  0.0602 -0.1441  0.2229
 9255SOL    HW139227   3.806   2.363   6.220 -0.2951 -2.2517 -1.1672
 9255SOL    HW239228   3.686   2.377   6.309  0.4283  0.0251  0.3304
 9256SOL     OW39229   1.121   1.422   8.124 -0.7337 -0.2606  0.4421
 9256SOL    HW139230   1.093   1.487   8.189  0.5310 -0.4536  1.1818
 9256SOL    HW239231   1.210   1.447   8.103 -1.2611  0.2368 -1.1952
 9257SOL     OW39232   3.953   3.089   8.780 -0.1777 -0.2175 -0.0945
 9257SOL    HW139233   3.864   3.057   8.795 -0.7840  1.2126 -0.6387
 9257SOL    HW239234   3.942   3.179   8.812  1.7818 -0.0981  0.2546
 9258SOL     OW39235   2.820   1.514   7.793 -0.2844  0.1436 -0.3222
 9258SOL    HW139236   2.746   1.489   7.848 -0.1364  0.2776 -0.0665
 9258SOL    HW239237   2.799   1.605   7.771  1.4780  0.7670  0.5918
 9259SOL     OW39238   3.656   1.310   3.983  0.1677  0.1963 -0.4685
 9259SOL    HW139239   3.618   1.263   4.057  0.3536  0.3678 -0.2624
 9259SOL    HW239240   3.682   1.394   4.021 -2.8466  0.0906  1.8160
 9260SOL     OW39241   3.174   3.627   5.752  0.4155 -0.1591  0.2971
 9260SOL    HW139242   3.202   3.574   5.827 -0.4409 -1.1180 -0.0602
 9260SOL    HW239243   3.119   3.559   5.713  0.0318  2.1506 -3.1424
 9261SOL     OW39244   2.470   1.981   5.657  0.2054 -0.1331  0.0766
 9261SOL    HW139245   2.446   2.074   5.653  0.8637 -0.0288 -1.3060
 9261SOL    HW239246   2.449   1.953   5.568 -1.3403 -1.9296  1.0147
 9262SOL     OW39247   3.732   2.781   4.328 -0.2699  0.1525 -0.0184
 9262SOL    HW139248   3.730   2.763   4.422 -2.8151  0.8591  0.0481
 9262SOL    HW239249   3.823   2.757   4.309 -0.2690  0.5049 -0.4601
 9263SOL     OW39250   3.249   3.308  12.227 -0.5937  0.0756  0.2916
 9263SOL    HW139251   3.291   3.226  12.253 -0.1652  0.7736  1.8160
 9263SOL    HW239252   3.309   3.377  12.258  0.1515  0.6269 -2.4268
 9264SOL     OW39253   1.029   2.073   3.702 -0.0916 -0.1753 -0.0411
 9264SOL    HW139254   1.110   2.077   3.754  2.0703  1.8442 -3.6105
 9264SOL    HW239255   1.060   2.064   3.612  1.3764  2.0912  0.2468
 9265SOL     OW39256   1.705   1.259  13.022 -0.5277  0.0272 -0.6554
 9265SOL    HW139257   1.613   1.248  12.998 -1.0792 -0.9727  1.9718
 9265SOL    HW239258   1.699   1.323  13.092 -0.1066  0.7845 -1.3160
 9266SOL     OW39259   4.085   4.255   3.947 -0.1978 -0.2564 -0.3267
 9266SOL    HW139260   4.048   4.179   3.991 -1.2097  0.8896  0.8099
 9266SOL    HW239261   4.125   4.214   3.870 -1.1753  0.1360 -1.0582
 9267SOL     OW39262   3.689   3.970  11.663 -0.1952  0.3746  0.1642
 9267SOL    HW139263   3.704   4.000  11.573 -1.2042 -0.3692 -0.2421
 9267SOL    HW239264   3.625   4.036  11.690  1.5360  1.5208  1.5463
 9268SOL     OW39265   0.924   1.789  11.470  0.2560 -0.0873  0.1462
 9268SOL    HW139266   0.865   1.716  11.490  0.2147 -0.8718 -2.8190
 9268SOL    HW239267   0.972   1.742  11.401 -0.2387  0.0529 -0.2957
 9269SOL     OW39268   0.171   0.458   1.830 -0.2988  0.4918  0.6484
 9269SOL    HW139269   0.095   0.451   1.886 -0.8949 -0.7922 -0.3153
 9269SOL    HW239270   0.123   0.457   1.747 -0.5196  0.6020  0.7764
 9270SOL     OW39271   1.986   1.707  13.597  0.0159  0.1355 -0.2818
 9270SOL    HW139272   1.902   1.686  13.555  0.2610 -0.3327 -0.5424
 9270SOL    HW239273   2.028   1.738  13.516 -0.0634  1.9980  0.3871
 9271SOL     OW39274   0.118   2.301   7.122 -0.0888  0.0873 -0.5605
 9271SOL    HW139275   0.092   2.340   7.205  2.0652  0.2480  0.0521
 9271SOL    HW239276   0.130   2.381   7.071  1.0363 -0.2986 -0.9066
 9272SOL     OW39277   3.196   2.289   4.196  0.3846  0.3892  0.3780
 9272SOL    HW139278   3.261   2.291   4.125  1.0097  1.4333  0.9782
 9272SOL    HW239279   3.148   2.372   4.195 -0.4999 -0.1316 -1.5658
 9273SOL     OW39280   4.706   3.060   9.593  0.3705  0.5938  0.4979
 9273SOL    HW139281   0.075   3.065   9.560 -0.0413 -1.7769 -1.0193
 9273SOL    HW239282   4.683   3.152   9.580 -1.7618  0.2594  1.9557
 9274SOL     OW39283   0.060   3.988   2.385 -0.1110  0.0392 -0.6398
 9274SOL    HW139284   0.035   4.059   2.325  2.8537  1.4058 -0.2384
 9274SOL    HW239285   0.129   4.029   2.437 -1.5387  1.4940  0.1086
 9275SOL     OW39286   0.293   1.878   5.834 -0.7148 -0.3962  0.3247
 9275SOL    HW139287   0.303   1.784   5.817  2.2916 -0.1156  0.5556
 9275SOL    HW239288   0.345   1.883   5.914 -0.6643 -3.8023  0.5387
 9276SOL     OW39289   4.592   3.024   1.117 -0.1325  0.1089 -0.5777
 9276SOL    HW139290   4.626   2.938   1.143 -2.5152 -0.3095  1.1128
 9276SOL    HW239291   4.584   3.068   1.202  2.1621  0.6998 -0.6683
 9277SOL     OW39292   1.960   4.025  16.141  0.5542  0.0089  0.0109
 9277SOL    HW139293   1.981   3.952  16.083  0.6010 -0.5491  0.7259
 9277SOL    HW239294   1.952   3.975  16.223 -0.7432 -0.9757 -0.7171
 9278SOL     OW39295   3.109   1.084   0.312  0.7229  0.0899  0.1997
 9278SOL    HW139296   3.015   1.067   0.316  0.4407  1.3430 -1.6799
 9278SOL    HW239297   3.133   0.992   0.325 -0.3371 -0.3164 -0.7614
 9279SOL     OW39298   2.039   3.788   1.897 -0.3403 -0.4291  0.1111
 9279SOL    HW139299   2.020   3.827   1.982 -1.5698  1.2507 -0.9492
 9279SOL    HW239300   1.962   3.736   1.874  0.1593 -0.8140 -0.6884
 9280SOL     OW39301   4.262   3.254   5.971 -0.4678 -0.3810 -0.0841
 9280SOL    HW139302   4.300   3.342   5.963 -1.4762 -0.0663 -1.4019
 9280SOL    HW239303   4.331   3.201   6.009  0.1738  1.8680  1.8598
 9281SOL     OW39304   0.978   3.157   3.141  0.7699 -0.4439  0.3524
 9281SOL    HW139305   0.912   3.196   3.198 -0.0068 -1.1872 -0.0500
 9281SOL    HW239306   0.988   3.232   3.082  0.9310  0.4591  1.5200
 9282SOL     OW39307   2.810   0.776  14.315  0.6102 -0.1147  0.2724
 9282SOL    HW139308   2.854   0.807  14.394 -0.6468  0.8151  0.6092
 9282SOL    HW239309   2.717   0.777  14.336  0.5026 -0.1470 -0.2133
 9283SOL     OW39310   4.482   4.082  15.655  0.0462 -0.1955 -0.3066
 9283SOL    HW139311   4.519   4.160  15.614  2.2077 -1.0801 -0.0803
 9283SOL    HW239312   4.531   4.011  15.612 -0.7136  1.2148 -3.4664
 9284SOL     OW39313   1.036   1.197  12.059 -0.1911 -0.1274 -0.5520
 9284SOL    HW139314   1.004   1.272  12.009  1.7337  2.4292  1.9899
 9284SOL    HW239315   1.106   1.159  12.006 -0.0359  0.4424 -0.7605
 9285SOL     OW39316   0.465   3.034   0.538 -0.1255  0.4819  0.1741
 9285SOL    HW139317   0.471   3.112   0.483  3.1468 -1.0546 -1.6307
 9285SOL    HW239318   0.392   3.051   0.598 -3.1691  0.5254 -3.5571
 9286SOL     OW39319   3.746   1.498   7.678  0.4696 -0.0103  0.1782
 9286SOL    HW139320   3.691   1.545   7.616  0.8222  0.2436  0.0572
 9286SOL    HW239321   3.753   1.563   7.748 -2.3203  0.0986  0.3305
 9287SOL     OW39322   4.364   1.808   0.275  0.3466 -0.4523  0.4899
 9287SOL    HW139323   4.369   1.848   0.188  0.2872  2.9019  2.0099
 9287SOL    HW239324   4.305   1.734   0.261  0.7545 -0.9399  1.3588
 9288SOL     OW39325   3.388   4.588  12.734  0.2725 -0.0095  0.1221
 9288SOL    HW139326   3.317   4.590  12.670  1.1350  0.4434 -0.8174
 9288SOL    HW239327   3.454   4.560  12.670 -1.1588 -2.0277 -0.4970
 9289SOL     OW39328   3.959   2.702   2.304  0.2488  0.0453 -0.3911
 9289SOL    HW139329   3.958   2.780   2.248 -0.9299 -0.2011 -0.7072
 9289SOL    HW239330   4.014   2.640   2.255  1.5186  1.3006 -0.5307
 9290SOL     OW39331   3.635   3.163   2.182  0.0433  0.6461  0.0922
 9290SOL    HW139332   3.630   3.243   2.130 -1.5499 -1.2568 -2.6905
 9290SOL    HW239333   3.704   3.114   2.136  1.0392 -0.0738  2.3752
 9291SOL     OW39334   2.129   4.050   1.885  0.0022  0.3976  0.0377
 9291SOL    HW139335   2.120   3.956   1.866 -0.0589  0.1811  1.1536
 9291SOL    HW239336   2.040   4.082   1.873 -0.7943 -1.0619  1.9089
 9292SOL     OW39337   2.274   4.321   3.284 -0.7585  0.3530  0.3363
 9292SOL    HW139338   2.311   4.285   3.203 -1.6339  0.8808 -0.2955
 9292SOL    HW239339   2.346   4.296   3.342 -1.7052  0.4912  1.5780
 9293SOL     OW39340   0.562   3.860   2.677 -0.8965 -0.7645 -1.2363
 9293SOL    HW139341   0.469   3.878   2.663 -0.8355  1.3363  1.0637
 9293SOL    HW239342   0.593   3.869   2.587  1.1906 -2.1351 -0.6562
 9294SOL     OW39343   2.165   4.001   6.322 -0.2516  0.1467  0.0972
 9294SOL    HW139344   2.174   3.991   6.417 -0.2268  0.6206  0.1437
 9294SOL    HW239345   2.129   4.089   6.319 -0.3818  0.1084  0.5289
 9295SOL     OW39346   0.072   3.381   4.102  0.0105  0.4345 -0.0767
 9295SOL    HW139347   0.141   3.326   4.140 -0.2568  1.8166  2.3592
 9295SOL    HW239348   0.055   3.450   4.166 -0.5573 -0.6267  0.9096
 9296SOL     OW39349   1.870   3.042   5.120 -0.1263 -0.4152 -0.5692
 9296SOL    HW139350   1.816   3.099   5.065 -0.4323 -2.1111 -2.0255
 9296SOL    HW239351   1.826   3.059   5.203 -0.8109 -2.8729 -0.4315
 9297SOL     OW39352   0.073   4.633   2.648  0.5012  0.0139  0.1158
 9297SOL    HW139353   0.163   4.655   2.624 -0.4903  3.2280 -0.7081
 9297SOL    HW239354   0.090   4.630   2.742  0.2978 -0.9969  0.1177
 9298SOL     OW39355   0.671   1.652   6.189  0.0406  0.5828 -0.1974
 9298SOL    HW139356   0.751   1.691   6.223  0.1346 -0.1977  0.4788
 9298SOL    HW239357   0.692   1.631   6.098  2.5982 -0.4298  0.6281
 9299SOL     OW39358   0.661   2.171  15.678  0.1341  0.0842  0.1373
 9299SOL    HW139359   0.680   2.084  15.641  0.6665  0.2847 -0.0503
 9299SOL    HW239360   0.744   2.186  15.723 -0.1313  0.0556  0.6335
 9300SOL     OW39361   2.875   1.136   3.772  0.2941  0.0177 -0.7395
 9300SOL    HW139362   2.969   1.126   3.790  0.0411  0.0836  0.6852
 9300SOL    HW239363   2.876   1.203   3.704  2.8157 -0.7598 -1.4638
 9301SOL     OW39364   1.578   4.149   1.940  0.0678  0.4290 -0.4731
 9301SOL    HW139365   1.667   4.116   1.957  0.8143  1.9967 -1.3305
 9301SOL    HW239366   1.591   4.206   1.864 -1.0983  2.1947  0.6769
 9302SOL     OW39367   3.794   1.570   1.711 -0.2606  0.1972  0.3955
 9302SOL    HW139368   3.779   1.592   1.804 -3.0558  2.2690 -0.5176
 9302SOL    HW239369   3.749   1.487   1.697  0.3690 -0.5691  2.7673
 9303SOL     OW39370   4.682   2.807   7.553 -0.4482 -0.3001 -0.5960
 9303SOL    HW139371   0.040   2.819   7.606 -0.3134 -0.9238 -0.6666
 9303SOL    HW239372   4.666   2.899   7.531  3.1046  0.9153  1.9727
 9304SOL     OW39373   0.067   3.579   7.494  0.4512  1.0435 -0.4503
 9304SOL    HW139374   0.011   3.644   7.536  2.2625  2.1250  0.2641
 9304SOL    HW239375   0.073   3.608   7.403  0.0126  4.3156  0.5430
 9305SOL     OW39376   0.644   2.770  16.133 -0.6427 -0.3463 -0.5370
 9305SOL    HW139377   0.668   2.860  16.113 -1.3449  0.2416  1.2572
 9305SOL    HW239378   0.620   2.740  16.045  0.3954  1.5823 -1.4700
 9306SOL     OW39379   2.648   4.487  15.137  0.6154 -0.2699 -0.6655
 9306SOL    HW139380   2.604   4.531  15.065 -0.8420  0.5705  0.7237
 9306SOL    HW239381   2.643   4.556  15.203  0.1609 -0.4129 -0.5473
 9307SOL     OW39382   2.129   3.544   8.828  0.1854  0.1702 -0.1461
 9307SOL    HW139383   2.055   3.487   8.807  0.4574  0.8949 -3.1311
 9307SOL    HW239384   2.199   3.483   8.806 -0.6784 -0.9989  0.3189
 9308SOL     OW39385   4.214   1.641   7.470 -0.2191  0.2694 -0.1470
 9308SOL    HW139386   4.138   1.586   7.489  0.5484 -0.7581 -0.0307
 9308SOL    HW239387   4.228   1.618   7.378 -1.0346 -1.4461  0.1359
 9309SOL     OW39388   1.486   3.460   5.889 -0.6751 -0.7419 -0.1386
 9309SOL    HW139389   1.567   3.486   5.847 -0.7495 -1.1241 -0.5239
 9309SOL    HW239390   1.470   3.369   5.863 -3.0170 -0.2569 -0.3948
 9310SOL     OW39391   2.471   1.972   7.933 -0.2964  0.4189 -0.0465
 9310SOL    HW139392   2.514   2.057   7.936  0.2438  0.1443  0.0517
 9310SOL    HW239393   2.547   1.918   7.957 -0.8469 -1.3855 -2.3770
 9311SOL     OW39394   2.496   3.104   8.546 -0.2305 -0.3803 -0.5161
 9311SOL    HW139395   2.502   3.087   8.639  1.8445 -0.9260 -0.7607
 9311SOL    HW239396   2.587   3.094   8.518 -0.5298 -1.4696 -1.1003
 9312SOL     OW39397   2.597   0.714   8.090  0.3628 -1.1679 -0.3710
 9312SOL    HW139398   2.553   0.633   8.064  0.1762 -1.5770  1.2405
 9312SOL    HW239399   2.691   0.696   8.082  1.1183  2.0748  1.7369
 9313SOL     OW39400   1.670   3.912   5.673 -0.3533 -0.0575 -0.4607
 9313SOL    HW139401   1.701   3.991   5.716  0.4539 -0.8294  0.3736
 9313SOL    HW239402   1.707   3.918   5.585 -0.1943 -0.2547 -0.4085
 9314SOL     OW39403   4.129   4.499  10.440  0.1964  0.0932  0.3651
 9314SOL    HW139404   4.189   4.468  10.508  1.3780  0.6902 -0.3846
 9314SOL    HW239405   4.066   4.547  10.493  0.7569  1.3545 -0.1054
 9315SOL     OW39406   0.279   3.678   5.744  0.3342 -1.2165  0.3894
 9315SOL    HW139407   0.309   3.714   5.661  0.7972  0.5982  1.3346
 9315SOL    HW239408   0.211   3.741   5.769 -1.5422 -3.0687 -0.0548
 9316SOL     OW39409   2.878   0.601   8.972 -0.2844  0.2612 -0.1292
 9316SOL    HW139410   2.801   0.646   9.008 -1.1239 -0.2843 -1.2359
 9316SOL    HW239411   2.933   0.593   9.050 -0.5390  1.1195  0.1366
 9317SOL     OW39412   4.144   2.545   8.303  0.8787 -0.2767 -0.3820
 9317SOL    HW139413   4.236   2.540   8.276  1.3404 -2.8760  1.6418
 9317SOL    HW239414   4.147   2.480   8.374 -0.8928 -0.1153 -0.1561
 9318SOL     OW39415   2.555   3.370   2.008  0.1267 -0.0498  0.3009
 9318SOL    HW139416   2.595   3.446   1.966 -2.9186  1.8557  0.8395
 9318SOL    HW239417   2.497   3.414   2.070 -0.5146  1.2020 -1.1807
 9319SOL     OW39418   0.034   0.419   8.557 -0.1740  0.0978  0.0726
 9319SOL    HW139419   4.671   0.383   8.586 -0.5671 -0.6637 -2.0253
 9319SOL    HW239420   0.025   0.508   8.524  0.6315  0.4401  0.7606
 9320SOL     OW39421   3.770   3.274  15.212  0.1116 -0.8868  0.2793
 9320SOL    HW139422   3.783   3.196  15.266 -0.6078 -0.1372  1.5425
 9320SOL    HW239423   3.680   3.260  15.184  0.1433  0.0754 -0.3117
 9321SOL     OW39424   0.129   3.188   1.943  0.2130 -0.2967  0.5574
 9321SOL    HW139425   0.142   3.093   1.936 -0.2466 -0.4283  1.4875
 9321SOL    HW239426   0.164   3.219   1.860 -0.3975 -0.1508  0.3524
 9322SOL     OW39427   3.207   3.324   3.601  0.1902  0.1774 -0.2377
 9322SOL    HW139428   3.151   3.401   3.592 -1.5892 -1.1733 -0.6652
 9322SOL    HW239429   3.183   3.283   3.684  1.9376 -1.4519 -0.5219
 9323SOL     OW39430   0.870   4.135   6.823  0.6032 -0.0079  0.0455
 9323SOL    HW139431   0.925   4.183   6.761  1.0268 -0.9094 -0.2720
 9323SOL    HW239432   0.818   4.098   6.752  1.0975 -0.5050 -0.0548
 9324SOL     OW39433   0.121   0.905  16.559 -0.3257 -0.7187  0.0927
 9324SOL    HW139434   0.155   0.945  16.479 -1.1852 -0.5173 -0.1736
 9324SOL    HW239435   0.027   0.923  16.552 -0.6135 -2.7559 -1.1297
 9325SOL     OW39436   2.224   3.201   8.061  0.0022 -0.2026 -0.3235
 9325SOL    HW139437   2.153   3.189   8.123  0.2711 -1.0114 -0.1767
 9325SOL    HW239438   2.238   3.113   8.026 -1.6378 -0.3175 -0.6561
 9326SOL     OW39439   3.457   0.321   3.073 -0.0782 -0.7278  0.4181
 9326SOL    HW139440   3.447   0.360   2.986  0.5445 -1.3396  0.0771
 9326SOL    HW239441   3.411   0.237   3.068 -0.1201 -0.8521  2.7258
 9327SOL     OW39442   1.333   0.403   8.605  0.2403 -0.2594  0.5148
 9327SOL    HW139443   1.261   0.439   8.656 -1.0764  0.5084 -1.8636
 9327SOL    HW239444   1.386   0.362   8.673 -0.4290 -0.4213  0.9359
 9328SOL     OW39445   1.495   2.488   3.368 -0.5146 -0.5799  0.1023
 9328SOL    HW139446   1.421   2.482   3.307 -0.2176  1.8680 -0.4985
 9328SOL    HW239447   1.460   2.511   3.454  0.2918  0.9968  0.0101
 9329SOL     OW39448   1.161   1.098  15.938 -0.4243 -0.1145  0.0528
 9329SOL    HW139449   1.082   1.149  15.957 -1.1722 -1.6571  1.1005
 9329SOL    HW239450   1.200   1.096  16.025 -1.9481  2.1719  0.7831
 9330SOL     OW39451   4.072   3.084  12.898  0.5167  0.4025 -0.1337
 9330SOL    HW139452   4.018   3.128  12.964  0.9920  0.0700  0.4811
 9330SOL    HW239453   4.069   3.139  12.820  3.8580 -0.0142 -0.5412
 9331SOL     OW39454   4.026   3.430  17.227  0.4209 -0.7738 -0.1983
 9331SOL    HW139455   3.989   3.460  17.309 -1.4820  1.0228 -1.7127
 9331SOL    HW239456   3.943   3.419  17.180  1.4964 -1.5930 -1.9051
 9332SOL     OW39457   0.100   1.642  10.074 -0.5744  0.1547  0.1952
 9332SOL    HW139458   0.036   1.694  10.123  0.9445  0.4212  1.8805
 9332SOL    HW239459   0.117   1.708  10.006 -0.0288  0.0695  0.2514
 9333SOL     OW39460   3.211   0.653   4.565 -0.1695  0.7869 -0.3213
 9333SOL    HW139461   3.300   0.677   4.538 -0.3864  2.9107  0.8411
 9333SOL    HW239462   3.182   0.625   4.478 -1.5694 -1.1888  0.7613
 9334SOL     OW39463   1.717   0.924   3.836  0.5100  0.5009  0.0419
 9334SOL    HW139464   1.775   0.935   3.912 -1.0205  0.0861  1.2549
 9334SOL    HW239465   1.684   1.012   3.819 -0.7256 -0.1197 -0.6912
 9335SOL     OW39466   0.363   3.373   5.274  0.0755  0.0485 -0.0787
 9335SOL    HW139467   0.423   3.319   5.223 -2.0362 -0.8063 -1.6733
 9335SOL    HW239468   0.318   3.401   5.194 -1.2349  0.1243  0.6861
 9336SOL     OW39469   0.880   2.523  10.322 -0.6185  0.3177  0.6728
 9336SOL    HW139470   0.840   2.519  10.409  0.1651  0.0775  1.0146
 9336SOL    HW239471   0.831   2.461  10.269 -0.5408 -0.1076  1.0977
 9337SOL     OW39472   1.751   1.849   3.311 -0.0457  0.4304 -0.2740
 9337SOL    HW139473   1.726   1.770   3.360  2.9216  0.9173  2.0314
 9337SOL    HW239474   1.842   1.864   3.338 -0.1367 -0.6349  0.6564
 9338SOL     OW39475   0.905   2.776   7.456 -0.2661  0.2454 -0.2042
 9338SOL    HW139476   0.845   2.753   7.527  0.7520 -2.1517 -0.1287
 9338SOL    HW239477   0.962   2.833   7.509  0.5439  0.1726 -1.0002
 9339SOL     OW39478   1.396   3.735   0.750 -0.3068  0.0289  0.0394
 9339SOL    HW139479   1.397   3.745   0.655 -0.0717  0.8203  0.1185
 9339SOL    HW239480   1.482   3.693   0.747 -0.5601 -0.5646  1.2248
 9340SOL     OW39481   3.633   4.209  12.531 -0.3453  0.6991  0.2316
 9340SOL    HW139482   3.596   4.297  12.537 -0.5830  0.5820  0.4946
 9340SOL    HW239483   3.658   4.206  12.623  1.4120 -0.1666 -0.2853
 9341SOL     OW39484   1.779   3.760   6.797 -0.0799 -0.2971 -0.2903
 9341SOL    HW139485   1.707   3.728   6.852 -0.5079  0.3445 -0.4828
 9341SOL    HW239486   1.729   3.838   6.775 -0.9507 -0.6054  0.5596
 9342SOL     OW39487   1.907   3.432  13.119  0.3904 -0.5684  0.2504
 9342SOL    HW139488   1.909   3.450  13.212 -2.9639 -0.7703  0.3624
 9342SOL    HW239489   1.822   3.388  13.111 -0.2358  0.7328 -0.3273
 9343SOL     OW39490   0.039   3.750   8.410  0.0937  0.4302  0.2739
 9343SOL    HW139491   0.129   3.781   8.397  0.0601  1.0020  1.4803
 9343SOL    HW239492   0.045   3.657   8.388  4.3445  0.3730  1.5884
 9344SOL     OW39493   4.215   2.876   9.910  0.1111  0.4817  0.0283
 9344SOL    HW139494   4.184   2.900   9.997  2.8935  0.8638  0.9091
 9344SOL    HW239495   4.170   2.792   9.902  0.2673  0.3315  0.7358
 9345SOL     OW39496   3.470   0.573   3.251 -0.3725 -0.3037 -1.1240
 9345SOL    HW139497   3.438   0.499   3.198 -1.2198 -0.5662 -0.2281
 9345SOL    HW239498   3.391   0.608   3.291  0.1543  1.1276 -1.3264
 9346SOL     OW39499   0.104   2.732   3.669  0.2104  0.2877 -0.1846
 9346SOL    HW139500   0.186   2.752   3.715 -0.4739 -0.3746  1.3190
 9346SOL    HW239501   0.092   2.809   3.613  2.2784 -0.6226 -1.8773
 9347SOL     OW39502   1.393   1.060   6.989 -0.6759  0.1007  0.2088
 9347SOL    HW139503   1.477   1.017   7.000 -0.2173  0.7874 -0.6189
 9347SOL    HW239504   1.401   1.128   7.057  1.4786 -0.6521  0.7118
 9348SOL     OW39505   4.298   0.125  11.552 -0.5791 -0.1421 -0.4321
 9348SOL    HW139506   4.376   0.179  11.559  0.3393 -1.3262 -1.6630
 9348SOL    HW239507   4.270   0.135  11.643 -1.0627  0.5981 -0.6621
 9349SOL     OW39508   3.570   3.896   3.816 -0.3382  0.4695 -0.4818
 9349SOL    HW139509   3.581   3.802   3.832 -0.8412  0.4038 -0.4981
 9349SOL    HW239510   3.652   3.935   3.843  0.5800 -0.6804 -1.6046
 9350SOL     OW39511   0.466   4.261   1.834 -0.2891  0.4730  0.0638
 9350SOL    HW139512   0.483   4.238   1.743 -1.0564  0.0659  0.0212
 9350SOL    HW239513   0.533   4.207   1.876 -2.0595 -0.7375  1.3444
 9351SOL     OW39514   0.665   3.029   8.921  0.7237  0.0566  0.6037
 9351SOL    HW139515   0.731   3.056   8.857  1.6642 -1.0591  1.0967
 9351SOL    HW239516   0.689   2.936   8.920  1.0795  0.1601 -0.1958
 9352SOL     OW39517   1.091   1.609  11.662  0.1994  0.6498  0.2807
 9352SOL    HW139518   1.107   1.539  11.726 -0.3159 -0.2374 -0.5533
 9352SOL    HW239519   1.049   1.567  11.587  0.4487 -0.6423  0.8625
 9353SOL     OW39520   2.687   3.864   2.387  0.1335  0.1497 -0.8842
 9353SOL    HW139521   2.636   3.935   2.427  2.2358  1.1374  0.0725
 9353SOL    HW239522   2.646   3.868   2.301  1.8893  1.1708 -1.6724
 9354SOL     OW39523   4.636   3.137   4.584  0.7447  0.0243 -0.0180
 9354SOL    HW139524   4.665   3.086   4.660 -2.3470  0.6220  1.5430
 9354SOL    HW239525   4.562   3.178   4.628  2.0510  0.5129  1.7240
 9355SOL     OW39526   0.542   4.003   7.899  0.7139 -0.2413 -0.1712
 9355SOL    HW139527   0.499   3.976   7.981 -0.9843  0.5998 -0.7858
 9355SOL    HW239528   0.544   4.099   7.902 -1.6149 -0.1622 -0.8718
 9356SOL     OW39529   1.890   0.585   2.939  0.2432  0.4340 -0.2617
 9356SOL    HW139530   1.807   0.550   2.906  0.8176 -1.7744  0.6340
 9356SOL    HW239531   1.926   0.509   2.984  1.8403  1.6448  0.4830
 9357SOL     OW39532   3.373   3.708   6.175 -0.6299  0.0839 -0.0831
 9357SOL    HW139533   3.311   3.635   6.173  1.9977 -2.1034 -1.7687
 9357SOL    HW239534   3.332   3.770   6.235  1.3689  1.6479 -0.3480
 9358SOL     OW39535   1.418   3.104   3.182  0.0199  0.4001  0.3074
 9358SOL    HW139536   1.459   3.069   3.103 -0.1973 -1.7573  1.1352
 9358SOL    HW239537   1.358   3.172   3.152 -0.0987 -1.1423 -2.9385
 9359SOL     OW39538   1.918   3.649  10.447 -0.6891  0.4475  0.0703
 9359SOL    HW139539   2.006   3.681  10.464 -1.2890  2.7544 -1.1568
 9359SOL    HW239540   1.933   3.583  10.379 -0.6056 -0.6787  1.1772
 9360SOL     OW39541   3.136   1.231   1.331 -0.0336  0.0799  0.3720
 9360SOL    HW139542   3.198   1.223   1.259  0.5755 -1.4113  1.0621
 9360SOL    HW239543   3.157   1.160   1.392 -0.2306  1.5166  2.1042
 9361SOL     OW39544   3.057   0.432  11.834 -0.2553 -0.0799  0.6141
 9361SOL    HW139545   3.040   0.369  11.764 -0.0407 -1.5017  1.8320
 9361SOL    HW239546   3.020   0.387  11.910  1.6416 -1.5875  0.6278
 9362SOL     OW39547   4.293   3.111  11.749 -0.0056  0.0741 -0.2523
 9362SOL    HW139548   4.373   3.160  11.769 -0.9559  0.9434  1.4227
 9362SOL    HW239549   4.239   3.155  11.815  0.6270 -0.1883  0.4336
 9363SOL     OW39550   1.304   2.528   4.904 -0.1375 -0.2987  0.0503
 9363SOL    HW139551   1.397   2.519   4.885 -0.4443 -0.2311 -1.4903
 9363SOL    HW239552   1.300   2.485   4.989  0.7549  0.2576  0.3778
 9364SOL     OW39553   3.598   2.973   4.745  0.6211 -0.2535 -0.3626
 9364SOL    HW139554   3.648   3.050   4.774 -2.1911  0.4171  2.7136
 9364SOL    HW239555   3.516   3.017   4.724  0.5884 -0.7413 -1.2720
 9365SOL     OW39556   2.724   0.615  12.192 -0.3345  0.1407 -0.2820
 9365SOL    HW139557   2.784   0.547  12.163 -0.9252 -1.5439  2.4744
 9365SOL    HW239558   2.655   0.611  12.125 -0.1313 -2.7027 -0.3011
 9366SOL     OW39559   0.062   3.485   2.481 -0.3580  0.4643  0.3309
 9366SOL    HW139560   0.153   3.458   2.475 -0.2333  1.6558 -3.2500
 9366SOL    HW239561   0.067   3.580   2.470  1.5007  0.4123  0.8427
 9367SOL     OW39562   1.440   2.381   2.916 -0.0625 -0.2422 -0.0107
 9367SOL    HW139563   1.361   2.408   2.868 -0.3002  0.5237  0.8225
 9367SOL    HW239564   1.395   2.396   2.999  1.7672 -0.5284  1.0162
 9368SOL     OW39565   3.336   2.549  14.674  0.6790 -0.2805 -0.4463
 9368SOL    HW139566   3.248   2.571  14.644  0.8332 -0.4811 -1.0410
 9368SOL    HW239567   3.371   2.634  14.703 -0.7034  1.5819 -4.2541
 9369SOL     OW39568   4.001   3.746   5.506 -0.0353  0.3691  0.0584
 9369SOL    HW139569   3.964   3.666   5.545 -1.4805  0.3498 -1.3517
 9369SOL    HW239570   3.935   3.751   5.436  1.1587 -0.9415 -1.1771
 9370SOL     OW39571   1.613   0.547   7.757  0.3777 -0.3047 -0.8363
 9370SOL    HW139572   1.641   0.633   7.726 -2.0163  0.7229 -0.1021
 9370SOL    HW239573   1.567   0.578   7.835  0.5052  0.7455 -1.1841
 9371SOL     OW39574   1.861   2.118   5.992 -0.3861  0.0070 -0.1281
 9371SOL    HW139575   1.802   2.082   5.926 -0.4032  1.3421 -0.8419
 9371SOL    HW239576   1.889   2.033   6.026 -0.6304  0.1420  0.4196
 9372SOL     OW39577   1.660   0.070   2.962  0.7096 -0.5429  0.0600
 9372SOL    HW139578   1.721   4.717   2.952 -0.0731 -1.2393  0.5219
 9372SOL    HW239579   1.593   0.037   3.021  2.4530 -0.7849  1.8820
 9373SOL     OW39580   0.694   3.092   2.797  0.2898  0.5279 -0.3291
 9373SOL    HW139581   0.688   3.000   2.774  1.6158  0.4871 -0.5151
 9373SOL    HW239582   0.788   3.100   2.781 -0.1448  1.0979 -2.5469
 9374SOL     OW39583   0.374   1.336   5.283 -0.2026 -0.0579 -0.2726
 9374SOL    HW139584   0.366   1.241   5.295 -0.6100 -0.2225 -1.8226
 9374SOL    HW239585   0.284   1.342   5.250  0.0243  0.7296 -0.7441
 9375SOL     OW39586   0.195   0.761   3.512  0.8622 -0.2283 -0.7271
 9375SOL    HW139587   0.106   0.733   3.488 -0.1555  0.4208  2.2285
 9375SOL    HW239588   0.190   0.855   3.495 -1.3126 -0.0884  0.6556
 9376SOL     OW39589   0.642   0.959   1.618  0.1825 -0.2184  0.1187
 9376SOL    HW139590   0.678   1.038   1.578  2.3866 -0.5428  1.4323
 9376SOL    HW239591   0.567   0.943   1.561  0.6404  0.5069 -0.6956
 9377SOL     OW39592   0.290   3.390   7.351  0.5755 -0.6150 -0.0036
 9377SOL    HW139593   0.283   3.421   7.441  0.3586  0.8780 -0.5288
 9377SOL    HW239594   0.218   3.440   7.313  2.5117  2.5638  0.5725
 9378SOL     OW39595   3.072   3.372   8.807 -0.1675 -0.3165  0.0960
 9378SOL    HW139596   3.033   3.459   8.812  1.5015  0.5048 -1.3303
 9378SOL    HW239597   3.030   3.353   8.723 -1.3413 -1.0912  0.8574
 9379SOL     OW39598   2.708   1.840   5.474 -0.1897 -0.3431 -0.3838
 9379SOL    HW139599   2.714   1.934   5.461 -0.6580 -0.4713 -1.4771
 9379SOL    HW239600   2.790   1.822   5.521  0.0821 -0.8195 -1.0486
 9380SOL     OW39601   2.529   4.258   6.243  0.0844 -0.0735  0.2035
 9380SOL    HW139602   2.622   4.281   6.251  0.0781  0.3210 -0.9107
 9380SOL    HW239603   2.528   4.186   6.306 -0.4563  0.6647  1.0502
 9381SOL     OW39604   3.805   0.432   7.152  0.1644  0.0764 -0.1396
 9381SOL    HW139605   3.743   0.395   7.215  0.2726 -2.3926 -1.4713
 9381SOL    HW239606   3.812   0.362   7.086  0.1211  1.3192 -1.4723
 9382SOL     OW39607   3.643   3.967   1.372  0.1894  0.5128 -0.1110
 9382SOL    HW139608   3.568   4.009   1.415 -0.6053 -1.7408  0.7206
 9382SOL    HW239609   3.609   3.879   1.356  0.3675  0.1127  1.6851
 9383SOL     OW39610   1.741   2.122   3.436  0.0307 -0.0174 -0.1136
 9383SOL    HW139611   1.741   2.060   3.508  0.9321  1.8926  1.5336
 9383SOL    HW239612   1.817   2.095   3.385  0.0373 -0.3428  0.0727
 9384SOL     OW39613   2.500   3.745   7.180  0.4483 -0.3822 -0.0922
 9384SOL    HW139614   2.575   3.690   7.160  0.9961  0.1021  0.6239
 9384SOL    HW239615   2.541   3.795   7.251  0.1662  0.8440 -0.7789
 9385SOL     OW39616   2.429   2.815   2.024 -0.5340 -0.1375 -0.2323
 9385SOL    HW139617   2.492   2.747   2.046 -3.5703 -2.9293 -0.1201
 9385SOL    HW239618   2.413   2.866   2.103 -1.7074 -0.0652 -0.5127
 9386SOL     OW39619   2.134   1.873  12.979 -0.6779 -0.4029  0.0663
 9386SOL    HW139620   2.090   1.811  13.037 -0.7512  2.1777  2.7096
 9386SOL    HW239621   2.073   1.878  12.905 -2.7601  0.1356  1.8172
 9387SOL     OW39622   4.032   0.046   5.275 -0.4261  0.4330  0.7398
 9387SOL    HW139623   4.099   0.075   5.213  0.5757 -1.1078  1.1043
 9387SOL    HW239624   3.957   0.101   5.253 -0.5785 -0.1209 -0.1280
 9388SOL     OW39625   2.326   2.829   7.163 -0.6316  0.3098  0.0553
 9388SOL    HW139626   2.386   2.770   7.211  0.6672  2.3783  0.9775
 9388SOL    HW239627   2.241   2.819   7.206 -0.2579 -0.1051  0.7158
 9389SOL     OW39628   4.295   0.033  15.637 -0.1463 -0.1262  0.3309
 9389SOL    HW139629   4.283   4.661  15.654  1.2592  0.2790  3.5255
 9389SOL    HW239630   4.213   0.052  15.591 -0.3662  0.5261  0.9948
 9390SOL     OW39631   4.107   1.317   3.232  0.1885  0.6123 -0.8773
 9390SOL    HW139632   4.039   1.384   3.233 -1.6252 -1.2569  0.9934
 9390SOL    HW239633   4.116   1.315   3.136  2.3322 -1.2167 -0.6451
 9391SOL     OW39634   3.930   4.719  17.216  0.2989 -0.5098 -0.2664
 9391SOL    HW139635   3.955   4.661  17.289 -0.5457 -2.4308 -1.4927
 9391SOL    HW239636   3.922   4.651  17.149  0.5465 -0.0643 -0.7427
 9392SOL     OW39637   3.991   2.474  11.066  0.0766  0.3230 -0.7173
 9392SOL    HW139638   4.015   2.428  11.146 -2.4275  0.0412 -0.1053
 9392SOL    HW239639   3.969   2.559  11.105 -1.8384  0.8663 -3.0066
 9393SOL     OW39640   4.423   0.701   4.598  0.4591 -0.0553 -0.2068
 9393SOL    HW139641   4.433   0.679   4.691  1.6322 -2.9899 -1.0391
 9393SOL    HW239642   4.443   0.795   4.598 -2.8353  0.6528  3.2300
 9394SOL     OW39643   0.721   2.272   7.277 -0.2466  0.3920  0.6350
 9394SOL    HW139644   0.657   2.341   7.261 -0.3001 -0.6721 -3.7580
 9394SOL    HW239645   0.667   2.193   7.270  0.2024  0.1665 -0.4258
 9395SOL     OW39646   0.358   2.559   3.110 -0.2095  0.0196 -0.0710
 9395SOL    HW139647   0.328   2.491   3.170  2.2675 -0.7529  0.2747
 9395SOL    HW239648   0.453   2.560   3.120 -0.4756  1.7793  2.3392
 9396SOL     OW39649   0.301   2.090   7.221  0.8281  0.1637  0.1410
 9396SOL    HW139650   0.278   2.005   7.185  0.9455  0.6421 -1.0868
 9396SOL    HW239651   0.252   2.153   7.168 -1.0333 -0.5299  1.0596
 9397SOL     OW39652   4.538   1.726   5.778 -0.1745  0.3812 -0.5722
 9397SOL    HW139653   4.462   1.690   5.823  0.7061 -2.0890 -1.0468
 9397SOL    HW239654   4.510   1.812   5.748  0.8578  1.8350  2.6020
 9398SOL     OW39655   1.105   1.880   3.231  0.2151  0.2686 -0.0616
 9398SOL    HW139656   1.200   1.877   3.217  0.1850  0.8880 -0.3803
 9398SOL    HW239657   1.083   1.841   3.146 -0.4678  0.3917  0.0626
 9399SOL     OW39658   2.432   3.274   5.178  0.4868  0.5657  0.1634
 9399SOL    HW139659   2.363   3.305   5.236 -0.5602 -0.1187 -0.7261
 9399SOL    HW239660   2.468   3.203   5.232 -1.3715 -0.1925  0.3759
 9400SOL     OW39661   3.750   2.509   2.165  0.1600 -0.5821 -0.0422
 9400SOL    HW139662   3.725   2.568   2.093 -0.5932  2.5580  2.8065
 9400SOL    HW239663   3.796   2.572   2.220 -0.7107 -0.7635  0.8739
 9401SOL     OW39664   4.201   0.289   3.184 -0.1155 -0.1057 -0.1548
 9401SOL    HW139665   4.174   0.267   3.273  2.0089  0.4480  0.6424
 9401SOL    HW239666   4.287   0.246   3.174  0.3622  0.9630 -0.6182
 9402SOL     OW39667   2.744   1.222  11.653 -0.0986  0.9249 -0.6673
 9402SOL    HW139668   2.693   1.245  11.575 -0.5294 -0.6321 -0.8380
 9402SOL    HW239669   2.775   1.138  11.622  0.1813  0.5264  0.6789
 9403SOL     OW39670   4.590   2.576   8.830  0.2756 -0.2381 -0.5634
 9403SOL    HW139671   4.601   2.593   8.736  1.9356 -0.0881 -0.3531
 9403SOL    HW239672   4.509   2.619   8.858  0.7269  0.6901 -0.6731
 9404SOL     OW39673   0.411   1.328   7.557 -0.4982  0.1440  0.4216
 9404SOL    HW139674   0.361   1.399   7.598  1.6480  0.4811  2.4981
 9404SOL    HW239675   0.345   1.259   7.561 -0.2938  0.0115  1.4513
 9405SOL     OW39676   4.255   2.922   6.890  0.0953  0.1309  0.2649
 9405SOL    HW139677   4.291   2.850   6.942  0.5354 -0.1025 -0.3758
 9405SOL    HW239678   4.337   2.972   6.886  0.2733 -0.0766  1.2301
 9406SOL     OW39679   3.832   3.886  11.227 -0.0969  0.3068  0.2192
 9406SOL    HW139680   3.907   3.914  11.278 -0.9050  1.7144  0.6389
 9406SOL    HW239681   3.831   3.944  11.151 -2.1096 -0.9317 -0.7169
 9407SOL     OW39682   1.447   4.648   7.424 -0.0652  0.2754  0.0133
 9407SOL    HW139683   1.511   4.597   7.375  0.1598  1.6693 -1.1597
 9407SOL    HW239684   1.466   0.019   7.406  3.1371 -0.3361  0.3134
 9408SOL     OW39685   4.483   4.667   7.493  0.1380 -0.1135  0.0602
 9408SOL    HW139686   4.577   4.679   7.503  0.2590  1.0565 -2.3212
 9408SOL    HW239687   4.476   4.572   7.503 -1.2268 -0.0713 -0.4881
 9409SOL     OW39688   1.288   3.500   4.128  0.5107 -0.0817  0.4634
 9409SOL    HW139689   1.297   3.542   4.043 -2.4074  2.7846  1.5614
 9409SOL    HW239690   1.327   3.415   4.108  0.1412 -0.5107  1.5291
 9410SOL     OW39691   0.760   2.432   7.578 -0.1101  0.1814  0.0137
 9410SOL    HW139692   0.677   2.472   7.554  0.8412  1.9164 -0.3613
 9410SOL    HW239693   0.735   2.360   7.636  2.1702  0.5129  1.3939
 9411SOL     OW39694   1.620   1.073   6.173 -0.3704 -0.3262 -0.3671
 9411SOL    HW139695   1.685   1.141   6.188  0.0427 -0.4509 -1.5455
 9411SOL    HW239696   1.675   0.997   6.153 -1.5194 -1.0384 -0.8211
 9412SOL     OW39697   4.719   1.439   9.921 -0.9493  0.1955  0.4909
 9412SOL    HW139698   4.721   1.535   9.932  0.7198 -0.0063  2.0423
 9412SOL    HW239699   4.637   1.426   9.969 -1.7525 -1.4430 -1.3665
 9413SOL     OW39700   0.644   3.854  14.496 -0.0516 -0.2263 -1.0601
 9413SOL    HW139701   0.624   3.766  14.527 -3.1597 -0.0204 -2.4934
 9413SOL    HW239702   0.714   3.830  14.435  1.8880 -0.4720  1.2192
 9414SOL     OW39703   2.699   1.129   5.000  0.4037 -0.6859  0.0722
 9414SOL    HW139704   2.768   1.067   4.977 -0.3657 -1.2417 -0.7668
 9414SOL    HW239705   2.744   1.208   5.030  2.2799 -2.0513  0.7743
 9415SOL     OW39706   4.716   3.948  16.858  0.1117  0.7640  0.2546
 9415SOL    HW139707   0.030   3.886  16.794 -0.1466  1.9993 -1.0644
 9415SOL    HW239708   4.626   3.956  16.825  1.1277  0.6420 -2.5441
 9416SOL     OW39709   4.186   4.179   4.761 -0.4722  0.3121  0.0643
 9416SOL    HW139710   4.219   4.233   4.833 -0.8948  2.3342 -1.2514
 9416SOL    HW239711   4.150   4.100   4.802  0.2554 -1.1436 -2.0882
 9417SOL     OW39712   2.370   1.895   3.508  0.6463 -0.3132  0.5955
 9417SOL    HW139713   2.403   1.972   3.555 -0.5426  0.1127  0.7382
 9417SOL    HW239714   2.386   1.917   3.416 -1.2070 -0.4171  0.2516
 9418SOL     OW39715   1.787   3.700  11.400  0.4009 -0.0642  0.5986
 9418SOL    HW139716   1.711   3.755  11.380  0.4144 -0.0475  0.5931
 9418SOL    HW239717   1.753   3.646  11.471 -2.4841 -0.7467 -1.2844
 9419SOL     OW39718   0.155   0.338   7.944 -0.3330 -0.1742 -0.2669
 9419SOL    HW139719   0.220   0.338   7.874  0.0544  0.2928  0.0952
 9419SOL    HW239720   0.210   0.323   8.021 -2.2643 -0.6483  1.0135
 9420SOL     OW39721   1.467   2.283  11.380  0.0284  0.0413  0.0389
 9420SOL    HW139722   1.517   2.357  11.414  1.2272 -1.1907  0.9402
 9420SOL    HW239723   1.445   2.249  11.467 -0.4757  0.5932  0.1290
 9421SOL     OW39724   4.625   0.998   4.983 -0.3784  0.4051  0.4839
 9421SOL    HW139725   4.694   1.012   5.049 -1.1542  1.2545  1.1089
 9421SOL    HW239726   4.675   0.934   4.933 -2.7169  0.0189 -1.3448
 9422SOL     OW39727   2.385   1.991  13.865 -0.6656  0.2990 -0.1231
 9422SOL    HW139728   2.447   1.962  13.799  1.3020  0.0932  1.8051
 9422SOL    HW239729   2.314   2.027  13.812 -0.4622 -0.5981 -0.9997
 9423SOL     OW39730   2.073   3.060   4.469 -0.1871 -0.0287  0.3571
 9423SOL    HW139731   2.134   3.123   4.432 -0.3129 -1.9879 -3.2543
 9423SOL    HW239732   2.104   2.978   4.429 -1.2480 -1.0118  1.5505
 9424SOL     OW39733   1.633   3.481   6.785  0.2073  0.1736 -0.2627
 9424SOL    HW139734   1.615   3.404   6.732 -0.5564  0.6331 -0.6857
 9424SOL    HW239735   1.673   3.534   6.716  1.8649  0.2442  0.7590
 9425SOL     OW39736   2.998   0.954  17.317  0.4901  0.1726  0.9219
 9425SOL    HW139737   2.945   1.014  17.263 -1.3425 -0.1769  2.3206
 9425SOL    HW239738   3.029   0.902  17.243  1.8395  0.6984  1.1302
 9426SOL     OW39739   4.242   4.474   4.692  0.4058  0.2702 -0.4974
 9426SOL    HW139740   4.293   4.491   4.771  1.9925 -2.9251 -0.8265
 9426SOL    HW239741   4.314   4.454   4.632  1.4170 -1.0462  1.1819
 9427SOL     OW39742   0.405   2.564   5.018  0.8753  0.0078 -0.2453
 9427SOL    HW139743   0.454   2.506   4.960  0.7520 -1.3774  1.0663
 9427SOL    HW239744   0.331   2.506   5.034  0.0929  0.9104 -0.5749
 9428SOL     OW39745   4.096   3.255  14.733 -0.3233 -0.3933 -0.3658
 9428SOL    HW139746   4.063   3.337  14.769  0.3494  0.2529 -1.2253
 9428SOL    HW239747   4.090   3.271  14.639  2.0658 -1.1682 -0.6486
 9429SOL     OW39748   4.514   4.063   4.907  0.2077 -0.0171  0.0480
 9429SOL    HW139749   4.472   4.062   4.820 -1.8859  0.7928  1.0362
 9429SOL    HW239750   4.475   3.987   4.948 -1.2909  2.2213  2.7720
 9430SOL     OW39751   3.350   0.190   4.336 -0.0454 -0.0217  0.1431
 9430SOL    HW139752   3.423   0.191   4.274 -0.0885 -1.4710  0.0739
 9430SOL    HW239753   3.371   0.272   4.381  2.2248 -0.1006 -0.7678
 9431SOL     OW39754   4.197   2.623   6.175 -0.1634  0.0343  0.0351
 9431SOL    HW139755   4.115   2.604   6.219 -0.0986  1.0730  0.5986
 9431SOL    HW239756   4.196   2.719   6.174 -0.6624  0.0406  1.3377
 9432SOL     OW39757   2.287   2.686  13.159 -0.3247 -0.0185 -0.2176
 9432SOL    HW139758   2.363   2.744  13.169 -0.6908  0.1042  1.9728
 9432SOL    HW239759   2.212   2.737  13.189  0.6586  1.6043 -0.5056
 9433SOL     OW39760   4.484   3.895   9.878 -0.2763  0.4207 -1.0020
 9433SOL    HW139761   4.440   3.816   9.846  0.9099 -0.3943 -0.6316
 9433SOL    HW239762   4.501   3.941   9.796  3.2907  0.6350 -0.1590
 9434SOL     OW39763   2.190   4.062   9.818  0.0975  0.5674 -0.5482
 9434SOL    HW139764   2.123   4.028   9.759 -0.1432  3.0427 -1.6862
 9434SOL    HW239765   2.211   3.992   9.880  2.5074  1.0315 -0.8540
 9435SOL     OW39766   4.068   2.164   6.116  0.1070  0.0365 -0.0118
 9435SOL    HW139767   4.151   2.167   6.164 -0.8996  2.5317  1.5475
 9435SOL    HW239768   4.066   2.070   6.098  0.3476 -0.0188  0.2529
 9436SOL     OW39769   1.573   1.841  14.516  0.2023 -0.0112 -0.6130
 9436SOL    HW139770   1.627   1.777  14.469  2.0645  1.2864 -0.2201
 9436SOL    HW239771   1.485   1.803  14.513 -0.4699  1.4254  1.1787
 9437SOL     OW39772   2.209   1.041   7.428  0.1004 -0.6967 -0.5332
 9437SOL    HW139773   2.196   1.010   7.518  0.9309 -0.6575 -0.3997
 9437SOL    HW239774   2.130   1.095   7.430 -0.0413 -0.8305 -3.6185
 9438SOL     OW39775   0.116   3.014   5.142 -0.5168  0.3826  0.7300
 9438SOL    HW139776   0.148   3.022   5.232 -0.4779  0.3986  0.7146
 9438SOL    HW239777   0.194   2.977   5.101 -0.2698  0.9498  0.6978
 9439SOL     OW39778   2.140   2.911   3.384  0.1538 -0.4907  0.2999
 9439SOL    HW139779   2.182   2.856   3.317 -1.8539  1.0135 -2.1750
 9439SOL    HW239780   2.094   2.972   3.327 -1.0430 -0.8747  0.8575
 9440SOL     OW39781   0.819   0.678   6.764  0.4412  0.0435 -0.4001
 9440SOL    HW139782   0.876   0.639   6.831 -1.1707 -0.4790  0.6846
 9440SOL    HW239783   0.882   0.696   6.695 -1.0249  2.0716 -1.1865
 9441SOL     OW39784   3.965   3.659   7.902  0.0424  0.1364 -0.3979
 9441SOL    HW139785   3.933   3.641   7.813  1.4472  0.8622 -1.0445
 9441SOL    HW239786   3.995   3.749   7.894  0.5742 -0.2298 -2.7463
 9442SOL     OW39787   4.567   1.650   9.652 -0.0977  0.1970  0.7289
 9442SOL    HW139788   4.626   1.719   9.621  0.7621 -0.4580  0.8885
 9442SOL    HW239789   4.491   1.661   9.595  0.3751  0.4004  0.1282
 9443SOL     OW39790   0.666   1.243   1.421 -0.1754  0.5879  0.5283
 9443SOL    HW139791   0.742   1.186   1.424 -0.2666  0.5222  1.3471
 9443SOL    HW239792   0.711   1.319   1.385 -0.2529  0.9963  1.2960
 9444SOL     OW39793   0.114   0.515  15.725 -0.2824  0.3109 -0.4186
 9444SOL    HW139794   0.068   0.584  15.772  0.8830 -0.1742  1.4284
 9444SOL    HW239795   0.040   0.455  15.713  0.7913 -1.2106  0.4524
 9445SOL     OW39796   0.487   3.556  11.702 -0.1831  0.3253 -0.0741
 9445SOL    HW139797   0.530   3.489  11.649 -1.0985 -1.8406  1.9428
 9445SOL    HW239798   0.401   3.558  11.661 -0.6361 -1.5938  0.7741
 9446SOL     OW39799   0.835   0.011  13.044  0.4299  0.7307  0.2816
 9446SOL    HW139800   0.794   0.036  13.127  0.2039 -2.9805  1.2819
 9446SOL    HW239801   0.776   0.038  12.973  0.6742  0.0305 -0.1905
 9447SOL     OW39802   3.370   3.900   3.132 -0.5069  0.3833  0.0593
 9447SOL    HW139803   3.357   3.972   3.070 -2.8061  0.2384  0.3499
 9447SOL    HW239804   3.326   3.940   3.207 -1.6164 -1.7468  0.5468
 9448SOL     OW39805   2.248   1.721   7.457 -0.3193  0.2914  0.2556
 9448SOL    HW139806   2.214   1.680   7.537 -0.0841 -0.5541 -0.0768
 9448SOL    HW239807   2.341   1.743   7.467 -0.3283  0.2999  0.3209
 9449SOL     OW39808   0.929   4.623  11.256 -0.0864 -0.0247 -0.0890
 9449SOL    HW139809   1.017   4.656  11.242  0.9343 -1.0979  3.7360
 9449SOL    HW239810   0.869   4.698  11.259  0.2145  0.2374 -0.5939
 9450SOL     OW39811   4.143   1.569   2.917  0.5823  0.0261 -0.5640
 9450SOL    HW139812   4.126   1.477   2.937  1.5927 -0.0321  0.0261
 9450SOL    HW239813   4.061   1.592   2.874  0.8386  3.1241  0.6063
 9451SOL     OW39814   0.595   3.829   0.842 -0.2160  0.3005  0.0736
 9451SOL    HW139815   0.634   3.873   0.917  1.3753  0.8275 -1.0524
 9451SOL    HW239816   0.640   3.745   0.848 -3.0297 -1.1627  0.3606
 9452SOL     OW39817   4.232   3.685   9.505 -0.3816  0.0957  0.7882
 9452SOL    HW139818   4.171   3.758   9.497  0.6013  0.8923  0.6082
 9452SOL    HW239819   4.269   3.666   9.419 -1.1027 -1.0287  0.7254
 9453SOL     OW39820   2.696   0.823   4.944 -0.7063 -0.0105 -0.2580
 9453SOL    HW139821   2.714   0.784   4.859  1.7809 -1.3978  0.9105
 9453SOL    HW239822   2.747   0.904   4.946  0.4472 -0.7523  0.3872
 9454SOL     OW39823   1.773   4.315   7.919 -0.4767 -0.5821 -0.1996
 9454SOL    HW139824   1.735   4.360   7.995 -2.9829  3.3048 -3.7286
 9454SOL    HW239825   1.828   4.246   7.956 -2.3602 -1.8055  0.3397
 9455SOL     OW39826   3.021   4.219   6.649  0.0900 -0.4441 -0.4682
 9455SOL    HW139827   3.108   4.211   6.688  0.2596  1.8123 -0.3481
 9455SOL    HW239828   2.982   4.245   6.732  2.9093  0.9819  0.4394
 9456SOL     OW39829   1.359   2.232   6.387 -0.1081  0.0559  0.1904
 9456SOL    HW139830   1.267   2.215   6.368 -0.0824 -0.2342  0.3424
 9456SOL    HW239831   1.363   2.221   6.482 -0.7125 -0.3750  0.1591
 9457SOL     OW39832   4.311   1.835  16.095 -0.5697  0.2651  0.8526
 9457SOL    HW139833   4.317   1.816  16.001  0.1689  1.3700  0.6753
 9457SOL    HW239834   4.233   1.890  16.097 -1.0163 -0.3091 -1.0861
 9458SOL     OW39835   0.297   3.620   6.019  0.0470  0.1164 -0.0897
 9458SOL    HW139836   0.260   3.616   5.931  0.5167 -1.5569 -0.2146
 9458SOL    HW239837   0.296   3.712   6.046 -1.3726 -0.0409  0.3842
 9459SOL     OW39838   2.185   1.710   0.587  0.2931  0.2904  0.5971
 9459SOL    HW139839   2.174   1.724   0.681 -1.4094  0.2809  0.4103
 9459SOL    HW239840   2.100   1.741   0.556 -0.4399 -1.5116  0.7941
 9460SOL     OW39841   3.967   1.196   7.602  0.0990 -0.1510  0.1797
 9460SOL    HW139842   4.058   1.220   7.615 -0.5933  2.4800  0.3271
 9460SOL    HW239843   3.951   1.143   7.680 -1.7423 -0.2041 -0.2218
 9461SOL     OW39844   2.955   0.446   1.067  0.5150  0.4601 -0.3771
 9461SOL    HW139845   3.029   0.403   1.023 -0.4473  0.0662 -1.5979
 9461SOL    HW239846   2.894   0.459   0.995 -0.0787 -1.5400 -0.2378
 9462SOL     OW39847   2.162   3.972   6.875 -0.3517  0.1949  0.3148
 9462SOL    HW139848   2.136   4.042   6.935 -0.1236  1.6110 -1.2446
 9462SOL    HW239849   2.224   3.932   6.936  0.7732 -0.4322 -1.2523
 9463SOL     OW39850   1.604   1.415   9.383 -0.4541  0.1135  0.2236
 9463SOL    HW139851   1.684   1.465   9.366  0.4151 -0.7517  1.7113
 9463SOL    HW239852   1.618   1.336   9.330 -1.3043  0.3272 -0.3098
 9464SOL     OW39853   3.992   2.788   8.037  0.6568  0.2479 -0.4584
 9464SOL    HW139854   3.960   2.740   7.961 -1.4085  2.6170 -1.1065
 9464SOL    HW239855   4.013   2.874   7.998  2.0679  0.5479  0.9498
 9465SOL     OW39856   2.379   3.395  10.097 -0.4164  0.4520 -0.5099
 9465SOL    HW139857   2.464   3.350  10.095 -0.4931  0.2085  1.3373
 9465SOL    HW239858   2.353   3.376  10.007 -0.4323  2.8308 -0.9949
 9466SOL     OW39859   3.559   3.962   1.760  0.0298  0.0122 -0.0746
 9466SOL    HW139860   3.501   3.926   1.693  1.0150 -0.9996 -0.3762
 9466SOL    HW239861   3.643   3.958   1.715 -0.6312 -1.2297 -1.1993
 9467SOL     OW39862   3.696   1.735  17.524 -0.3933 -0.6282 -0.4715
 9467SOL    HW139863   3.675   1.691  17.606  2.0102 -0.9202 -0.0233
 9467SOL    HW239864   3.671   1.661  17.468  1.7834 -0.2909 -1.9023
 9468SOL     OW39865   0.996   1.415   7.385 -0.4889  0.0758  0.0353
 9468SOL    HW139866   0.945   1.336   7.402 -0.7081 -0.1564 -1.7338
 9468SOL    HW239867   1.077   1.374   7.355 -1.0436  0.0117 -1.3763
 9469SOL     OW39868   0.272   3.809  16.587 -0.2064 -0.4563 -0.2381
 9469SOL    HW139869   0.285   3.886  16.532  4.7600 -2.7188 -2.2431
 9469SOL    HW239870   0.340   3.831  16.651 -1.6691 -0.4483  1.3180
 9470SOL     OW39871   2.097   1.914   2.033  0.1254 -0.1287 -0.2579
 9470SOL    HW139872   2.111   1.820   2.043  0.1729  0.0355  1.1621
 9470SOL    HW239873   2.189   1.940   2.031 -0.3887  1.7388  0.9633
 9471SOL     OW39874   2.606   1.827   4.700  0.6233 -0.1207 -0.0946
 9471SOL    HW139875   2.666   1.810   4.627  1.9201  0.4388  0.8471
 9471SOL    HW239876   2.602   1.743   4.745  0.5861 -0.8258 -1.4003
 9472SOL     OW39877   3.283   1.067   7.587  0.3362 -0.1270 -0.1166
 9472SOL    HW139878   3.194   1.032   7.593 -0.5331  1.5887 -3.0324
 9472SOL    HW239879   3.284   1.136   7.522  0.5952 -0.9638 -0.9964
 9473SOL     OW39880   1.541   0.993   6.689 -1.0531  0.2007 -0.5345
 9473SOL    HW139881   1.487   0.987   6.610  2.7317 -0.4342 -3.0887
 9473SOL    HW239882   1.614   1.041   6.651 -0.6478 -1.8899 -2.3911
 9474SOL     OW39883   2.326   1.778  13.170  0.2124  0.3835  0.6512
 9474SOL    HW139884   2.348   1.686  13.152  1.9789  0.9327 -0.0296
 9474SOL    HW239885   2.258   1.799  13.107  0.1339 -2.6558 -0.2909
 9475SOL     OW39886   4.382   1.535   2.779  0.0894 -0.0057  0.6771
 9475SOL    HW139887   4.293   1.561   2.803 -0.7155 -0.8615 -1.3682
 9475SOL    HW239888   4.433   1.554   2.858 -0.6673  0.3310  1.0876
 9476SOL     OW39889   2.333   3.506  13.622 -0.7021 -0.1216 -0.2551
 9476SOL    HW139890   2.373   3.576  13.570  0.1183 -0.2747  0.1659
 9476SOL    HW239891   2.343   3.431  13.564  0.8465  0.8163 -1.1925
 9477SOL     OW39892   3.597   4.094   1.111  0.3531 -0.3697 -0.1360
 9477SOL    HW139893   3.581   4.049   1.193 -0.3019  1.4630  0.7315
 9477SOL    HW239894   3.670   4.040   1.080 -0.6481 -1.8753  0.1454
 9478SOL     OW39895   2.258   4.628   3.569 -0.1190 -0.1625 -0.3475
 9478SOL    HW139896   2.352   4.610   3.569  0.1684  1.3350  1.6483
 9478SOL    HW239897   2.256   4.717   3.605 -0.1348 -1.0024  1.7055
 9479SOL     OW39898   3.893   0.562   3.765  0.3064  0.1391 -0.4771
 9479SOL    HW139899   3.897   0.619   3.689  2.4017 -0.7145 -1.0210
 9479SOL    HW239900   3.900   0.618   3.843 -1.0144 -0.1928 -0.1226
 9480SOL     OW39901   0.583   3.686   3.696  0.1811  0.0852  0.1776
 9480SOL    HW139902   0.500   3.700   3.651  0.5136  0.6085 -0.2883
 9480SOL    HW239903   0.577   3.596   3.727 -1.1262  0.1572  0.1382
 9481SOL     OW39904   2.429   2.746   3.864 -0.5072 -0.1987 -0.1235
 9481SOL    HW139905   2.500   2.776   3.808 -1.4093 -1.2702 -1.8625
 9481SOL    HW239906   2.380   2.701   3.796  1.5594 -2.8494  0.1428
 9482SOL     OW39907   3.178   1.226  11.788  0.5423  0.2842 -0.4114
 9482SOL    HW139908   3.187   1.321  11.800 -0.9301  0.1336  2.0072
 9482SOL    HW239909   3.083   1.214  11.790  0.2952  2.5728  2.4613
 9483SOL     OW39910   2.497   2.378   4.706  0.5707  0.4320  0.3482
 9483SOL    HW139911   2.480   2.287   4.731 -0.4195  0.2504 -1.0186
 9483SOL    HW239912   2.518   2.404   4.796  0.7331 -1.2236  0.8036
 9484SOL     OW39913   1.812   0.489  13.267 -0.5562 -0.3820  0.3831
 9484SOL    HW139914   1.828   0.497  13.173  0.3767 -0.6059  0.5300
 9484SOL    HW239915   1.900   0.487  13.303 -0.2094 -1.8982 -0.5494
 9485SOL     OW39916   0.021   2.433   6.139 -0.2341 -0.3067  0.0480
 9485SOL    HW139917   4.690   2.482   6.075  1.8042  0.4820 -1.0054
 9485SOL    HW239918   4.676   2.389   6.192 -0.6706 -0.9269 -1.0082
 9486SOL     OW39919   2.683   3.897   9.532 -0.4397 -0.2613  0.4824
 9486SOL    HW139920   2.640   3.831   9.477  1.2197 -1.6034  0.8120
 9486SOL    HW239921   2.615   3.959   9.558 -1.6802 -2.4048  2.3956
 9487SOL     OW39922   1.075   2.338   4.935  0.0563 -0.0705 -0.0825
 9487SOL    HW139923   1.141   2.300   4.876 -2.1584 -1.3954 -1.6821
 9487SOL    HW239924   1.103   2.429   4.925 -0.3568  0.1875  1.1180
 9488SOL     OW39925   2.044   4.082  15.448  0.3942  0.3244 -0.2789
 9488SOL    HW139926   2.049   4.092  15.353  0.5434 -2.1098 -0.5312
 9488SOL    HW239927   2.042   4.174  15.473  0.7874  0.5607 -1.1342
 9489SOL     OW39928   1.283   4.296   7.277  0.6733 -0.2396 -0.4035
 9489SOL    HW139929   1.372   4.287   7.311  0.6443  0.8415 -0.0322
 9489SOL    HW239930   1.261   4.208   7.248  0.7984 -0.3880 -0.0415
 9490SOL     OW39931   2.165   2.815  11.571  0.1655 -0.2656  0.1625
 9490SOL    HW139932   2.230   2.854  11.512  2.4171 -2.1947  1.4045
 9490SOL    HW239933   2.197   2.829  11.660  2.5664 -1.1444 -0.5784
 9491SOL     OW39934   1.847   4.313   3.392 -0.1749 -0.6479 -0.2726
 9491SOL    HW139935   1.820   4.373   3.461 -0.8160 -2.7346  1.2948
 9491SOL    HW239936   1.920   4.277   3.444 -0.9639  1.8231  2.4974
 9492SOL     OW39937   3.984   2.676   3.860 -0.3596  0.1407 -0.0585
 9492SOL    HW139938   3.991   2.656   3.953 -0.8930 -0.1796 -0.0903
 9492SOL    HW239939   3.931   2.755   3.858 -1.4409 -0.5883  0.0048
 9493SOL     OW39940   3.217   2.793   1.971 -0.1173 -0.4299  0.2119
 9493SOL    HW139941   3.152   2.863   1.976 -1.0004 -1.2463 -0.0836
 9493SOL    HW239942   3.195   2.768   1.882  2.1799 -0.9986 -0.1957
 9494SOL     OW39943   3.126   2.528  13.520  0.1361  0.1323  0.1191
 9494SOL    HW139944   3.091   2.617  13.532  0.8291  0.1477  2.0040
 9494SOL    HW239945   3.072   2.472  13.576  1.6531 -0.3691  1.0587
 9495SOL     OW39946   4.072   2.299   3.994  0.1391 -0.0222 -0.0575
 9495SOL    HW139947   4.153   2.271   4.036  1.0114  2.0718 -0.3828
 9495SOL    HW239948   4.099   2.347   3.916  0.5615 -1.0315 -0.5312
 9496SOL     OW39949   2.284   3.058   9.242 -0.3588 -0.1201  0.4061
 9496SOL    HW139950   2.246   3.081   9.327  0.1912  0.3216  0.5334
 9496SOL    HW239951   2.354   2.996   9.262 -1.5148 -1.5881 -0.0826
 9497SOL     OW39952   0.078   0.120  14.668 -0.3044  0.2572 -0.5109
 9497SOL    HW139953   0.141   0.183  14.634 -1.5057  0.8196 -1.6833
 9497SOL    HW239954   0.022   0.176  14.721 -0.9768 -1.0380  0.1493
 9498SOL     OW39955   0.043   0.766   1.684 -0.9614 -0.1729 -0.0837
 9498SOL    HW139956   0.038   0.673   1.661  1.3249 -0.2450 -0.3151
 9498SOL    HW239957   0.063   0.798   1.596 -0.1087  1.1428  0.5800
 9499SOL     OW39958   4.027   2.755   6.600  0.0853  0.1588 -0.2492
 9499SOL    HW139959   4.100   2.736   6.541 -0.5893  1.8629 -1.6530
 9499SOL    HW239960   4.053   2.751   6.692 -1.7545  0.7286  0.3127
 9500SOL     OW39961   1.071   3.753   3.876  0.7380 -0.6093  0.2345
 9500SOL    HW139962   1.007   3.693   3.914 -1.2348  1.7326  0.6297
 9500SOL    HW239963   1.156   3.710   3.887  1.9871  1.9630  0.6057
 9501SOL     OW39964   1.977   4.376   3.138  0.0718  0.5538  0.1783
 9501SOL    HW139965   1.950   4.342   3.223 -0.2967 -2.1626 -1.0276
 9501SOL    HW239966   1.969   4.300   3.081 -3.3680  0.6014  0.5712
 9502SOL     OW39967   1.983   3.965  14.973 -0.1020 -0.8847 -0.2240
 9502SOL    HW139968   1.999   3.872  14.961  1.2272 -0.5216 -1.2013
 9502SOL    HW239969   2.068   4.001  14.999 -0.8971  0.4052  0.6191
 9503SOL     OW39970   3.230   0.322   6.665 -0.0492  0.0583  0.2084
 9503SOL    HW139971   3.233   0.289   6.755 -0.0952  1.3844  0.6982
 9503SOL    HW239972   3.234   0.417   6.677  0.5314 -0.2890  2.6698
 9504SOL     OW39973   4.714   3.170   6.814 -0.7292  0.3322  0.6842
 9504SOL    HW139974   0.057   3.180   6.885 -0.1445 -1.1078  0.3589
 9504SOL    HW239975   0.007   3.079   6.789 -1.1899 -0.0373  1.7876
 9505SOL     OW39976   0.805   3.412   7.836  0.2114  0.2497 -0.4883
 9505SOL    HW139977   0.814   3.350   7.908  0.9192  2.9089  1.6741
 9505SOL    HW239978   0.759   3.478   7.888  1.0703  1.1863 -0.9136
 9506SOL     OW39979   1.071   0.670   0.554 -0.3831 -0.4066  0.1512
 9506SOL    HW139980   1.001   0.734   0.540  0.0161 -0.8094 -3.6374
 9506SOL    HW239981   1.092   0.649   0.463  1.2015  1.7499  0.0176
 9507SOL     OW39982   2.819   1.084   8.193 -0.2014 -0.6326 -0.1560
 9507SOL    HW139983   2.906   1.087   8.232 -0.0873 -0.3900 -0.4282
 9507SOL    HW239984   2.765   1.047   8.263  0.0027  2.5887  1.6467
 9508SOL     OW39985   3.529   4.311   6.559 -0.0898 -0.0278 -0.2736
 9508SOL    HW139986   3.455   4.340   6.613 -0.7329 -0.4281 -0.9424
 9508SOL    HW239987   3.600   4.361   6.598 -1.9981 -1.1870  4.7183
 9509SOL     OW39988   3.788   1.862   8.107 -0.2916  1.1290 -0.0436
 9509SOL    HW139989   3.803   1.909   8.190 -1.6697 -1.2692  1.5478
 9509SOL    HW239990   3.740   1.929   8.058 -3.3507  0.1904  1.6622
 9510SOL     OW39991   4.651   1.459   7.391 -0.4453  0.4112  0.7876
 9510SOL    HW139992   4.573   1.414   7.424 -0.8578 -0.6958 -1.7564
 9510SOL    HW239993   4.668   1.528   7.456 -1.5293  0.8159  0.6397
 9511SOL     OW39994   4.587   4.031   9.654  0.8383  0.4852 -0.1690
 9511SOL    HW139995   4.503   4.059   9.619  0.5283 -0.9037 -0.5041
 9511SOL    HW239996   4.641   4.055   9.578  0.8916  0.2073 -0.2187
 9512SOL     OW39997   2.730   1.250   7.025  0.0154 -0.2213 -0.6786
 9512SOL    HW139998   2.663   1.189   6.994 -2.8319  1.9853  1.1103
 9512SOL    HW239999   2.689   1.255   7.111  0.1888 -0.2309 -0.5964
 9513SOL     OW40000   1.428   2.063  12.856  0.2605  0.2535 -0.8909
 9513SOL    HW140001   1.440   2.081  12.763  2.8544  0.5131 -0.5098
 9513SOL    HW240002   1.342   2.022  12.851  0.5145 -0.4083  0.1278
 9514SOL     OW40003   1.215   3.552   7.526 -0.3453 -0.2221  0.4374
 9514SOL    HW140004   1.197   3.642   7.499 -1.3670 -0.7905 -0.7272
 9514SOL    HW240005   1.151   3.545   7.596 -0.7848  1.4094  0.2037
 9515SOL     OW40006   3.477   1.090   7.766  0.2697 -0.1370 -0.0713
 9515SOL    HW140007   3.533   1.136   7.703  0.3283 -1.2327 -0.8402
 9515SOL    HW240008   3.394   1.101   7.720  0.4992 -1.3630 -0.8000
 9516SOL     OW40009   4.307   4.701   3.603 -0.1119  0.2114 -0.2439
 9516SOL    HW140010   4.356   0.003   3.682  0.7477 -0.8067 -0.4877
 9516SOL    HW240011   4.260   4.624   3.635 -1.8825  2.1026  1.7070
 9517SOL     OW40012   3.238   1.343   6.113 -0.4634  0.3333 -0.0427
 9517SOL    HW140013   3.206   1.253   6.109 -1.6104  0.7878 -0.9960
 9517SOL    HW240014   3.292   1.345   6.033 -0.3317 -3.5120 -0.0333
 9518SOL     OW40015   1.803   2.709   2.252 -0.4189 -0.1168 -0.4629
 9518SOL    HW140016   1.897   2.694   2.267 -0.8643 -1.9599  0.5476
 9518SOL    HW240017   1.797   2.703   2.157  0.2280 -1.4838 -0.4221
 9519SOL     OW40018   2.587   2.445   4.941 -0.0050  0.1087 -0.0832
 9519SOL    HW140019   2.600   2.364   4.990  0.9831  0.1513 -0.2743
 9519SOL    HW240020   2.673   2.484   4.934 -0.0706  0.2143 -0.2898
 9520SOL     OW40021   4.667   4.269   6.837 -0.8819 -0.1634 -0.5010
 9520SOL    HW140022   4.613   4.192   6.859  0.9089 -0.8618  1.4263
 9520SOL    HW240023   4.612   4.316   6.774 -2.1316 -2.6338 -1.2908
 9521SOL     OW40024   4.138   2.520   7.803  0.3596 -0.0471 -0.3140
 9521SOL    HW140025   4.055   2.515   7.851  0.7281  0.6044  0.3798
 9521SOL    HW240026   4.198   2.494   7.872 -0.9921 -2.8128 -0.1725
 9522SOL     OW40027   4.138   4.053   2.351 -0.6160 -0.2861  0.1024
 9522SOL    HW140028   4.183   4.124   2.396 -1.7241  1.7338 -1.9612
 9522SOL    HW240029   4.178   4.054   2.264  0.3557  0.8294  0.5748
 9523SOL     OW40030   2.647   0.178   2.779  0.9385  0.6129  0.3179
 9523SOL    HW140031   2.731   0.142   2.808  0.7262  0.0122  0.1716
 9523SOL    HW240032   2.649   0.171   2.683  0.8273  0.6056  0.3160
 9524SOL     OW40033   3.116   0.459   9.142 -0.3422  0.0131 -0.4305
 9524SOL    HW140034   3.112   0.545   9.183 -0.8165  0.6587 -1.8121
 9524SOL    HW240035   3.202   0.461   9.100 -0.3234  0.9307 -0.3569
 9525SOL     OW40036   3.986   2.976   3.946 -0.4428 -0.1832  0.3751
 9525SOL    HW140037   4.001   2.905   4.008 -0.5372 -1.8682 -1.5276
 9525SOL    HW240038   3.896   3.001   3.967 -0.6738  0.4004 -1.2429
 9526SOL     OW40039   4.114   2.510  13.475 -0.0085  0.5176 -0.2381
 9526SOL    HW140040   4.074   2.451  13.539 -0.7931  0.3093 -0.9127
 9526SOL    HW240041   4.179   2.557  13.527 -0.5164 -0.0789  0.9321
 9527SOL     OW40042   1.029   2.911   4.082 -0.1091 -0.2009 -0.5194
 9527SOL    HW140043   0.990   2.859   4.012 -1.1511  0.5925 -0.5270
 9527SOL    HW240044   1.010   2.995   4.040  0.3237 -1.0528 -2.4317
 9528SOL     OW40045   4.461   0.770   8.639 -0.2147  0.2949  0.2200
 9528SOL    HW140046   4.418   0.693   8.602 -1.1171  1.1971 -0.6122
 9528SOL    HW240047   4.537   0.775   8.581  1.7805 -2.6825  2.5817
 9529SOL     OW40048   3.639   0.719  13.165 -0.2146  0.2125  0.5499
 9529SOL    HW140049   3.615   0.636  13.124  2.0085  0.4252 -1.1431
 9529SOL    HW240050   3.734   0.710  13.174 -0.0242 -0.4026 -2.1563
 9530SOL     OW40051   2.271   0.529  13.908  0.6315  0.5831 -0.1016
 9530SOL    HW140052   2.347   0.567  13.952 -0.5139 -0.0186  2.3986
 9530SOL    HW240053   2.270   0.581  13.827 -0.7333  1.2587  0.3395
 9531SOL     OW40054   3.977   4.288  16.246  0.0549 -0.3000  0.2910
 9531SOL    HW140055   3.913   4.331  16.189  0.3856 -0.4905 -0.2250
 9531SOL    HW240056   4.057   4.340  16.238  0.7030 -1.4442 -0.6486
 9532SOL     OW40057   3.031   1.952  13.012 -1.0041 -0.1173 -1.0561
 9532SOL    HW140058   3.050   2.040  12.979 -1.0280  0.5530  0.7152
 9532SOL    HW240059   2.936   1.963  13.023 -0.8122  0.3689  0.1494
 9533SOL     OW40060   3.923   3.925  17.491  0.3334 -0.4862 -0.2364
 9533SOL    HW140061   3.908   4.012  17.454 -1.3410 -0.7394 -0.1632
 9533SOL    HW240062   3.870   3.933  17.570 -0.7883  1.4639 -1.1562
 9534SOL     OW40063   0.655   0.639   1.806  0.2987  0.0926 -0.4362
 9534SOL    HW140064   0.587   0.691   1.848 -2.0079 -4.2520  1.2354
 9534SOL    HW240065   0.640   0.550   1.840 -1.0807  0.8188  0.8399
 9535SOL     OW40066   3.254   1.072   7.279 -0.3288  0.3331 -0.6260
 9535SOL    HW140067   3.278   1.160   7.306 -1.5271  0.9963 -1.7170
 9535SOL    HW240068   3.160   1.071   7.296 -0.2847  0.4039 -0.3703
 9536SOL     OW40069   2.054   1.520   8.397  0.6034  0.7781 -0.1060
 9536SOL    HW140070   2.148   1.509   8.414  0.0096 -4.4449 -0.1989
 9536SOL    HW240071   2.031   1.428   8.399 -0.4014  1.0281 -0.8300
 9537SOL     OW40072   0.498   3.281   9.058 -0.3973 -0.2727  0.5412
 9537SOL    HW140073   0.549   3.348   9.013 -1.4183  0.9065  1.1244
 9537SOL    HW240074   0.561   3.209   9.056 -0.0676  0.0536 -0.6487
 9538SOL     OW40075   0.623   1.114   7.833 -0.4080  0.0257  0.1648
 9538SOL    HW140076   0.660   1.185   7.885 -1.0189  0.1048  0.4867
 9538SOL    HW240077   0.531   1.117   7.859  0.1544  0.5788  2.0953
 9539SOL     OW40078   1.028   3.200  11.188 -0.7874  0.3517 -0.7558
 9539SOL    HW140079   0.963   3.135  11.214 -0.5697  0.9489  1.2763
 9539SOL    HW240080   0.976   3.251  11.125  0.3526 -0.0541 -2.0067
 9540SOL     OW40081   3.279   0.648   0.538 -0.3840 -0.1970  0.1808
 9540SOL    HW140082   3.324   0.704   0.601 -0.8985  1.8848 -1.3076
 9540SOL    HW240083   3.268   0.567   0.588  0.0640 -0.3681 -0.0029
 9541SOL     OW40084   3.381   2.905  14.869  0.4259  0.2485 -0.2544
 9541SOL    HW140085   3.313   2.945  14.816  0.9895  2.7542  0.9180
 9541SOL    HW240086   3.334   2.890  14.950  1.8660  0.9340  0.7152
 9542SOL     OW40087   4.460   0.224   1.588 -0.4457  0.0045 -0.2311
 9542SOL    HW140088   4.488   0.195   1.675  0.3355  2.6748  0.3928
 9542SOL    HW240089   4.541   0.219   1.536 -0.6061  0.6021 -0.5358
 9543SOL     OW40090   2.262   1.604   3.303 -0.2563  0.7584 -0.3112
 9543SOL    HW140091   2.175   1.609   3.263 -0.8776  0.8024  1.0568
 9543SOL    HW240092   2.305   1.644   3.227  0.0390 -1.6377 -1.3822
 9544SOL     OW40093   3.038   3.084   6.705 -0.1549  0.2552  0.6698
 9544SOL    HW140094   3.007   3.026   6.636 -0.0693 -1.1944  1.8661
 9544SOL    HW240095   2.991   3.164   6.682  0.8090  0.9370  1.0430
 9545SOL     OW40096   4.095   4.176   1.755 -0.3117  0.0665 -0.1096
 9545SOL    HW140097   4.005   4.170   1.724 -0.6817 -4.2094  1.7795
 9545SOL    HW240098   4.113   4.083   1.764  2.4899  0.9738  3.7047
 9546SOL     OW40099   0.715   0.850   4.055 -0.2276  0.1789  0.6216
 9546SOL    HW140100   0.721   0.934   4.009 -0.9081  0.7601  1.5939
 9546SOL    HW240101   0.777   0.798   4.005  0.3141  0.4006  1.0637
 9547SOL     OW40102   3.167   4.145   2.684  0.6946 -0.3025 -0.4568
 9547SOL    HW140103   3.105   4.162   2.612  1.0908 -1.0092 -0.9658
 9547SOL    HW240104   3.235   4.090   2.645  0.0943 -1.2161 -0.2189
 9548SOL     OW40105   1.457   2.248  11.694  0.0129  0.3474  0.0187
 9548SOL    HW140106   1.515   2.184  11.652 -1.7947 -0.6643 -0.9429
 9548SOL    HW240107   1.397   2.184  11.733 -0.1046  0.8068  0.5906
 9549SOL     OW40108   3.556   0.238   8.400  0.3148  0.0587 -0.1723
 9549SOL    HW140109   3.567   0.333   8.390 -2.2915  0.5352  1.3269
 9549SOL    HW240110   3.641   0.211   8.434 -0.4591 -1.1341  0.7869
 9550SOL     OW40111   2.694   4.317   9.653  0.0874  0.2409 -0.4002
 9550SOL    HW140112   2.779   4.324   9.609  0.1964  0.1488 -0.2075
 9550SOL    HW240113   2.668   4.236   9.610  0.9724 -0.8518  1.1021
 9551SOL     OW40114   1.671   3.226   4.972  0.2593  0.4359  0.2162
 9551SOL    HW140115   1.665   3.303   4.915  0.9334 -0.6206 -1.2764
 9551SOL    HW240116   1.588   3.183   4.953  0.5349 -0.1274  0.3135
 9552SOL     OW40117   3.843   1.501   8.794  0.5057 -0.0279  0.2632
 9552SOL    HW140118   3.811   1.417   8.761 -0.5613  0.7828 -0.7886
 9552SOL    HW240119   3.769   1.550   8.829  1.4864  1.0269  0.8656
 9553SOL     OW40120   0.719   3.304   4.927  0.0439 -0.2483 -0.9678
 9553SOL    HW140121   0.685   3.250   4.855  1.1472 -0.0734 -1.6281
 9553SOL    HW240122   0.765   3.379   4.890  0.7731 -0.0976  0.2351
 9554SOL     OW40123   3.756   4.438   8.308 -0.6111 -0.0403  0.1669
 9554SOL    HW140124   3.728   4.524   8.339 -0.8890 -0.6543  1.6246
 9554SOL    HW240125   3.816   4.469   8.240 -1.1427  0.0985 -0.2418
 9555SOL     OW40126   4.647   0.797  11.155  0.1193 -0.4206  0.2641
 9555SOL    HW140127   4.672   0.807  11.063 -0.4985  1.9222  0.3467
 9555SOL    HW240128   4.589   0.872  11.164 -1.0017 -1.1999 -0.4376
 9556SOL     OW40129   4.422   0.280   4.583  0.4919  0.6812 -0.0604
 9556SOL    HW140130   4.493   0.336   4.613  0.2468  1.7434 -1.4890
 9556SOL    HW240131   4.393   0.232   4.661 -0.3385  0.3372 -0.5758
 9557SOL     OW40132   0.318   3.044   3.504  0.4381 -0.4032  0.2165
 9557SOL    HW140133   0.304   3.086   3.419  1.5417 -0.4687  0.0030
 9557SOL    HW240134   0.237   2.993   3.498 -0.0043  0.5647 -2.3569
 9558SOL     OW40135   4.133   2.611   5.513  0.3025 -0.6233  0.4937
 9558SOL    HW140136   4.040   2.631   5.529  0.6244  2.0169 -1.0131
 9558SOL    HW240137   4.159   2.567   5.594 -2.5418  0.2596  1.9142
 9559SOL     OW40138   0.354   1.559  12.053 -0.2718 -0.0697 -0.1193
 9559SOL    HW140139   0.283   1.516  12.100 -1.3771 -0.1774 -1.8974
 9559SOL    HW240140   0.366   1.498  11.981 -0.3884 -0.2674  0.0312
 9560SOL     OW40141   2.992   2.612   1.281  0.0164  0.1162  0.1004
 9560SOL    HW140142   2.954   2.670   1.216  0.9362 -0.6797 -1.1302
 9560SOL    HW240143   2.984   2.660   1.364  1.5145  1.5382 -0.5896
 9561SOL     OW40144   2.508   3.082   3.629  0.5867 -0.0259  0.0609
 9561SOL    HW140145   2.413   3.070   3.617  0.7035  0.9009 -1.8022
 9561SOL    HW240146   2.526   3.069   3.722  2.4332 -1.8248 -0.5470
 9562SOL     OW40147   0.233   3.967   7.991  0.0896  0.3872  0.0075
 9562SOL    HW140148   0.173   3.892   7.984  0.0169  0.1619  2.7296
 9562SOL    HW240149   0.256   3.963   8.084  1.9349 -1.6950 -0.5518
 9563SOL     OW40150   3.528   2.858   3.462  0.3297  0.5524 -0.0779
 9563SOL    HW140151   3.595   2.806   3.419  0.7176  1.2671 -0.3197
 9563SOL    HW240152   3.518   2.932   3.402  0.4436 -0.7922 -1.7538
 9564SOL     OW40153   4.680   0.819   4.493 -0.5260  0.4470 -0.2856
 9564SOL    HW140154   4.649   0.742   4.446  3.1285 -0.1853 -1.6652
 9564SOL    HW240155   0.009   0.854   4.419  0.6533 -1.5691 -0.4514
 9565SOL     OW40156   3.783   4.266   5.077 -0.2684  0.4381  0.2904
 9565SOL    HW140157   3.747   4.304   4.997 -1.5367 -1.3943 -0.0232
 9565SOL    HW240158   3.703   4.220   5.103 -0.3048 -0.7453 -1.9127
 9566SOL     OW40159   2.740   0.898   5.959 -0.8779 -0.0778  0.6254
 9566SOL    HW140160   2.726   0.809   5.992  0.1554 -0.4011  0.2033
 9566SOL    HW240161   2.730   0.891   5.864  0.4979 -4.0129  0.7760
 9567SOL     OW40162   2.786   0.964   3.008  0.4457 -0.2094  0.0784
 9567SOL    HW140163   2.722   0.976   3.078 -0.3496 -1.4289 -0.4489
 9567SOL    HW240164   2.808   0.871   3.012 -0.5340 -0.4626 -0.5607
 9568SOL     OW40165   0.831   1.800   5.664 -0.1816  0.0748  0.2425
 9568SOL    HW140166   0.792   1.853   5.594 -0.8996  1.0480  1.3641
 9568SOL    HW240167   0.759   1.738   5.673  1.1589 -1.2821  1.5236
   4.72078   4.72078  17.68557
